Membrane in water
40167
    1TCq1    O1    1   1.052   2.449  10.733 -0.3538  0.7277  0.1581
    1TCq1    C1    2   1.094   2.354  10.649 -0.1102  0.4901  0.3627
    1TCq1    O2    3   1.197   2.358  10.585  0.1849 -0.2375  0.0344
    1TCq1    C2    4   0.974   2.348  10.570 -0.4227  0.0337  1.2324
    1TCq1    C3    5   0.996   2.357  10.437 -0.6085 -0.3412 -0.8124
    1TCq1    C4    6   0.899   2.296  10.357  0.6984  0.0213  0.2835
    1TCq1    C5    7   0.795   2.223  10.408  0.5913 -0.0912 -0.4386
    1TCq1    C6    8   0.794   2.207  10.543 -0.4602 -0.3374 -0.3969
    1TCq1    C7    9   0.877   2.273  10.626 -0.5264  0.1100  0.8848
    1TCq1    C8   10   0.688   2.130  10.610  0.5809  0.1063  0.3818
    1TCq1    O4   11   0.650   2.169  10.717  0.1721  0.0868  0.2099
    1TCq1    C9   12   0.918   2.298  10.214  0.4027  0.4834 -0.1484
    1TCq1    O5   13   1.011   2.375  10.171 -0.1014 -0.0345 -0.1006
    1TCq1    O6   14   0.863   2.207  10.142 -0.0301 -0.3338 -0.2803
    1TCq1    H1   15   0.954   2.457  10.741 -0.6431 -2.5108 -0.2079
    1TCq1    H2   16   1.082   2.402  10.388 -1.0093 -0.7116 -1.8715
    1TCq1    H3   17   0.721   2.170  10.349  1.8062 -2.8470  0.4591
    1TCq1    H4   18   0.876   2.250  10.732  1.7767 -1.6481  0.5381
    2MPD2     C   19   0.393   1.705  10.630 -0.6794 -0.2855 -0.3609
    2MPD2    C1   20   0.404   1.810  10.715 -0.3257  0.4131 -0.0124
    2MPD2    C2   21   0.485   1.915  10.682  0.7430 -0.4182 -0.5716
    2MPD2    C3   22   0.562   1.915  10.567 -0.0867  0.4760 -0.2014
    2MPD2    C4   23   0.565   1.799  10.494 -0.7370 -0.1347 -0.2076
    2MPD2    C5   24   0.474   1.702  10.521 -0.3911 -0.0415 -0.5478
    2MPD2     H   25   0.472   2.003  10.744  1.6589 -1.3733  0.9577
    2MPD2    H1   26   0.638   1.788  10.415 -0.2829  1.5031 -0.0246
    2MPD2    H2   27   0.331   1.619  10.651 -0.5089 -0.5820 -1.0630
    2MPD2    H3   28   0.468   1.609  10.466 -2.0823 -0.3369  0.1306
    2MPD2     N   29   0.653   2.020  10.535 -0.3929  0.1338  0.2029
    2MPD2    H5   30   0.729   1.999  10.471 -1.1230 -0.2516 -0.5280
    2MPD2    N1   31   0.338   1.825  10.840  0.0232  0.3427 -0.3963
    2MPD2    H7   32   0.356   1.914  10.886 -0.9296  1.2606 -1.7890
    3TCq1    O1   33   0.271   3.401  11.479  0.0983 -0.9141  0.4515
    3TCq1    C1   34   0.269   3.456  11.366  0.2441 -0.6081 -0.0620
    3TCq1    O2   35   0.274   3.394  11.258 -0.2778 -0.3054 -0.0921
    3TCq1    C2   36   0.193   3.580  11.367  0.4195  1.5400  0.6559
    3TCq1    C3   37   0.214   3.656  11.472  0.6246 -0.1012 -0.0240
    3TCq1    C4   38   0.150   3.780  11.460  0.2101 -0.6750  0.6006
    3TCq1    C5   39   0.069   3.812  11.355  1.0304  0.1259 -0.9964
    3TCq1    C6   40   0.046   3.721  11.261  0.0386 -0.0569 -0.4650
    3TCq1    C7   41   0.114   3.602  11.265  0.4002  0.5629  0.3553
    3TCq1    C8   42   4.655   3.735  11.167 -0.1107  0.4287 -0.6399
    3TCq1    O4   43   4.638   3.648  11.081 -0.4740 -0.1516  0.3904
    3TCq1    C9   44   0.178   3.886  11.558 -0.3713  0.1851  0.7595
    3TCq1    O5   45   0.224   3.840  11.665 -0.2022  0.1340 -0.2620
    3TCq1    O6   46   0.175   4.008  11.520 -0.2455  0.2709 -0.4929
    3TCq1    H1   47   0.271   3.458  11.559  1.0533  0.2826 -0.3955
    3TCq1    H2   48   0.283   3.635  11.553  0.3248  1.9666  0.7744
    3TCq1    H3   49   0.045   3.917  11.341 -1.8816 -0.4003  0.1116
    3TCq1    H4   50   0.087   3.524  11.196 -0.4499  1.0340  0.1574
    4MPD2     C   51   4.285   4.032  10.965 -0.3267  0.0862  0.6539
    4MPD2    C1   52   4.330   4.090  11.088 -0.6572  0.8228 -0.0411
    4MPD2    C2   53   4.435   4.031  11.158  0.5602  0.5010  0.1090
    4MPD2    C3   54   4.488   3.914  11.111 -0.2418 -0.4575  0.0725
    4MPD2    C4   55   4.454   3.865  10.985  0.2762  0.5873  0.1938
    4MPD2    C5   56   4.368   3.933  10.912 -0.1086  0.8200  0.2466
    4MPD2     H   57   4.453   4.065  11.259 -0.2906  2.9394 -0.5423
    4MPD2    H1   58   4.497   3.775  10.943  3.7436  2.3227  0.0172
    4MPD2    H2   59   4.203   4.074  10.909  0.2933  2.1139  1.2612
    4MPD2    H3   60   4.350   3.898  10.811  1.3712  2.1951 -0.5041
    4MPD2     N   61   4.589   3.854  11.189 -0.0246 -0.4377 -0.2959
    4MPD2    H5   62   4.599   3.885  11.285  0.1441  0.0937 -0.4846
    4MPD2    N1   63   4.244   4.185  11.154 -0.4297  0.0301  0.1313
    4MPD2    H7   64   4.271   4.219  11.246  0.5038 -2.5002  0.7988
    5TCq1    O1   65   4.310   0.334  10.340  0.0109  0.0637 -0.0765
    5TCq1    C1   66   4.435   0.331  10.395 -0.5420  0.7453 -1.4578
    5TCq1    O2   67   4.491   0.421  10.466  0.2941  0.0120 -0.8500
    5TCq1    C2   68   4.468   0.188  10.397 -0.1569  0.2888  0.4173
    5TCq1    C3   69   4.368   0.094  10.388 -0.2547 -0.4247  0.3440
    5TCq1    C4   70   4.394   4.685  10.410  0.1367 -0.4351  0.0089
    5TCq1    C5   71   4.521   4.646  10.434 -0.4410  0.5103 -0.1437
    5TCq1    C6   72   4.618   0.017  10.443  0.7723  0.0084  0.4853
    5TCq1    C7   73   4.592   0.153  10.426  0.8576  0.0842  0.0176
    5TCq1    C8   74   0.031   4.707  10.481  0.1810  0.3016  0.2492
    5TCq1    O4   75   0.047   4.613  10.566  0.1554 -0.4848 -0.8817
    5TCq1    C9   76   4.288   4.586  10.401  0.4088 -0.0135  0.1479
    5TCq1    O5   77   4.169   4.623  10.386  0.8212 -0.4766 -0.2151
    5TCq1    O6   78   4.325   4.467  10.379 -0.1284  0.2856 -0.5492
    5TCq1    H1   79   4.294   0.263  10.275  0.9561  1.6142 -1.9914
    5TCq1    H2   80   4.263   0.118  10.381  0.0471  1.0694  0.8650
    5TCq1    H3   81   4.538   4.543  10.462  0.1095  0.5365 -0.3829
    5TCq1    H4   82   4.667   0.227  10.450 -0.4828  0.6105  2.5551
    6MPD2     C   83   0.319   0.055  10.268 -0.4786  0.0727 -0.4402
    6MPD2    C1   84   0.252   0.011  10.381 -0.3631 -0.2717 -0.1006
    6MPD2    C2   85   0.321   4.687  10.488 -0.0374 -0.7239  0.0597
    6MPD2    C3   86   0.453   4.674  10.479  0.1625 -0.5179 -0.3235
    6MPD2    C4   87   0.526   4.713  10.363 -0.7853  0.8506  0.0215
    6MPD2    C5   88   0.450   0.054  10.265  0.7760  0.8159 -0.3990
    6MPD2     H   89   0.265   4.661  10.577 -0.5795 -0.2499 -0.1413
    6MPD2    H1   90   0.632   4.700  10.345 -1.3311 -1.1285 -1.8184
    6MPD2    H2   91   0.266   0.107  10.190 -1.3043 -0.0918  0.0115
    6MPD2    H3   92   0.508   0.104  10.188  1.7132 -0.2634 -0.3977
    6MPD2     N   93   0.521   4.605  10.584  0.1565 -0.4847  0.0824
    6MPD2    H5   94   0.459   4.566  10.654  0.1373  1.2777  1.0347
    6MPD2    N1   95   0.112   0.043  10.389 -0.4432  0.0904 -0.0708
    6MPD2    H7   96   0.073   0.100  10.315  2.4207  0.2807 -1.4671
    7TCq1    O1   97   2.945   0.181  13.951 -0.0123  0.8261  0.6541
    7TCq1    C1   98   3.076   0.167  13.928  0.5255  0.4832 -0.0280
    7TCq1    O2   99   3.169   0.241  13.967 -0.8540  0.0883 -0.3288
    7TCq1    C2  100   3.074   0.120  13.788  0.1553 -1.0691  0.2728
    7TCq1    C3  101   3.117   0.207  13.697 -0.1704 -0.3542  0.1301
    7TCq1    C4  102   3.075   0.188  13.570 -0.2991  0.1701 -0.4777
    7TCq1    C5  103   3.016   0.075  13.525  0.8447  0.0962  0.0524
    7TCq1    C6  104   2.980   4.704  13.615  0.3791  0.3411  0.2587
    7TCq1    C7  105   3.005   0.003  13.751 -0.1466  0.3612  0.1517
    7TCq1    C8  106   2.877   4.614  13.572 -0.3002 -0.0434  0.1505
    7TCq1    O4  107   2.850   4.522  13.649 -0.0508  0.2094  0.1700
    7TCq1    C9  108   3.112   0.291  13.473 -0.9129  0.3231  0.0078
    7TCq1    O5  109   3.041   0.299  13.367  0.0854 -0.2203 -0.6897
    7TCq1    O6  110   3.178   0.384  13.522  0.2263  0.4068 -0.3888
    7TCq1    H1  111   2.882   0.131  13.896  0.6731  0.7598 -0.0764
    7TCq1    H2  112   3.168   0.297  13.731  0.9848 -0.3569 -1.5662
    7TCq1    H3  113   3.001   0.058  13.419  0.6021  0.4133  0.0370
    7TCq1    H4  114   2.969   4.654  13.825 -1.9405  0.4715 -0.6092
    8MPD2     C  115   2.512   4.440  13.250  0.1766 -0.0415 -0.5657
    8MPD2    C1  116   2.585   4.378  13.346 -0.3202  0.3358 -0.8078
    8MPD2    C2  117   2.678   4.444  13.423  0.4134 -0.2068 -0.0443
    8MPD2    C3  118   2.701   4.577  13.401  0.3078 -0.0401 -0.6582
    8MPD2    C4  119   2.626   4.636  13.309 -0.0505 -0.1572 -0.3410
    8MPD2    C5  120   2.536   4.573  13.234 -0.0998  0.2323  0.3007
    8MPD2     H  121   2.720   4.387  13.506  0.6212  0.8730  0.5871
    8MPD2    H1  122   2.643   0.018  13.286 -1.4780 -0.3430 -2.2772
    8MPD2    H2  123   2.426   4.398  13.199 -0.1461 -1.3176  1.0378
    8MPD2    H3  124   2.486   4.630  13.156  1.1674 -1.1195 -1.5274
    8MPD2     N  125   2.804   4.653  13.460 -0.2102  0.4689 -0.0389
    8MPD2    H5  126   2.818   0.028  13.436 -0.1151  0.5231  0.2387
    8MPD2    N1  127   2.545   4.248  13.370 -0.4283 -0.1988  0.3692
    8MPD2    H7  128   2.503   4.204  13.288 -0.7583  1.0970 -0.1483
    9TCq1    O1  129   4.164   2.391  10.357 -0.2715 -0.2659  0.0773
    9TCq1    C1  130   4.209   2.515  10.321  0.7655 -0.5190 -1.0099
    9TCq1    O2  131   4.199   2.618  10.388 -0.3552  0.6717  0.3071
    9TCq1    C2  132   4.324   2.490  10.241 -0.6253  0.0736 -0.1436
    9TCq1    C3  133   4.314   2.380  10.158 -0.6608 -0.0178  0.7547
    9TCq1    C4  134   4.425   2.319  10.118  0.9881  0.5470 -0.0599
    9TCq1    C5  135   4.544   2.377  10.139 -0.1871 -0.4450  0.0480
    9TCq1    C6  136   4.542   2.496  10.202 -0.2032  0.7494 -0.0796
    9TCq1    C7  137   4.436   2.559  10.262  0.3310  0.8358  0.8178
    9TCq1    C8  138   4.672   2.539  10.248  0.0670  0.2164 -0.1922
    9TCq1    O4  139   0.041   2.492  10.184  0.3889 -0.3536  0.1095
    9TCq1    C9  140   4.415   2.208  10.026  0.4467 -0.0517 -0.4363
    9TCq1    O5  141   4.510   2.180   9.945  0.5608  0.4123  0.6082
    9TCq1    O6  142   4.308   2.144  10.031 -1.1145 -0.0712 -0.2040
    9TCq1    H1  143   4.214   2.316  10.318 -1.1079 -1.7543  1.8424
    9TCq1    H2  144   4.217   2.345  10.124  0.4748  1.4806 -4.0526
    9TCq1    H3  145   4.632   2.337  10.089  0.2960 -0.7030  1.1090
    9TCq1    H4  146   4.429   2.650  10.320 -0.0989  2.1480 -1.3025
   10MPD2     C  147   0.194   2.640  10.385  0.6377  0.0519 -0.6775
   10MPD2    C1  148   0.071   2.642  10.439  1.1174 -0.2306 -0.1658
   10MPD2    C2  149   0.056   2.695  10.565  0.0657  0.6313  0.4052
   10MPD2    C3  150   0.152   2.755  10.646  0.3126 -0.5756 -0.7798
   10MPD2    C4  151   0.278   2.755  10.584  0.4640  0.0153  0.4155
   10MPD2    C5  152   0.290   2.709  10.454 -0.2342  0.8412 -0.0654
   10MPD2     H  153   4.684   2.667  10.610  0.0899 -2.0511 -1.2163
   10MPD2    H1  154   0.366   2.797  10.630  0.4944 -0.0262  0.3951
   10MPD2    H2  155   0.205   2.611  10.281 -1.2100  1.7478 -1.3462
   10MPD2    H3  156   0.385   2.728  10.404 -0.4975  1.2457 -0.4194
   10MPD2     N  157   0.130   2.802  10.786 -0.4119  0.7459 -0.5898
   10MPD2    H5  158   0.205   2.843  10.840  0.2365  0.9171 -1.6052
   10MPD2    N1  159   4.675   2.594  10.372 -0.3803 -0.7598 -0.8547
   10MPD2    H7  160   4.590   2.586  10.427  1.5483 -1.1043  2.1154
   11TCq1    O1  161   1.330   3.629  13.899 -0.5354  0.0925 -0.5345
   11TCq1    C1  162   1.319   3.495  13.910  0.2303 -0.0348 -0.3705
   11TCq1    O2  163   1.308   3.420  13.817 -0.2934 -0.1291  0.1867
   11TCq1    C2  164   1.249   3.465  14.043 -0.0889 -0.4212  0.0423
   11TCq1    C3  165   1.310   3.505  14.161  0.2608 -0.1073 -0.0475
   11TCq1    C4  166   1.233   3.502  14.275 -0.1256 -0.1023 -0.9406
   11TCq1    C5  167   1.105   3.457  14.273  0.2140  0.1763  0.5563
   11TCq1    C6  168   1.053   3.417  14.153 -0.2762 -0.4612  0.0233
   11TCq1    C7  169   1.126   3.414  14.038  0.6461  0.6157  0.3421
   11TCq1    C8  170   0.910   3.383  14.142  0.1718 -0.4161  0.1067
   11TCq1    O4  171   0.835   3.439  14.221 -0.3521  0.0522 -0.0371
   11TCq1    C9  172   1.300   3.536  14.401 -0.6342 -0.1652  0.0401
   11TCq1    O5  173   1.420   3.513  14.410 -0.0701  0.0566  0.7809
   11TCq1    O6  174   1.222   3.577  14.492 -0.1883  0.6079 -0.2633
   11TCq1    H1  175   1.312   3.672  13.985  1.7535 -1.5133  0.7239
   11TCq1    H2  176   1.412   3.539  14.171  0.4083 -0.4585 -0.3481
   11TCq1    H3  177   1.049   3.469  14.365 -1.7607  0.3403 -0.6658
   11TCq1    H4  178   1.085   3.398  13.939  0.6086  0.7167  0.3407
   12MPD2     C  179   0.653   3.362  14.010 -0.1652 -0.1538  0.1513
   12MPD2    C1  180   0.754   3.276  13.983 -0.1177 -0.0511  0.4263
   12MPD2    C2  181   0.721   3.160  13.916 -0.4681  0.2145  0.2062
   12MPD2    C3  182   0.595   3.137  13.860 -0.7338 -0.0896  0.2216
   12MPD2    C4  183   0.499   3.236  13.894  0.9053 -0.0276 -0.2354
   12MPD2    C5  184   0.527   3.345  13.972 -0.4448  0.1128 -0.2999
   12MPD2     H  185   0.810   3.098  13.904 -1.2315 -1.0502  1.0990
   12MPD2    H1  186   0.399   3.231  13.851  0.5498 -0.8213  0.6965
   12MPD2    H2  187   0.676   3.458  14.055  2.3155 -0.2506 -0.9175
   12MPD2    H3  188   0.455   3.425  13.987 -1.2996 -0.7219  0.0422
   12MPD2     N  189   0.569   3.027  13.772 -0.3391  0.1101 -0.0559
   12MPD2    H5  190   0.643   2.959  13.760 -0.1787  0.2145  0.3520
   12MPD2    N1  191   0.878   3.294  14.037  1.0073  0.8166 -0.0523
   12MPD2    H7  192   0.954   3.248  13.986 -0.6796 -2.4322  0.3469
   13TCq1    O1  193   4.266   1.523  11.061  0.6022 -0.3203 -0.5049
   13TCq1    C1  194   4.261   1.431  10.960 -0.2106  0.4434 -0.1106
   13TCq1    O2  195   4.161   1.369  10.938 -0.0853  0.2822 -0.0164
   13TCq1    C2  196   4.331   1.486  10.849  0.3393  0.5529  0.1705
   13TCq1    C3  197   4.359   1.394  10.752 -0.0778 -0.4329 -0.2352
   13TCq1    C4  198   4.408   1.451  10.638 -0.5448  0.5896  0.0240
   13TCq1    C5  199   4.409   1.589  10.617  0.3907  0.3104  0.1277
   13TCq1    C6  200   4.366   1.672  10.709  0.9553 -0.3129 -1.2219
   13TCq1    C7  201   4.319   1.619  10.828  0.0956  0.0874 -0.5049
   13TCq1    C8  202   4.361   1.817  10.701 -0.1116  0.2227 -0.8246
   13TCq1    O4  203   4.299   1.879  10.786 -0.1646  0.6077  0.1375
   13TCq1    C9  204   4.465   1.372  10.534  0.4677  0.6132  0.9279
   13TCq1    O5  205   4.453   1.246  10.556  0.5365  0.1777  0.4449
   13TCq1    O6  206   4.548   1.423  10.457 -0.6520 -0.5477  0.5699
   13TCq1    H1  207   4.356   1.562  11.067  0.4879  0.3484 -3.0839
   13TCq1    H2  208   4.364   1.287  10.763  0.3704 -0.2600  1.1892
   13TCq1    H3  209   4.454   1.624  10.524 -0.4202  0.4481 -0.2097
   13TCq1    H4  210   4.267   1.681  10.901 -1.6646  1.2900 -2.7784
   14MPD2     C  211   4.513   2.025  10.428 -0.7394 -0.4160 -0.0403
   14MPD2    C1  212   4.443   1.999  10.545  0.3818 -0.3156 -0.4087
   14MPD2    C2  213   4.421   2.106  10.628 -0.9713  0.2070  0.2020
   14MPD2    C3  214   4.463   2.233  10.598 -0.6165 -0.0903  0.8432
   14MPD2    C4  215   4.528   2.256  10.478 -0.2038  0.3086 -0.4829
   14MPD2    C5  216   4.557   2.145  10.397  0.0002  0.1919  0.0266
   14MPD2     H  217   4.365   2.095  10.720 -1.6070  2.5670  0.0871
   14MPD2    H1  218   4.572   2.353  10.457  0.1187  0.3225  0.2521
   14MPD2    H2  219   4.533   1.941  10.362 -0.9430 -0.3240 -0.2185
   14MPD2    H3  220   4.614   2.153  10.305  1.1010 -0.3558  0.6620
   14MPD2     N  221   4.428   2.335  10.692 -0.3657 -0.1408 -0.3246
   14MPD2    H5  222   4.382   2.310  10.778  0.0652  0.4219  0.0673
   14MPD2    N1  223   4.409   1.862  10.579 -0.9829  0.3409 -0.2357
   14MPD2    H7  224   4.426   1.784  10.517  1.1533  0.7472 -0.1478
   15TCq1    O1  225   0.913   1.230   1.773 -0.2595 -0.3914  0.1597
   15TCq1    C1  226   0.962   1.315   1.673  1.1599 -0.3313 -0.4918
   15TCq1    O2  227   0.920   1.306   1.560 -0.2411  0.6017 -0.1811
   15TCq1    C2  228   1.108   1.308   1.697  0.4268 -0.0945  0.1016
   15TCq1    C3  229   1.155   1.310   1.824  0.6465  0.1134 -0.2531
   15TCq1    C4  230   1.291   1.307   1.835 -0.0082  0.0376 -0.4347
   15TCq1    C5  231   1.378   1.314   1.728  0.7461  0.4046 -0.3017
   15TCq1    C6  232   1.316   1.307   1.599  0.0448 -0.1388  0.0269
   15TCq1    C7  233   1.183   1.311   1.579 -0.0301  0.2232 -0.0021
   15TCq1    C8  234   1.411   1.310   1.489 -0.4555 -1.1401  0.1038
   15TCq1    O4  235   1.520   1.263   1.507  0.4885 -0.1596  0.1740
   15TCq1    C9  236   1.361   1.312   1.968 -0.2331 -0.6452  0.4430
   15TCq1    O5  237   1.491   1.332   1.976 -0.3512  0.1368 -0.6759
   15TCq1    O6  238   1.283   1.314   2.069 -0.3544  0.2890 -0.1279
   15TCq1    H1  239   0.976   1.203   1.843  0.2789 -0.1369 -0.2277
   15TCq1    H2  240   1.089   1.331   1.908  0.0728  1.4123 -1.0311
   15TCq1    H3  241   1.486   1.313   1.733  0.7178  1.1028  0.4749
   15TCq1    H4  242   1.141   1.310   1.479 -2.0621 -0.5057  0.8519
   16MPD2     C  243   1.370   1.423   1.145  0.4602 -0.2644 -0.2194
   16MPD2    C1  244   1.439   1.387   1.260  1.1740 -0.0387 -0.5000
   16MPD2    C2  245   1.578   1.365   1.252 -0.6128 -0.3333  0.1085
   16MPD2    C3  246   1.643   1.376   1.128 -0.5471 -0.2567  0.0446
   16MPD2    C4  247   1.580   1.421   1.014 -0.4095  0.2346 -0.0389
   16MPD2    C5  248   1.443   1.451   1.029  1.2172 -0.6681 -0.0042
   16MPD2     H  249   1.635   1.339   1.341 -0.1389  1.8444  0.4418
   16MPD2    H1  250   1.639   1.457   0.931 -0.1181  1.7462  0.8051
   16MPD2    H2  251   1.263   1.438   1.151  0.4787 -0.1163 -0.2458
   16MPD2    H3  252   1.390   1.493   0.945 -0.2221  0.3868  1.4326
   16MPD2     N  253   1.780   1.347   1.126  0.4113 -0.1809  0.5885
   16MPD2    H5  254   1.829   1.332   1.215  0.7058  0.1791  0.4856
   16MPD2    N1  255   1.366   1.383   1.384 -0.3667 -0.3215 -0.0286
   16MPD2    H7  256   1.270   1.415   1.379 -0.3002  0.1666  1.6951
   17TCq1    O1  257   4.260   2.062  11.242  0.4426  0.2151 -0.1598
   17TCq1    C1  258   4.380   2.082  11.288 -0.2548 -0.5390  0.4124
   17TCq1    O2  259   4.413   2.048  11.400 -0.1212 -0.0242  0.2022
   17TCq1    C2  260   4.466   2.034  11.187 -0.0377 -0.2023  0.0564
   17TCq1    C3  261   4.470   1.899  11.162  0.2374  0.6600  0.5994
   17TCq1    C4  262   4.532   1.859  11.052 -0.0009  0.2950  1.0777
   17TCq1    C5  263   4.595   1.946  10.969  0.1332  1.6926 -0.8571
   17TCq1    C6  264   4.604   2.077  10.990 -0.3507  0.4903  0.4797
   17TCq1    C7  265   4.535   2.122  11.104  0.6480 -0.2638  0.2749
   17TCq1    C8  266   4.673   2.173  10.906  0.1355 -0.2266 -0.3876
   17TCq1    O4  267   4.693   2.282  10.954  0.0957  0.0148 -0.4827
   17TCq1    C9  268   4.542   1.717  11.020 -0.1224  0.7052 -0.0098
   17TCq1    O5  269   4.490   1.632  11.102 -0.5233  0.1082 -0.0243
   17TCq1    O6  270   4.608   1.685  10.919  0.1202  0.3092 -0.4764
   17TCq1    H1  271   4.253   2.087  11.147  0.7858  1.0247  0.0270
   17TCq1    H2  272   4.426   1.828  11.230 -2.1492 -0.2471 -1.8677
   17TCq1    H3  273   4.635   1.890  10.885  1.2583  3.3795 -1.4428
   17TCq1    H4  274   4.523   2.223  11.140 -1.2998  0.0123 -1.1342
   18MPD2     C  275   0.150   2.292  10.716 -0.4281  0.8924  0.0996
   18MPD2    C1  276   0.086   2.176  10.691  0.5177 -0.0838 -0.2010
   18MPD2    C2  277   0.132   2.103  10.584 -0.4084  0.0484  0.3515
   18MPD2    C3  278   0.235   2.137  10.503  1.1443  0.2059  0.0380
   18MPD2    C4  279   0.292   2.262  10.524 -0.3113 -0.5031 -0.2418
   18MPD2    C5  280   0.245   2.339  10.629  0.0236  0.7420  0.3590
   18MPD2     H  281   0.085   2.013  10.547 -0.9087 -0.5757  2.4803
   18MPD2    H1  282   0.361   2.317  10.462  0.7468  0.1102  1.4994
   18MPD2    H2  283   0.121   2.360  10.795  0.4136 -0.6430  1.7202
   18MPD2    H3  284   0.283   2.440  10.638  1.3781  0.4242 -1.8604
   18MPD2     N  285   0.286   2.063  10.394  0.6788  0.2661 -0.4001
   18MPD2    H5  286   0.374   2.099  10.359  1.5131 -0.3714  1.0209
   18MPD2    N1  287   4.711   2.119  10.782 -0.0483  0.1824  0.3010
   18MPD2    H7  288   4.680   2.025  10.760 -1.2473  0.3894  1.1215
   19TMC2    C1  289   1.922   2.590  13.534 -0.4968  0.4429  0.1940
   19TMC2    C2  290   1.912   2.668  13.416 -0.4171  0.5269  0.4530
   19TMC2    C3  291   1.818   2.635  13.323 -0.6124 -0.4338  0.3683
   19TMC2    C4  292   1.827   2.494  13.561  0.5658  0.1316 -0.3695
   19TMC2    C5  293   1.741   2.468  13.459  0.0365 -0.4353 -0.7655
   19TMC2    C6  294   1.735   2.532  13.338 -0.1710  0.0533 -0.4543
   19TMC2     C  295   2.006   2.648  13.638  0.7644  0.3391  0.3242
   19TMC2     O  296   2.045   2.766  13.617  0.1490 -0.4292  0.1066
   19TMC2     H  297   1.985   2.746  13.398  0.7738 -1.0329 -1.6165
   19TMC2    H1  298   1.811   2.447  13.657  0.9498  1.4523  0.3424
   19TMC2    H2  299   1.682   2.496  13.252 -2.2207 -0.6588  1.1091
   19TMC2    C7  300   1.624   2.392  13.495 -0.5614 -0.0107 -0.6282
   19TMC2    C8  301   1.779   2.736  13.228 -0.1982  0.6053  0.5652
   19TMC2    O1  302   1.622   2.321  13.598  0.3274  0.2283  0.4052
   19TMC2    O2  303   1.779   2.718  13.109  0.2173  0.0314  0.1721
   19TMC2    O5  304   1.795   2.857  13.292 -0.3746 -0.5174 -0.0770
   19TMC2    H5  305   1.779   2.848  13.389 -0.7220 -0.9646 -0.1784
   20MPD2     C  306   2.153   2.739  13.882  0.0438 -0.0917  0.0004
   20MPD2    C1  307   2.112   2.615  13.852  0.4179  0.5136  0.0740
   20MPD2    C2  308   2.148   2.511  13.938  0.1901  0.6321  0.1401
   20MPD2    C3  309   2.215   2.543  14.055 -0.1815 -0.3513 -0.0608
   20MPD2    C4  310   2.256   2.668  14.076 -0.0776  1.5612 -0.4911
   20MPD2    C5  311   2.227   2.770  13.989  0.1715  0.1848 -1.0906
   20MPD2     H  312   2.120   2.411  13.908 -0.3509  1.6836 -2.8023
   20MPD2    H1  313   2.302   2.693  14.171 -0.4395  0.2907  0.0211
   20MPD2    H2  314   2.124   2.826  13.825 -0.4291 -0.1076  0.2130
   20MPD2    H3  315   2.256   2.873  14.007 -0.2219  0.7021 -3.4041
   20MPD2     N  316   2.238   2.454  14.162 -0.1476  0.8965 -0.4836
   20MPD2    H5  317   2.297   2.500  14.230 -1.6870  2.2422 -0.0532
   20MPD2    N1  318   2.038   2.570  13.740 -0.0206  0.1882 -0.4884
   20MPD2    H7  319   2.020   2.471  13.734 -1.2619  0.3870 -0.0698
   21MPD2     C  320   4.468   3.553  14.462  0.6589  0.0134 -0.2892
   21MPD2    C1  321   4.479   3.436  14.383  0.4293  0.5204  0.1529
   21MPD2    C2  322   4.363   3.381  14.331  0.3796 -0.1727 -0.6626
   21MPD2    C3  323   4.238   3.435  14.352 -0.2738 -0.0307  0.6234
   21MPD2    C4  324   4.228   3.544  14.439  0.3586 -0.7148  0.7990
   21MPD2    C5  325   4.342   3.603  14.485 -0.1162 -0.0918 -0.7846
   21MPD2     H  326   4.388   3.286  14.286  1.4717 -0.0921 -0.2291
   21MPD2    H1  327   4.129   3.585  14.454 -0.4354 -3.0347  1.9283
   21MPD2    H2  328   4.549   3.607  14.508  2.2411 -1.3025 -1.5509
   21MPD2    H3  329   4.332   3.690  14.548  0.5958  0.5067 -1.5038
   21MPD2     N  330   4.121   3.372  14.313 -0.2804  0.2964  0.5116
   21MPD2    H5  331   4.028   3.407  14.333 -0.4989 -1.1227  1.9709
   21MPD2    N1  332   4.601   3.383  14.341 -0.2107  0.4096  1.1760
   21MPD2    H7  333   4.602   3.310  14.271 -1.2884  0.8963  0.6660
   22TCq2    C1  334   4.110   3.263  14.230  0.0343 -0.0914 -0.7328
   22TCq2    O2  335   4.193   3.194  14.168  0.1714  0.0733  0.7267
   22TCq2    C2  336   3.970   3.214  14.231 -0.3494 -0.0672 -0.7957
   22TCq2    C3  337   3.926   3.183  14.104  0.1246  0.4255 -0.0014
   22TCq2    C4  338   3.790   3.187  14.079 -0.3729 -0.4701 -0.0743
   22TCq2    C5  339   3.700   3.224  14.174 -0.3099 -0.5769  1.3754
   22TCq2    C6  340   3.745   3.261  14.300  0.7427 -0.4209  0.5063
   22TCq2    C7  341   3.884   3.260  14.326 -0.3798 -0.5694 -0.0556
   22TCq2    C8  342   3.677   3.363  14.373  0.5156  0.4027  0.4275
   22TCq2    O4  343   3.711   3.369  14.490 -0.2566  0.2003 -0.1120
   22TCq2    C9  344   3.730   3.161  13.949  0.2264 -0.0432  0.0033
   22TCq2    O5  345   3.609   3.178  13.932 -0.6269 -0.0881 -0.1202
   22TCq2    O6  346   3.804   3.118  13.855 -0.1168  0.3232  0.1823
   22TCq2    H2  347   3.998   3.170  14.025  0.0668  2.3091 -0.3627
   22TCq2    H3  348   3.595   3.230  14.150 -0.7221  0.0359  3.4092
   22TCq2    H4  349   3.922   3.273  14.427 -0.6482  0.7736 -0.1232
   23MPD2     C  350   1.011   4.129  14.446 -0.5038  0.0678  0.5548
   23MPD2    C1  351   0.901   4.138  14.530 -0.4671 -0.2087 -0.2548
   23MPD2    C2  352   0.798   4.230  14.499  0.6663  0.2253  0.6892
   23MPD2    C3  353   0.807   4.314  14.390  0.5737  0.6283  0.0468
   23MPD2    C4  354   0.921   4.307  14.309  0.8504 -0.3267  0.7377
   23MPD2    C5  355   1.019   4.213  14.338  0.6193  0.2259  0.5728
   23MPD2     H  356   0.714   4.248  14.566  0.8622  1.5698  0.5703
   23MPD2    H1  357   0.941   4.370  14.223 -0.5455 -0.2134  0.5005
   23MPD2    H2  358   1.091   4.056  14.454 -1.6708 -1.1940  0.7874
   23MPD2    H3  359   1.108   4.203  14.277 -0.8779 -3.4796 -1.0362
   23MPD2     N  360   0.707   4.402  14.358  0.3450 -0.1620 -0.1114
   23MPD2    H5  361   0.723   4.449  14.269  2.4937 -1.0318 -0.1910
   23MPD2    N1  362   0.894   4.067  14.652  0.1737 -0.6568 -0.4584
   23MPD2    H7  363   0.818   4.081  14.717  1.7188  1.6226  0.8499
   24TCq2    C1  364   0.581   4.402  14.409 -0.1081  0.1140  0.1241
   24TCq2    O2  365   0.528   4.335  14.499  0.3492  0.1552  0.0083
   24TCq2    C2  366   0.495   4.474  14.319 -0.5442  0.7992 -0.4378
   24TCq2    C3  367   0.539   4.539  14.200 -0.0908 -0.5860 -0.2516
   24TCq2    C4  368   0.439   4.588  14.114  0.0072  0.0301 -0.0921
   24TCq2    C5  369   0.307   4.556  14.133 -0.3166  0.0952 -0.9682
   24TCq2    C6  370   0.276   4.480  14.242 -0.2299  0.0264 -0.0728
   24TCq2    C7  371   0.362   4.453  14.339  0.5960  0.0364  0.1937
   24TCq2    C8  372   0.145   4.452  14.282  0.2265 -0.5323  0.0711
   24TCq2    O4  373   0.137   4.366  14.371 -0.3809  0.3416 -0.3871
   24TCq2    C9  374   0.464   4.648  13.989  0.4291 -0.6043 -0.2434
   24TCq2    O5  375   0.583   4.680  13.967  0.3098  0.1309 -0.2453
   24TCq2    O6  376   0.362   4.702  13.931  0.2716 -1.0429 -0.0090
   24TCq2    H2  377   0.641   4.551  14.164  0.0353 -1.0143 -0.0449
   24TCq2    H3  378   0.231   4.592  14.066  0.0613  1.3663 -0.7099
   24TCq2    H4  379   0.334   4.408  14.434  0.5449  0.9711  0.6252
   25TMC2    C1  380   4.286   1.641  11.397 -0.4783 -0.0930 -0.2151
   25TMC2    C2  381   4.378   1.547  11.365 -0.8811  0.1516 -0.6203
   25TMC2    C3  382   4.490   1.551  11.439 -0.5502  0.9851 -0.8722
   25TMC2    C4  383   4.316   1.745  11.476 -0.1213  0.4047 -0.1156
   25TMC2    C5  384   4.429   1.743  11.552  0.7471 -0.2337  0.0039
   25TMC2    C6  385   4.511   1.630  11.547  0.7633 -0.0589 -0.1156
   25TMC2     C  386   4.149   1.611  11.377 -0.1047  0.8111 -0.9977
   25TMC2     O  387   4.070   1.705  11.396  0.0788 -0.3253 -0.4033
   25TMC2     H  388   4.356   1.467  11.294 -3.1020  0.2929 -0.0850
   25TMC2    H1  389   4.256   1.835  11.485  0.5022  0.8726 -0.6879
   25TMC2    H2  390   4.603   1.631  11.605 -0.3442 -1.6027  1.6408
   25TMC2    C7  391   4.433   1.809  11.679  0.0318  0.7634 -0.0152
   25TMC2    C8  392   4.602   1.478  11.382 -0.3791 -0.4986 -0.1391
   25TMC2    O1  393   4.443   1.739  11.780 -0.1393  0.2572 -0.3312
   25TMC2    O2  394   4.678   1.410  11.450  0.0420  0.3926 -0.2341
   25TMC2    O5  395   4.584   1.451  11.253 -0.4896  0.3517 -0.3139
   25TMC2    H5  396   4.537   1.516  11.197  0.5817  2.0039  0.6923
   26MPD2     C  397   3.740   1.307  11.398 -0.0616 -0.0685  0.1412
   26MPD2    C1  398   3.853   1.227  11.385  0.2910  0.0765  0.4289
   26MPD2    C2  399   3.976   1.278  11.385  0.2132  0.0140 -0.1887
   26MPD2    C3  400   3.985   1.424  11.388  0.4934  0.3644  0.2872
   26MPD2    C4  401   3.869   1.501  11.387  0.3187  0.1332  0.4844
   26MPD2    C5  402   3.747   1.439  11.392  0.6216  0.7226  0.0921
   26MPD2     H  403   4.068   1.221  11.388  0.7392  0.8503 -0.1568
   26MPD2    H1  404   3.856   1.608  11.392  1.1181  0.1808  1.4004
   26MPD2    H2  405   3.642   1.263  11.412 -2.2334  4.6659 -0.0296
   26MPD2    H3  406   3.657   1.497  11.376 -0.8341 -2.0809 -2.0475
   26MPD2     N  407   4.115   1.478  11.370 -0.2584  0.0325  0.2411
   26MPD2    H5  408   4.188   1.408  11.365 -0.7139 -0.4668  0.5294
   26MPD2    N1  409   3.843   1.086  11.379 -0.0045  0.2512 -0.1002
   26MPD2    H7  410   3.750   1.049  11.396 -0.3208  1.4826  0.8363
   27TMC2    C1  411   2.784   3.412  11.670  0.1570  0.4159 -1.4276
   27TMC2    C2  412   2.895   3.388  11.596  0.2564 -0.1787 -0.0688
   27TMC2    C3  413   2.993   3.488  11.582 -0.4811  0.2149  0.3502
   27TMC2    C4  414   2.760   3.535  11.710  0.8834  0.5280 -0.2747
   27TMC2    C5  415   2.851   3.639  11.681  0.1015  0.0496 -0.3817
   27TMC2    C6  416   2.968   3.616  11.621 -0.0101  0.9824 -0.2732
   27TMC2     C  417   2.762   3.306  11.765  0.5034  0.4329  0.0407
   27TMC2     O  418   2.791   3.190  11.734  0.9827 -0.2861  0.7727
   27TMC2     H  419   2.931   3.285  11.592 -1.1691 -0.5734 -2.5238
   27TMC2    H1  420   2.677   3.564  11.773  1.2569 -0.1138  0.5136
   27TMC2    H2  421   3.048   3.689  11.614  2.5189 -1.4052  2.9368
   27TMC2    C7  422   2.865   3.708  11.803 -0.0563 -0.0712  0.2231
   27TMC2    C8  423   3.127   3.449  11.537  1.1587  0.3999 -0.3185
   27TMC2    O1  424   2.895   3.828  11.799 -0.2232  0.3140 -0.1637
   27TMC2    O2  425   3.223   3.525  11.552  0.4839  0.1968  0.2253
   27TMC2    O5  426   3.122   3.346  11.450  0.1959 -0.1625  0.8049
   27TMC2    H5  427   3.035   3.301  11.441 -1.4274  2.9164  1.0380
   28MPD2     C  428   2.625   3.116  12.218  0.1374 -0.0266  0.5857
   28MPD2    C1  429   2.576   3.247  12.213  0.5061  0.4818  0.0638
   28MPD2    C2  430   2.609   3.322  12.107  0.1253 -0.0658  0.3169
   28MPD2    C3  431   2.686   3.275  12.000  0.2942 -0.6565  0.1420
   28MPD2    C4  432   2.738   3.144  12.013  0.0325  0.2006 -0.2786
   28MPD2    C5  433   2.709   3.064  12.125  0.5579 -0.1031  0.6114
   28MPD2     H  434   2.571   3.424  12.098 -2.5238 -1.0661  0.1925
   28MPD2    H1  435   2.817   3.111  11.947 -0.4901 -0.0485 -0.7774
   28MPD2    H2  436   2.594   3.037  12.285  0.5953 -0.2817  0.4978
   28MPD2    H3  437   2.751   2.966  12.141 -2.5689 -1.1399  2.4126
   28MPD2     N  438   2.709   3.352  11.881  0.0745 -0.1468  0.2990
   28MPD2    H5  439   2.669   3.444  11.892  1.0052  0.1697  1.0043
   28MPD2    N1  440   2.496   3.289  12.327 -0.8153 -0.2419  1.0957
   28MPD2    H7  441   2.464   3.219  12.393 -0.4794 -1.3528  0.0642
   29MPD2     C  442   2.299   0.674  13.955  0.1054 -0.3471  0.3457
   29MPD2    C1  443   2.309   0.680  14.097 -0.5190  0.9165 -0.2518
   29MPD2    C2  444   2.308   0.806  14.163 -0.2849 -0.0141 -0.3369
   29MPD2    C3  445   2.302   0.921  14.092  0.4515 -0.3425 -0.1768
   29MPD2    C4  446   2.292   0.913  13.955 -0.0114 -0.4301  0.2953
   29MPD2    C5  447   2.298   0.792  13.895  0.0450 -0.9080 -0.5601
   29MPD2     H  448   2.318   0.806  14.271  1.6338 -1.9026 -0.5377
   29MPD2    H1  449   2.280   1.002  13.894 -1.2953  0.7398  2.2340
   29MPD2    H2  450   2.304   0.585  13.893 -1.6792 -0.8235  0.8804
   29MPD2    H3  451   2.287   0.797  13.787 -0.1504 -0.0185 -0.4940
   29MPD2     N  452   2.304   1.051  14.149  0.1769  0.1468 -0.3271
   29MPD2    H5  453   2.294   1.125  14.081 -0.0342  0.5023  0.0948
   29MPD2    N1  454   2.328   0.567  14.177 -0.0984 -0.0094  0.3182
   29MPD2    H7  455   2.345   0.583  14.276  0.5814  0.4639  0.1199
   30TCq2    C1  456   2.329   1.082  14.279  0.4687  0.3360  0.3871
   30TCq2    O2  457   2.344   1.001  14.369 -0.0792  0.7552  0.0788
   30TCq2    C2  458   2.326   1.219  14.317  0.8455 -0.3174 -0.3285
   30TCq2    C3  459   2.313   1.244  14.451  0.2411 -0.0660  0.0819
   30TCq2    C4  460   2.342   1.368  14.504 -0.0004 -0.4345 -0.0242
   30TCq2    C5  461   2.386   1.470  14.417  0.0334 -0.4479  0.3141
   30TCq2    C6  462   2.409   1.437  14.291 -0.3406 -0.3631  0.4964
   30TCq2    C7  463   2.373   1.316  14.234  0.2875  0.6030  0.7226
   30TCq2    C8  464   2.450   1.537  14.197  0.1660  0.7021  0.1097
   30TCq2    O4  465   2.442   1.516  14.077 -0.3230  0.0421 -0.1435
   30TCq2    C9  466   2.328   1.388  14.646 -1.1408  0.1143 -0.3424
   30TCq2    O5  467   2.329   1.284  14.715  0.3218  0.5762 -0.0376
   30TCq2    O6  468   2.353   1.506  14.686 -0.2826  0.3088 -0.0053
   30TCq2    H2  469   2.283   1.162  14.516  0.1533  0.8708  1.2244
   30TCq2    H3  470   2.379   1.570  14.459 -1.2103  0.6790 -2.6467
   30TCq2    H4  471   2.412   1.287  14.137  0.6533  0.6437  0.8584
   31MPD2     C  472   0.583   0.331  14.738 -0.2321  0.7308  0.0389
   31MPD2    C1  473   0.465   0.326  14.686  0.9539 -0.3856  0.4139
   31MPD2    C2  474   0.357   0.240  14.732  0.2226 -0.2303 -0.4937
   31MPD2    C3  475   0.388   0.164  14.848 -0.1380 -0.8561  0.1507
   31MPD2    C4  476   0.514   0.166  14.901 -0.9444 -0.6460 -0.4120
   31MPD2    C5  477   0.608   0.250  14.847  0.6481 -0.6947  0.5744
   31MPD2     H  478   0.258   0.234  14.690 -0.7513 -0.6762  1.8520
   31MPD2    H1  479   0.542   0.117  14.993 -0.3046  1.7364  0.6671
   31MPD2    H2  480   0.662   0.394  14.699  0.6459 -0.2660  0.2111
   31MPD2    H3  481   0.708   0.259  14.889  0.1661 -0.1723  1.6076
   31MPD2     N  482   0.288   0.091  14.920  0.0607 -0.4663  0.7009
   31MPD2    H5  483   0.318   0.025  14.990  1.4337  3.1827  3.5318
   31MPD2    N1  484   0.450   0.416  14.579 -0.4384 -0.0977  0.1303
   31MPD2    H7  485   0.530   0.472  14.550 -0.7108  0.4465  0.4206
   32TCq2    C1  486   0.153   0.105  14.899 -0.2997 -0.1091 -0.0856
   32TCq2    O2  487   0.088   0.161  14.813 -0.1700 -0.2242  0.4372
   32TCq2    C2  488   0.077   0.018  14.982  0.0304  0.0578 -0.0491
   32TCq2    C3  489   4.666   0.025  14.961 -0.0058  0.3182 -0.6877
   32TCq2    C4  490   4.589   4.688  15.055  0.3221 -0.3801 -0.4950
   32TCq2    C5  491   4.631   4.612  15.159  0.0161  0.4310  0.1390
   32TCq2    C6  492   0.042   4.592  15.174  0.1206 -0.6983  0.7638
   32TCq2    C7  493   0.128   4.669  15.089  0.0464  0.1353  0.2339
   32TCq2    C8  494   0.103   4.559  15.301  0.4212  0.6210  0.1700
   32TCq2    O4  495   0.225   4.533  15.301 -0.3205  0.3068 -0.6866
   32TCq2    C9  496   4.443   4.700  15.039  0.1406 -0.6788  0.2019
   32TCq2    O5  497   4.373   4.654  15.129  0.0596 -0.4603 -0.2191
   32TCq2    O6  498   4.399   0.076  14.978  0.2956  0.4248  0.1942
   32TCq2    H2  499   4.611   0.082  14.886  0.5494  2.0884  0.2462
   32TCq2    H3  500   4.562   4.552  15.217  1.8837  0.9180  2.8694
   32TCq2    H4  501   0.235   4.668  15.106  0.1675  0.0055 -0.5087
   33MPD2     C  502   0.517   2.393   9.937 -0.3409 -0.3637 -0.3748
   33MPD2    C1  503   0.522   2.264   9.889  0.1725 -0.4097  0.3359
   33MPD2    C2  504   0.552   2.254   9.756  0.5941  0.0705  0.1044
   33MPD2    C3  505   0.576   2.360   9.673  0.1893 -0.9746 -0.8257
   33MPD2    C4  506   0.579   2.485   9.730  0.5035  0.3302  0.2892
   33MPD2    C5  507   0.540   2.507   9.856 -0.4963 -0.1324  0.2015
   33MPD2     H  508   0.568   2.157   9.711  1.5751  0.6236 -0.7472
   33MPD2    H1  509   0.608   2.572   9.672 -2.1998  0.7661 -0.4168
   33MPD2    H2  510   0.491   2.410  10.041  3.4422 -4.0960  1.1546
   33MPD2    H3  511   0.538   2.611   9.888  0.6258  0.4075 -1.4566
   33MPD2     N  512   0.606   2.347   9.532 -0.0130 -1.1183  0.1502
   33MPD2    H5  513   0.640   2.432   9.489 -2.4405 -1.5182 -2.5962
   33MPD2    N1  514   0.479   2.154   9.967 -0.7986 -0.8663 -0.0197
   33MPD2    H7  515   0.476   2.158  10.068  1.0848 -2.6070  0.1081
   34TCq2    C1  516   0.562   2.238   9.457 -0.5364  0.4905  0.5041
   34TCq2    O2  517   0.476   2.157   9.487  0.0105  0.7413 -0.0203
   34TCq2    C2  518   0.628   2.241   9.326  0.1042 -0.3082 -0.2767
   34TCq2    C3  519   0.560   2.188   9.219 -0.6395 -0.5857 -0.0113
   34TCq2    C4  520   0.610   2.203   9.091 -0.7767  0.0184 -0.3327
   34TCq2    C5  521   0.718   2.278   9.066 -0.7041  0.2077 -0.1627
   34TCq2    C6  522   0.791   2.334   9.168  0.6268 -0.5147  0.1491
   34TCq2    C7  523   0.746   2.314   9.300  0.1857  0.8426 -0.3207
   34TCq2    C8  524   0.928   2.393   9.143 -0.2543 -0.7820  0.2105
   34TCq2    O4  525   0.958   2.479   9.223  0.0754 -0.3672 -0.3252
   34TCq2    C9  526   0.550   2.141   8.983  0.4317  0.2970 -0.3686
   34TCq2    O5  527   0.612   2.147   8.873  0.4948  0.6674 -0.1253
   34TCq2    O6  528   0.447   2.078   9.003  0.6121  0.0435 -0.1843
   34TCq2    H2  529   0.461   2.148   9.240 -0.6598  0.4384  1.8477
   34TCq2    H3  530   0.742   2.304   8.964 -0.2634  0.0049 -0.1140
   34TCq2    H4  531   0.808   2.349   9.381 -0.2635 -1.8513  1.1808
   35MPD2     C  532   2.557   3.913  11.811 -0.4274  0.1589 -0.4347
   35MPD2    C1  533   2.422   3.878  11.811 -0.6499  0.7978  0.0148
   35MPD2    C2  534   2.354   3.875  11.694  0.0767  0.2440 -0.3225
   35MPD2    C3  535   2.423   3.899  11.574 -0.3243  0.1157 -1.0611
   35MPD2    C4  536   2.555   3.935  11.580  0.1879 -0.4039 -0.6050
   35MPD2    C5  537   2.618   3.959  11.694 -0.4001  0.1479  0.5902
   35MPD2     H  538   2.248   3.854  11.694  0.4619 -1.7044 -2.3600
   35MPD2    H1  539   2.612   3.957  11.490  0.4750  1.2698 -0.0077
   35MPD2    H2  540   2.614   3.910  11.903 -0.6959 -1.6855 -0.3303
   35MPD2    H3  541   2.721   3.993  11.691  0.2860 -1.7616  2.0336
   35MPD2     N  542   2.348   3.888  11.452  0.6463 -0.4194  0.4086
   35MPD2    H5  543   2.249   3.870  11.466  0.6606 -2.0145 -1.5745
   35MPD2    N1  544   2.359   3.845  11.938 -0.8428 -0.6218  0.4497
   35MPD2    H7  545   2.415   3.840  12.022 -0.6178  2.1022  0.4643
   36TCq2    C1  546   2.393   3.935  11.332  0.0585 -0.1671 -0.7979
   36TCq2    O2  547   2.502   3.980  11.306  0.1983 -0.2034 -0.1061
   36TCq2    C2  548   2.319   3.889  11.214 -0.5862  0.2548 -0.3767
   36TCq2    C3  549   2.353   3.942  11.095  0.4619  0.5941 -0.8385
   36TCq2    C4  550   2.304   3.896  10.977  0.6353 -0.4732 -0.2785
   36TCq2    C5  551   2.217   3.791  10.982  0.6396  0.1670 -0.4138
   36TCq2    C6  552   2.172   3.751  11.100  0.0578  0.0664  0.3521
   36TCq2    C7  553   2.231   3.784  11.219 -0.0747 -0.1571  0.0906
   36TCq2    C8  554   2.062   3.659  11.103 -0.1632 -0.2264 -0.7903
   36TCq2    O4  555   2.036   3.606  11.215  0.0224 -0.0783 -0.3071
   36TCq2    C9  556   2.331   3.964  10.850  0.3644 -0.6810 -0.2316
   36TCq2    O5  557   2.276   3.917  10.747 -0.4801  0.1728 -0.0085
   36TCq2    O6  558   2.410   4.061  10.838 -0.4568  0.7714 -0.2241
   36TCq2    H2  559   2.436   4.012  11.086  2.3056 -1.6011 -1.2056
   36TCq2    H3  560   2.187   3.741  10.890 -1.3355  0.2831  0.1752
   36TCq2    H4  561   2.210   3.731  11.311 -0.6802 -1.2996 -0.7025
   37TMC2    C1  562   3.456   4.060  11.577  0.5234 -0.0827 -0.6335
   37TMC2    C2  563   3.397   4.032  11.455  0.2486  0.6504  0.3152
   37TMC2    C3  564   3.481   4.011  11.350 -0.4353  0.7089 -0.0515
   37TMC2    C4  565   3.588   4.042  11.596  0.1684 -0.1688  0.8197
   37TMC2    C5  566   3.669   4.011  11.485 -0.3377 -0.1106  0.8220
   37TMC2    C6  567   3.611   3.993  11.362 -0.5182  0.3311 -0.3539
   37TMC2     C  568   3.361   4.062  11.692 -0.6338 -0.6253  0.5254
   37TMC2     O  569   3.243   4.059  11.669 -0.3080  0.4574 -0.3438
   37TMC2     H  570   3.290   4.041  11.445  0.3466 -0.5979 -1.8989
   37TMC2    H1  571   3.627   4.063  11.695 -0.2314  2.8507  0.3543
   37TMC2    H2  572   3.670   3.989  11.271  0.3924 -1.1926  0.3045
   37TMC2    C7  573   3.815   4.003  11.504 -0.7814 -0.7101  0.4870
   37TMC2    C8  574   3.421   3.994  11.218  0.3242  0.2620 -0.6847
   37TMC2    O1  575   3.862   4.058  11.602 -0.2734 -0.1646 -0.4987
   37TMC2    O2  576   3.477   4.039  11.116  0.2063  0.0316  0.1226
   37TMC2    O5  577   3.304   3.930  11.228  0.1288 -0.7063  0.0067
   37TMC2    H5  578   3.292   3.886  11.315  1.5556  0.6903  0.8964
   38MPD2     C  579   3.207   4.068  12.183 -0.5954  0.0594 -0.0012
   38MPD2    C1  580   3.346   4.060  12.175 -0.3775  0.1079  0.1847
   38MPD2    C2  581   3.413   4.056  12.052  0.3341 -0.1430  0.1139
   38MPD2    C3  582   3.339   4.059  11.938 -0.4917 -0.0195 -0.0257
   38MPD2    C4  583   3.198   4.076  11.947  0.0088 -0.2257  0.0967
   38MPD2    C5  584   3.141   4.087  12.070  0.1470  0.2143  0.4574
   38MPD2     H  585   3.521   4.046  12.050  0.0454 -3.4024  1.6370
   38MPD2    H1  586   3.133   4.089  11.861  0.2195  0.6965  0.0780
   38MPD2    H2  587   3.150   4.064  12.275 -1.9391  0.6998 -0.7997
   38MPD2    H3  588   3.033   4.098  12.077  0.0099  0.4628 -2.0595
   38MPD2     N  589   3.417   4.057  11.819 -0.4209 -0.5522  0.5195
   38MPD2    H5  590   3.518   4.061  11.825 -0.3697 -0.9241 -0.1791
   38MPD2    N1  591   3.427   4.045  12.288  0.8286  0.5395  0.6907
   38MPD2    H7  592   3.528   4.042  12.276  0.4215 -1.9273 -2.2993
   39MPD2     C  593   2.270   0.973   1.574 -0.4458  0.6958 -0.0431
   39MPD2    C1  594   2.149   0.936   1.619  0.5360  0.5412 -0.1887
   39MPD2    C2  595   2.044   0.928   1.522  0.3130  0.3721  0.0136
   39MPD2    C3  596   2.080   0.908   1.392  0.1146  0.1012  0.1686
   39MPD2    C4  597   2.214   0.918   1.351 -0.6643 -0.1020  0.2770
   39MPD2    C5  598   2.306   0.962   1.443 -0.4618 -0.3295 -0.5519
   39MPD2     H  599   1.941   0.908   1.548 -0.1468 -0.3398 -2.3494
   39MPD2    H1  600   2.242   0.906   1.247  0.9957  1.8934  0.4815
   39MPD2    H2  601   2.341   1.010   1.647 -1.8751 -0.6806  2.0591
   39MPD2    H3  602   2.404   0.990   1.408  0.1407 -0.6121  0.9345
   39MPD2     N  603   1.992   0.891   1.283  0.6397 -0.1414 -0.4163
   39MPD2    H5  604   2.036   0.851   1.201  0.8901  1.6837 -1.1624
   39MPD2    N1  605   2.121   0.952   1.757  0.8233  0.0693 -0.2110
   39MPD2    H7  606   2.203   0.987   1.806 -0.0843  1.2102  0.4948
   40TCq2    C1  607   2.003   0.931   1.824 -0.3711 -0.2806  0.3170
   40TCq2    O2  608   1.898   0.883   1.780  0.2490 -0.4929  0.5068
   40TCq2    C2  609   2.001   0.959   1.968  0.8559 -0.0668 -0.5508
   40TCq2    C3  610   1.879   0.962   2.024  0.4012  0.0614 -0.2465
   40TCq2    C4  611   1.865   0.969   2.162  0.3033 -0.2420 -0.0024
   40TCq2    C5  612   1.973   0.963   2.241 -0.2566 -0.2587  0.1550
   40TCq2    C6  613   2.099   0.967   2.181  0.5416 -0.0642 -0.2274
   40TCq2    C7  614   2.115   0.951   2.048  0.3897  0.5255 -0.4049
   40TCq2    C8  615   2.212   0.984   2.266  0.1903 -0.3181  0.9854
   40TCq2    O4  616   2.209   0.954   2.384 -0.6743 -0.1533 -0.1048
   40TCq2    C9  617   1.733   0.950   2.221 -0.1777 -0.1153 -0.2242
   40TCq2    O5  618   1.630   0.966   2.147  0.2932 -0.6296  0.1850
   40TCq2    O6  619   1.730   0.957   2.347  0.3269 -0.2877 -0.6995
   40TCq2    H2  620   1.791   0.988   1.965  1.3799 -0.6521 -2.0282
   40TCq2    H3  621   1.959   0.949   2.348  0.0523 -0.4606  0.1709
   40TCq2    H4  622   2.212   0.926   2.009  0.6390  1.5209 -0.4318
   41TMC2    C1  623   1.726   4.151  13.639  0.0930 -0.1276  0.8278
   41TMC2    C2  624   1.642   4.233  13.706 -0.6349  0.1364  0.0392
   41TMC2    C3  625   1.664   4.366  13.694  0.0561  0.6236 -0.6005
   41TMC2    C4  626   1.834   4.204  13.563  0.1604 -0.6236 -0.0953
   41TMC2    C5  627   1.845   4.336  13.563  0.4084 -0.1416 -0.9385
   41TMC2    C6  628   1.765   4.426  13.631  0.0578  0.3999  0.4985
   41TMC2     C  629   1.719   4.010  13.674  0.4693  0.0951  0.7063
   41TMC2     O  630   1.784   3.933  13.601  0.3867  0.0213  0.1876
   41TMC2     H  631   1.557   4.200  13.764 -0.4716  0.9522  0.7377
   41TMC2    H1  632   1.911   4.150  13.510 -1.0403 -0.9409 -1.5123
   41TMC2    H2  633   1.773   4.533  13.621  1.6082  0.0810 -1.7153
   41TMC2    C7  634   1.949   4.401  13.492 -0.0657 -0.4693 -0.4631
   41TMC2    C8  635   1.558   4.451  13.758 -0.6037  0.5305 -1.0288
   41TMC2    O1  636   1.997   4.503  13.545  0.0932  0.2459  0.4614
   41TMC2    O2  637   1.439   4.410  13.780 -0.0370  0.0527  0.1521
   41TMC2    O5  638   1.619   4.558  13.813 -0.0927  0.3687  0.0921
   41TMC2    H5  639   1.716   4.547  13.809 -0.1012  0.2620  0.1819
   42MPD2     C  640   1.695   3.750  13.806 -0.0044 -0.7615  0.2800
   42MPD2    C1  641   1.666   3.866  13.867  0.2248 -0.4516 -0.4756
   42MPD2    C2  642   1.632   3.870  14.004 -0.0400 -0.5055  0.3346
   42MPD2    C3  643   1.631   3.749  14.074 -0.3367 -0.1476 -0.3822
   42MPD2    C4  644   1.651   3.634  14.009  0.4584 -0.0651  0.4420
   42MPD2    C5  645   1.669   3.637  13.877 -0.3910 -0.7969 -0.5078
   42MPD2     H  646   1.627   3.966  14.053 -2.8476  0.4745 -1.8621
   42MPD2    H1  647   1.637   3.541  14.062  2.1306 -1.6499 -1.8837
   42MPD2    H2  648   1.700   3.739  13.698  0.4715  0.5134  0.1773
   42MPD2    H3  649   1.676   3.544  13.821 -0.2895 -0.8547 -0.3992
   42MPD2     N  650   1.617   3.744  14.216  0.3646  0.1842  0.4100
   42MPD2    H5  651   1.652   3.663  14.267 -1.5617 -0.0553  1.3670
   42MPD2    N1  652   1.658   3.986  13.795  0.2182  0.2646  0.6750
   42MPD2    H7  653   1.629   4.069  13.845  0.8028  0.6778  0.3364
   43MPD2     C  654   2.306   1.731   0.482 -0.5449  0.6161  0.2790
   43MPD2    C1  655   2.418   1.750   0.570 -0.0722 -1.1365 -0.5634
   43MPD2    C2  656   2.394   1.809   0.691 -0.4298  0.3711  0.2324
   43MPD2    C3  657   2.270   1.867   0.714 -0.1208 -0.1560  0.0090
   43MPD2    C4  658   2.168   1.866   0.622  0.1234  0.4611  0.3653
   43MPD2    C5  659   2.184   1.789   0.513  0.0239 -0.1419  0.1659
   43MPD2     H  660   2.480   1.831   0.753 -1.7134  3.1328  1.0402
   43MPD2    H1  661   2.073   1.911   0.646 -1.2688 -2.7935  0.9658
   43MPD2    H2  662   2.324   1.669   0.395 -2.9706  1.6519 -0.9566
   43MPD2    H3  663   2.103   1.771   0.443  0.5581  0.4705 -0.6169
   43MPD2     N  664   2.249   1.928   0.834 -0.4437 -0.3257 -0.6457
   43MPD2    H5  665   2.159   1.972   0.851 -0.7847 -1.2410 -0.0808
   43MPD2    N1  666   2.542   1.697   0.537 -0.1748  0.1932  0.1900
   43MPD2    H7  667   2.617   1.686   0.605  0.4953 -0.4394 -0.6356
   44TCq2    C1  668   2.342   2.139   1.377 -0.2540 -0.1544  0.0094
   44TCq2    O2  669   2.411   2.043   1.406  0.0744  0.3925 -0.2690
   44TCq2    C2  670   2.314   2.158   1.235  0.3576  0.1862  0.3009
   44TCq2    C3  671   2.242   2.266   1.192  0.2287 -0.2428 -0.1982
   44TCq2    C4  672   2.198   2.252   1.064 -0.5685  0.2527  0.2020
   44TCq2    C5  673   2.212   2.141   0.993 -0.5230  0.8787 -0.2428
   44TCq2    C6  674   2.287   2.037   1.038  0.0487 -0.1582 -0.1304
   44TCq2    C7  675   2.333   2.036   1.168 -0.0268  0.4461 -0.1423
   44TCq2    C8  676   2.334   1.943   0.937  0.5975 -0.0233  0.2847
   44TCq2    O4  677   2.431   1.871   0.969  0.7382 -0.1065  0.8911
   44TCq2    C9  678   2.126   2.360   0.998 -0.6350 -0.1067  0.1664
   44TCq2    O5  679   2.150   2.483   1.029  0.1571  0.3223  0.2062
   44TCq2    O6  680   2.084   2.335   0.881  0.0401  0.6658  0.1127
   44TCq2    H2  681   2.237   2.363   1.240 -1.8833  0.5031 -1.9034
   44TCq2    H3  682   2.200   2.150   0.886 -1.5742 -0.4923 -0.2391
   44TCq2    H4  683   2.398   1.956   1.200 -2.8193 -1.5436  0.5412
   45TMC2    C1  684   4.173   3.845   9.950 -0.1178 -0.3588 -0.0336
   45TMC2    C2  685   4.232   3.930   9.862  0.3118 -0.3141 -0.3599
   45TMC2    C3  686   4.288   4.048   9.916  0.1702  0.1889  0.5247
   45TMC2    C4  687   4.163   3.875  10.085  0.5600  0.4073 -0.4135
   45TMC2    C5  688   4.208   3.995  10.122 -0.0881  0.6044  0.7903
   45TMC2    C6  689   4.282   4.082  10.046  0.1097 -0.5071 -0.1115
   45TMC2     C  690   4.069   3.764   9.888  0.2650  0.2028  0.0354
   45TMC2     O  691   4.030   3.656   9.941  0.5663 -0.2617  0.4382
   45TMC2     H  692   4.251   3.904   9.758 -0.0186 -0.0570 -0.4851
   45TMC2    H1  693   4.106   3.804  10.145  1.8561  1.3835  1.9814
   45TMC2    H2  694   4.310   4.179  10.086  1.1491 -0.7360 -0.3015
   45TMC2    C7  695   4.179   4.056  10.248 -0.3639 -0.1378  0.2496
   45TMC2    C8  696   4.369   4.125   9.823 -1.0803 -0.5611  0.7592
   45TMC2    O1  697   4.205   4.174  10.269 -0.5629  0.1531  0.3445
   45TMC2    O2  698   4.444   4.084   9.737 -0.6004 -0.4471 -0.3274
   45TMC2    O5  699   4.380   4.249   9.879 -0.2812  0.0122  0.5433
   45TMC2    H5  700   4.297   4.289   9.912  0.7218  2.6789 -0.1563
   46MPD2     C  701   3.877   3.635   9.695  0.5416 -0.0869  0.4091
   46MPD2    C1  702   3.926   3.762   9.689  0.5193 -0.1827 -0.5303
   46MPD2    C2  703   3.874   3.849   9.590 -0.5576  0.5150  0.2661
   46MPD2    C3  704   3.762   3.816   9.521  0.1893  0.1434 -0.4215
   46MPD2    C4  705   3.704   3.689   9.541  0.4457 -0.4910  0.2045
   46MPD2    C5  706   3.757   3.602   9.631 -0.2558  0.5321  0.5271
   46MPD2     H  707   3.913   3.948   9.571  2.5600 -1.0734 -1.5501
   46MPD2    H1  708   3.610   3.660   9.496 -0.1267  1.2999  0.2543
   46MPD2    H2  709   3.917   3.559   9.760  2.8279  1.6695  1.0531
   46MPD2    H3  710   3.712   3.506   9.653 -0.0549  0.3103 -0.0285
   46MPD2     N  711   3.719   3.911   9.425  0.4118 -0.0940  0.4356
   46MPD2    H5  712   3.784   3.988   9.411  1.0495 -0.4404  1.5193
   46MPD2    N1  713   4.018   3.824   9.777  1.0904 -0.2325 -0.4471
   46MPD2    H7  714   4.045   3.920   9.762 -1.4533  0.7382  1.2289
   47TMC2    C1  715   1.021   3.548   9.051  0.2168  0.0151 -0.4421
   47TMC2    C2  716   1.091   3.440   8.997  0.2041 -0.0987 -0.5645
   47TMC2    C3  717   1.039   3.322   9.033  0.1638 -0.0717  0.2058
   47TMC2    C4  718   0.911   3.540   9.136 -0.3601 -0.6531 -0.7094
   47TMC2    C5  719   0.883   3.418   9.185  0.1674 -0.3582  0.4833
   47TMC2    C6  720   0.943   3.307   9.130 -0.3706 -0.2156 -0.0014
   47TMC2     C  721   1.075   3.677   9.054 -0.8412 -0.3859 -1.0396
   47TMC2     O  722   1.001   3.770   9.087 -0.5462  0.0137  0.2203
   47TMC2     H  723   1.168   3.444   8.922  0.5540  2.1215 -0.0837
   47TMC2    H1  724   0.877   3.627   9.191  1.8781 -0.0376 -0.2686
   47TMC2    H2  725   0.907   3.207   9.149 -0.6121  0.1239  1.3417
   47TMC2    C7  726   0.784   3.409   9.292  0.4428 -0.6477 -0.8227
   47TMC2    C8  727   1.091   3.203   8.970  0.6940  0.1737 -0.1375
   47TMC2    O1  728   0.728   3.516   9.320 -0.5651  0.5955  0.3925
   47TMC2    O2  729   1.130   3.206   8.851 -0.2835 -0.0890  0.3981
   47TMC2    O5  730   1.148   3.127   9.071 -0.2665 -0.2513 -0.0396
   47TMC2    H5  731   1.142   3.165   9.161 -3.8154  2.7589 -1.5618
   48MPD2     C  732   1.230   3.911   8.994  0.5689 -0.0396  0.4065
   48MPD2    C1  733   1.277   3.786   8.977  0.1539 -0.3815  0.1462
   48MPD2    C2  734   1.409   3.773   8.937  0.4689 -0.0629 -0.5254
   48MPD2    C3  735   1.487   3.881   8.919  0.0494 -0.3704  0.8307
   48MPD2    C4  736   1.440   4.009   8.934 -0.1148  0.0962  0.0986
   48MPD2    C5  737   1.309   4.018   8.964 -0.2707 -0.6689 -0.0185
   48MPD2     H  738   1.445   3.671   8.940  0.4615 -0.0575 -0.2643
   48MPD2    H1  739   1.489   4.104   8.916 -1.4750  0.6352 -0.7287
   48MPD2    H2  740   1.128   3.931   9.025  0.4396 -0.0452 -0.0193
   48MPD2    H3  741   1.252   4.109   8.978  0.4260  0.0275 -1.7301
   48MPD2     N  742   1.620   3.848   8.885 -0.5003  0.5940 -0.2754
   48MPD2    H5  743   1.633   3.747   8.882 -1.0708  0.5485 -1.1337
   48MPD2    N1  744   1.197   3.672   9.007 -0.3329  0.3279 -0.2218
   48MPD2    H7  745   1.232   3.581   8.978  0.0860  0.0282  1.1895
   49MPD2     C  746   3.811   1.691   9.667  0.0172  0.5099 -0.4147
   49MPD2    C1  747   3.834   1.800   9.755 -0.0449  0.3310  0.4314
   49MPD2    C2  748   3.884   1.779   9.885 -0.2709 -0.3607  0.0331
   49MPD2    C3  749   3.914   1.652   9.934 -0.1884  0.1804 -0.4869
   49MPD2    C4  750   3.891   1.546   9.842  0.3002 -0.3619  0.2262
   49MPD2    C5  751   3.838   1.573   9.719  0.4991 -0.5728 -0.1082
   49MPD2     H  752   3.919   1.862   9.944  0.8386  0.3312 -1.5840
   49MPD2    H1  753   3.900   1.442   9.871 -0.8611 -0.6926 -0.6138
   49MPD2    H2  754   3.782   1.696   9.563 -0.0496 -0.3818 -0.4396
   49MPD2    H3  755   3.810   1.490   9.655  1.3060 -0.6911 -0.3089
   49MPD2     N  756   3.956   1.629  10.064  0.0466  0.0725  0.2110
   49MPD2    H5  757   3.948   1.533  10.093 -1.7488  0.4975  1.1310
   49MPD2    N1  758   3.824   1.932   9.714  0.0103 -0.6931 -0.3865
   49MPD2    H7  759   3.848   1.997   9.789  1.3826 -0.5953 -0.9125
   50TCq2    C1  760   3.766   1.982   9.598 -0.0079  0.0651  0.9008
   50TCq2    O2  761   3.696   1.921   9.521 -0.1224  0.4257 -0.4194
   50TCq2    C2  762   3.765   2.130   9.597 -0.3926 -0.2094  0.2765
   50TCq2    C3  763   3.860   2.203   9.664 -0.1112  0.1533 -0.0140
   50TCq2    C4  764   3.872   2.342   9.640  0.6641  0.6926  0.3178
   50TCq2    C5  765   3.791   2.398   9.547  0.3583  0.2525  0.1056
   50TCq2    C6  766   3.692   2.322   9.488  0.0567  0.9543 -0.2731
   50TCq2    C7  767   3.676   2.188   9.512 -0.6851  0.3721  0.0264
   50TCq2    C8  768   3.619   2.385   9.380 -0.1096  0.2595  0.3799
   50TCq2    O4  769   3.521   2.320   9.338  1.1353 -0.3276 -0.6390
   50TCq2    C9  770   3.994   2.409   9.682 -0.3952 -0.4449 -0.4978
   50TCq2    O5  771   4.019   2.523   9.634 -0.2071  0.0831 -0.1289
   50TCq2    O6  772   4.083   2.339   9.739 -0.5145  1.3299 -0.8295
   50TCq2    H2  773   3.939   2.156   9.721  0.2141 -0.2305 -0.7807
   50TCq2    H3  774   3.821   2.498   9.520  0.6547  0.5466  1.5146
   50TCq2    H4  775   3.610   2.126   9.451 -1.0351  0.1163  0.6689
   51MPD2     C  776   0.105   3.837   0.979 -0.5043 -0.0503  0.2575
   51MPD2    C1  777   0.107   3.906   1.101  0.3313 -0.0817 -0.5949
   51MPD2    C2  778   0.220   3.979   1.141  0.6142 -0.4636  0.2322
   51MPD2    C3  779   0.329   3.989   1.056 -0.5589  0.0209 -0.7473
   51MPD2    C4  780   0.317   3.924   0.938  1.0660  0.2669 -0.1338
   51MPD2    C5  781   0.217   3.838   0.905 -0.1977 -0.1468  0.5704
   51MPD2     H  782   0.211   4.023   1.239  0.7854  0.7931 -0.3232
   51MPD2    H1  783   0.398   3.943   0.868  0.7939  1.8941  0.0036
   51MPD2    H2  784   0.026   3.767   0.951  0.0652 -0.9095  0.8073
   51MPD2    H3  785   0.219   3.783   0.812 -0.4713  1.0088 -0.1214
   51MPD2     N  786   0.443   4.076   1.076 -0.0022  0.3856 -0.0469
   51MPD2    H5  787   0.518   4.058   1.010  0.3583  0.1364  0.4368
   51MPD2    N1  788   4.717   3.904   1.184 -0.0545 -0.5503  0.5404
   51MPD2    H7  789   0.008   3.954   1.272 -1.4200 -1.5716  1.3326
   52TCq2    C1  790   0.460   4.155   1.184 -0.1317  0.7872  0.1256
   52TCq2    O2  791   0.395   4.182   1.287 -0.0843 -0.1267  0.0642
   52TCq2    C2  792   0.586   4.231   1.152 -0.0695  0.4231 -0.2462
   52TCq2    C3  793   0.680   4.186   1.065 -0.4132 -0.2260  0.4226
   52TCq2    C4  794   0.753   4.277   0.999  0.0529 -0.3781  0.2393
   52TCq2    C5  795   0.743   4.413   1.017 -0.2576 -0.7306  0.7290
   52TCq2    C6  796   0.653   4.448   1.114 -0.4774 -0.5161 -0.3135
   52TCq2    C7  797   0.579   4.361   1.188 -0.1549  0.0008 -0.4336
   52TCq2    C8  798   0.624   4.588   1.125 -0.3184  0.5794  0.1949
   52TCq2    O4  799   0.509   4.610   1.169 -0.3194 -0.1508  0.6886
   52TCq2    C9  800   0.834   4.239   0.890  0.1659 -0.3922 -0.1247
   52TCq2    O5  801   0.868   4.328   0.808  0.0640  0.3141  0.4845
   52TCq2    O6  802   0.852   4.117   0.876  0.3359  0.0565 -0.3924
   52TCq2    H2  803   0.673   4.085   1.026  3.5647 -0.4791  0.3409
   52TCq2    H3  804   0.784   4.478   0.941  1.8041 -1.3208  1.3369
   52TCq2    H4  805   0.518   4.401   1.268  1.5627 -2.9539  2.3639
   53TMC2    C1  806   4.524   4.106  11.605 -0.0000  0.0080  0.8362
   53TMC2    C2  807   4.640   4.163  11.553 -0.0100  0.5605  0.4438
   53TMC2    C3  808   4.700   4.260  11.627  0.3210  0.0762  0.5817
   53TMC2    C4  809   4.469   4.154  11.722  0.5775  0.5709  0.0849
   53TMC2    C5  810   4.537   4.250  11.791 -0.7179 -0.1495 -0.4229
   53TMC2    C6  811   4.649   4.303  11.752 -0.2653 -0.0805  0.5108
   53TMC2     C  812   4.470   3.994  11.535  0.0890 -0.2842 -0.1221
   53TMC2     O  813   4.529   3.929  11.451  0.2891  0.2925 -0.2131
   53TMC2     H  814   4.677   4.134  11.456  0.4775  0.1392  0.7552
   53TMC2    H1  815   4.381   4.112  11.770  0.8655  0.2896  0.3623
   53TMC2    H2  816   4.700   4.389  11.794  2.0109 -1.0529 -0.2184
   53TMC2    C7  817   4.468   4.278  11.914 -0.0315 -0.1569  0.9268
   53TMC2    C8  818   0.091   4.336  11.567 -0.1803 -0.6630 -0.1151
   53TMC2    O1  819   4.342   4.256  11.923  0.0637  0.4119  0.1178
   53TMC2    O2  820   0.087   4.458  11.560 -0.2947  0.0860 -0.3079
   53TMC2    O5  821   0.169   4.259  11.492  0.3141  0.1348 -1.0531
   53TMC2    H5  822   0.145   4.164  11.504 -0.1767  0.5942  1.5441
   54MPD2     C  823   4.275   3.797  11.423 -0.0475 -0.1933 -0.8530
   54MPD2    C1  824   4.238   3.909  11.488 -0.2880 -0.7624 -0.4962
   54MPD2    C2  825   4.106   3.955  11.480  0.0102  0.1259 -0.5579
   54MPD2    C3  826   4.007   3.872  11.423  0.3324 -0.6434  0.1476
   54MPD2    C4  827   4.041   3.752  11.368  0.3502  0.1965 -0.0846
   54MPD2    C5  828   4.173   3.721  11.363  0.7657  0.5278  0.2981
   54MPD2     H  829   4.083   4.056  11.512  0.5569  0.4811 -1.2957
   54MPD2    H1  830   3.970   3.680  11.328 -0.4867  0.3862  1.0680
   54MPD2    H2  831   4.379   3.771  11.407 -0.2534 -1.1210 -0.7395
   54MPD2    H3  832   4.208   3.629  11.317  0.6789  1.1451 -1.0109
   54MPD2     N  833   3.871   3.906  11.427 -0.2295  0.1673  0.2887
   54MPD2    H5  834   3.821   3.843  11.365 -0.1986  0.9301 -0.5172
   54MPD2    N1  835   4.331   3.995  11.553  0.1135 -0.4698  0.5259
   54MPD2    H7  836   4.289   4.071  11.607 -0.4228  0.0733 -0.6535
   55MPD2     C  837   0.462   1.773  17.145  0.4293  0.2964 -0.1006
   55MPD2    C1  838   0.461   1.654  17.227 -0.1953  0.1327  0.6955
   55MPD2    C2  839   0.349   1.636  17.311  0.5348 -0.0307  0.1312
   55MPD2    C3  840   0.245   1.728  17.307 -0.3845 -0.4648 -0.2411
   55MPD2    C4  841   0.252   1.836  17.219  0.0773 -0.1206  0.2226
   55MPD2    C5  842   0.362   1.864  17.142  0.2891  0.4327  0.4994
   55MPD2     H  843   0.342   1.545  17.371  0.0993  0.4914  0.8806
   55MPD2    H1  844   0.171   1.909  17.221 -0.8828 -1.2211  1.7247
   55MPD2    H2  845   0.542   1.797  17.077 -0.1752 -0.0367 -0.9187
   55MPD2    H3  846   0.368   1.946  17.071  0.1155 -1.2290 -1.4276
   55MPD2     N  847   0.130   1.699  17.377  0.8016  0.5283 -0.4403
   55MPD2    H5  848   0.139   1.658  17.469  1.1952 -0.4906 -0.9243
   55MPD2    N1  849   0.561   1.557  17.215  0.2702 -0.5449 -0.0721
   55MPD2    H7  850   0.622   1.566  17.134  1.0940  1.9379  0.8192
   56TCq2    C1  851   0.586   1.451  17.304  0.6455  0.1604 -0.1043
   56TCq2    O2  852   0.536   1.414  17.412  0.4691 -0.1691 -0.3617
   56TCq2    C2  853   0.705   1.369  17.268 -0.2592 -0.1855  0.3044
   56TCq2    C3  854   0.759   1.380  17.143  0.6846 -0.0242 -0.5862
   56TCq2    C4  855   0.832   1.273  17.089  0.0529  0.1968 -0.0180
   56TCq2    C5  856   0.849   1.158  17.164  0.0511 -0.2179  0.3063
   56TCq2    C6  857   0.799   1.148  17.289 -0.0928 -0.2233  0.4854
   56TCq2    C7  858   0.730   1.258  17.340 -0.7298  0.2509 -0.6169
   56TCq2    C8  859   0.834   1.037  17.377  0.0569  0.3576 -0.2497
   56TCq2    O4  860   0.920   0.955  17.343 -0.3709 -0.1274  0.3408
   56TCq2    C9  861   0.876   1.279  16.946 -0.7107 -0.5478 -0.5370
   56TCq2    O5  862   0.920   1.173  16.895 -0.3937 -0.2893  0.8243
   56TCq2    O6  863   0.877   1.392  16.890  0.7423 -0.8811 -0.2019
   56TCq2    H2  864   0.745   1.468  17.082 -0.6165 -0.7558 -1.3209
   56TCq2    H3  865   0.891   1.070  17.117  0.7452  0.4866 -0.3927
   56TCq2    H4  866   0.690   1.248  17.440 -1.4596 -1.2837 -1.0613
   57TMC2    C1  867   4.144   3.651  13.077  0.0383  0.2380 -0.5494
   57TMC2    C2  868   4.278   3.657  13.116  0.9821  0.3856  1.1026
   57TMC2    C3  869   4.372   3.578  13.050 -0.7214  0.2355 -0.1804
   57TMC2    C4  870   4.104   3.566  12.974 -0.1455  0.1648  0.3721
   57TMC2    C5  871   4.198   3.483  12.922 -0.3385  0.0287 -0.7736
   57TMC2    C6  872   4.329   3.487  12.957  0.3909 -0.2989 -0.0412
   57TMC2     C  873   4.048   3.703  13.170  0.4847 -0.0179 -0.1996
   57TMC2     O  874   3.932   3.702  13.134  0.2632  0.9640 -0.2932
   57TMC2     H  875   4.307   3.730  13.191 -0.6067  2.1769 -0.0182
   57TMC2    H1  876   4.003   3.534  12.954  0.5171 -0.7609 -1.4769
   57TMC2    H2  877   4.412   3.427  12.921  1.0563  1.8217 -2.0474
   57TMC2    C7  878   4.150   3.359  12.864  0.1082 -0.1714 -0.5004
   57TMC2    C8  879   4.514   3.583  13.086 -1.0430  0.6322 -0.5659
   57TMC2    O1  880   4.029   3.333  12.881  0.0247 -0.4854 -0.4110
   57TMC2    O2  881   4.607   3.564  13.012 -0.3857  0.8074  0.0494
   57TMC2    O5  882   4.529   3.605  13.223  0.0918  0.0878 -0.0464
   57TMC2    H5  883   4.443   3.597  13.268  0.2411  0.1214  0.2415
   58MPD2     C  884   3.893   3.739  13.657 -0.6010 -0.4554  0.5031
   58MPD2    C1  885   3.819   3.742  13.540  0.4828  0.1229  0.1916
   58MPD2    C2  886   3.881   3.735  13.416 -0.3159  0.1405  0.0162
   58MPD2    C3  887   4.017   3.735  13.416  0.1362  0.3105 -0.0797
   58MPD2    C4  888   4.086   3.733  13.535  0.3914  0.4862  0.4792
   58MPD2    C5  889   4.031   3.729  13.654  0.5865  0.6601  0.7432
   58MPD2     H  890   3.829   3.735  13.321  1.5482 -2.3147 -1.0036
   58MPD2    H1  891   4.195   3.728  13.540  0.4294  0.2603 -0.6095
   58MPD2    H2  892   3.845   3.727  13.753 -0.4976 -2.5612  0.2973
   58MPD2    H3  893   4.090   3.724  13.744  0.1592 -3.6344  0.7954
   58MPD2     N  894   4.098   3.735  13.295 -0.1637 -0.6210  0.2499
   58MPD2    H5  895   4.195   3.719  13.317  0.1682  0.6433 -0.3104
   58MPD2    N1  896   3.679   3.747  13.539 -0.9134  0.4393 -0.3412
   58MPD2    H7  897   3.640   3.751  13.446  1.0553 -1.2588 -1.2598
   59MPD2     C  898   2.073   2.836  12.957  0.3426  0.3919 -1.0807
   59MPD2    C1  899   2.162   2.867  12.858  0.3078  0.2207  0.3405
   59MPD2    C2  900   2.275   2.938  12.892 -0.4418  0.6052  0.0494
   59MPD2    C3  901   2.321   2.947  13.022 -0.3203 -0.0335  0.0976
   59MPD2    C4  902   2.236   2.898  13.116  0.3556 -0.0313  0.5432
   59MPD2    C5  903   2.116   2.848  13.087 -0.0056  1.1079  0.2142
   59MPD2     H  904   2.331   2.975  12.808 -1.5994 -0.8629 -1.3645
   59MPD2    H1  905   2.247   2.921  13.221  2.1836 -2.7595  0.9460
   59MPD2    H2  906   1.977   2.797  12.927 -0.8018  1.1441  1.5505
   59MPD2    H3  907   2.049   2.829  13.169  0.7057  2.6366  1.1445
   59MPD2     N  908   2.434   3.027  13.060  0.6566  0.1893  0.0416
   59MPD2    H5  909   2.460   3.021  13.158  0.1184 -0.3996  0.1442
   59MPD2    N1  910   2.124   2.845  12.721  0.6355  0.1281 -1.0392
   59MPD2    H7  911   2.198   2.874  12.658 -0.7350  3.5123 -1.0600
   60TCq2    C1  912   2.022   2.759  12.668  0.1974  0.0839  0.0066
   60TCq2    O2  913   1.932   2.695  12.728  0.0434 -0.0968 -0.0343
   60TCq2    C2  914   2.047   2.733  12.526  1.2245  0.2556  0.4055
   60TCq2    C3  915   1.978   2.631  12.475 -0.5383 -0.5742  0.5227
   60TCq2    C4  916   2.008   2.592  12.345  0.0547 -0.3980 -0.0973
   60TCq2    C5  917   2.125   2.626  12.283  0.3729  0.2170  0.2396
   60TCq2    C6  918   2.181   2.738  12.332 -0.4086 -0.5072 -0.1333
   60TCq2    C7  919   2.142   2.792  12.448  0.0636  0.3016  0.7020
   60TCq2    C8  920   2.269   2.812  12.243 -0.9182  0.1622  0.0843
   60TCq2    O4  921   2.331   2.743  12.159 -0.1597 -0.0813 -0.3447
   60TCq2    C9  922   1.918   2.504  12.277  0.7482  0.6841  0.1494
   60TCq2    O5  923   1.837   2.439  12.350 -0.6824  0.0684  0.3404
   60TCq2    O6  924   1.930   2.494  12.151 -0.8631  0.1782  0.0554
   60TCq2    H2  925   1.893   2.592  12.530  1.2862 -1.7344  2.5191
   60TCq2    H3  926   2.148   2.587  12.184 -0.2349  2.1966 -0.6823
   60TCq2    H4  927   2.189   2.879  12.491 -0.8843  1.7107 -1.1000
   61MPD2     C  928   1.487   4.265  14.343  0.5062 -0.0865  0.9129
   61MPD2    C1  929   1.504   4.382  14.418 -0.0331  0.6885 -0.6537
   61MPD2    C2  930   1.435   4.491  14.371  0.4199 -0.9678  0.0491
   61MPD2    C3  931   1.342   4.483  14.265 -0.1696 -0.0629  0.1355
   61MPD2    C4  932   1.312   4.366  14.205  0.2700  0.3521 -0.0082
   61MPD2    C5  933   1.384   4.255  14.251  0.1111  0.2173  0.1593
   61MPD2     H  934   1.453   4.585  14.421  3.3163 -1.4224 -0.1068
   61MPD2    H1  935   1.241   4.359  14.123  2.2122  1.5620 -1.8097
   61MPD2    H2  936   1.553   4.182  14.366  1.3567  0.3591  0.1015
   61MPD2    H3  937   1.374   4.160  14.200 -2.1441  0.7181 -0.3174
   61MPD2     N  938   1.265   4.599  14.222  0.1971  0.2374 -0.1225
   61MPD2    H5  939   1.179   4.579  14.172  1.5540 -1.3243 -1.8546
   61MPD2    N1  940   1.578   4.390  14.535  0.0730  0.4195  0.2587
   61MPD2    H7  941   1.571   4.478  14.586 -0.7349  0.6552 -0.2585
   62TCq2    C1  942   1.661   4.290  14.584 -0.6344  0.2153 -0.3300
   62TCq2    O2  943   1.684   4.177  14.543 -0.1393  0.1514 -0.0658
   62TCq2    C2  944   1.678   4.306  14.722  0.7188 -0.1110  0.0257
   62TCq2    C3  945   1.723   4.202  14.800 -0.0189  0.5140 -0.1769
   62TCq2    C4  946   1.712   4.206  14.936 -0.1338 -0.0912 -1.0204
   62TCq2    C5  947   1.640   4.305  14.997  0.5310 -0.6801  0.0352
   62TCq2    C6  948   1.597   4.410  14.917 -0.1302 -0.6480  0.1338
   62TCq2    C7  949   1.620   4.418  14.784  0.0700 -0.0228 -0.1474
   62TCq2    C8  950   1.559   4.533  14.984 -0.4261  0.0136  0.3405
   62TCq2    O4  951   1.528   4.628  14.914  0.2776  0.4542 -0.1595
   62TCq2    C9  952   1.751   4.092  15.016 -0.6339  0.1880  0.3769
   62TCq2    O5  953   1.714   4.097  15.131 -0.4706 -0.1495  0.0575
   62TCq2    O6  954   1.803   3.992  14.962  0.3768 -0.1513  0.1797
   62TCq2    H2  955   1.754   4.105  14.763  2.6038  0.7582  1.3115
   62TCq2    H3  956   1.620   4.297  15.104 -1.3035  2.1534 -0.0944
   62TCq2    H4  957   1.595   4.511  14.734  0.5246 -0.0190 -0.3734
   63TMC2    C1  958   1.741   4.500  10.630  0.1787  0.3217  1.0068
   63TMC2    C2  959   1.833   4.523  10.732 -0.4495  0.7666  0.4663
   63TMC2    C3  960   1.961   4.564  10.705  0.3932  0.0460 -0.2608
   63TMC2    C4  961   1.777   4.507  10.497 -0.0931 -0.6986  0.2979
   63TMC2    C5  962   1.901   4.568  10.474  0.1744  0.5234 -0.3619
   63TMC2    C6  963   1.995   4.581  10.573  0.5432 -0.4337 -0.2281
   63TMC2     C  964   1.611   4.442  10.668 -0.9393  0.1965  0.6658
   63TMC2     O  965   1.580   4.441  10.787  0.5742 -0.1064  0.1762
   63TMC2     H  966   1.801   4.527  10.836 -0.1492 -3.0418  0.6914
   63TMC2    H1  967   1.703   4.520  10.418  0.4192  0.8886  0.0698
   63TMC2    H2  968   2.099   4.609  10.561  0.4240 -0.0831 -0.4608
   63TMC2    C7  969   1.904   4.667  10.368 -0.5269  0.7438 -0.2987
   63TMC2    C8  970   2.026   4.641  10.806 -0.9821  0.1628 -0.3571
   63TMC2    O1  971   1.833   4.652  10.268  0.5322  0.0225  0.2896
   63TMC2    O2  972   2.072   0.025  10.767 -0.4952 -0.2371  0.1043
   63TMC2    O5  973   2.079   4.558  10.899  0.0319  0.5261 -0.5516
   63TMC2    H5  974   2.039   4.468  10.900  3.3941 -0.9908 -1.0576
   64MPD2     C  975   1.266   4.086  10.575  0.3832  0.7877  0.0229
   64MPD2    C1  976   1.339   4.107  10.462 -0.0491  0.2310  0.2000
   64MPD2    C2  977   1.426   4.216  10.456  0.3938  0.2098  0.7114
   64MPD2    C3  978   1.439   4.298  10.565 -0.3684 -0.1922 -0.1292
   64MPD2    C4  979   1.349   4.294  10.665  0.6765  0.1063  0.1849
   64MPD2    C5  980   1.268   4.183  10.673 -0.2099 -0.4040 -0.0192
   64MPD2     H  981   1.494   4.231  10.373 -1.6015 -0.7059 -1.0910
   64MPD2    H1  982   1.341   4.360  10.751  1.9456 -0.2966  0.6173
   64MPD2    H2  983   1.197   4.003  10.585  1.3168  0.1071  0.8761
   64MPD2    H3  984   1.194   4.175  10.751  0.4925 -1.8823  0.4909
   64MPD2     N  985   1.547   4.380  10.560  0.0850 -0.0725 -0.2303
   64MPD2    H5  986   1.596   4.372  10.472 -0.6613  0.4822 -0.6932
   64MPD2    N1  987   1.330   4.024  10.346 -0.5640  0.0926 -0.6520
   64MPD2    H7  988   1.397   4.036  10.271  1.2098  0.0555  0.9346
   65MPD2     C  989   2.150   3.683  15.798  0.4145 -0.1650  0.0176
   65MPD2    C1  990   2.160   3.677  15.664 -0.2122  0.2535 -1.1190
   65MPD2    C2  991   2.199   3.555  15.614 -0.6601 -0.0067 -0.3179
   65MPD2    C3  992   2.204   3.438  15.687 -0.2918  0.2104  0.0258
   65MPD2    C4  993   2.170   3.442  15.822 -0.0985 -0.5709 -0.1400
   65MPD2    C5  994   2.147   3.566  15.875  0.5167  0.0425  0.3130
   65MPD2     H  995   2.204   3.539  15.507  0.3175  0.4503 -0.3391
   65MPD2    H1  996   2.156   3.348  15.876  0.0757 -0.1525  0.6358
   65MPD2    H2  997   2.131   3.778  15.847  0.5254  1.2001 -2.5967
   65MPD2    H3  998   2.120   3.573  15.980 -0.6018 -1.6102  0.1355
   65MPD2     N  999   2.229   3.314  15.618  0.0938 -0.0402 -0.1523
   65MPD2    H5 1000   2.184   3.237  15.666  0.3662  1.7483  2.9651
   65MPD2    N1 1001   2.153   3.787  15.571  0.7852 -0.2906  0.3081
   65MPD2    H7 1002   2.182   3.763  15.476 -1.7084 -0.4602 -0.4039
   66TCq2    C1 1003   2.134   3.919  15.603  0.6653  0.1084  0.2884
   66TCq2    O2 1004   2.123   3.967  15.714  0.2753 -0.1052 -0.9859
   66TCq2    C2 1005   2.128   4.006  15.486 -0.1113  0.0620  0.5543
   66TCq2    C3 1006   2.105   3.953  15.361  0.1018  0.2611  0.2407
   66TCq2    C4 1007   2.136   4.031  15.249  0.3245  0.2036 -0.2799
   66TCq2    C5 1008   2.179   4.156  15.263 -0.2057  0.0373 -0.0960
   66TCq2    C6 1009   2.204   4.199  15.389 -0.3798  0.0085  0.2545
   66TCq2    C7 1010   2.173   4.132  15.501 -0.0194  0.5112 -0.4831
   66TCq2    C8 1011   2.232   4.336  15.405 -0.1600  0.6689  0.3182
   66TCq2    O4 1012   2.296   4.395  15.318 -0.1854 -0.3653  0.1886
   66TCq2    C9 1013   2.106   3.971  15.120  0.7452  0.4193  0.0269
   66TCq2    O5 1014   2.142   4.037  15.021 -0.8450 -0.0961 -0.3908
   66TCq2    O6 1015   2.062   3.856  15.114 -0.4148  0.2910  0.0176
   66TCq2    H2 1016   2.052   3.860  15.350 -0.5412  0.6659 -0.0802
   66TCq2    H3 1017   2.183   4.219  15.175  1.7140  1.8446  1.2825
   66TCq2    H4 1018   2.223   4.161  15.593 -0.7344  0.7489 -0.1746
   67MPD2     C 1019   2.452   3.253  13.842  0.0349 -0.5278  0.1756
   67MPD2    C1 1020   2.355   3.218  13.935  0.2502 -0.7437 -0.1675
   67MPD2    C2 1021   2.223   3.217  13.896  0.0429 -0.3517  0.2725
   67MPD2    C3 1022   2.185   3.240  13.764 -0.7337  0.4096  1.0247
   67MPD2    C4 1023   2.283   3.279  13.674  0.0491  0.1907  0.8124
   67MPD2    C5 1024   2.415   3.288  13.713 -0.5863 -0.3924  0.4427
   67MPD2     H 1025   2.142   3.213  13.967  0.5768 -0.2392  0.8898
   67MPD2    H1 1026   2.266   3.316  13.573  1.8666  0.5849  0.6638
   67MPD2    H2 1027   2.554   3.270  13.874 -0.0588 -2.5290  1.5396
   67MPD2    H3 1028   2.489   3.334  13.649 -0.8092  0.1405  0.5729
   67MPD2     N 1029   2.050   3.259  13.748  0.0735 -0.4844 -0.1437
   67MPD2    H5 1030   1.994   3.240  13.830 -0.1978 -0.1500 -0.2531
   67MPD2    N1 1031   2.382   3.196  14.076 -0.2880 -0.3828  0.1435
   67MPD2    H7 1032   2.301   3.172  14.133 -1.1715 -1.4456 -1.5446
   68TCq2    C1 1033   2.501   3.200  14.136 -0.1120  0.3023  0.1223
   68TCq2    O2 1034   2.616   3.195  14.094 -0.0327 -0.1935 -0.1581
   68TCq2    C2 1035   2.478   3.225  14.278 -0.1336  0.3368  0.4454
   68TCq2    C3 1036   2.360   3.287  14.321  0.5908  0.0714 -0.1520
   68TCq2    C4 1037   2.346   3.324  14.449 -0.1396  0.5707  0.3404
   68TCq2    C5 1038   2.444   3.313  14.546  0.5049 -0.4567 -0.1508
   68TCq2    C6 1039   2.563   3.253  14.505 -0.4529  0.0963 -0.8956
   68TCq2    C7 1040   2.570   3.202  14.375  0.5508 -0.1069  0.1294
   68TCq2    C8 1041   2.683   3.251  14.580  0.3495 -0.7604 -0.2741
   68TCq2    O4 1042   2.782   3.218  14.514 -0.7303 -0.0133  0.2950
   68TCq2    C9 1043   2.227   3.399  14.482 -0.6049 -0.0765  0.8280
   68TCq2    O5 1044   2.140   3.416  14.397 -0.3438  0.0036 -0.3327
   68TCq2    O6 1045   2.215   3.440  14.602  0.0639 -0.0539  0.3108
   68TCq2    H2 1046   2.278   3.312  14.255 -0.4092 -1.3034  0.5791
   68TCq2    H3 1047   2.425   3.354  14.645 -1.5915  0.0229 -0.7431
   68TCq2    H4 1048   2.662   3.151  14.348 -0.1217 -1.4291  0.3448
   69TMC2    C1 1049   0.302   0.058  12.675 -0.6323 -0.1779 -0.6634
   69TMC2    C2 1050   0.202   0.146  12.709  0.3547 -0.0072 -0.5283
   69TMC2    C3 1051   0.147   0.219  12.608 -0.1168 -0.9080  0.5392
   69TMC2    C4 1052   0.354   0.039  12.556  0.0509 -0.1459 -0.0632
   69TMC2    C5 1053   0.299   0.113  12.455  0.3966  0.5370  0.0984
   69TMC2    C6 1054   0.198   0.206  12.475  0.2107  0.0083 -0.3523
   69TMC2     C 1055   0.378   4.710  12.779  0.5168  0.6363  0.1134
   69TMC2     O 1056   0.500   0.005  12.781 -0.0151 -1.2879  0.3370
   69TMC2     H 1057   0.179   0.171  12.812 -1.4709  1.2512 -1.2460
   69TMC2    H1 1058   0.435   4.692  12.541  0.0351 -0.0520 -0.5710
   69TMC2    H2 1059   0.164   0.276  12.399 -1.0660 -0.4045 -0.1674
   69TMC2    C7 1060   0.375   0.092  12.329  0.3656  0.1119  0.0629
   69TMC2    C8 1061   0.021   0.295  12.622  0.0028 -0.4848  0.4688
   69TMC2    O1 1062   0.478   0.027  12.340 -0.1682  0.4999 -0.4695
   69TMC2    O2 1063   4.692   0.357  12.528 -0.0335 -0.2695  0.1951
   69TMC2    O5 1064   4.693   0.275  12.745  0.0675  0.9403  0.6231
   69TMC2    H5 1065   0.024   0.204  12.785  0.5290  1.3314  0.7001
   70MPD2     C 1066   0.476   4.548  13.014 -0.1818  0.0708 -1.0327
   70MPD2    C1 1067   0.340   4.560  12.976  0.1797 -0.9407  0.5675
   70MPD2    C2 1068   0.239   4.484  13.032 -0.2409  0.2087  0.3416
   70MPD2    C3 1069   0.273   4.407  13.141 -0.1186  1.1362 -0.0870
   70MPD2    C4 1070   0.402   4.403  13.190 -0.7869 -1.2171 -0.2305
   70MPD2    C5 1071   0.502   4.467  13.120  0.4737 -0.4003 -0.3269
   70MPD2     H 1072   0.140   4.467  12.992 -0.0662 -0.8282  0.3700
   70MPD2    H1 1073   0.424   4.346  13.280 -1.5595 -0.5398  0.3852
   70MPD2    H2 1074   0.556   4.599  12.962  0.1953  0.4240 -0.1055
   70MPD2    H3 1075   0.604   4.457  13.153 -0.2625 -3.2305  1.0399
   70MPD2     N 1076   0.189   4.308  13.199  0.0809  1.0133  0.1273
   70MPD2    H5 1077   0.228   4.251  13.274  0.3012 -2.4306 -2.5891
   70MPD2    N1 1078   0.300   4.637  12.862  0.4904 -0.6986  1.4554
   70MPD2    H7 1079   0.200   4.644  12.846  0.5938 -2.0795  0.2349
   71TMC2    C1 1080   2.103   4.569   1.820  0.4472  0.4023 -0.6115
   71TMC2    C2 1081   2.154   4.606   1.941 -0.4487  0.4524  0.9456
   71TMC2    C3 1082   2.093   4.559   2.051  0.2824  0.6412  0.3678
   71TMC2    C4 1083   1.982   4.502   1.808 -0.3862 -0.2355 -0.1913
   71TMC2    C5 1084   1.930   4.450   1.928 -1.0156  0.3614  0.0314
   71TMC2    C6 1085   1.984   4.480   2.048 -0.0631 -0.2659 -0.5301
   71TMC2     C 1086   2.174   4.597   1.694  0.4919 -0.6274 -0.3009
   71TMC2     O 1087   2.113   4.583   1.590 -0.5204  0.0065  0.3303
   71TMC2     H 1088   2.251   4.653   1.952  0.4581 -1.1437 -0.1123
   71TMC2    H1 1089   1.961   4.465   1.709  1.7796 -1.5675 -0.1719
   71TMC2    H2 1090   1.937   4.452   2.142  1.2028  2.0965  0.8010
   71TMC2    C7 1091   1.811   4.367   1.925  0.7509  0.3948 -0.6326
   71TMC2    C8 1092   2.143   4.617   2.177 -0.4122  1.2939  0.2028
   71TMC2    O1 1093   1.789   4.310   2.030  0.0666  0.4197  0.5274
   71TMC2    O2 1094   2.192   0.012   2.184  0.0852 -0.5878 -0.8278
   71TMC2    O5 1095   2.083   4.550   2.281  0.2736 -0.3385  0.5641
   71TMC2    H5 1096   2.073   4.455   2.259  0.4999  0.0593 -1.2384
   72MPD2     C 1097   2.600   0.032   1.463 -0.8732 -0.1962  1.0308
   72MPD2    C1 1098   2.470   0.034   1.418 -0.6670  0.1094 -0.1587
   72MPD2    C2 1099   2.372   4.700   1.503 -0.3658 -0.7824 -0.3001
   72MPD2    C3 1100   2.403   4.650   1.627  0.1609  0.1218 -0.2213
   72MPD2    C4 1101   2.537   4.647   1.660 -0.9123 -0.1324  0.9227
   72MPD2    C5 1102   2.629   4.691   1.576  0.2308  0.1970  0.4867
   72MPD2     H 1103   2.267   4.711   1.474 -0.2060 -0.6954 -0.8546
   72MPD2    H1 1104   2.566   4.603   1.754 -2.7417 -1.7716  0.7433
   72MPD2    H2 1105   2.687   0.072   1.412 -1.2665  0.3828  0.8109
   72MPD2    H3 1106   2.729   4.682   1.616 -0.1353 -2.4858  0.8252
   72MPD2     N 1107   2.311   4.598   1.715 -0.4924  0.3502 -0.2186
   72MPD2    H5 1108   2.341   4.574   1.809  0.5757 -0.3464 -0.7339
   72MPD2    N1 1109   2.424   0.100   1.300 -0.5430  0.1383 -0.1275
   72MPD2    H7 1110   2.328   0.081   1.275 -0.1781 -1.1390 -0.5546
   73TMC2    C1 1111   1.801   1.996  13.568 -0.2757  0.2985 -0.4518
   73TMC2    C2 1112   1.715   2.029  13.671 -0.7321 -0.1691  0.2720
   73TMC2    C3 1113   1.762   2.075  13.785 -0.6840 -0.1228 -0.0625
   73TMC2    C4 1114   1.939   2.006  13.579 -0.2539 -0.1733 -0.4406
   73TMC2    C5 1115   1.985   2.077  13.688 -0.5279 -0.8118  0.2216
   73TMC2    C6 1116   1.895   2.111  13.792  0.2236  0.5768 -0.2100
   73TMC2     C 1117   1.768   2.027  13.436  0.0977 -0.5369  0.6149
   73TMC2     O 1118   1.852   2.094  13.377  0.1973  0.6132 -0.8457
   73TMC2     H 1119   1.608   2.014  13.658 -0.5084 -0.0045 -1.7703
   73TMC2    H1 1120   2.008   1.967  13.505  0.9450 -0.0016  0.5871
   73TMC2    H2 1121   1.937   2.162  13.878 -0.2494  1.9963 -0.8288
   73TMC2    C7 1122   2.062   2.197  13.649  0.2822 -0.2074 -0.2740
   73TMC2    C8 1123   1.672   2.143  13.880  0.4194 -0.3298  0.1894
   73TMC2    O1 1124   2.081   2.286  13.729 -0.0694 -0.2826  0.0173
   73TMC2    O2 1125   1.702   2.236  13.955  0.2640 -0.6104 -0.4172
   73TMC2    O5 1126   1.568   2.055  13.906 -0.1330 -0.6145  0.2328
   73TMC2    H5 1127   1.599   1.963  13.898 -0.7700 -0.8470  0.4382
   74MPD2     C 1128   1.449   2.141  13.054  0.2683  0.4810  0.1559
   74MPD2    C1 1129   1.581   2.173  13.074  0.4233  0.7206  0.5628
   74MPD2    C2 1130   1.645   2.118  13.184 -0.9501  0.2929 -0.0608
   74MPD2    C3 1131   1.578   2.036  13.281 -0.1476 -0.3223 -0.0349
   74MPD2    C4 1132   1.448   2.007  13.257 -0.0195  0.5898  0.2695
   74MPD2    C5 1133   1.383   2.060  13.145  0.4701 -1.2767  0.2416
   74MPD2     H 1134   1.749   2.147  13.198 -1.8898  2.7663  1.8427
   74MPD2    H1 1135   1.387   1.962  13.335  1.6952  1.3410  2.0218
   74MPD2    H2 1136   1.389   2.182  12.973  2.2314 -0.1528 -1.6150
   74MPD2    H3 1137   1.275   2.053  13.137  0.7756 -1.0093 -4.1172
   74MPD2     N 1138   1.637   2.003  13.406 -0.3901  0.5999  0.5820
   74MPD2    H5 1139   1.587   1.937  13.465 -1.1126  1.3671  0.8267
   74MPD2    N1 1140   1.643   2.257  12.978 -0.2102 -0.0618  0.0254
   74MPD2    H7 1141   1.591   2.274  12.892  1.1401  1.6840 -0.4462
   75TCq2    C1 1142   1.982   3.301  13.637  0.1725  0.1730  1.0158
   75TCq2    O2 1143   2.026   3.355  13.536  0.1974 -0.8271 -0.2323
   75TCq2    C2 1144   1.838   3.292  13.650 -0.1528  0.1929 -0.1635
   75TCq2    C3 1145   1.790   3.194  13.729  0.1534  0.1339  0.1030
   75TCq2    C4 1146   1.656   3.186  13.753 -0.6878  0.4552 -0.2753
   75TCq2    C5 1147   1.568   3.266  13.681 -0.2714  0.3666  0.0400
   75TCq2    C6 1148   1.617   3.360  13.598  0.2874 -0.1813  0.5580
   75TCq2    C7 1149   1.749   3.377  13.578 -0.2528 -0.3758 -0.2061
   75TCq2    C8 1150   1.539   3.412  13.488  0.2472  0.7008  0.5321
   75TCq2    O4 1151   1.590   3.435  13.375  0.1536  0.1968  0.4019
   75TCq2    C9 1152   1.592   3.095  13.849 -0.1433  0.3536  0.2598
   75TCq2    O5 1153   1.473   3.081  13.847 -0.0201  0.5777  0.1443
   75TCq2    O6 1154   1.664   3.046  13.941  0.1945 -0.6235 -0.4808
   75TCq2    H2 1155   1.855   3.124  13.780  2.2461 -0.4153 -3.3439
   75TCq2    H3 1156   1.465   3.278  13.714  0.3117  1.4420  1.4233
   75TCq2    H4 1157   1.785   3.455  13.512 -1.2127 -1.3372 -1.8675
   76MPD2     C 1158   1.380   4.386  12.115  0.3895  0.4314  0.2745
   76MPD2    C1 1159   1.279   4.323  12.045 -0.1256  0.1131 -1.2076
   76MPD2    C2 1160   1.266   4.189  12.054 -0.6222  0.9284  0.4140
   76MPD2    C3 1161   1.347   4.120  12.140 -0.6151  0.3295 -0.1551
   76MPD2    C4 1162   1.442   4.176  12.210 -0.2444 -0.5430 -0.1580
   76MPD2    C5 1163   1.459   4.313  12.202 -0.2422  0.2171 -0.0057
   76MPD2     H 1164   1.198   4.144  11.982  0.7831 -0.8836  0.2244
   76MPD2    H1 1165   1.495   4.120  12.285  0.5840 -1.3102 -1.3170
   76MPD2    H2 1166   1.409   4.490  12.105  0.3794  0.4166  0.0969
   76MPD2    H3 1167   1.533   4.359  12.266 -1.1295  2.1426 -0.3619
   76MPD2     N 1168   1.345   3.981  12.154 -0.4963  0.3789  0.4228
   76MPD2    H5 1169   1.410   3.932  12.214  0.5412  1.2280 -0.0024
   76MPD2    N1 1170   1.197   4.391  11.954  0.7394  0.3644  0.6027
   76MPD2    H7 1171   1.142   4.337  11.887  1.6255 -1.1426  1.0813
   77TCq2    C1 1172   1.245   3.899  12.109 -0.5820 -0.7308 -0.1831
   77TCq2    O2 1173   1.134   3.921  12.057 -0.1206 -0.6771 -0.2076
   77TCq2    C2 1174   1.280   3.754  12.131 -0.3147  0.3961 -0.3350
   77TCq2    C3 1175   1.247   3.671  12.025 -0.4535 -0.2799  0.0020
   77TCq2    C4 1176   1.291   3.541  12.015  0.5415 -0.3282  0.1235
   77TCq2    C5 1177   1.378   3.490  12.113 -0.4885  0.2145 -0.4176
   77TCq2    C6 1178   1.410   3.583  12.209 -0.6207 -0.5345 -0.1536
   77TCq2    C7 1179   1.370   3.714  12.221  0.0500 -0.1873  0.4497
   77TCq2    C8 1180   1.497   3.533  12.314  0.4085 -0.5832 -0.5380
   77TCq2    O4 1181   1.487   3.419  12.361 -0.2148 -0.2263 -0.0391
   77TCq2    C9 1182   1.248   3.458  11.904 -0.0341 -0.5723  0.2614
   77TCq2    O5 1183   1.222   3.525  11.799 -0.0056 -0.3315 -0.0416
   77TCq2    O6 1184   1.290   3.339  11.897  0.2747 -0.3011 -0.0104
   77TCq2    H2 1185   1.176   3.699  11.948 -1.1222 -1.9558  0.0154
   77TCq2    H3 1186   1.413   3.388  12.121 -1.6895 -0.0590  1.2978
   77TCq2    H4 1187   1.403   3.772  12.307  0.8769 -1.2355  0.8415
   78MPD1     C 1188   3.689   0.608   2.260 -0.3913  0.1361  0.4928
   78MPD1    C1 1189   3.731   0.696   2.161 -0.1702  0.0548 -0.2890
   78MPD1    C2 1190   3.810   0.647   2.060 -0.1216 -0.8640 -0.5289
   78MPD1    C3 1191   3.837   0.507   2.051  0.0987 -0.3489  0.3662
   78MPD1    C4 1192   3.788   0.428   2.144 -0.3683  0.7995  0.1281
   78MPD1    C5 1193   3.708   0.469   2.246 -0.6923  0.0899  0.3739
   78MPD1     H 1194   3.861   0.719   1.998  1.5223  0.1091  1.9332
   78MPD1    H1 1195   3.818   0.324   2.142  0.5163  1.1088 -2.6268
   78MPD1    H2 1196   3.622   0.643   2.338 -0.3443 -1.1693  1.1194
   78MPD1    H3 1197   3.659   0.400   2.314  0.8886 -2.2214 -0.8098
   78MPD1     N 1198   3.922   0.453   1.952  0.7961  0.8303  0.0522
   78MPD1    H5 1199   3.940   0.354   1.966 -0.2249  0.6341 -0.0115
   78MPD1    N1 1200   3.734   0.832   2.191  0.3083  0.2171  0.0571
   78MPD1    H6 1201   3.714   0.890   2.110 -2.8346 -1.5982 -0.4881
   78MPD1    H7 1202   3.681   0.859   2.274  2.0233  1.2361  0.8145
   79TCq2    C1 1203   3.971   0.517   1.844 -0.6237  1.0259  0.5311
   79TCq2    O2 1204   3.941   0.633   1.808 -0.6779 -0.1026 -0.0517
   79TCq2    C2 1205   4.071   0.446   1.763  0.3755  0.0792 -0.0639
   79TCq2    C3 1206   4.152   0.523   1.686  0.8936  0.4572 -0.4817
   79TCq2    C4 1207   4.241   0.453   1.606 -0.1779 -0.3899  0.6702
   79TCq2    C5 1208   4.231   0.319   1.597 -0.2752  0.1740  0.5246
   79TCq2    C6 1209   4.138   0.244   1.666  0.2667 -0.4427  0.2242
   79TCq2    C7 1210   4.058   0.311   1.753 -0.1647 -0.3121 -0.1781
   79TCq2    C8 1211   4.119   0.106   1.654  0.0519  0.6813  0.0227
   79TCq2    O4 1212   4.036   0.042   1.721  0.2069 -0.3547  0.5972
   79TCq2    C9 1213   4.323   0.532   1.514 -1.2190  0.3406  0.8251
   79TCq2    O5 1214   4.343   0.654   1.537  0.3646  0.4778 -0.1437
   79TCq2    O6 1215   4.388   0.466   1.430 -0.1261  0.2410 -0.3239
   79TCq2    H2 1216   4.156   0.631   1.686  3.1152  0.3717 -0.6351
   79TCq2    H3 1217   4.298   0.280   1.521  1.2148  1.6022  1.0961
   79TCq2    H4 1218   3.971   0.258   1.791  0.2642 -1.0047 -0.1439
   80MPD2     C 1219   4.326   4.150  12.547 -1.1781 -0.4592  0.1997
   80MPD2    C1 1220   4.246   4.096  12.447  0.6870  0.0621  0.0273
   80MPD2    C2 1221   4.109   4.095  12.467 -0.4322 -0.1916 -0.5424
   80MPD2    C3 1222   4.056   4.127  12.582  0.1274 -0.3876 -0.1337
   80MPD2    C4 1223   4.137   4.145  12.689 -0.3004 -0.5461 -0.3120
   80MPD2    C5 1224   4.267   4.150  12.678  0.5540 -0.2118  0.2167
   80MPD2     H 1225   4.046   4.059  12.386 -0.5899  0.0310 -0.5185
   80MPD2    H1 1226   4.096   4.159  12.788  0.2649 -0.5978 -0.0654
   80MPD2    H2 1227   4.434   4.154  12.549 -1.0970 -2.2633 -0.4297
   80MPD2    H3 1228   4.330   4.161  12.765  1.2292 -0.9622 -0.1770
   80MPD2     N 1229   3.919   4.114  12.612 -0.1251  0.3428 -0.1056
   80MPD2    H5 1230   3.884   4.106  12.707  0.4939 -1.6488 -0.0376
   80MPD2    N1 1231   4.315   4.055  12.327 -0.4549 -0.1211 -0.3897
   80MPD2    H7 1232   4.265   4.033  12.241 -0.3957  0.3420 -0.5459
   81TCq2    C1 1233   4.450   4.038  12.306 -0.0312  1.0531  0.0374
   81TCq2    O2 1234   4.537   4.022  12.394  0.3344  0.5445 -0.2414
   81TCq2    C2 1235   4.492   3.981  12.176  0.3247 -0.3530 -0.4258
   81TCq2    C3 1236   4.629   3.988  12.152 -0.5192 -0.3363 -0.0013
   81TCq2    C4 1237   4.671   3.942  12.032 -0.5407  0.9541 -0.3624
   81TCq2    C5 1238   4.588   3.878  11.943 -0.2248 -0.2144  0.5615
   81TCq2    C6 1239   4.458   3.870  11.974 -0.3772  0.6617  0.5890
   81TCq2    C7 1240   4.402   3.918  12.095 -0.2551 -0.1567  0.8934
   81TCq2    C8 1241   4.378   3.783  11.884 -0.4732  0.4065 -1.0817
   81TCq2    O4 1242   4.415   3.770  11.766 -0.1008  0.0754  0.1835
   81TCq2    C9 1243   0.078   3.970  11.988  0.1620  0.5907  0.3947
   81TCq2    O5 1244   0.129   4.080  12.024 -0.5846  0.0644  0.1022
   81TCq2    O6 1245   0.137   3.872  11.934 -0.1415  0.1171  0.5172
   81TCq2    H2 1246   4.693   4.051  12.212  0.3028  0.4210 -1.6703
   81TCq2    H3 1247   4.626   3.842  11.848  3.2224 -0.5218  2.0392
   81TCq2    H4 1248   4.308   3.875  12.128 -0.5263 -0.8772 -0.7983
   82MPD2     C 1249   3.126   3.483  10.688 -0.6257 -0.3485 -0.1264
   82MPD2    C1 1250   3.026   3.387  10.672 -0.6311  0.4220  0.4407
   82MPD2    C2 1251   3.065   3.260  10.715  0.0948 -0.1317  0.7956
   82MPD2    C3 1252   3.190   3.223  10.759 -0.4561  0.0387  0.0045
   82MPD2    C4 1253   3.280   3.324  10.781 -0.4646 -0.1180  0.5134
   82MPD2    C5 1254   3.250   3.449  10.727 -0.5253 -0.0646 -0.0188
   82MPD2     H 1255   2.989   3.185  10.698  1.1714 -0.5014 -2.3088
   82MPD2    H1 1256   3.376   3.301  10.824 -0.0805 -0.0005 -0.2798
   82MPD2    H2 1257   3.106   3.585  10.658  1.2100  0.0419 -0.0324
   82MPD2    H3 1258   3.319   3.532  10.732 -1.1995  0.3416  2.8451
   82MPD2     N 1259   3.233   3.097  10.808 -0.0370 -0.9672 -0.5119
   82MPD2    H5 1260   3.327   3.087  10.843 -0.3316  2.0097  1.1092
   82MPD2    N1 1261   2.896   3.425  10.624 -0.6977 -0.0359 -0.3409
   82MPD2    H7 1262   2.892   3.521  10.593  0.6805 -0.2525 -1.1740
   83TCq2    C1 1263   3.167   2.975  10.799  0.5165  0.1772 -0.2348
   83TCq2    O2 1264   3.054   2.964  10.760 -0.1465  0.1858  0.1378
   83TCq2    C2 1265   3.234   2.850  10.840  0.0673  0.5644  0.3538
   83TCq2    C3 1266   3.365   2.857  10.880 -0.7042 -0.3873  0.2446
   83TCq2    C4 1267   3.423   2.742  10.926 -0.2763 -0.0051  0.1194
   83TCq2    C5 1268   3.343   2.621  10.933  0.2720  0.3748 -0.0940
   83TCq2    C6 1269   3.211   2.625  10.892  0.1205  0.4494  0.5947
   83TCq2    C7 1270   3.155   2.740  10.837 -0.4751 -0.1360 -0.0167
   83TCq2    C8 1271   3.148   2.498  10.874  0.5369  0.4197 -0.1202
   83TCq2    O4 1272   3.170   2.418  10.962  0.3802 -0.0660  0.3800
   83TCq2    C9 1273   3.559   2.741  10.969  0.0478 -0.2523 -0.4179
   83TCq2    O5 1274   3.608   2.635  11.022 -0.3265 -0.3045  0.4295
   83TCq2    O6 1275   3.611   2.851  10.988  0.5193  0.0161  0.2566
   83TCq2    H2 1276   3.419   2.951  10.873 -0.3919 -0.8980 -4.4429
   83TCq2    H3 1277   3.385   2.537  10.986 -1.0220 -0.5476 -0.5275
   83TCq2    H4 1278   3.053   2.743  10.799 -0.4478  1.8564  0.0836
   84TCq2    C1 1279   3.991   1.727  10.154 -0.0846  0.1833 -0.2605
   84TCq2    O2 1280   4.001   1.850  10.139 -0.5834 -0.4693 -0.2329
   84TCq2    C2 1281   4.038   1.671  10.277 -0.1714  0.2100  0.4814
   84TCq2    C3 1282   4.084   1.542  10.282 -0.1814  0.2360 -0.1658
   84TCq2    C4 1283   4.123   1.493  10.403 -0.0737  0.6182 -0.5098
   84TCq2    C5 1284   4.075   1.556  10.515 -0.0898  0.2437  0.6836
   84TCq2    C6 1285   4.039   1.686  10.505 -0.3208  0.1790  0.1989
   84TCq2    C7 1286   4.020   1.746  10.382 -0.3156 -0.5044  1.2561
   84TCq2    C8 1287   4.009   1.761  10.623 -0.7230  0.3123  0.1607
   84TCq2    O4 1288   3.982   1.879  10.603  0.4717 -0.1358 -0.2756
   84TCq2    C9 1289   4.177   1.362  10.411 -0.4949 -0.2507  0.1180
   84TCq2    O5 1290   4.141   1.290  10.509 -0.3306 -0.3173  0.1033
   84TCq2    O6 1291   4.228   1.315  10.304 -0.5752 -0.0400  0.7037
   84TCq2    H2 1292   4.117   1.492  10.191  1.4108 -1.2222  1.2112
   84TCq2    H3 1293   4.101   1.505  10.607 -0.4200 -2.2413 -0.5861
   84TCq2    H4 1294   3.990   1.850  10.372  1.1319 -0.3480 -1.2261
   85MPD2     C 1295   4.426   4.555  16.614 -0.3917 -0.1812  0.0810
   85MPD2    C1 1296   4.390   4.564  16.484  0.3963  0.5378  0.4766
   85MPD2    C2 1297   4.449   4.657  16.400  0.0089  0.0621  0.2464
   85MPD2    C3 1298   4.545   0.025  16.447  0.3570  0.1458  0.1698
   85MPD2    C4 1299   4.588   0.013  16.579  0.3719  0.7259  0.0928
   85MPD2    C5 1300   4.534   4.631  16.652 -0.3183  0.1636  0.2350
   85MPD2     H 1301   4.418   4.663  16.297 -1.7643  1.5981  0.8783
   85MPD2    H1 1302   4.670   0.072  16.619  0.4644 -0.0672  1.0537
   85MPD2    H2 1303   4.378   4.489  16.685  0.7771  0.1596  1.1857
   85MPD2    H3 1304   4.575   4.630  16.752 -1.2645 -3.1089  0.5857
   85MPD2     N 1305   4.606   0.136  16.372 -0.2889 -0.8202  0.0507
   85MPD2    H5 1306   4.670   0.194  16.424 -1.0182  0.2082 -0.2015
   85MPD2    N1 1307   4.301   4.469  16.428  0.3025 -0.0647  0.4196
   85MPD2    H7 1308   4.297   4.477  16.327 -2.8930 -1.4700  0.4285
   86TCq2    C1 1309   4.574   0.163  16.243  0.3968  0.4492 -0.8065
   86TCq2    O2 1310   4.509   0.095  16.167 -0.0351  0.2807 -0.2084
   86TCq2    C2 1311   4.637   0.294  16.194  0.6963  0.0703 -0.1254
   86TCq2    C3 1312   4.648   0.399  16.286 -0.8455  0.2686 -0.1184
   86TCq2    C4 1313   4.688   0.514  16.237 -0.4832  0.1616  0.0144
   86TCq2    C5 1314   4.710   0.538  16.101  0.2698 -0.4627  0.0785
   86TCq2    C6 1315   4.694   0.433  16.017  0.1146  0.2180 -0.0773
   86TCq2    C7 1316   4.659   0.314  16.060 -0.5329  0.6689  0.0533
   86TCq2    C8 1317   0.054   0.432  15.898  0.5864  0.3722 -0.3339
   86TCq2    O4 1318   0.161   0.374  15.917  0.1976  0.0671 -0.0411
   86TCq2    C9 1319   0.009   0.618  16.326  0.1623  0.0061 -0.0826
   86TCq2    O5 1320   0.017   0.732  16.270 -0.0732  0.1805  0.4009
   86TCq2    O6 1321   4.717   0.600  16.450 -0.4932  0.7537  0.1404
   86TCq2    H2 1322   4.616   0.387  16.389  0.1589  0.1008  0.1725
   86TCq2    H3 1323   0.031   0.630  16.064 -0.0102 -0.0654  0.7308
   86TCq2    H4 1324   4.662   0.231  15.990 -0.8283  0.7538 -0.0601
   87MPD2     C 1325   3.237   4.044   1.838  0.0417 -0.5523 -0.2293
   87MPD2    C1 1326   3.213   4.009   1.704 -0.4124  0.3290  0.0361
   87MPD2    C2 1327   3.110   4.074   1.641 -0.2041 -0.0288  0.5406
   87MPD2    C3 1328   3.040   4.175   1.709 -0.3513  0.0676 -0.9553
   87MPD2    C4 1329   3.069   4.214   1.839 -0.1118  0.0689 -0.0889
   87MPD2    C5 1330   3.179   4.151   1.894  0.0154  0.0847 -0.1172
   87MPD2     H 1331   3.078   4.041   1.543  1.3273 -0.9221  0.3340
   87MPD2    H1 1332   3.021   4.293   1.896 -0.7662  0.4290 -1.1386
   87MPD2    H2 1333   3.309   3.993   1.901 -0.1994 -1.7078 -0.8874
   87MPD2    H3 1334   3.198   4.176   1.997  0.2102  0.0787 -0.1505
   87MPD2     N 1335   2.923   4.231   1.660 -0.4388  0.3250 -0.7747
   87MPD2    H5 1336   2.878   4.292   1.727 -1.6043 -0.2263 -1.0566
   87MPD2    N1 1337   3.288   3.899   1.658 -0.1585 -0.2319  0.7659
   87MPD2    H7 1338   3.342   3.852   1.730 -0.9808  0.4353  1.8025
   88TCq2    C1 1339   3.274   3.836   1.532  0.5132 -0.5762  0.6540
   88TCq2    O2 1340   3.221   3.884   1.434 -0.2200 -0.2523  0.2424
   88TCq2    C2 1341   3.347   3.713   1.522 -0.7786 -0.0676  0.0880
   88TCq2    C3 1342   3.392   3.652   1.637  0.2776  0.0866  0.0358
   88TCq2    C4 1343   3.426   3.519   1.633 -0.8036  0.2219  0.0049
   88TCq2    C5 1344   3.424   3.455   1.505 -0.2356  0.7691  0.2258
   88TCq2    C6 1345   3.380   3.523   1.397 -0.0027  0.0236 -0.1488
   88TCq2    C7 1346   3.340   3.650   1.400  0.1776 -0.0628 -1.2576
   88TCq2    C8 1347   3.420   3.469   1.265 -0.4124  0.0295 -1.0204
   88TCq2    O4 1348   3.436   3.347   1.264 -0.3038  0.3652 -0.0559
   88TCq2    C9 1349   3.467   3.447   1.748 -0.7131 -0.1057  0.3122
   88TCq2    O5 1350   3.478   3.507   1.858 -0.4886  0.6425 -0.0284
   88TCq2    O6 1351   3.480   3.322   1.742 -0.3108  0.0230 -0.0025
   88TCq2    H2 1352   3.403   3.693   1.737  2.5267 -1.2291  0.3282
   88TCq2    H3 1353   3.469   3.356   1.500  0.3201  0.8947  2.7557
   88TCq2    H4 1354   3.274   3.692   1.325 -0.4900  1.2322  0.0494
   89MPD2     C 1355   2.479   0.931   2.354  0.4040 -0.1040 -0.2648
   89MPD2    C1 1356   2.448   1.008   2.236  0.3248 -0.0039 -0.5260
   89MPD2    C2 1357   2.555   1.067   2.158 -0.1189 -0.2477 -0.5968
   89MPD2    C3 1358   2.684   1.066   2.200 -0.7840  0.8322 -0.3409
   89MPD2    C4 1359   2.712   1.005   2.324 -0.0694  0.1725  0.3726
   89MPD2    C5 1360   2.611   0.938   2.391  0.0092 -0.0487 -0.0981
   89MPD2     H 1361   2.534   1.111   2.061  2.0356 -2.0492 -1.8734
   89MPD2    H1 1362   2.812   0.999   2.365 -0.4369  0.0978  1.2510
   89MPD2    H2 1363   2.410   0.876   2.417  1.0298 -2.0294 -1.2444
   89MPD2    H3 1364   2.647   0.879   2.475  3.3649  0.2356 -1.3267
   89MPD2     N 1365   2.784   1.138   2.138 -0.0252 -0.3580 -0.3695
   89MPD2    H5 1366   2.883   1.136   2.161 -0.3043 -0.7951  0.7761
   89MPD2    N1 1367   2.322   1.011   2.183  0.0858  0.5110  0.0189
   89MPD2    H7 1368   2.313   1.042   2.086  1.1994 -1.3424 -0.6684
   90TCq2    C1 1369   2.766   1.221   2.031  0.5848 -0.2253  0.5682
   90TCq2    O2 1370   2.665   1.268   1.987  0.0540 -0.4631 -0.1573
   90TCq2    C2 1371   2.890   1.270   1.983 -1.0989  0.1414  0.0522
   90TCq2    C3 1372   3.007   1.195   1.992 -0.4656  0.2600  0.2801
   90TCq2    C4 1373   3.124   1.265   1.983 -0.5820 -0.1241  0.0864
   90TCq2    C5 1374   3.131   1.396   1.947 -0.9639  0.1152  0.2010
   90TCq2    C6 1375   3.014   1.458   1.926 -0.1390 -0.1836  1.0071
   90TCq2    C7 1376   2.891   1.407   1.959  0.2445  0.1731  0.3140
   90TCq2    C8 1377   3.010   1.570   1.839 -0.6190  0.0436  0.7509
   90TCq2    O4 1378   2.918   1.649   1.851 -0.0434 -0.5061  0.1542
   90TCq2    C9 1379   3.249   1.197   1.997  0.4754 -0.4243 -0.1552
   90TCq2    O5 1380   3.351   1.271   2.033  0.1527 -0.3289  0.4012
   90TCq2    O6 1381   3.253   1.072   1.977  0.2874  0.8160 -0.3077
   90TCq2    H2 1382   3.013   1.089   2.014  0.1465  0.4759  1.1290
   90TCq2    H3 1383   3.227   1.447   1.935 -0.4646 -1.1104 -1.0225
   90TCq2    H4 1384   2.808   1.464   1.920  1.7204  0.5647 -2.1933
   91TMC2    C1 1385   4.618   1.233  16.336  0.0483  0.4861 -0.2931
   91TMC2    C2 1386   4.621   1.362  16.289 -0.3578 -0.2009 -0.4230
   91TMC2    C3 1387   4.498   1.422  16.267  0.0068 -0.4702  0.5463
   91TMC2    C4 1388   4.502   1.165  16.343  0.2985 -0.1706  0.6780
   91TMC2    C5 1389   4.390   1.229  16.318 -0.0336  0.2104 -0.4820
   91TMC2    C6 1390   4.382   1.360  16.292  0.5312 -0.4695 -0.6099
   91TMC2     C 1391   0.025   1.167  16.354 -0.0649  0.1214 -0.5130
   91TMC2     O 1392   0.036   1.054  16.399 -0.0021 -0.2479  0.3691
   91TMC2     H 1393   4.713   1.419  16.298  0.5551 -1.1723 -3.4478
   91TMC2    H1 1394   4.495   1.058  16.361 -1.8390  0.1089  1.3916
   91TMC2    H2 1395   4.299   1.426  16.270  0.0243 -0.2945  1.8669
   91TMC2    C7 1396   4.267   1.169  16.366 -0.1382  0.4743  0.1148
   91TMC2    C8 1397   4.484   1.566  16.233  0.1134  0.1555  0.3084
   91TMC2    O1 1398   4.271   1.066  16.436 -0.0648  0.2204 -0.6217
   91TMC2    O2 1399   4.378   1.629  16.245 -0.2160  0.2616  0.2552
   91TMC2    O5 1400   4.604   1.609  16.188  0.2704  0.2218 -0.0265
   91TMC2    H5 1401   4.668   1.535  16.179 -0.5370 -0.3545 -0.9605
   92MPD2     C 1402   0.318   1.090  16.343 -0.0245 -0.1686  0.3953
   92MPD2    C1 1403   0.267   1.212  16.306  0.6072  0.1006 -0.1431
   92MPD2    C2 1404   0.357   1.308  16.264  0.0386 -0.0424 -0.1404
   92MPD2    C3 1405   0.489   1.275  16.238  0.2005 -0.0394 -0.2601
   92MPD2    C4 1406   0.533   1.150  16.257  0.0078  0.6738 -0.6124
   92MPD2    C5 1407   0.447   1.062  16.308 -0.1831  0.4142  0.0223
   92MPD2     H 1408   0.318   1.408  16.246  1.0947  0.7924  2.1830
   92MPD2    H1 1409   0.633   1.112  16.242  1.1259  3.3611 -0.0693
   92MPD2    H2 1410   0.255   1.010  16.380  0.4207 -0.2445  0.9924
   92MPD2    H3 1411   0.483   0.967  16.345  0.4834  0.3056 -0.9239
   92MPD2     N 1412   0.577   1.375  16.180  0.6936 -0.8216  0.0740
   92MPD2    H5 1413   0.538   1.469  16.173  1.5498 -0.4454  0.3420
   92MPD2    N1 1414   0.133   1.243  16.316  0.2983 -0.3977  0.5976
   92MPD2    H7 1415   0.122   1.331  16.266 -0.8333 -1.0549 -0.3185
   93MPD2     C 1416   1.512   1.338  13.392  0.4125  0.1311  0.1270
   93MPD2    C1 1417   1.487   1.452  13.467 -0.6724  0.1376  0.7647
   93MPD2    C2 1418   1.360   1.469  13.519 -0.7917 -0.2951 -0.1618
   93MPD2    C3 1419   1.266   1.375  13.500 -0.4755 -0.5879 -0.1395
   93MPD2    C4 1420   1.294   1.257  13.432  0.4615  0.1746 -0.4647
   93MPD2    C5 1421   1.417   1.245  13.374 -0.0633  0.4640 -0.5270
   93MPD2     H 1422   1.347   1.555  13.583 -0.9702  1.5313 -2.6769
   93MPD2    H1 1423   1.226   1.175  13.411  0.0978  0.8355 -1.8666
   93MPD2    H2 1424   1.610   1.321  13.352  0.5356  1.7957 -0.2975
   93MPD2    H3 1425   1.447   1.154  13.323  1.7055  0.0643  1.2271
   93MPD2     N 1426   1.139   1.392  13.559 -0.6551 -0.2435 -0.1055
   93MPD2    H5 1427   1.073   1.319  13.538  1.8931 -2.6103  0.0994
   93MPD2    N1 1428   1.583   1.553  13.486  0.8762 -0.1414  0.1423
   93MPD2    H7 1429   1.548   1.639  13.526 -1.2466  0.1429 -2.2951
   94TCq2    C1 1430   1.712   1.542  13.463 -0.1304 -0.0647 -0.5708
   94TCq2    O2 1431   1.779   1.456  13.405  0.8621 -0.2778  0.5784
   94TCq2    C2 1432   1.803   1.620  13.551 -0.1425  0.1667  0.3795
   94TCq2    C3 1433   1.740   1.669  13.660 -0.4475  0.4159 -0.3023
   94TCq2    C4 1434   1.826   1.702  13.763  0.0598  0.2585 -0.6547
   94TCq2    C5 1435   1.962   1.703  13.747  0.2558  0.3977  0.5381
   94TCq2    C6 1436   2.012   1.663  13.629  0.1042  0.1790 -0.1010
   94TCq2    C7 1437   1.940   1.615  13.526 -0.4460  0.4856  0.1647
   94TCq2    C8 1438   2.153   1.672  13.616  0.9707  0.9686 -0.7443
   94TCq2    O4 1439   2.221   1.691  13.718 -0.0561  0.2272  0.1274
   94TCq2    C9 1440   1.765   1.759  13.879 -0.1580 -0.1278  0.4460
   94TCq2    O5 1441   1.646   1.804  13.879  0.2343 -0.0778 -0.1046
   94TCq2    O6 1442   1.844   1.773  13.974  0.0405  0.6133  0.3465
   94TCq2    H2 1443   1.634   1.689  13.674 -0.5291 -1.0184  1.1340
   94TCq2    H3 1444   2.026   1.744  13.824  1.3225  2.1358 -1.2814
   94TCq2    H4 1445   1.971   1.574  13.431  3.0937  0.0246  1.5215
   95TMC2    C1 1446   1.611   2.516  15.911 -0.3613 -0.2293  0.2452
   95TMC2    C2 1447   1.694   2.405  15.923  0.2138  0.4809 -0.5605
   95TMC2    C3 1448   1.700   2.346  16.053  0.1736 -0.7413 -0.7081
   95TMC2    C4 1449   1.557   2.576  16.024 -0.6137  0.1466  0.6739
   95TMC2    C5 1450   1.590   2.535  16.148  0.0773 -0.3005  0.8007
   95TMC2    C6 1451   1.648   2.410  16.164 -0.1999  0.0556  0.1307
   95TMC2     C 1452   1.643   2.600  15.803 -0.4886 -0.4909 -0.8849
   95TMC2     O 1453   1.758   2.590  15.754 -0.3385 -0.2153  0.1130
   95TMC2     H 1454   1.736   2.352  15.838  2.9066  2.0784 -0.2225
   95TMC2    H1 1455   1.493   2.663  16.014  1.5084  1.6137 -0.1312
   95TMC2    H2 1456   1.670   2.378  16.265  2.1375  3.2107  0.6053
   95TMC2    C7 1457   1.517   2.592  16.261 -0.8994  0.0750  0.1030
   95TMC2    C8 1458   1.771   2.222  16.066 -0.0031  0.1895 -0.7253
   95TMC2    O1 1459   1.489   2.705  16.236  0.4673  0.6953 -0.0365
   95TMC2    O2 1460   1.862   2.196  15.986  0.2712  0.5364 -0.0257
   95TMC2    O5 1461   1.748   2.156  16.177  0.2675 -0.2701 -0.2631
   95TMC2    H5 1462   1.680   2.196  16.234 -0.1445 -1.7916  0.3270
   96MPD2     C 1463   1.641   3.113  15.702  0.8768  0.7360  0.0120
   96MPD2    C1 1464   1.732   3.017  15.647 -0.1822  0.8446  0.0768
   96MPD2    C2 1465   1.718   2.884  15.694  0.3075 -0.4625 -0.3124
   96MPD2    C3 1466   1.603   2.844  15.761 -0.1100 -0.8715 -0.4477
   96MPD2    C4 1467   1.509   2.941  15.799 -0.3068 -0.1242  0.4454
   96MPD2    C5 1468   1.536   3.074  15.781  0.2125  0.7140  0.2972
   96MPD2     H 1469   1.788   2.807  15.662  1.0888  0.1993 -0.1845
   96MPD2    H1 1470   1.416   2.909  15.846 -1.7483  0.3386 -2.1183
   96MPD2    H2 1471   1.647   3.216  15.668  0.0009  0.5019 -0.8472
   96MPD2    H3 1472   1.462   3.146  15.813  0.2958  1.0111 -0.1907
   96MPD2     N 1473   1.561   2.712  15.795 -1.2324 -0.7459  0.0478
   96MPD2    H5 1474   1.465   2.697  15.825 -1.4772  0.5740 -0.0513
   96MPD2    N1 1475   1.837   3.066  15.560  0.1690  0.3166 -0.0141
   96MPD2    H7 1476   1.851   3.166  15.560 -1.7940  0.5915  0.4322
   97MPD2     C 1477   3.712   4.593   1.573 -0.5767  0.2219 -0.0324
   97MPD2    C1 1478   3.750   4.719   1.534 -0.6024  0.9459 -0.4115
   97MPD2    C2 1479   3.831   0.007   1.418 -0.2463 -0.4196  0.0562
   97MPD2    C3 1480   3.874   4.616   1.354 -0.2420  0.4940 -0.2269
   97MPD2    C4 1481   3.833   4.487   1.404 -0.0745 -0.5388  0.0418
   97MPD2    C5 1482   3.747   4.479   1.505 -0.0366  0.5029  0.2907
   97MPD2     H 1483   3.860   0.104   1.379  0.8740 -0.5863  0.4722
   97MPD2    H1 1484   3.863   4.392   1.361 -1.2468 -0.4692 -0.9275
   97MPD2    H2 1485   3.641   4.586   1.654  1.3013  1.2154  1.6866
   97MPD2    H3 1486   3.706   4.383   1.536  0.2335  1.1943  2.7792
   97MPD2     N 1487   3.952   4.617   1.233 -0.1367 -0.0936 -0.3543
   97MPD2    H5 1488   3.959   4.533   1.177  0.1935  0.9191 -1.8444
   97MPD2    N1 1489   3.712   0.104   1.613 -0.6672  0.1934 -0.4284
   97MPD2    H7 1490   3.661   0.083   1.698 -0.8542 -0.2963 -0.6600
   98TCq2    C1 1491   3.994   0.016   1.177 -0.0171  0.3795 -1.3413
   98TCq2    O2 1492   3.980   0.134   1.205 -0.6407 -0.0928 -0.3213
   98TCq2    C2 1493   4.044   4.716   1.046  0.5681 -0.3313  0.1490
   98TCq2    C3 1494   4.117   4.604   1.017 -0.2350 -0.5436  0.8865
   98TCq2    C4 1495   4.137   4.572   0.886  0.4231 -0.1318  0.8173
   98TCq2    C5 1496   4.077   4.642   0.782  0.0309  0.0935 -0.4497
   98TCq2    C6 1497   3.994   0.028   0.816 -0.2849  1.1233  0.4937
   98TCq2    C7 1498   3.986   0.071   0.947 -0.1047 -0.0619  0.2744
   98TCq2    C8 1499   3.974   0.124   0.711  0.2441 -0.4789  0.5147
   98TCq2    O4 1500   4.036   0.111   0.604  0.5420 -0.3054 -0.3839
   98TCq2    C9 1501   4.242   4.475   0.864 -0.4820 -0.7887 -0.4350
   98TCq2    O5 1502   4.239   4.416   0.756 -0.1735 -0.2450  0.6191
   98TCq2    O6 1503   4.318   4.457   0.965 -0.1607 -0.0073 -0.4147
   98TCq2    H2 1504   4.178   4.553   1.090  2.4801  1.0368 -0.2454
   98TCq2    H3 1505   4.103   4.614   0.681 -2.1070  0.6234 -1.1328
   98TCq2    H4 1506   3.919   0.151   0.976  1.7606  1.0764  1.4640
   99MPD2     C 1507   2.352   2.329   1.852  0.1457 -0.3700 -0.4212
   99MPD2    C1 1508   2.269   2.405   1.772 -0.4277 -0.0906  0.2095
   99MPD2    C2 1509   2.243   2.362   1.650  0.4980  0.4619 -0.1867
   99MPD2    C3 1510   2.308   2.256   1.592 -0.4457 -0.2155 -0.0265
   99MPD2    C4 1511   2.387   2.171   1.676 -0.3249 -0.0762  0.0289
   99MPD2    C5 1512   2.418   2.218   1.804 -0.5633 -0.0844 -0.1875
   99MPD2     H 1513   2.187   2.430   1.587 -0.8725 -1.4641 -1.0816
   99MPD2    H1 1514   2.444   2.087   1.639  0.2434 -0.0784  0.8982
   99MPD2    H2 1515   2.380   2.367   1.949  1.3128 -0.4366 -0.7267
   99MPD2    H3 1516   2.491   2.164   1.862  0.4246  2.6134  1.0526
   99MPD2     N 1517   2.280   2.234   1.455 -0.5792  0.3039  0.3714
   99MPD2    H5 1518   2.227   2.304   1.405  0.1655  0.6386  0.0581
   99MPD2    N1 1519   2.205   2.523   1.821 -0.1668 -0.0989 -0.1097
   99MPD2    H7 1520   2.137   2.569   1.762  1.6656  3.8945  0.8978
  100TCq2    C1 1521   2.224   2.582   1.939  0.3385  0.0463 -0.1488
  100TCq2    O2 1522   2.301   2.555   2.029 -0.2395  0.0398  0.2642
  100TCq2    C2 1523   2.127   2.691   1.962 -0.6680 -0.3798 -0.3342
  100TCq2    C3 1524   2.129   2.753   2.085 -0.5862  0.0361  0.4640
  100TCq2    C4 1525   2.028   2.841   2.117 -0.1628 -0.6518 -0.0977
  100TCq2    C5 1526   1.928   2.874   2.026 -0.0185  0.2361  0.4440
  100TCq2    C6 1527   1.938   2.824   1.901  0.2170  0.0752  0.2169
  100TCq2    C7 1528   2.033   2.726   1.871 -0.0439 -0.7541  0.6728
  100TCq2    C8 1529   1.852   2.890   1.800 -0.7382  0.1638  0.6737
  100TCq2    O4 1530   1.800   2.997   1.831 -0.5302  0.0493  0.4800
  100TCq2    C9 1531   2.022   2.910   2.240 -0.7672 -0.0160 -0.4450
  100TCq2    O5 1532   1.920   2.981   2.257  0.3668  0.0692  0.4407
  100TCq2    O6 1533   2.090   2.867   2.333  0.1094 -0.2248  0.0465
  100TCq2    H2 1534   2.206   2.731   2.158 -0.5266  0.6885  0.5959
  100TCq2    H3 1535   1.844   2.937   2.052  0.8281  1.1719  0.9193
  100TCq2    H4 1536   2.050   2.721   1.764  0.4807  2.4119  0.6174
  101MPD2     C 1537   3.162   3.578  12.550 -0.8097  0.0940 -0.1620
  101MPD2    C1 1538   3.070   3.654  12.617  0.2255  0.1343 -0.6124
  101MPD2    C2 1539   3.001   3.601  12.726  0.2298  0.3163 -0.2274
  101MPD2    C3 1540   3.009   3.464  12.756 -0.8220 -0.1590 -0.7369
  101MPD2    C4 1541   3.102   3.386  12.681 -0.1779 -0.4486  0.9267
  101MPD2    C5 1542   3.175   3.444  12.577  0.8132 -0.0692 -0.0911
  101MPD2     H 1543   2.931   3.665  12.779 -1.3082 -1.2925 -0.3197
  101MPD2    H1 1544   3.115   3.280  12.700  1.9450 -0.1450  1.1180
  101MPD2    H2 1545   3.225   3.624  12.474 -0.3139 -0.1799  0.0842
  101MPD2    H3 1546   3.253   3.389  12.526  1.6529  2.1602 -1.2008
  101MPD2     N 1547   2.931   3.416  12.865 -0.6436  0.3765  0.2702
  101MPD2    H5 1548   2.886   3.488  12.920  0.9613  1.1579  0.5808
  101MPD2    N1 1549   3.051   3.791  12.584 -0.0300  0.6533  0.0026
  101MPD2    H7 1550   3.122   3.842  12.533 -0.3644 -1.1703 -2.2799
  102TCq2    C1 1551   3.261   4.238  12.644  0.1343 -0.7917 -0.3823
  102TCq2    O2 1552   3.284   4.349  12.598 -0.1706 -0.4054  0.4908
  102TCq2    C2 1553   3.124   4.187  12.625 -0.2877  0.8300  0.3109
  102TCq2    C3 1554   3.033   4.268  12.559  0.1790 -0.6061 -0.7404
  102TCq2    C4 1555   2.907   4.224  12.524  0.0362  0.0087 -0.6635
  102TCq2    C5 1556   2.878   4.088  12.546 -0.1342  0.4415 -0.1540
  102TCq2    C6 1557   2.977   4.010  12.598  0.5217 -0.2236 -0.0756
  102TCq2    C7 1558   3.097   4.053  12.646  0.8209 -0.4256  0.0527
  102TCq2    C8 1559   2.951   3.869  12.639 -0.8122 -0.5298  0.1164
  102TCq2    O4 1560   2.838   3.849  12.677 -0.0821  0.5859  0.0850
  102TCq2    C9 1561   2.819   4.313  12.464 -0.0774 -0.0353  0.4302
  102TCq2    O5 1562   2.872   4.421  12.434  0.2295  0.0023  0.3033
  102TCq2    O6 1563   2.711   4.266  12.423 -0.2014  0.7492 -0.7571
  102TCq2    H2 1564   3.054   4.375  12.557  1.8366 -0.9165  0.3682
  102TCq2    H3 1565   2.785   4.048  12.509  0.1293 -1.1515  0.9232
  102TCq2    H4 1566   3.169   3.987  12.694  0.3483 -0.9228  0.0826
  103TMC2    C1 1567   2.039   4.048  12.572  0.4356 -0.3573  0.3443
  103TMC2    C2 1568   2.100   4.135  12.483  0.2060 -0.6143  0.9330
  103TMC2    C3 1569   2.170   4.240  12.536  0.2501 -0.2006 -0.3453
  103TMC2    C4 1570   2.042   4.068  12.710  0.4799  0.1250 -0.2132
  103TMC2    C5 1571   2.113   4.172  12.754  0.6830  0.4423  0.2949
  103TMC2    C6 1572   2.180   4.254  12.669  0.5507 -0.4484  0.9988
  103TMC2     C 1573   1.939   3.957  12.517 -0.9288 -0.4163  0.2260
  103TMC2     O 1574   1.881   3.987  12.416  0.2506 -0.9642  0.5502
  103TMC2     H 1575   2.107   4.105  12.379 -1.0059  0.1866  0.6158
  103TMC2    H1 1576   1.979   4.009  12.776 -0.2870  1.2205  0.0190
  103TMC2    H2 1577   2.241   4.337  12.701  1.8172 -1.3312  0.8588
  103TMC2    C7 1578   2.075   4.216  12.886  0.4311  0.4167 -0.4269
  103TMC2    C8 1579   2.204   4.350  12.439 -0.2467  0.1302 -0.0059
  103TMC2    O1 1580   1.986   4.156  12.946 -0.2346 -0.0934 -0.5869
  103TMC2    O2 1581   2.135   4.397  12.350 -0.4363 -0.1171 -0.2859
  103TMC2    O5 1582   2.319   4.402  12.487  0.2807  0.3181  0.3215
  103TMC2    H5 1583   2.367   4.336  12.542  1.1522  0.4458 -0.2846
  104MPD2     C 1584   1.816   3.656  12.690 -0.1024  0.6050 -0.1389
  104MPD2    C1 1585   1.829   3.747  12.589  0.3475 -0.3719  0.5589
  104MPD2    C2 1586   1.758   3.731  12.471 -0.4724 -0.1145 -0.1984
  104MPD2    C3 1587   1.679   3.624  12.448  0.7182 -0.5037  0.3818
  104MPD2    C4 1588   1.678   3.520  12.543  0.0657  0.6113 -0.0065
  104MPD2    C5 1589   1.742   3.539  12.668 -0.2308 -0.1857 -0.4875
  104MPD2     H 1590   1.751   3.813  12.400  1.7792  0.4118  0.1736
  104MPD2    H1 1591   1.623   3.428  12.530  0.3554  0.5094 -0.5194
  104MPD2    H2 1592   1.875   3.664  12.780  2.9264  1.0322 -2.1757
  104MPD2    H3 1593   1.735   3.467  12.748  0.0531 -1.3595 -1.5290
  104MPD2     N 1594   1.592   3.627  12.337 -0.1652  0.7174 -0.1380
  104MPD2    H5 1595   1.602   3.712  12.281  0.7213  0.0951 -0.9242
  104MPD2    N1 1596   1.914   3.862  12.608 -0.2047 -0.4672  0.3005
  104MPD2    H7 1597   1.979   3.866  12.686 -0.1164  2.0648  0.0910
  105MPD2     C 1598   3.188   2.653  17.672  0.4526  0.6992  0.2364
  105MPD2    C1 1599   3.157   2.785   0.003  0.3505 -0.0567  0.5058
  105MPD2    C2 1600   3.185   2.843   0.121 -0.3899 -1.2137 -0.4107
  105MPD2    C3 1601   3.226   2.775   0.230  0.2951  0.4736  0.0311
  105MPD2    C4 1602   3.257   2.643   0.211 -0.3586  0.6801  0.2718
  105MPD2    C5 1603   3.247   2.591   0.085  0.2380 -0.7229 -0.2467
  105MPD2     H 1604   3.151   2.943   0.145 -2.0508 -1.7956 -0.3061
  105MPD2    H1 1605   3.296   2.577   0.287 -0.9555  0.4337  0.3609
  105MPD2    H2 1606   3.178   2.597  17.580  1.2916 -0.3708  0.7886
  105MPD2    H3 1607   3.249   2.483   0.074  0.0731 -0.8641  1.1942
  105MPD2     N 1608   3.234   2.827   0.363  0.3815  0.4421 -0.1483
  105MPD2    H5 1609   3.204   2.923   0.381  0.1229 -0.1588  2.7337
  105MPD2    N1 1610   3.103   2.875  17.607  0.4225 -0.2986 -0.2217
  105MPD2    H7 1611   3.106   2.969  17.646 -2.2260  0.4991 -1.9507
  106TCq2    C1 1612   3.285   2.766   0.474 -0.1471  0.5596 -0.0980
  106TCq2    O2 1613   3.320   2.649   0.485  0.8191  0.1829  0.3262
  106TCq2    C2 1614   3.291   2.844   0.599  0.3857 -0.1070 -0.0128
  106TCq2    C3 1615   3.272   2.787   0.725  0.3502  0.1053  0.1119
  106TCq2    C4 1616   3.279   2.862   0.838  0.4200 -0.1895 -0.3297
  106TCq2    C5 1617   3.297   2.998   0.826 -0.4412 -0.3478  0.1342
  106TCq2    C6 1618   3.322   3.050   0.698 -0.1657  0.6880  0.7150
  106TCq2    C7 1619   3.309   2.978   0.581  0.4375  0.9270  0.9950
  106TCq2    C8 1620   3.353   3.191   0.683 -0.2617 -0.5441  0.1955
  106TCq2    O4 1621   3.340   3.241   0.574  0.4745 -0.2019  0.1363
  106TCq2    C9 1622   3.280   2.804   0.971  0.1600  0.2344 -0.0626
  106TCq2    O5 1623   3.353   2.857   1.058  0.1919 -0.2348 -0.1369
  106TCq2    O6 1624   3.201   2.706   0.986 -0.4583 -0.2193 -0.0328
  106TCq2    H2 1625   3.256   2.680   0.735  2.1311 -0.1010  0.7472
  106TCq2    H3 1626   3.312   3.050   0.920  4.6900  0.7455 -1.3018
  106TCq2    H4 1627   3.334   3.019   0.484 -0.8934  0.5155  0.4798
  107TMC2    C1 1628   3.790   2.430  11.257  0.6200  0.1467  0.3935
  107TMC2    C2 1629   3.820   2.495  11.141  0.1895 -0.3126  0.1991
  107TMC2    C3 1630   3.880   2.427  11.043 -0.3928 -0.1442  0.3770
  107TMC2    C4 1631   3.827   2.300  11.282  1.0182 -0.4867  0.8475
  107TMC2    C5 1632   3.898   2.242  11.187  0.0014 -0.3152  0.1333
  107TMC2    C6 1633   3.918   2.296  11.056  0.4158  0.3052 -0.9466
  107TMC2     C 1634   3.705   2.493  11.357 -0.7004  0.5376 -0.0933
  107TMC2     O 1635   3.696   2.437  11.467 -0.3037  0.6197  0.3091
  107TMC2     H 1636   3.818   2.603  11.131  0.2752 -0.2962  0.3722
  107TMC2    H1 1637   3.813   2.255  11.380 -1.7161 -1.4912 -0.0268
  107TMC2    H2 1638   3.975   2.246  10.979 -0.4703  1.7489 -2.5319
  107TMC2    C7 1639   3.886   2.098  11.180  0.6204  0.2264 -0.5209
  107TMC2    C8 1640   3.929   2.497  10.932 -0.3432 -0.1500 -0.5499
  107TMC2    O1 1641   3.872   2.038  11.286 -0.6218  0.1986 -0.1679
  107TMC2    O2 1642   4.008   2.451  10.850  0.0593 -0.1712  0.0694
  107TMC2    O5 1643   3.817   2.566  10.898  0.3382  0.2682  0.0177
  107TMC2    H5 1644   3.750   2.563  10.970  0.1897  0.5637 -0.1067
  108MPD2     C 1645   3.527   2.816  11.333 -1.0031 -0.4619  0.3960
  108MPD2    C1 1646   3.569   2.701  11.393 -0.0216 -0.6921 -0.6095
  108MPD2    C2 1647   3.536   2.674  11.528  0.2249 -0.0075 -0.2260
  108MPD2    C3 1648   3.463   2.771  11.596 -0.2841  0.5829 -0.1128
  108MPD2    C4 1649   3.425   2.888  11.537 -0.0279 -0.0548  0.1617
  108MPD2    C5 1650   3.460   2.913  11.408  0.1440  0.0472 -0.1041
  108MPD2     H 1651   3.560   2.580  11.577 -2.2967 -0.6268 -0.2028
  108MPD2    H1 1652   3.374   2.952  11.608 -0.4485  0.2584 -0.4178
  108MPD2    H2 1653   3.547   2.836  11.229 -2.0745 -1.6950 -0.0444
  108MPD2    H3 1654   3.432   3.008  11.365 -0.3087  0.7394  1.7124
  108MPD2     N 1655   3.421   2.759  11.730  0.1811 -0.1957  0.6701
  108MPD2    H5 1656   3.380   2.842  11.771 -0.6759  0.2066 -1.0283
  108MPD2    N1 1657   3.638   2.610  11.307 -0.3343 -0.3782  0.2154
  108MPD2    H7 1658   3.650   2.632  11.209 -0.2955  0.4273  0.3960
  109MPD2     C 1659   3.475   3.846   2.143 -0.6363  0.4495  0.1779
  109MPD2    C1 1660   3.528   3.973   2.144  0.0368 -0.2430  0.1213
  109MPD2    C2 1661   3.472   4.072   2.217  0.8341 -0.4670  0.7503
  109MPD2    C3 1662   3.356   4.053   2.291  0.7297  0.3144 -0.3834
  109MPD2    C4 1663   3.312   3.926   2.294  0.2840 -0.7029 -0.0402
  109MPD2    C5 1664   3.364   3.822   2.221 -0.2706  0.0895 -0.9895
  109MPD2     H 1665   3.489   4.176   2.190 -0.8589 -1.1414 -3.0142
  109MPD2    H1 1666   3.230   3.898   2.360  0.3486  0.9163  0.7431
  109MPD2    H2 1667   3.509   3.769   2.074 -0.9344  1.1543 -0.7483
  109MPD2    H3 1668   3.315   3.726   2.226 -2.6891  1.4762  2.1702
  109MPD2     N 1669   3.292   4.170   2.340  0.6274  0.0674  0.0978
  109MPD2    H5 1670   3.345   4.257   2.338 -0.7654  0.8437 -2.4613
  109MPD2    N1 1671   3.636   3.996   2.059 -0.4695 -0.5011  0.7669
  109MPD2    H7 1672   3.673   3.918   2.006  1.8674  2.3498 -1.7457
  110TCq2    C1 1673   3.172   4.168   2.412 -0.2996 -0.5448 -0.3326
  110TCq2    O2 1674   3.100   4.074   2.440  0.5200  0.5669 -0.4521
  110TCq2    C2 1675   3.133   4.308   2.438 -0.3341  0.2667  0.5354
  110TCq2    C3 1676   3.042   4.330   2.536  0.5651  0.3746  0.1637
  110TCq2    C4 1677   2.989   4.458   2.543  0.5590  0.1813  0.1823
  110TCq2    C5 1678   3.027   4.557   2.457 -0.2992 -0.1645  0.5312
  110TCq2    C6 1679   3.115   4.530   2.359  0.0424 -0.4526 -0.4999
  110TCq2    C7 1680   3.170   4.411   2.349  0.1572  0.4827  0.6908
  110TCq2    C8 1681   3.187   4.648   2.299  0.0535 -0.5411  0.1260
  110TCq2    O4 1682   3.254   4.629   2.199 -0.0590  0.1865  0.3165
  110TCq2    C9 1683   2.892   4.482   2.644 -0.1988  0.3131 -0.1227
  110TCq2    O5 1684   2.846   4.597   2.657  0.1983  0.2023  0.0133
  110TCq2    O6 1685   2.844   4.374   2.693  0.6013  0.0514 -0.1366
  110TCq2    H2 1686   3.011   4.243   2.593  2.0125 -0.4706 -0.3333
  110TCq2    H3 1687   2.982   4.655   2.470 -1.1545 -0.3245 -1.2353
  110TCq2    H4 1688   3.227   4.390   2.260 -0.3596  1.4988  0.1149
  111TMC2    C1 1689   3.379   0.338  11.464  0.6298  0.7791 -0.0790
  111TMC2    C2 1690   3.249   0.315  11.490 -0.0361  0.8803  0.7544
  111TMC2    C3 1691   3.219   0.267  11.619  1.2666  0.0212  0.0711
  111TMC2    C4 1692   3.471   0.315  11.562  0.2773  0.0114 -0.4132
  111TMC2    C5 1693   3.441   0.271  11.691 -0.0791  0.3852 -0.3011
  111TMC2    C6 1694   3.307   0.244  11.719 -0.3388 -0.1335 -0.3828
  111TMC2     C 1695   3.414   0.392  11.334  0.7829 -1.2414 -0.3268
  111TMC2     O 1696   3.322   0.447  11.268  0.1989 -0.4846 -0.0866
  111TMC2     H 1697   3.173   0.329  11.414 -0.2913  1.3120  1.0918
  111TMC2    H1 1698   3.571   0.355  11.548 -0.2570  0.6438 -2.2858
  111TMC2    H2 1699   3.273   0.200  11.811 -0.1815 -0.3843 -0.4455
  111TMC2    C7 1700   3.539   0.262  11.796  0.2962  0.0818 -0.2757
  111TMC2    C8 1701   3.091   0.220  11.641  0.3968 -0.7128  0.1630
  111TMC2    O1 1702   3.503   0.208  11.900 -0.3247 -0.4284 -0.4776
  111TMC2    O2 1703   3.045   0.226  11.755  0.8013 -0.2243  0.3680
  111TMC2    O5 1704   3.072   0.115  11.563 -0.3737 -0.4549  0.0359
  111TMC2    H5 1705   3.143   0.098  11.497 -0.3565  0.8260 -0.2799
  112MPD2     C 1706   3.708   0.449  10.919  0.1133  0.1800 -0.5849
  112MPD2    C1 1707   3.582   0.497  10.943  0.1346  0.0750  0.3408
  112MPD2    C2 1708   3.525   0.479  11.067  0.3339  0.2558 -0.0337
  112MPD2    C3 1709   3.595   0.401  11.162 -0.5057  0.3388 -0.3402
  112MPD2    C4 1710   3.717   0.349  11.135 -0.2948  0.5134  0.3278
  112MPD2    C5 1711   3.773   0.373  11.011 -0.1471 -0.4883  0.1496
  112MPD2     H 1712   3.422   0.509  11.080  0.5466  0.9110  0.1501
  112MPD2    H1 1713   3.763   0.289  11.213 -0.4621  0.5645  0.4647
  112MPD2    H2 1714   3.761   0.455  10.825 -0.2870 -3.3225 -1.0579
  112MPD2    H3 1715   3.867   0.333  10.974  0.4326 -0.0594  1.1642
  112MPD2     N 1716   3.547   0.372  11.295 -0.1672 -0.3446  0.0460
  112MPD2    H5 1717   3.606   0.306  11.346  1.0458  1.1397  0.5658
  112MPD2    N1 1718   3.503   0.541  10.834 -0.0761  0.5718  0.5874
  112MPD2    H7 1719   3.404   0.552  10.853 -0.9067 -0.4036 -3.3061
  113MPD2     C 1720   1.713   2.427   0.867 -0.0703 -0.5111 -0.4298
  113MPD2    C1 1721   1.627   2.535   0.865  0.1605 -0.1132  0.5924
  113MPD2    C2 1722   1.499   2.521   0.809  0.5610  0.5896 -1.4698
  113MPD2    C3 1723   1.462   2.400   0.752  0.0477  0.0755  0.6756
  113MPD2    C4 1724   1.543   2.291   0.765 -0.4298  0.1054 -0.4380
  113MPD2    C5 1725   1.667   2.308   0.825 -0.5210 -0.0252 -1.1635
  113MPD2     H 1726   1.436   2.609   0.809 -0.8742 -0.4055  2.1791
  113MPD2    H1 1727   1.518   2.190   0.734 -0.9271  0.5572 -1.5068
  113MPD2    H2 1728   1.809   2.439   0.917 -0.7404 -0.3275  0.8119
  113MPD2    H3 1729   1.731   2.221   0.837  2.2542  1.9026 -1.8679
  113MPD2     N 1730   1.343   2.386   0.684 -0.0473  0.3465  0.1676
  113MPD2    H5 1731   1.309   2.293   0.665 -2.8147  1.6567 -1.2622
  113MPD2    N1 1732   1.669   2.665   0.919  0.2655  0.1957 -0.3986
  113MPD2    H7 1733   1.601   2.740   0.911 -0.5285 -0.2069  2.6939
  114TCq2    C1 1734   1.271   2.490   0.630 -0.2140 -0.8939 -0.2790
  114TCq2    O2 1735   1.310   2.603   0.604 -0.0688 -0.7996  0.1372
  114TCq2    C2 1736   1.145   2.451   0.561 -0.6524 -0.3758  1.0908
  114TCq2    C3 1737   1.058   2.540   0.511  0.1512 -0.0920  0.5829
  114TCq2    C4 1738   0.933   2.503   0.465 -0.5594  0.1360  0.6896
  114TCq2    C5 1739   0.888   2.376   0.478 -0.2367  0.6167  0.9350
  114TCq2    C6 1740   0.974   2.292   0.540 -0.1480 -0.7800  0.3235
  114TCq2    C7 1741   1.093   2.327   0.593 -0.3892  0.0718 -1.2469
  114TCq2    C8 1742   0.939   2.149   0.547 -0.4492  0.0746 -0.1313
  114TCq2    O4 1743   0.990   2.085   0.638 -0.5253  0.5585  0.6865
  114TCq2    C9 1744   0.840   2.600   0.409 -0.0961 -0.1732  0.2931
  114TCq2    O5 1745   0.721   2.573   0.385  0.1425 -0.3159 -0.1564
  114TCq2    O6 1746   0.880   2.720   0.411 -0.1042  0.2408 -0.4451
  114TCq2    H2 1747   1.093   2.642   0.506  0.2301 -0.2161 -1.4758
  114TCq2    H3 1748   0.786   2.346   0.457  0.0251  1.0516 -0.8960
  114TCq2    H4 1749   1.152   2.256   0.648 -0.9147 -0.8154 -1.8344
  115TMC2    C1 1750   2.385   0.001  17.610  0.5430 -0.3409 -0.7124
  115TMC2    C2 1751   2.525   0.010  17.597 -0.9431  0.6703  0.6226
  115TMC2    C3 1752   2.585   0.132  17.563  0.5990  0.4389 -0.3932
  115TMC2    C4 1753   2.314   0.106  17.591 -0.2349  0.6052 -0.0681
  115TMC2    C5 1754   2.377   0.228  17.566  0.3478  0.4409  0.5621
  115TMC2    C6 1755   2.511   0.248  17.544 -0.7071  0.0986  0.5224
  115TMC2     C 1756   2.317   4.595  17.627 -0.1929  0.3062 -0.2603
  115TMC2     O 1757   2.374   4.493  17.582  0.0777 -0.9015  0.5541
  115TMC2     H 1758   2.590   4.648  17.618 -0.3546  0.2964 -2.6593
  115TMC2    H1 1759   2.206   0.095  17.594 -0.3131  1.2071 -0.6083
  115TMC2    H2 1760   2.556   0.343  17.519  1.0171 -1.0282 -0.5897
  115TMC2    C7 1761   2.291   0.331  17.509  0.7185 -0.6611 -0.2811
  115TMC2    C8 1762   2.724   0.128  17.526  0.1238  0.4612 -0.6187
  115TMC2    O1 1763   2.174   0.311  17.537  0.1474  0.5881  0.7749
  115TMC2    O2 1764   2.776   0.030  17.477  0.0646  0.2748  0.0012
  115TMC2    O5 1765   2.776   0.242  17.571  0.0050 -0.3426 -0.0927
  115TMC2    H5 1766   2.714   0.294  17.627  1.4471  3.5323 -2.0549
  116MPD2     C 1767   1.853   4.369  17.643 -0.5405  0.3581  0.6358
  116MPD2    C1 1768   1.964   4.350  17.561 -0.4943 -0.1031 -0.0737
  116MPD2    C2 1769   2.079   4.419  17.582 -0.5286  0.4597  0.2022
  116MPD2    C3 1770   2.089   4.512  17.684  0.5144  0.4151 -0.2994
  116MPD2    C4 1771   1.979   4.534   0.070 -0.5058  0.4558 -0.1509
  116MPD2    C5 1772   1.860   4.462   0.044  0.5026 -0.3419  0.5283
  116MPD2     H 1773   2.164   4.405  17.517  0.8614  0.8637  1.9514
  116MPD2    H1 1774   1.976   4.604   0.153  0.3009 -0.7290  0.8728
  116MPD2    H2 1775   1.761   4.310  17.642 -0.3273  0.0326  0.1161
  116MPD2    H3 1776   1.773   4.486   0.105  0.4500 -1.3748  0.8530
  116MPD2     N 1777   2.199   4.601   0.008  0.6394  0.1543  0.5109
  116MPD2    H5 1778   2.184   4.678   0.073 -1.9582 -0.5331  0.7060
  116MPD2    N1 1779   1.948   4.265  17.451  0.3402 -0.0003  0.2821
  116MPD2    H7 1780   1.856   4.230  17.428  0.1164  0.2763  0.7588
  117TMC2    C1 1781   0.938   1.959  13.895  0.6706 -0.5582 -0.1888
  117TMC2    C2 1782   0.988   1.840  13.950  0.6040 -0.8518 -0.1075
  117TMC2    C3 1783   1.106   1.793  13.911 -0.0814 -0.2739  0.1654
  117TMC2    C4 1784   1.008   2.025  13.799  0.7755  0.0385 -0.6512
  117TMC2    C5 1785   1.134   1.975  13.768  0.1760  0.1974 -0.2076
  117TMC2    C6 1786   1.185   1.857  13.823 -0.0082 -0.3855  0.2517
  117TMC2     C 1787   0.794   1.959  13.876  0.2645 -0.0031  0.0788
  117TMC2     O 1788   0.733   1.854  13.910  0.2491  0.6617  0.7218
  117TMC2     H 1789   0.933   1.778  14.020 -2.1825  1.7691 -0.0061
  117TMC2    H1 1790   0.976   2.120  13.759  2.4171  0.3322 -1.2537
  117TMC2    H2 1791   1.270   1.804  13.783 -1.5120 -1.4695 -1.5374
  117TMC2    C7 1792   1.226   2.059  13.690  0.0399  0.2535  0.4187
  117TMC2    C8 1793   1.129   1.651  13.943 -0.3607  0.8576  0.3500
  117TMC2    O1 1794   1.343   2.041  13.707 -0.3161  0.2195 -0.1646
  117TMC2    O2 1795   1.035   1.585  13.978 -0.2823  0.3016  0.4731
  117TMC2    O5 1796   1.252   1.610  13.911 -0.1498 -0.1979 -0.4196
  117TMC2    H5 1797   1.315   1.682  13.936 -0.5481  0.6881 -1.9411
  118MPD2     C 1798   1.143   2.234  13.370  0.0267  0.0024  0.5946
  118MPD2    C1 1799   1.223   2.193  13.475 -0.2578 -0.1383 -0.4047
  118MPD2    C2 1800   1.351   2.248  13.490 -0.1608  0.5537 -1.0140
  118MPD2    C3 1801   1.398   2.351  13.410 -0.0376  0.0362 -0.1147
  118MPD2    C4 1802   1.312   2.398  13.311  0.2658  0.3710  0.2396
  118MPD2    C5 1803   1.187   2.344  13.300 -0.0891 -0.6876  0.2092
  118MPD2     H 1804   1.412   2.205  13.569 -1.0980  0.9595 -0.0780
  118MPD2    H1 1805   1.337   2.483  13.249  0.6815 -1.5604 -2.2033
  118MPD2    H2 1806   1.040   2.202  13.359  0.2414 -0.5487  0.1648
  118MPD2    H3 1807   1.111   2.387  13.236  0.0729 -1.3686 -0.4421
  118MPD2     N 1808   1.523   2.418  13.411 -0.6674 -0.1623 -0.2990
  118MPD2    H5 1809   1.534   2.484  13.334 -0.7890  1.6318  1.2306
  118MPD2    N1 1810   1.162   2.115  13.576 -0.2399 -0.1473 -0.0226
  118MPD2    H7 1811   1.065   2.090  13.558  0.0915 -0.5874 -1.2330
  119MPD2     C 1812   3.621   3.854  13.057 -0.2491 -0.0146 -0.5500
  119MPD2    C1 1813   3.516   3.791  13.123  0.6148  0.2944  0.3439
  119MPD2    C2 1814   3.499   3.650  13.091  0.8210  0.6314 -0.0989
  119MPD2    C3 1815   3.589   3.575  13.019  0.4262 -0.4844 -0.0909
  119MPD2    C4 1816   3.679   3.647  12.952  0.4876 -0.0229  0.2404
  119MPD2    C5 1817   3.701   3.778  12.969  0.3474  0.1891  0.0955
  119MPD2     H 1818   3.419   3.594  13.138 -0.4404  0.4915 -2.3986
  119MPD2    H1 1819   3.752   3.591  12.894  0.5015 -0.3493  0.5774
  119MPD2    H2 1820   3.650   3.952  13.093  1.6948 -1.7714  2.6652
  119MPD2    H3 1821   3.780   3.830  12.916 -0.1302  0.3744 -0.4306
  119MPD2     N 1822   3.569   3.438  12.997 -0.2287  0.8449 -0.6130
  119MPD2    H5 1823   3.639   3.387  12.944 -0.6313  0.4641 -0.7809
  119MPD2    N1 1824   3.453   3.855  13.233  0.0794  0.5422  0.3107
  119MPD2    H7 1825   3.476   3.953  13.244 -2.6575  1.2825 -0.6679
  120TCq2    C1 1826   3.450   3.373  13.021 -0.3103 -0.2110  0.5812
  120TCq2    O2 1827   3.337   3.420  13.019 -0.3359  0.0506  0.4418
  120TCq2    C2 1828   3.458   3.232  13.046  0.0780 -0.3826 -0.0551
  120TCq2    C3 1829   3.566   3.195  13.119 -0.4391  0.7181 -0.1019
  120TCq2    C4 1830   3.554   3.079  13.193 -0.2697 -0.2347 -0.4770
  120TCq2    C5 1831   3.451   3.002  13.193 -0.2162 -0.2906  0.5716
  120TCq2    C6 1832   3.338   3.043  13.124 -0.1615  0.0753  0.4384
  120TCq2    C7 1833   3.336   3.156  13.050 -1.0230 -0.2519 -0.4866
  120TCq2    C8 1834   3.204   3.001  13.174 -0.1437 -0.3496 -0.4929
  120TCq2    O4 1835   3.108   3.043  13.109  0.0501  0.1922 -0.0032
  120TCq2    C9 1836   3.666   3.032  13.267  0.5831  0.4671 -0.5301
  120TCq2    O5 1837   3.774   3.092  13.253 -0.1223  0.4412 -0.3294
  120TCq2    O6 1838   3.655   2.933  13.339  0.6208  0.0002  0.5734
  120TCq2    H2 1839   3.654   3.257  13.128  0.6441 -0.8163 -0.1706
  120TCq2    H3 1840   3.456   2.908  13.246  2.3797 -0.4309  0.0557
  120TCq2    H4 1841   3.249   3.200  13.002 -0.6410  1.3380  0.3003
  121TMC2    C1 1842   0.534   0.256  14.156  0.7340 -0.7695 -0.3537
  121TMC2    C2 1843   0.479   0.188  14.259 -0.0419 -0.2640 -0.1933
  121TMC2    C3 1844   0.341   0.178  14.262 -1.1192 -0.3383  0.1495
  121TMC2    C4 1845   0.459   0.298  14.049  0.2013  0.4779  0.4218
  121TMC2    C5 1846   0.326   0.297  14.056  0.0314 -0.3917  0.8426
  121TMC2    C6 1847   0.261   0.232  14.163 -0.2154 -0.1580 -0.5245
  121TMC2     C 1848   0.677   0.290  14.154  0.4362  0.1852 -0.2266
  121TMC2     O 1849   0.733   0.297  14.262  0.2510  0.2203  0.2017
  121TMC2     H 1850   0.545   0.164  14.341 -0.2740  0.2759  0.1534
  121TMC2    H1 1851   0.497   0.356  13.967 -1.7075  0.6311 -0.3651
  121TMC2    H2 1852   0.153   0.235  14.158 -0.2574 -0.8970 -0.1456
  121TMC2    C7 1853   0.256   0.393  13.966 -0.2264  0.7312  0.8653
  121TMC2    C8 1854   0.277   0.107  14.378 -0.5701 -0.4574 -0.3033
  121TMC2    O1 1855   0.320   0.489  13.935  0.3583 -0.1863 -0.2199
  121TMC2    O2 1856   0.334   0.012  14.439  0.3713 -0.2758  0.3940
  121TMC2    O5 1857   0.144   0.126  14.391  0.0100 -0.2976 -0.4094
  121TMC2    H5 1858   0.108   0.208  14.351  0.9910  0.6505  0.6546
  122MPD2     C 1859   0.954   0.308  14.080 -0.4906 -0.3800 -0.4770
  122MPD2    C1 1860   0.861   0.333  13.992  0.0452  0.0766  0.2002
  122MPD2    C2 1861   0.890   0.363  13.859  0.1000  0.0882  0.4731
  122MPD2    C3 1862   1.014   0.379  13.815 -0.1725  0.0554  0.1650
  122MPD2    C4 1863   1.113   0.364  13.909  0.1360  0.8513 -0.2457
  122MPD2    C5 1864   1.083   0.322  14.041 -0.0066  0.0690  0.2508
  122MPD2     H 1865   0.809   0.382  13.790 -0.9740  1.5340  2.1520
  122MPD2    H1 1866   1.218   0.353  13.882 -0.2346  0.9820 -1.7198
  122MPD2    H2 1867   0.942   0.265  14.178  0.5917 -0.2561 -0.2959
  122MPD2    H3 1868   1.161   0.303  14.113  0.1925  0.8058  0.2317
  122MPD2     N 1869   1.051   0.412  13.685 -0.2957 -0.5324  0.9534
  122MPD2    H5 1870   1.149   0.441  13.681 -1.2182  2.2520 -1.5951
  122MPD2    N1 1871   0.726   0.314  14.028  0.0924 -0.8533 -0.2161
  122MPD2    H7 1872   0.664   0.326  13.949  0.4168  0.0933 -0.3224
  123MPD2     C 1873   2.711   3.276   9.320  0.7607  0.0264 -0.3811
  123MPD2    C1 1874   2.838   3.243   9.372 -0.1954  0.2197  0.6715
  123MPD2    C2 1875   2.936   3.337   9.350 -0.2588  0.2172  0.6527
  123MPD2    C3 1876   2.913   3.463   9.285 -0.1527  0.1714 -0.3506
  123MPD2    C4 1877   2.789   3.487   9.233 -0.1140 -0.1432  0.0383
  123MPD2    C5 1878   2.692   3.399   9.253 -0.2748 -0.3862 -0.1115
  123MPD2     H 1879   3.037   3.320   9.385 -0.0996  0.0909  0.1270
  123MPD2    H1 1880   2.753   3.572   9.177  1.2239  0.6915  0.4527
  123MPD2    H2 1881   2.628   3.210   9.340  0.1425  0.6962 -0.7389
  123MPD2    H3 1882   2.594   3.435   9.224  0.9071  2.3675 -0.6833
  123MPD2     N 1883   3.023   3.543   9.252  0.6512 -0.2975  0.0877
  123MPD2    H5 1884   3.114   3.501   9.270  0.6127 -0.8783 -1.0662
  123MPD2    N1 1885   2.850   3.123   9.444  0.5651 -0.0244  0.3161
  123MPD2    H7 1886   2.767   3.070   9.470  0.7470  0.1087  1.1835
  124TCq2    C1 1887   3.032   3.661   9.182  0.0371  0.2487 -0.1393
  124TCq2    O2 1888   2.944   3.710   9.114 -0.3077  0.0552  0.2970
  124TCq2    C2 1889   3.168   3.692   9.166  0.1266  0.1506  0.1389
  124TCq2    C3 1890   3.212   3.720   9.042  0.0194  0.2674 -0.5121
  124TCq2    C4 1891   3.333   3.676   9.000  0.2661  0.7699  0.0606
  124TCq2    C5 1892   3.407   3.599   9.082 -0.2653  0.3084 -0.0051
  124TCq2    C6 1893   3.363   3.577   9.211  0.1651 -0.4636 -0.3629
  124TCq2    C7 1894   3.247   3.624   9.259  0.4237 -0.4333  0.2753
  124TCq2    C8 1895   3.396   3.448   9.276  0.1821  0.4283 -0.0625
  124TCq2    O4 1896   3.308   3.392   9.341 -0.3254  0.0274  0.0840
  124TCq2    C9 1897   3.365   3.677   8.866  0.0136  0.7788 -0.1162
  124TCq2    O5 1898   3.274   3.703   8.788 -0.7139 -0.2953 -0.0305
  124TCq2    O6 1899   3.491   3.665   8.837 -0.4582  0.3446 -0.3764
  124TCq2    H2 1900   3.139   3.754   8.968  1.4275  1.2728 -1.4455
  124TCq2    H3 1901   3.499   3.558   9.043 -1.6991 -2.8982 -0.0985
  124TCq2    H4 1902   3.220   3.608   9.363 -1.2445  2.3702  0.2736
  125TMC2    C1 1903   0.188   3.621  10.013 -0.3402 -0.4243 -0.2364
  125TMC2    C2 1904   0.244   3.741   9.973 -0.2935  0.8101  0.1555
  125TMC2    C3 1905   0.348   3.738   9.880  0.9031 -0.2542 -0.5515
  125TMC2    C4 1906   0.239   3.504   9.969 -0.5466  0.4827 -0.7806
  125TMC2    C5 1907   0.349   3.504   9.883  0.6049  0.9274  0.3796
  125TMC2    C6 1908   0.408   3.620   9.842 -1.2382 -0.9076 -0.1689
  125TMC2     C 1909   0.074   3.611  10.102 -0.6056  0.4168  0.1380
  125TMC2     O 1910   0.010   3.506  10.119  0.6913 -0.5581 -0.2802
  125TMC2     H 1911   0.212   3.840  10.004 -0.1692  1.2520 -1.1256
  125TMC2    H1 1912   0.173   3.421   9.993 -1.2879  0.3538 -3.2651
  125TMC2    H2 1913   0.502   3.617   9.787 -1.1217  1.1727 -0.0801
  125TMC2    C7 1914   0.375   3.378   9.819 -0.1043 -0.1527  0.1528
  125TMC2    C8 1915   0.415   3.868   9.855 -0.3252 -0.2713  0.1564
  125TMC2    O1 1916   0.316   3.277   9.854 -0.3169  0.5201  0.2514
  125TMC2    O2 1917   0.388   3.970   9.917 -0.2362 -0.0193 -0.3726
  125TMC2    O5 1918   0.485   3.853   9.739 -0.0917 -0.6567  0.1112
  125TMC2    H5 1919   0.485   3.767   9.692  0.3185 -1.4584  1.5712
  126MPD1     C 1920   4.441   3.834  10.384  0.5472  0.0221 -0.2929
  126MPD1    C1 1921   4.543   3.929  10.367 -0.9790 -0.1343 -0.3462
  126MPD1    C2 1922   4.646   3.893  10.283 -0.6425  0.1783  0.1214
  126MPD1    C3 1923   4.656   3.765  10.235  0.8369  0.1960  0.4901
  126MPD1    C4 1924   4.546   3.683  10.251 -0.0786 -0.2227 -0.3047
  126MPD1    C5 1925   4.443   3.710  10.328  0.9400  0.0546  0.0875
  126MPD1     H 1926   0.000   3.964  10.255 -0.2258 -0.3611 -0.1110
  126MPD1    H1 1927   4.544   3.589  10.197  0.3313 -0.3519 -0.0999
  126MPD1    H2 1928   4.354   3.864  10.440  0.7155 -0.1650  0.0702
  126MPD1    H3 1929   4.363   3.638  10.341  1.6357 -1.0436 -1.6313
  126MPD1     N 1930   0.053   3.730  10.159  0.2524 -0.0494 -0.0999
  126MPD1    H5 1931   0.123   3.802  10.157  0.7494 -0.5605 -0.9699
  126MPD1    N1 1932   4.525   4.067  10.412 -0.2348 -0.3484 -0.3875
  126MPD1    H6 1933   4.617   4.111  10.412 -0.0070 -0.8310  2.2465
  126MPD1    H7 1934   4.484   4.077  10.505  1.7322  1.3534  0.3002
  127MPD2     C 1935   1.934   3.090   8.686 -0.0334  0.1745 -1.0192
  127MPD2    C1 1936   1.877   3.145   8.798 -0.0814 -0.6269 -0.4228
  127MPD2    C2 1937   1.872   3.280   8.811 -0.3383 -0.2757 -0.4770
  127MPD2    C3 1938   1.938   3.357   8.720 -0.7388 -0.1375  0.1243
  127MPD2    C4 1939   2.005   3.295   8.621 -0.2451 -0.1421 -0.2238
  127MPD2    C5 1940   2.002   3.162   8.597  0.3278  0.2297  0.0683
  127MPD2     H 1941   1.811   3.337   8.880 -0.5810 -0.4439 -0.5526
  127MPD2    H1 1942   2.056   3.359   8.550 -0.4859  0.5111  0.1873
  127MPD2    H2 1943   1.925   2.983   8.669 -1.3300  0.0684  0.3184
  127MPD2    H3 1944   2.050   3.123   8.508 -1.2175  0.1966 -0.7536
  127MPD2     N 1945   1.946   3.502   8.741  0.3269 -0.4301  0.1366
  127MPD2    H5 1946   1.894   3.545   8.816  0.5150  0.7058 -0.3912
  127MPD2    N1 1947   1.808   3.057   8.883 -0.2646 -0.0598 -0.8406
  127MPD2    H7 1948   1.816   2.956   8.877 -0.1487  0.0935 -3.2430
  128TCq2    C1 1949   1.735   3.100   8.992  0.2064  0.0976  0.2675
  128TCq2    O2 1950   1.733   3.208   9.049 -0.5633  0.1449 -0.2001
  128TCq2    C2 1951   1.674   2.988   9.056 -0.0806 -0.3927 -0.5969
  128TCq2    C3 1952   1.624   3.008   9.181  0.4164 -0.2018  0.1062
  128TCq2    C4 1953   1.551   2.916   9.239 -0.4499 -0.7562 -0.2797
  128TCq2    C5 1954   1.522   2.802   9.181  0.0266  0.1189 -0.3381
  128TCq2    C6 1955   1.562   2.785   9.054  0.7375  0.3956  0.2008
  128TCq2    C7 1956   1.644   2.876   8.984 -0.0334  0.3722 -0.3063
  128TCq2    C8 1957   1.503   2.684   8.979 -0.0857 -0.5803  0.2309
  128TCq2    O4 1958   1.548   2.677   8.867  0.1993  0.0044 -0.0511
  128TCq2    C9 1959   1.489   2.944   9.365  0.6120 -0.0146  0.4686
  128TCq2    O5 1960   1.501   3.051   9.423 -0.1562 -0.5155  0.4467
  128TCq2    O6 1961   1.414   2.854   9.418  0.4639  0.2377 -0.4285
  128TCq2    H2 1962   1.643   3.105   9.227  1.1113 -0.2446 -0.0917
  128TCq2    H3 1963   1.450   2.741   9.235 -1.3564  0.8503 -1.3403
  128TCq2    H4 1964   1.663   2.863   8.877  1.1282 -0.9867  0.0568
  129MPD2     C 1965   4.402   3.672   2.094  0.8904 -0.3721 -0.3981
  129MPD2    C1 1966   4.301   3.755   2.053  0.3783 -0.2543  0.3620
  129MPD2    C2 1967   4.307   3.803   1.925 -0.2204  0.0901  0.5264
  129MPD2    C3 1968   4.398   3.758   1.831 -0.1285  0.3321 -0.9628
  129MPD2    C4 1969   4.484   3.658   1.867 -1.0271 -0.0367  0.2165
  129MPD2    C5 1970   4.485   3.622   1.999 -0.1717  0.3293  0.0175
  129MPD2     H 1971   4.236   3.884   1.909  1.6804  1.6875  0.1124
  129MPD2    H1 1972   4.559   3.628   1.795 -0.8727 -0.3124  0.4935
  129MPD2    H2 1973   4.416   3.641   2.196 -0.1945 -1.6310 -0.6442
  129MPD2    H3 1974   4.570   3.562   2.028  0.8875  1.5260 -0.6070
  129MPD2     N 1975   4.399   3.833   1.713  0.2743 -1.0171 -0.0273
  129MPD2    H5 1976   4.345   3.919   1.716  1.6018 -0.2694  1.8483
  129MPD2    N1 1977   4.216   3.821   2.139  0.2520  0.0010 -0.2690
  129MPD2    H7 1978   4.174   3.909   2.110  1.6240  1.0461  0.9754
  130TCq2    C1 1979   4.169   3.765   2.258  0.8675 -0.5027  0.1109
  130TCq2    O2 1980   4.202   3.655   2.304 -0.3728  0.0654  0.8466
  130TCq2    C2 1981   4.065   3.838   2.314  0.4381 -0.0902 -0.3225
  130TCq2    C3 1982   4.056   3.971   2.288 -0.4987 -0.1554 -0.1003
  130TCq2    C4 1983   3.944   4.034   2.342 -0.3912  0.0811  0.0463
  130TCq2    C5 1984   3.839   3.967   2.394 -0.3136  0.3601 -0.0059
  130TCq2    C6 1985   3.848   3.829   2.390  0.2472 -0.9619  0.2298
  130TCq2    C7 1986   3.959   3.764   2.362 -0.4617 -0.1107 -0.6497
  130TCq2    C8 1987   3.731   3.743   2.419  0.0304  0.0489  0.1313
  130TCq2    O4 1988   3.732   3.625   2.387 -0.1104 -0.0378  0.6236
  130TCq2    C9 1989   3.940   4.178   2.345 -0.4383 -0.1716  0.0574
  130TCq2    O5 1990   4.005   4.226   2.246  0.1641 -0.0521  0.4400
  130TCq2    O6 1991   3.864   4.240   2.427  0.0160 -0.0260 -0.0651
  130TCq2    H2 1992   4.141   4.034   2.265 -0.2644 -0.3614  0.1903
  130TCq2    H3 1993   3.761   4.031   2.433  0.6570 -0.1604  2.7460
  130TCq2    H4 1994   3.971   3.656   2.359 -2.8788 -0.3840 -0.5496
  131MPD2     C 1995   3.507   2.700  10.175  0.5391  0.4230 -0.5821
  131MPD2    C1 1996   3.520   2.824  10.115 -0.3097 -0.0943 -0.3378
  131MPD2    C2 1997   3.437   2.853  10.008  0.6542 -0.3076 -0.2486
  131MPD2    C3 1998   3.334   2.764   9.964  0.2804  0.1902  0.2287
  131MPD2    C4 1999   3.339   2.636  10.021 -0.1561  0.2925 -0.7991
  131MPD2    C5 2000   3.424   2.609  10.125 -0.0629  0.0343 -0.4205
  131MPD2     H 2001   3.442   2.952   9.963  1.0337 -0.0452  0.3683
  131MPD2    H1 2002   3.297   2.551   9.969  1.3712  0.4269 -2.2555
  131MPD2    H2 2003   3.568   2.678  10.262 -0.1046  0.4881 -0.1228
  131MPD2    H3 2004   3.439   2.506  10.158  1.0186  0.3068 -0.0386
  131MPD2     N 2005   3.245   2.804   9.861 -0.6176 -0.1462 -0.5972
  131MPD2    H5 2006   3.276   2.881   9.803  0.8872 -0.2935  0.0178
  131MPD2    N1 2007   3.624   2.916  10.155  0.0815  0.6789  0.5187
  131MPD2    H7 2008   3.695   2.892  10.224  0.5857 -0.9882 -0.5648
  132TCq2    C1 2009   4.065   3.021  10.357 -0.5037  0.5465 -0.0712
  132TCq2    O2 2010   4.062   2.901  10.344  0.1304  0.4139  0.8755
  132TCq2    C2 2011   3.959   3.098  10.298  0.1677 -0.1362  0.2544
  132TCq2    C3 2012   3.944   3.231  10.342 -0.0130  0.2013  0.1036
  132TCq2    C4 2013   3.843   3.302  10.287  0.1786  0.0907 -0.4716
  132TCq2    C5 2014   3.750   3.245  10.207  1.0733 -0.3029 -0.0302
  132TCq2    C6 2015   3.748   3.106  10.187  0.7787 -0.5800 -0.6933
  132TCq2    C7 2016   3.854   3.031  10.230  0.6039 -0.1957 -0.1242
  132TCq2    C8 2017   3.636   3.050  10.118 -0.4626 -0.1559 -0.3044
  132TCq2    O4 2018   3.574   3.120  10.042  0.1286 -0.7031  0.0407
  132TCq2    C9 2019   3.826   3.445  10.314  0.4020 -0.0956 -0.1460
  132TCq2    O5 2020   3.925   3.492  10.383 -0.5173 -0.8000  0.0983
  132TCq2    O6 2021   3.759   3.510  10.230  0.1651 -0.7242  0.2443
  132TCq2    H2 2022   4.017   3.279  10.407  0.0624 -0.8004  0.7536
  132TCq2    H3 2023   3.664   3.309  10.187  2.7438  1.8531 -0.3054
  132TCq2    H4 2024   3.864   2.926  10.206 -0.8013 -0.2122 -0.6703
  133MPD2     C 2025   3.715   0.123   9.455 -0.5654  0.0778 -0.5816
  133MPD2    C1 2026   3.723   0.019   9.549  0.0219  0.8295 -0.2959
  133MPD2    C2 2027   3.666   4.621   9.526  0.2048 -0.0204 -0.4027
  133MPD2    C3 2028   3.599   4.600   9.411 -0.0247  1.1860 -0.2368
  133MPD2    C4 2029   3.595   4.696   9.317  0.2074  0.3258 -0.0396
  133MPD2    C5 2030   3.644   0.102   9.342 -0.6383 -0.7472  0.1272
  133MPD2     H 2031   3.683   4.542   9.598  0.8879 -1.1514 -1.8128
  133MPD2    H1 2032   3.540   4.680   9.225 -0.1784  0.7201  0.1212
  133MPD2    H2 2033   3.780   0.208   9.470 -3.5513  1.9883  1.5869
  133MPD2    H3 2034   3.633   0.180   9.268  0.4650  0.7086  1.5096
  133MPD2     N 2035   3.536   4.482   9.378  0.2497  1.2203 -0.1211
  133MPD2    H5 2036   3.499   4.477   9.283 -1.9618 -0.8677  0.8314
  133MPD2    N1 2037   3.794   0.046   9.661  0.3248 -0.1170 -0.0906
  133MPD2    H7 2038   3.864   0.120   9.654 -0.7994  0.9585 -0.0864
  134TCq2    C1 2039   3.810   4.689   9.774 -0.3668  0.2164 -0.5893
  134TCq2    O2 2040   3.749   4.587   9.800 -0.2712 -0.1636  0.7952
  134TCq2    C2 2041   3.944   4.700   9.836 -0.6674  0.2064 -0.0192
  134TCq2    C3 2042   3.990   4.578   9.873 -0.4059  0.0061  0.3555
  134TCq2    C4 2043   4.084   4.560   9.964  0.2666  0.1055 -0.6706
  134TCq2    C5 2044   4.140   4.671  10.024 -0.6029  0.1460  0.3956
  134TCq2    C6 2045   4.096   0.075   9.979 -0.0478 -0.2606 -0.1077
  134TCq2    C7 2046   3.998   0.091   9.886 -0.8173  0.0245  0.0082
  134TCq2    C8 2047   4.190   0.182  10.006  0.2617 -0.3146 -0.1011
  134TCq2    O4 2048   4.254   0.180  10.107  0.1184 -0.0992  0.0256
  134TCq2    C9 2049   4.137   4.431   9.999  0.2529 -0.0298 -0.9181
  134TCq2    O5 2050   4.211   4.424  10.102  0.9181 -0.2832 -0.6102
  134TCq2    O6 2051   4.144   4.351   9.901 -0.7741  0.1014 -0.0201
  134TCq2    H2 2052   3.949   4.486   9.831 -1.6622 -0.5000  2.7003
  134TCq2    H3 2053   4.224   4.654  10.090  0.2295  0.3647 -0.5940
  134TCq2    H4 2054   3.943   0.184   9.875  2.5495  1.8082 -1.7876
  135MPD2     C 2055   0.790   4.358   9.005 -0.3479  0.3193 -0.7671
  135MPD2    C1 2056   0.777   4.221   8.990 -0.1291 -0.0152  0.1618
  135MPD2    C2 2057   0.877   4.154   8.913  0.1593 -0.5820 -0.9676
  135MPD2    C3 2058   0.979   4.227   8.847 -0.9930  0.1051 -0.5146
  135MPD2    C4 2059   0.994   4.362   8.879  0.7671 -0.4553  0.0524
  135MPD2    C5 2060   0.904   4.422   8.959  0.6221 -0.2187 -0.3559
  135MPD2     H 2061   0.872   4.047   8.895  0.7782 -1.0900  1.9208
  135MPD2    H1 2062   1.076   4.426   8.849 -0.3677  1.1766  0.4190
  135MPD2    H2 2063   0.727   4.416   9.072  0.7109 -0.5803  1.0218
  135MPD2    H3 2064   0.920   4.529   8.974 -3.8557  0.4158  0.1543
  135MPD2     N 2065   1.076   4.161   8.766  0.2225 -0.3798  0.3896
  135MPD2    H5 2066   1.150   4.219   8.728  0.5876  1.0316  3.2860
  135MPD2    N1 2067   0.678   4.140   9.057 -0.1108 -0.2844 -0.0415
  135MPD2    H7 2068   0.671   4.040   9.039 -0.1696 -0.5120  1.2388
  136TCq2    C1 2069   0.589   4.183   9.146  0.4785 -0.8961  0.6794
  136TCq2    O2 2070   0.602   4.286   9.210  1.0751 -0.3616  0.4589
  136TCq2    C2 2071   0.486   4.093   9.185  0.0826  0.4099 -0.4712
  136TCq2    C3 2072   0.451   4.013   9.086 -0.8212  0.2986 -0.9352
  136TCq2    C4 2073   0.327   3.957   9.089  0.0001  0.0127  0.1015
  136TCq2    C5 2074   0.237   3.982   9.182  0.0228  0.8572  0.0987
  136TCq2    C6 2075   0.276   4.071   9.278  0.9246  0.4777  0.1539
  136TCq2    C7 2076   0.398   4.134   9.281 -0.1293  0.5164  0.2654
  136TCq2    C8 2077   0.169   4.136   9.369  0.2260  0.1897  0.0784
  136TCq2    O4 2078   0.056   4.141   9.326 -0.2792  0.3740 -0.1720
  136TCq2    C9 2079   0.290   3.851   8.994 -0.6296 -0.0912 -0.2990
  136TCq2    O5 2080   0.167   3.819   8.983 -0.0866  0.6987  0.4153
  136TCq2    O6 2081   0.381   3.813   8.917  0.0813  0.2554  0.0455
  136TCq2    H2 2082   0.516   3.966   9.013  2.5221  4.1295 -0.4051
  136TCq2    H3 2083   0.141   3.933   9.193  0.8219 -0.3174  1.8166
  136TCq2    H4 2084   0.422   4.213   9.351 -0.1958 -0.0646  0.9338
  137MPD2     C 2085   1.458   3.489   9.655  0.5919  0.0812  0.0673
  137MPD2    C1 2086   1.346   3.526   9.719 -0.0537 -0.0495  0.4959
  137MPD2    C2 2087   1.321   3.659   9.726  0.7794 -0.8315  0.4783
  137MPD2    C3 2088   1.413   3.754   9.680  0.2257 -0.1667 -0.5815
  137MPD2    C4 2089   1.531   3.706   9.629 -0.1349  0.0582 -0.0580
  137MPD2    C5 2090   1.554   3.579   9.613  0.2805  0.8214 -0.5879
  137MPD2     H 2091   1.220   3.690   9.752  1.2568  1.0738  0.0570
  137MPD2    H1 2092   1.617   3.764   9.597 -0.3544  1.3161  1.6678
  137MPD2    H2 2093   1.473   3.383   9.641 -0.9126 -0.0603 -0.5314
  137MPD2    H3 2094   1.652   3.550   9.577  0.2381 -0.0274 -0.0239
  137MPD2     N 2095   1.383   3.891   9.695  0.1696 -0.2265  0.8539
  137MPD2    H5 2096   1.293   3.900   9.742  0.3651  2.7371  0.6738
  137MPD2    N1 2097   1.252   3.428   9.757  0.6002 -0.6332  0.1719
  137MPD2    H7 2098   1.286   3.333   9.744  0.1755 -0.8753  0.7899
  138TCq2    C1 2099   1.123   3.442   9.791 -0.3552 -0.8478  0.4503
  138TCq2    O2 2100   1.059   3.538   9.832  0.1879  0.2935  0.5784
  138TCq2    C2 2101   1.058   3.313   9.767  0.1751 -0.1352  0.3318
  138TCq2    C3 2102   1.106   3.226   9.665  0.3810  0.1598 -0.8181
  138TCq2    C4 2103   1.035   3.114   9.634  0.2005 -0.1355 -0.4070
  138TCq2    C5 2104   0.921   3.081   9.696  0.0404  0.5514  0.0869
  138TCq2    C6 2105   0.889   3.151   9.808 -0.3423 -0.0512  0.1591
  138TCq2    C7 2106   0.944   3.273   9.844 -0.1390  0.1776 -0.0370
  138TCq2    C8 2107   0.801   3.075   9.899 -0.3102 -0.0808 -0.8922
  138TCq2    O4 2108   0.809   2.955   9.885 -0.7041 -0.2524 -0.3110
  138TCq2    C9 2109   1.083   3.024   9.534 -0.3003 -0.5715  0.0306
  138TCq2    O5 2110   1.195   3.051   9.489 -0.1685  0.0042  0.0606
  138TCq2    O6 2111   1.040   2.906   9.518  0.1026  0.4403 -0.2045
  138TCq2    H2 2112   1.194   3.247   9.605  2.4521  1.6572  2.6629
  138TCq2    H3 2113   0.870   2.990   9.664 -1.2866  1.7003 -1.0496
  138TCq2    H4 2114   0.911   3.336   9.926 -1.0812 -0.9929  0.4791
  139TMC2    C1 2115   0.680   3.297  13.559 -0.1646  0.5299 -0.6111
  139TMC2    C2 2116   0.771   3.365  13.627 -0.2666  0.4748 -0.5016
  139TMC2    C3 2117   0.737   3.477  13.695 -0.5777 -0.1276  0.5687
  139TMC2    C4 2118   0.549   3.324  13.552  0.5890 -0.1980 -0.3501
  139TMC2    C5 2119   0.511   3.432  13.635  0.0021 -0.2139 -0.7287
  139TMC2    C6 2120   0.603   3.513  13.703  0.1082  0.4814 -0.8221
  139TMC2     C 2121   0.713   3.175  13.490 -0.0933  0.2990  0.7272
  139TMC2     O 2122   0.642   3.146  13.396 -0.4717 -0.2541  0.2182
  139TMC2     H 2123   0.876   3.342  13.613 -0.0501  0.3446  1.3658
  139TMC2    H1 2124   0.483   3.263  13.493  2.0807 -1.3614 -0.8080
  139TMC2    H2 2125   0.572   3.582  13.781  0.7367 -0.6068  0.3920
  139TMC2    C7 2126   0.367   3.457  13.628 -0.3528 -0.7891  0.2044
  139TMC2    C8 2127   0.843   3.568  13.737 -0.4882  0.0598 -0.1269
  139TMC2    O1 2128   0.325   3.565  13.670  0.6328  0.4372 -0.2915
  139TMC2    O2 2129   0.958   3.533  13.746 -0.1084 -0.1140  0.1278
  139TMC2    O5 2130   0.807   3.690  13.704 -0.1659 -0.1359  0.7175
  139TMC2    H5 2131   0.711   3.702  13.688 -0.0365  0.3219  0.2825
  140MPD2     C 2132   0.916   2.909  13.647 -0.0733 -0.0278  0.7975
  140MPD2    C1 2133   0.834   2.967  13.556  0.0758  0.3422  0.5806
  140MPD2    C2 2134   0.791   2.891  13.449 -0.6855  0.3756 -0.1086
  140MPD2    C3 2135   0.808   2.756  13.446 -0.3252  0.8890 -0.3287
  140MPD2    C4 2136   0.879   2.697  13.549  0.1678  0.2118 -0.4706
  140MPD2    C5 2137   0.926   2.779  13.645  0.0309  0.3788  0.2618
  140MPD2     H 2138   0.736   2.932  13.366  0.1622  0.4973 -0.6129
  140MPD2    H1 2139   0.894   2.590  13.560 -1.3022  0.2267  1.6537
  140MPD2    H2 2140   0.953   2.976  13.724 -0.7279  0.8212  0.3876
  140MPD2    H3 2141   0.976   2.727  13.726 -0.4755  0.9825  0.9552
  140MPD2     N 2142   0.745   2.683  13.344 -0.0861  0.0467  0.0733
  140MPD2    H5 2143   0.697   2.746  13.281 -0.6525  0.9970  1.4670
  140MPD2    N1 2144   0.809   3.106  13.561  0.0175  0.1371  0.2984
  140MPD2    H7 2145   0.851   3.154  13.641 -1.4725  1.7822  0.1073
  141TCq2    C1 2146   1.563   3.848  14.281  0.4192  0.1483 -0.2304
  141TCq2    O2 2147   1.503   3.947  14.242 -0.5984 -0.1367  0.1117
  141TCq2    C2 2148   1.562   3.833  14.427  0.6214  0.4769 -0.5404
  141TCq2    C3 2149   1.673   3.767  14.483 -0.0014 -0.2940 -0.3674
  141TCq2    C4 2150   1.679   3.776  14.617 -0.4526 -0.3885 -0.0437
  141TCq2    C5 2151   1.586   3.850  14.697 -0.3087 -0.0871 -0.3227
  141TCq2    C6 2152   1.490   3.923  14.635  0.1731  0.0888 -0.3239
  141TCq2    C7 2153   1.478   3.919  14.501  0.1265  0.4653  0.2539
  141TCq2    C8 2154   1.406   4.007  14.720 -0.1347  0.7831  0.1764
  141TCq2    O4 2155   1.371   3.965  14.831 -0.1435 -0.2787 -0.2376
  141TCq2    C9 2156   1.785   3.721  14.694 -0.2305  0.2546 -0.4979
  141TCq2    O5 2157   1.764   3.703  14.814  0.5469 -0.1809  0.2009
  141TCq2    O6 2158   1.898   3.705  14.645  0.5137 -0.2515 -0.4199
  141TCq2    H2 2159   1.745   3.706  14.431 -0.2633 -1.3174  0.4739
  141TCq2    H3 2160   1.598   3.874  14.802 -0.9309 -0.1358 -0.2444
  141TCq2    H4 2161   1.401   3.971  14.445  2.2777  1.1873 -2.0564
  142MPD2     C 2162   3.667   2.349   9.946  0.2635  0.0156  0.7220
  142MPD2    C1 2163   3.580   2.274   9.868  0.8116  0.0852 -0.3133
  142MPD2    C2 2164   3.489   2.340   9.782  0.0453  1.1298  0.0097
  142MPD2    C3 2165   3.509   2.482   9.757  0.4332 -0.1406  0.6343
  142MPD2    C4 2166   3.608   2.549   9.829  0.3169  0.0113 -0.5962
  142MPD2    C5 2167   3.677   2.484   9.928  0.5693 -0.0560 -0.1613
  142MPD2     H 2168   3.419   2.288   9.716  0.7116  1.6922 -1.1324
  142MPD2    H1 2169   3.612   2.658   9.829  1.8111 -0.0343  0.3745
  142MPD2    H2 2170   3.722   2.311  10.032 -0.4498  1.6151  1.8888
  142MPD2    H3 2171   3.744   2.545   9.988  1.9540 -0.9574 -0.7893
  142MPD2     N 2172   3.434   2.553   9.652 -0.0596  0.1172 -0.2765
  142MPD2    H5 2173   3.468   2.647   9.634 -0.1642 -0.0261 -1.1850
  142MPD2    N1 2174   3.573   2.130   9.887 -0.1306  0.5125 -0.6333
  142MPD2    H7 2175   3.642   2.098   9.953  0.4788  0.6019 -1.2263
  143TCq2    C1 2176   3.338   2.498   9.566 -0.0662  0.1783  0.8843
  143TCq2    O2 2177   3.288   2.387   9.562  0.0165  0.1419  0.1618
  143TCq2    C2 2178   3.298   2.588   9.460 -0.5733  0.3740  0.5273
  143TCq2    C3 2179   3.191   2.553   9.384  0.0935  0.7223 -0.4501
  143TCq2    C4 2180   3.142   2.642   9.297  0.4327 -0.3694  0.0437
  143TCq2    C5 2181   3.196   2.765   9.265  0.2593  0.1543 -0.7378
  143TCq2    C6 2182   3.315   2.787   9.334 -0.1710  0.2387 -0.1493
  143TCq2    C7 2183   3.360   2.709   9.438 -0.0200  0.8446  0.5342
  143TCq2    C8 2184   3.367   2.924   9.312  0.1723  0.0220 -0.8711
  143TCq2    O4 2185   3.295   3.002   9.257 -0.5092  0.7327 -0.1858
  143TCq2    C9 2186   3.030   2.604   9.223  0.4096  0.1875 -0.0834
  143TCq2    O5 2187   2.954   2.515   9.266  0.2779 -0.0597  0.2748
  143TCq2    O6 2188   3.026   2.641   9.103 -0.5233 -0.2880 -0.5960
  143TCq2    H2 2189   3.147   2.454   9.382  0.1598  0.6585  2.0700
  143TCq2    H3 2190   3.160   2.837   9.193  2.1996  1.7380 -0.1392
  143TCq2    H4 2191   3.450   2.737   9.491 -0.3142  0.9442  0.9804
  144MPD2     C 2192   1.407   1.536   0.615  0.6384 -0.2857 -0.0684
  144MPD2    C1 2193   1.493   1.453   0.540 -0.1898  0.7268  0.0003
  144MPD2    C2 2194   1.630   1.444   0.573  0.2033  0.2771 -0.4946
  144MPD2    C3 2195   1.683   1.527   0.667 -0.5814 -0.2666 -0.0357
  144MPD2    C4 2196   1.599   1.613   0.732  0.6751  0.1987 -0.3524
  144MPD2    C5 2197   1.466   1.617   0.715  0.4893 -0.1356 -0.0224
  144MPD2     H 2198   1.691   1.372   0.521  0.6589 -0.8815  1.6371
  144MPD2    H1 2199   1.640   1.677   0.809 -1.1765  1.1836 -0.1839
  144MPD2    H2 2200   1.299   1.547   0.609  0.7421  0.6602 -0.1030
  144MPD2    H3 2201   1.399   1.670   0.781  1.7384  0.3011  0.8858
  144MPD2     N 2202   1.822   1.545   0.683  0.7061 -0.2910  0.3413
  144MPD2    H5 2203   1.851   1.633   0.725 -2.9004  0.1863  1.8292
  144MPD2    N1 2204   1.444   1.366   0.438  0.6365 -0.0459 -0.3050
  144MPD2    H7 2205   1.505   1.301   0.388  0.0847  0.0431 -1.0893
  145TCq2    C1 2206   1.923   1.462   0.641  1.0388  0.9845  0.2097
  145TCq2    O2 2207   1.918   1.349   0.596  0.6746 -0.4104  0.6491
  145TCq2    C2 2208   2.048   1.496   0.701  0.3780  0.2584 -0.3236
  145TCq2    C3 2209   2.155   1.423   0.652 -0.3723 -0.7963  0.5993
  145TCq2    C4 2210   2.269   1.416   0.731  0.6533  0.1027  0.2248
  145TCq2    C5 2211   2.274   1.488   0.846 -0.4379 -0.4505 -0.4054
  145TCq2    C6 2212   2.163   1.558   0.889 -0.0917  0.2628 -0.2377
  145TCq2    C7 2213   2.055   1.575   0.814 -0.2855  0.6893  0.2515
  145TCq2    C8 2214   2.170   1.622   1.025  0.5065  0.3180  0.3187
  145TCq2    O4 2215   2.255   1.573   1.100  0.8044 -0.4497 -0.3239
  145TCq2    C9 2216   2.385   1.344   0.693  0.1671 -0.1987 -0.1112
  145TCq2    O5 2217   2.480   1.350   0.780  0.3849  0.3588  0.0956
  145TCq2    O6 2218   2.380   1.278   0.583  0.2358 -0.1832 -0.3316
  145TCq2    H2 2219   2.149   1.381   0.552 -2.9747  0.6445  0.1628
  145TCq2    H3 2220   2.358   1.475   0.913 -0.3524 -2.7990 -0.9441
  145TCq2    H4 2221   1.963   1.604   0.864 -1.4347 -1.5904 -0.5012
  146TMC2    C1 2222   3.198   0.786  12.283  0.3960 -1.1486  0.0543
  146TMC2    C2 2223   3.131   0.845  12.178  0.2756  0.0616 -0.3556
  146TMC2    C3 2224   3.180   0.838  12.052 -0.1787  0.2064 -0.2058
  146TMC2    C4 2225   3.319   0.723  12.255 -0.4068  0.0656  0.4799
  146TMC2    C5 2226   3.370   0.723  12.124  0.1363  0.1671  0.5741
  146TMC2    C6 2227   3.303   0.783  12.023 -0.7128  0.0076  0.1756
  146TMC2     C 2228   3.136   0.791  12.411 -0.0160  0.3544 -0.1328
  146TMC2     O 2229   3.036   0.860  12.412  0.0145  0.4846 -0.3544
  146TMC2     H 2230   3.026   0.872  12.184  0.8247  2.1197  0.0338
  146TMC2    H1 2231   3.386   0.692  12.335 -1.0624 -0.6359  0.7565
  146TMC2    H2 2232   3.333   0.776  11.919 -1.8695 -2.4203  0.0008
  146TMC2    C7 2233   3.510   0.698  12.096 -0.4194  0.2510  0.9225
  146TMC2    C8 2234   3.137   0.941  11.962 -0.1123  0.9589 -0.4216
  146TMC2    O1 2235   3.551   0.745  11.991 -0.2864 -0.2212  0.0833
  146TMC2    O2 2236   3.173   1.057  11.968 -0.5744 -0.2457  0.7644
  146TMC2    O5 2237   3.010   0.907  11.947  0.3830 -0.1002  0.6808
  146TMC2    H5 2238   2.992   0.810  11.949  2.3562 -0.4708  1.0773
  147MPD2     C 2239   3.975   0.519  12.206 -0.2381 -0.4946  0.2825
  147MPD2    C1 2240   3.892   0.480  12.309 -0.0195  0.2149  0.8378
  147MPD2    C2 2241   3.765   0.527  12.309  0.3277 -0.2747  0.4829
  147MPD2    C3 2242   3.709   0.598  12.204  0.3463 -0.3900 -0.2897
  147MPD2    C4 2243   3.797   0.630  12.099  0.4260 -0.1263 -0.7111
  147MPD2    C5 2244   3.926   0.587  12.106  0.0525  0.0901  0.3213
  147MPD2     H 2245   3.700   0.502  12.392 -0.9505  1.1773 -0.0677
  147MPD2    H1 2246   3.765   0.686  12.012 -1.6755 -0.7297 -0.3311
  147MPD2    H2 2247   4.079   0.487  12.200  0.0914  0.9312 -1.3881
  147MPD2    H3 2248   3.996   0.611  12.027  0.8712  0.1204  1.0644
  147MPD2     N 2249   3.572   0.630  12.203 -0.0395  0.1517  0.1015
  147MPD2    H5 2250   3.511   0.605  12.281  1.3397 -3.2167  0.0924
  147MPD2    N1 2251   3.946   0.407  12.413  0.1660 -0.0526 -0.5965
  147MPD2    H7 2252   4.040   0.371  12.398 -0.3545 -1.4013 -0.5725
  148MPD2     C 2253   3.319   4.261  10.099 -0.3872  0.1442 -0.6162
  148MPD2    C1 2254   3.376   4.139  10.120  1.0596 -0.0891 -0.0474
  148MPD2    C2 2255   3.310   4.029  10.074 -0.5698 -0.6652 -1.3538
  148MPD2    C3 2256   3.187   4.039  10.002  0.0057 -0.0318 -0.4331
  148MPD2    C4 2257   3.132   4.162   9.984  0.4074 -0.6443 -0.0168
  148MPD2    C5 2258   3.197   4.273  10.032 -0.6458 -0.0712  0.2831
  148MPD2     H 2259   3.362   3.935  10.089 -0.5887 -0.7008 -1.5082
  148MPD2    H1 2260   3.031   4.174   9.946 -0.0082 -0.2662  1.1806
  148MPD2    H2 2261   3.372   4.351  10.130  1.1069 -0.4018 -1.5749
  148MPD2    H3 2262   3.145   4.368  10.025 -0.8507 -0.0169  2.4667
  148MPD2     N 2263   3.110   3.933   9.956  0.2150  0.2052  0.4629
  148MPD2    H5 2264   3.019   3.960   9.920 -0.4388  1.3179  2.9365
  148MPD2    N1 2265   3.491   4.116  10.200  0.1023 -0.4316  0.2012
  148MPD2    H7 2266   3.514   4.017  10.207 -0.6671 -0.7190 -1.3286
  149TCq2    C1 2267   3.558   4.219  10.264 -0.3771 -0.3618 -0.0666
  149TCq2    O2 2268   3.532   4.335  10.265 -0.5934  0.1683  0.1858
  149TCq2    C2 2269   3.668   4.166  10.352  0.3947  0.2576  0.0649
  149TCq2    C3 2270   3.678   4.248  10.463  0.3863 -0.0988  0.0265
  149TCq2    C4 2271   3.712   4.194  10.583 -0.1284  0.2561  0.5485
  149TCq2    C5 2272   3.710   4.060  10.598 -0.0275 -0.0837 -0.0793
  149TCq2    C6 2273   3.697   3.982  10.486 -0.1482 -0.2444 -0.1365
  149TCq2    C7 2274   3.684   4.037  10.361  0.3022  0.2698  0.1816
  149TCq2    C8 2275   3.686   3.841  10.490 -0.2493  0.3515  0.3840
  149TCq2    O4 2276   3.680   3.774  10.390  0.0169  0.7474  0.9390
  149TCq2    C9 2277   3.692   4.278  10.702 -0.0750  0.5558 -0.4933
  149TCq2    O5 2278   3.681   4.218  10.812 -0.1579 -0.0891  0.1623
  149TCq2    O6 2279   3.666   4.402  10.689  0.3759 -0.6335 -0.1316
  149TCq2    H2 2280   3.651   4.353  10.457 -1.4232 -0.6103 -0.6535
  149TCq2    H3 2281   3.706   4.020  10.698  1.1362  0.4550  0.1859
  149TCq2    H4 2282   3.674   3.977  10.271  1.2720 -1.8696  1.4928
  150MPD2     C 2283   0.548   3.080  11.137  0.1758  0.5333  0.0002
  150MPD2    C1 2284   0.439   3.087  11.220  0.0889 -0.1011 -0.0329
  150MPD2    C2 2285   0.455   3.146  11.342  0.3048 -0.3273  0.2873
  150MPD2    C3 2286   0.574   3.184  11.394  0.0913  0.4914 -0.5677
  150MPD2    C4 2287   0.679   3.195  11.304  0.3581  0.7589  0.1164
  150MPD2    C5 2288   0.663   3.149  11.172  0.5538  0.3880 -0.3499
  150MPD2     H 2289   0.368   3.148  11.408  0.0152 -2.2345 -0.0359
  150MPD2    H1 2290   0.778   3.238  11.319  0.9786  0.2984 -2.7936
  150MPD2    H2 2291   0.544   3.051  11.033 -1.8017  2.5865 -0.5024
  150MPD2    H3 2292   0.746   3.161  11.104  0.7158  0.2027 -0.1856
  150MPD2     N 2293   0.576   3.227  11.531 -0.3171 -0.4347 -0.1166
  150MPD2    H5 2294   0.486   3.230  11.577 -0.1720 -0.0653  0.1450
  150MPD2    N1 2295   0.313   3.048  11.171  0.3031 -0.1943 -0.8923
  150MPD2    H7 2296   0.294   3.034  11.072  1.0889  0.3108 -1.1114
  151TCq2    C1 2297   0.681   3.263  11.605 -0.3178  0.0103  0.1062
  151TCq2    O2 2298   0.800   3.257  11.570  0.5926  0.6527 -0.1040
  151TCq2    C2 2299   0.638   3.331  11.725  0.2480  0.0422  0.3413
  151TCq2    C3 2300   0.522   3.402  11.723  0.1816  0.1853  0.8826
  151TCq2    C4 2301   0.493   3.491  11.823  0.1667  0.8815  0.4639
  151TCq2    C5 2302   0.579   3.517  11.927  0.6874 -0.1196  0.1116
  151TCq2    C6 2303   0.702   3.458  11.915  0.5773  0.8051 -0.1589
  151TCq2    C7 2304   0.726   3.354  11.824  0.1607  0.3535  1.0620
  151TCq2    C8 2305   0.792   3.490  12.023 -0.4039 -0.4275  0.5845
  151TCq2    O4 2306   0.782   3.601  12.073  0.4054 -0.0396 -0.2604
  151TCq2    C9 2307   0.361   3.552  11.819  0.9587  0.5949  0.4455
  151TCq2    O5 2308   0.275   3.500  11.737 -0.7594  0.3530 -0.5911
  151TCq2    O6 2309   0.337   3.642  11.899  0.3462  0.4348  0.1055
  151TCq2    H2 2310   0.448   3.386  11.646 -0.0870 -1.6616  1.5208
  151TCq2    H3 2311   0.540   3.580  12.007  1.6814  0.5438  0.0652
  151TCq2    H4 2312   0.826   3.312  11.827 -0.1833 -0.6862 -2.4071
  152MPD2     C 2313   4.669   2.722  12.144  0.0482 -0.1164  0.2101
  152MPD2    C1 2314   4.666   2.858  12.117 -0.1629 -0.0786 -0.0136
  152MPD2    C2 2315   4.537   2.913  12.114  0.6637 -0.2117 -0.5726
  152MPD2    C3 2316   4.436   2.838  12.168 -0.1425  0.3903  0.4056
  152MPD2    C4 2317   4.450   2.712  12.210 -0.9094 -0.1227  0.8146
  152MPD2    C5 2318   4.571   2.646  12.200  0.5081  0.8511 -0.3806
  152MPD2     H 2319   4.529   3.017  12.086 -0.4794  0.3018  1.6392
  152MPD2    H1 2320   4.365   2.655  12.247 -2.1830 -0.5577 -2.7538
  152MPD2    H2 2321   0.039   2.667  12.129  0.0760  0.2382 -0.9066
  152MPD2    H3 2322   4.586   2.542  12.229 -2.4873  0.3832 -0.5338
  152MPD2     N 2323   4.303   2.897  12.177  0.8775  0.3385  0.0400
  152MPD2    H5 2324   4.290   2.985  12.128  2.3704 -0.8347 -2.4814
  152MPD2    N1 2325   0.067   2.923  12.069  0.4171 -0.2636  1.0803
  152MPD2    H7 2326   0.154   2.872  12.061  0.4402  0.4663 -3.4256
  153TCq2    C1 2327   0.074   3.054  12.036 -0.3560  0.5818  0.4272
  153TCq2    O2 2328   4.710   3.142  12.027  0.2358  0.1186 -0.0053
  153TCq2    C2 2329   0.214   3.095  12.014  0.1676 -0.2769  0.1542
  153TCq2    C3 2330   0.308   3.004  11.979 -0.2785 -0.6551 -0.0153
  153TCq2    C4 2331   0.439   3.045  11.996 -0.0598 -0.0074 -0.0524
  153TCq2    C5 2332   0.480   3.166  12.045  0.2447  0.0474 -0.1114
  153TCq2    C6 2333   0.383   3.260  12.073  0.8948  0.1066  0.7251
  153TCq2    C7 2334   0.250   3.226  12.053  0.0472  0.2033  0.6705
  153TCq2    C8 2335   0.408   3.367  12.172 -0.1847 -0.1348 -0.5592
  153TCq2    O4 2336   0.326   3.460  12.177  0.1458 -0.0986 -0.0088
  153TCq2    C9 2337   0.540   2.943  11.971 -0.5450 -0.5472 -0.3378
  153TCq2    O5 2338   0.502   2.823  11.948  0.3093  0.0049 -0.3314
  153TCq2    O6 2339   0.654   2.972  12.008 -0.5195  0.6058 -0.3890
  153TCq2    H2 2340   0.284   2.909  11.932  2.3304 -1.7625  0.9382
  153TCq2    H3 2341   0.584   3.183  12.068 -0.7173  2.2529  2.5961
  153TCq2    H4 2342   0.174   3.299  12.078 -0.5562 -0.4350  0.6905
  154MPD2     C 2343   1.616   4.088   0.782 -0.4333  0.2427 -0.4323
  154MPD2    C1 2344   1.730   4.038   0.842  0.2175 -0.2393  0.0648
  154MPD2    C2 2345   1.730   4.006   0.980  1.0526 -0.2530 -0.4678
  154MPD2    C3 2346   1.606   4.019   1.045 -0.5072  0.2821  0.8124
  154MPD2    C4 2347   1.490   4.071   0.984 -0.1942  0.3033 -0.4418
  154MPD2    C5 2348   1.501   4.108   0.853 -0.6975 -0.5023  0.1435
  154MPD2     H 2349   1.824   3.981   1.028  0.1828 -0.8369  0.9316
  154MPD2    H1 2350   1.403   4.098   1.043  0.4757  2.1289 -0.3214
  154MPD2    H2 2351   1.610   4.103   0.675 -0.2812  0.7831 -0.3656
  154MPD2    H3 2352   1.429   4.147   0.781  0.5826  1.2400 -0.2087
  154MPD2     N 2353   1.617   4.006   1.185 -0.6893 -0.1128  0.1903
  154MPD2    H5 2354   1.702   3.966   1.222 -0.1447 -2.0492 -3.1283
  154MPD2    N1 2355   1.842   4.027   0.759  0.2699  0.0074  0.4231
  154MPD2    H7 2356   1.830   4.046   0.660  1.2436 -0.2377  0.2558
  155TCq2    C1 2357   1.969   4.000   0.803 -0.0602  0.0462  0.0932
  155TCq2    O2 2358   2.014   3.979   0.915 -0.3487  0.2723  0.2518
  155TCq2    C2 2359   2.074   3.995   0.700 -0.4352  0.4881  0.0654
  155TCq2    C3 2360   2.203   4.032   0.731  0.7546  0.0413 -0.6624
  155TCq2    C4 2361   2.292   4.016   0.635  0.0110 -0.0776 -0.0349
  155TCq2    C5 2362   2.268   3.961   0.512 -0.0671 -0.0847  0.3720
  155TCq2    C6 2363   2.144   3.925   0.484  0.0398  0.7604 -0.0901
  155TCq2    C7 2364   2.045   3.947   0.576 -0.5924  0.0481 -0.6222
  155TCq2    C8 2365   2.110   3.846   0.360  0.5730  1.0214 -0.5702
  155TCq2    O4 2366   1.991   3.837   0.334 -0.0104  0.8499  0.0851
  155TCq2    C9 2367   2.430   4.058   0.655  0.2754 -0.4365  0.5415
  155TCq2    O5 2368   2.513   4.044   0.563  0.3679 -0.2281 -0.5460
  155TCq2    O6 2369   2.449   4.139   0.755 -0.5121 -0.2729  0.0153
  155TCq2    H2 2370   2.243   4.069   0.825 -2.5893 -1.0546  1.2090
  155TCq2    H3 2371   2.341   3.953   0.432 -0.4406 -0.0246  0.0200
  155TCq2    H4 2372   1.944   3.914   0.553 -1.3849  1.6647  0.5724
  156MPD2     C 2373   0.408   0.336  12.801  0.7963  0.3267  0.4524
  156MPD2    C1 2374   0.433   0.395  12.682  0.4160 -0.1075 -0.2651
  156MPD2    C2 2375   0.345   0.501  12.642  0.8491 -0.1636 -0.2954
  156MPD2    C3 2376   0.244   0.543  12.725 -0.6879 -0.2918 -0.3893
  156MPD2    C4 2377   0.220   0.474  12.845 -0.0608 -0.6785 -0.1936
  156MPD2    C5 2378   0.315   0.388  12.886 -0.0066 -0.5244 -0.5793
  156MPD2     H 2379   0.348   0.561  12.552  3.1182 -1.1038 -0.8373
  156MPD2    H1 2380   0.151   0.512  12.919 -1.8353  0.0069 -2.1895
  156MPD2    H2 2381   0.462   0.252  12.843  0.2089 -1.3925 -2.2812
  156MPD2    H3 2382   0.300   0.345  12.985 -1.3234  0.3658 -0.3944
  156MPD2     N 2383   0.167   0.650  12.684 -0.0159  0.6705 -0.1073
  156MPD2    H5 2384   0.201   0.700  12.602 -1.0638  1.1521 -0.2426
  156MPD2    N1 2385   0.524   0.337  12.598 -0.0772  0.1533 -0.1310
  156MPD2    H7 2386   0.578   0.259  12.636  1.1490 -0.5494 -3.3224
  157TCq2    C1 2387   0.541   0.375  12.468  0.4223  0.3099 -0.5344
  157TCq2    O2 2388   0.469   0.451  12.398 -0.3857 -0.5778  0.0341
  157TCq2    C2 2389   0.653   0.303  12.395 -0.3265  0.5778  0.4142
  157TCq2    C3 2390   0.729   0.198  12.446 -0.8120 -0.2829 -0.4087
  157TCq2    C4 2391   0.835   0.152  12.370 -0.0678 -0.0826 -0.0403
  157TCq2    C5 2392   0.855   0.202  12.244 -0.2896 -0.7340  0.3504
  157TCq2    C6 2393   0.774   0.299  12.194  0.1156 -0.4340 -0.2982
  157TCq2    C7 2394   0.679   0.356  12.272 -0.2190  0.7460  0.2101
  157TCq2    C8 2395   0.777   0.345  12.057 -0.0499 -0.7156 -0.5972
  157TCq2    O4 2396   0.702   0.435  12.024 -0.2497 -0.0341  0.6515
  157TCq2    C9 2397   0.919   0.043  12.418 -0.3131  0.2087 -0.2826
  157TCq2    O5 2398   0.893   0.023  12.544 -0.4337 -0.2710  0.0571
  157TCq2    O6 2399   1.024   0.015  12.356 -0.5990  0.5284 -0.2965
  157TCq2    H2 2400   0.695   0.137  12.529  0.3295 -0.1262  0.1789
  157TCq2    H3 2401   0.942   0.160  12.195 -0.2736 -1.1321  0.7247
  157TCq2    H4 2402   0.615   0.431  12.226 -1.6993 -0.5144  0.2135
  158TMC2    C1 2403   0.413   4.606  13.451 -0.4187  0.2083  0.3811
  158TMC2    C2 2404   0.439   4.719  13.389  0.6926 -0.2375  0.0256
  158TMC2    C3 2405   0.344   0.069  13.328 -0.4197  0.4625 -0.4729
  158TMC2    C4 2406   0.291   4.552  13.459 -0.8651 -0.4508  0.3937
  158TMC2    C5 2407   0.197   4.630  13.388 -0.6935  0.7054 -0.2873
  158TMC2    C6 2408   0.217   0.022  13.318  0.3125 -0.9702 -0.5835
  158TMC2     C 2409   0.517   4.548  13.528 -0.1774  0.4429  0.2191
  158TMC2     O 2410   0.628   4.585  13.497  0.4886  0.1111 -0.0831
  158TMC2     H 2411   0.542   0.012  13.362 -0.0779  1.3344 -2.0381
  158TMC2    H1 2412   0.268   4.469  13.524 -1.0939 -2.8638 -2.8227
  158TMC2    H2 2413   0.151   0.090  13.265 -0.6656 -0.1480  1.6718
  158TMC2    C7 2414   0.055   4.583  13.367  0.4756  0.1997 -0.1359
  158TMC2    C8 2415   0.379   0.190  13.260 -0.1136 -0.1590 -0.5655
  158TMC2    O1 2416   4.709   4.642  13.288 -0.0272  0.0149  0.9716
  158TMC2    O2 2417   0.306   0.247  13.179  0.0358 -0.6656  0.1783
  158TMC2    O5 2418   0.507   0.234  13.295 -0.1563  0.0880  0.3112
  158TMC2    H5 2419   0.547   0.200  13.378  0.8622 -0.1949 -0.2912
  159MPD2     C 2420   0.715   4.279  13.902  0.8064  0.2457 -0.0359
  159MPD2    C1 2421   0.578   4.273  13.922 -0.5492  1.1287 -0.1638
  159MPD2    C2 2422   0.506   4.350  13.834  0.1430 -0.2260  0.6234
  159MPD2    C3 2423   0.562   4.403  13.715  1.0854  0.0228 -0.1918
  159MPD2    C4 2424   0.701   4.406  13.705 -0.4042 -0.5377  0.2323
  159MPD2    C5 2425   0.778   4.344  13.798  0.4647  0.3454  0.3299
  159MPD2     H 2426   0.399   4.362  13.849 -0.0616  1.0598 -1.7405
  159MPD2    H1 2427   0.744   4.442  13.612  0.7959 -0.7309  0.7116
  159MPD2    H2 2428   0.784   4.230  13.971  0.4439 -1.6782 -1.0381
  159MPD2    H3 2429   0.886   4.339  13.796  0.4391 -0.0057 -0.2821
  159MPD2     N 2430   0.477   4.473  13.629  0.5346  0.1469 -0.2701
  159MPD2    H5 2431   0.380   4.479  13.660  0.8318 -2.2152  1.1643
  159MPD2    N1 2432   0.528   4.198  14.027 -0.0887  0.3525 -0.3987
  159MPD2    H7 2433   0.595   4.151  14.088 -0.0762 -0.6151 -1.1627
  160TMC2    C1 2434   1.442   1.986   1.448 -0.0274  0.1514  0.0064
  160TMC2    C2 2435   1.561   1.935   1.483  0.5352 -0.8129 -0.5201
  160TMC2    C3 2436   1.566   1.804   1.493  0.1521  0.1026 -0.0021
  160TMC2    C4 2437   1.332   1.911   1.416  0.6041 -0.2402 -0.5819
  160TMC2    C5 2438   1.358   1.775   1.403  0.0961  0.2483 -0.3565
  160TMC2    C6 2439   1.479   1.719   1.441 -0.2706 -0.1165 -0.4640
  160TMC2     C 2440   1.423   2.133   1.460  0.1728 -0.6216  0.1163
  160TMC2     O 2441   1.502   2.193   1.527  0.1565 -0.1853 -0.4727
  160TMC2     H 2442   1.643   1.993   1.524  0.3920 -0.8166 -0.2221
  160TMC2    H1 2443   1.236   1.955   1.390  0.9350  0.7364 -0.1606
  160TMC2    H2 2444   1.500   1.613   1.452  0.6588  0.1942  0.7164
  160TMC2    C7 2445   1.236   1.698   1.396 -0.1593 -0.3823 -1.0440
  160TMC2    C8 2446   1.684   1.741   1.539  0.0089  0.2707  0.1924
  160TMC2    O1 2447   1.220   1.601   1.473  0.6627 -0.1692 -0.3050
  160TMC2    O2 2448   1.738   1.786   1.638  0.2283 -0.4382  0.5371
  160TMC2    O5 2449   1.747   1.729   1.414 -0.2543 -0.2551 -0.2218
  160TMC2    H5 2450   1.693   1.728   1.332 -1.3763  0.2998  0.5092
  161MPD2     C 2451   1.333   2.426   1.471 -0.4337  0.0833  0.0510
  161MPD2    C1 2452   1.272   2.319   1.397  0.1423  0.3281  0.1534
  161MPD2    C2 2453   1.146   2.350   1.344  0.0029 -0.0092 -0.1623
  161MPD2    C3 2454   1.081   2.472   1.370  0.6001 -0.7286  1.0827
  161MPD2    C4 2455   1.143   2.568   1.444 -0.3852 -0.0907 -0.7873
  161MPD2    C5 2456   1.271   2.543   1.492  0.2365 -0.0708  0.3193
  161MPD2     H 2457   1.100   2.270   1.287 -0.9517  1.4729 -1.5031
  161MPD2    H1 2458   1.102   2.661   1.481  0.2371 -0.0942 -0.0818
  161MPD2    H2 2459   1.433   2.413   1.512 -0.9398  0.7479  1.4686
  161MPD2    H3 2460   1.306   2.611   1.569  3.2551  0.4721 -1.5220
  161MPD2     N 2461   0.951   2.499   1.318 -0.5413 -0.8334  0.3215
  161MPD2    H5 2462   0.907   2.589   1.332 -0.4775 -0.5576 -1.2077
  161MPD2    N1 2463   1.318   2.186   1.388 -0.0868 -0.2307  0.0571
  161MPD2    H7 2464   1.255   2.125   1.335 -0.8462  0.6383 -0.0447
  162TMC2    C1 2465   3.816   3.284   1.380  0.8066 -0.6343  0.1587
  162TMC2    C2 2466   3.855   3.386   1.466 -0.3145  0.7442  0.2136
  162TMC2    C3 2467   3.827   3.363   1.600 -0.2253  0.2507 -0.7687
  162TMC2    C4 2468   3.761   3.163   1.422  0.1544 -0.2824  0.0424
  162TMC2    C5 2469   3.717   3.163   1.546  0.7129  0.0015  0.4510
  162TMC2    C6 2470   3.743   3.264   1.635 -0.4134  0.1547  0.3893
  162TMC2     C 2471   3.809   3.297   1.235  0.2051 -0.1235 -0.9013
  162TMC2     O 2472   3.785   3.196   1.170  0.5011 -1.3220 -0.3576
  162TMC2     H 2473   3.927   3.459   1.434  1.5924 -0.2669  2.2380
  162TMC2    H1 2474   3.755   3.076   1.358  0.1947  0.7134 -1.3097
  162TMC2    H2 2475   3.700   3.270   1.734  1.2539  0.0585  1.1122
  162TMC2    C7 2476   3.635   3.048   1.588  0.0711  0.4666 -0.5361
  162TMC2    C8 2477   3.825   3.480   1.688  0.2100  0.4744  0.3294
  162TMC2    O1 2478   3.619   2.940   1.531 -0.2995 -0.7635  0.0779
  162TMC2    O2 2479   3.830   3.464   1.812  0.3169  0.0944 -0.0359
  162TMC2    O5 2480   3.745   3.571   1.628 -0.0506  0.8846 -0.0327
  162TMC2    H5 2481   3.748   3.585   1.531 -3.1034 -0.9003 -0.3909
  163MPD2     C 2482   3.842   3.559   0.794 -0.3029  0.2158 -0.0778
  163MPD2    C1 2483   3.810   3.430   0.813 -0.5291  0.0499  0.1869
  163MPD2    C2 2484   3.819   3.388   0.945  0.8068 -0.5832 -0.1129
  163MPD2    C3 2485   3.832   3.470   1.056  0.1462 -0.1389  0.4768
  163MPD2    C4 2486   3.852   3.603   1.030 -0.2737 -0.1204  0.5189
  163MPD2    C5 2487   3.866   3.639   0.899 -0.0067  0.1270  0.1155
  163MPD2     H 2488   3.785   3.287   0.963 -2.3038  0.4046 -0.3966
  163MPD2    H1 2489   3.871   3.671   1.113  1.5581  0.0800 -0.0501
  163MPD2    H2 2490   3.844   3.609   0.698 -0.3928 -1.7355 -1.1083
  163MPD2    H3 2491   3.882   3.744   0.877 -3.4346  0.5379 -0.3358
  163MPD2     N 2492   3.817   3.429   1.193 -0.7371  0.1352 -0.1862
  163MPD2    H5 2493   3.821   3.493   1.271 -0.1518 -0.2330  0.0885
  163MPD2    N1 2494   3.767   3.352   0.701 -0.2098  0.2201 -0.0897
  163MPD2    H7 2495   3.753   3.403   0.614  1.1415  0.3155 -0.2414
  164TCq2    C1 2496   4.123   4.238  11.104 -0.1278  0.8231  0.5559
  164TCq2    O2 2497   4.062   4.213  10.999  0.2818 -0.0664 -0.0285
  164TCq2    C2 2498   4.053   4.319  11.208 -0.5585  0.3204 -0.7359
  164TCq2    C3 2499   4.101   4.356  11.331 -0.7361 -0.1291 -0.4461
  164TCq2    C4 2500   4.020   4.441  11.394 -0.7565 -0.1713 -0.5931
  164TCq2    C5 2501   3.887   4.455  11.363  0.0580 -0.4688  0.1301
  164TCq2    C6 2502   3.836   4.392  11.255  0.5472 -0.7955  0.9102
  164TCq2    C7 2503   3.920   4.332  11.169  0.0672  0.1440 -0.3677
  164TCq2    C8 2504   3.688   4.368  11.236 -1.7733 -0.0892  0.0061
  164TCq2    O4 2505   3.658   4.313  11.129  0.3698  0.3421 -0.0407
  164TCq2    C9 2506   4.070   4.527  11.498  0.2864 -0.2915  0.4548
  164TCq2    O5 2507   4.181   4.498  11.541 -0.0996 -0.0085  0.4431
  164TCq2    O6 2508   3.990   4.604  11.555 -0.6541 -0.0896 -0.3436
  164TCq2    H2 2509   4.201   4.355  11.371 -1.0671 -0.4090  0.3783
  164TCq2    H3 2510   3.830   4.513  11.434 -0.3257  0.0993 -0.6461
  164TCq2    H4 2511   3.878   4.290  11.078 -0.7031  0.6648 -0.2489
  165MPD2     C 2512   0.849   0.154   1.048  0.5852 -0.3178 -0.4136
  165MPD2    C1 2513   0.730   0.093   1.072  0.4259  0.0593 -0.0453
  165MPD2    C2 2514   0.606   0.159   1.074 -0.5105 -0.1640  0.1103
  165MPD2    C3 2515   0.605   0.303   1.062 -0.3146 -0.4851 -0.9984
  165MPD2    C4 2516   0.723   0.361   1.027 -0.8851  0.3442 -0.0030
  165MPD2    C5 2517   0.842   0.290   1.023 -0.2253 -0.0699  0.2786
  165MPD2     H 2518   0.519   0.106   1.111 -0.6302  0.6611  1.0118
  165MPD2    H1 2519   0.738   0.467   1.007  1.0324  0.3528  1.5535
  165MPD2    H2 2520   0.946   0.107   1.051 -0.4617 -2.4817 -0.4370
  165MPD2    H3 2521   0.931   0.344   0.993 -0.3647  0.2791  0.4981
  165MPD2     N 2522   0.489   0.382   1.074 -0.1266  0.5527 -0.4717
  165MPD2    H5 2523   0.498   0.480   1.051 -0.0009  0.4877 -0.7061
  165MPD2    N1 2524   0.724   4.670   1.088  0.5576 -0.6268 -0.1718
  165MPD2    H7 2525   0.811   4.621   1.073  1.8600  1.2632  1.1442
  166TCq2    C1 2526   0.362   0.345   1.101 -0.3711 -0.0581  0.2924
  166TCq2    O2 2527   0.322   0.240   1.151 -0.2545 -0.2036  0.1303
  166TCq2    C2 2528   0.266   0.445   1.080 -0.7457 -0.0057  0.1436
  166TCq2    C3 2529   0.155   0.447   1.160  0.1612 -0.3284  0.2639
  166TCq2    C4 2530   0.060   0.542   1.135 -0.5107  0.1537 -0.3972
  166TCq2    C5 2531   0.077   0.641   1.044 -0.1156 -0.1142  0.5109
  166TCq2    C6 2532   0.182   0.635   0.957 -0.3555  0.1108 -0.4884
  166TCq2    C7 2533   0.274   0.537   0.970  0.2833 -0.1139  0.4701
  166TCq2    C8 2534   0.223   0.755   0.881 -0.3214 -0.0838  0.6228
  166TCq2    O4 2535   0.345   0.764   0.868 -0.2802 -0.6273  0.4248
  166TCq2    C9 2536   4.664   0.537   1.217 -0.1526  0.1841  0.5764
  166TCq2    O5 2537   4.647   0.435   1.293  0.6941  0.1137  0.1268
  166TCq2    O6 2538   4.591   0.639   1.222 -0.0222 -0.1266 -0.8776
  166TCq2    H2 2539   0.142   0.378   1.243  0.0761 -1.0276 -0.3343
  166TCq2    H3 2540   0.003   0.720   1.043  0.5301  0.4885  0.7248
  166TCq2    H4 2541   0.357   0.529   0.900  0.5068 -1.7940  0.9345
  167TMC2    C1 2542   2.811   3.277  12.506 -0.4486  0.1936  0.3606
  167TMC2    C2 2543   2.699   3.219  12.560  0.4366  0.0629 -0.8083
  167TMC2    C3 2544   2.699   3.085  12.566 -0.6424  0.7456  0.2641
  167TMC2    C4 2545   2.913   3.204  12.451 -0.1163  0.0896  0.1963
  167TMC2    C5 2546   2.910   3.067  12.462  0.0798  0.0508 -0.1402
  167TMC2    C6 2547   2.807   3.007  12.527  0.0207  0.3946  0.3830
  167TMC2     C 2548   2.798   3.416  12.457 -0.2220 -0.5488  0.0340
  167TMC2     O 2549   2.746   3.504  12.521  0.4258 -0.1683 -0.2017
  167TMC2     H 2550   2.617   3.284  12.586  0.2016 -0.7787  0.5609
  167TMC2    H1 2551   3.009   3.254  12.442 -0.1489  0.0714 -0.2387
  167TMC2    H2 2552   2.805   2.899  12.531  1.0960  0.4330  1.7495
  167TMC2    C7 2553   3.035   2.997  12.457 -0.2741  0.2839 -0.1562
  167TMC2    C8 2554   2.570   3.023  12.568  1.0477  0.3392  0.2142
  167TMC2    O1 2555   3.039   2.891  12.519 -0.1998  0.3998  0.0248
  167TMC2    O2 2556   2.478   3.057  12.498  0.0879 -0.4668 -0.1720
  167TMC2    O5 2557   2.592   2.897  12.620  0.2990  0.3680 -0.3291
  167TMC2    H5 2558   2.671   2.894  12.677 -0.4011  0.9160  0.6573
  168MPD2     C 2559   2.858   3.668  12.306  0.0867  0.1211 -1.0348
  168MPD2    C1 2560   2.866   3.545  12.252 -0.2311 -0.4998  0.1118
  168MPD2    C2 2561   2.884   3.535  12.118  0.2154  0.7838  0.1028
  168MPD2    C3 2562   2.883   3.649  12.039  0.4235 -0.0265 -1.3400
  168MPD2    C4 2563   2.877   3.781  12.094  0.3682  0.4467  0.1795
  168MPD2    C5 2564   2.861   3.781  12.229 -0.3117 -0.1501 -0.0338
  168MPD2     H 2565   2.876   3.441  12.064 -0.6318  0.7787  0.2345
  168MPD2    H1 2566   2.885   3.876  12.041 -0.4529 -0.1384 -0.9845
  168MPD2    H2 2567   2.840   3.688  12.411 -3.8825 -2.4061 -1.2471
  168MPD2    H3 2568   2.842   3.879  12.272 -0.0245 -0.0788 -0.0657
  168MPD2     N 2569   2.876   3.621  11.905 -0.4313  0.7608 -0.4469
  168MPD2    H5 2570   2.877   3.522  11.884 -0.6487  0.3696  1.3715
  168MPD2    N1 2571   2.857   3.430  12.327  0.1320  0.7192 -0.2228
  168MPD2    H7 2572   2.881   3.344  12.280 -0.7532  0.1249  0.4297
  169MPD1     C 2573   1.513   1.884   8.579  0.7920 -0.5065 -0.5185
  169MPD1    C1 2574   1.488   1.837   8.699 -0.3485 -0.3081 -0.0578
  169MPD1    C2 2575   1.507   1.915   8.807  0.4329 -0.1692  0.1405
  169MPD1    C3 2576   1.560   2.044   8.786  0.3720  0.1538  0.9376
  169MPD1    C4 2577   1.581   2.091   8.657  0.2247  0.0421  0.1389
  169MPD1    C5 2578   1.555   2.010   8.549 -0.2390 -0.1158 -0.0982
  169MPD1     H 2579   1.480   1.878   8.905 -1.0724  1.2086  0.2516
  169MPD1    H1 2580   1.614   2.191   8.631  1.1853  0.0260  1.2610
  169MPD1    H2 2581   1.490   1.817   8.496  1.5615 -0.9415 -0.3789
  169MPD1    H3 2582   1.573   2.039   8.446 -0.9209 -0.3683 -0.2869
  169MPD1     N 2583   1.580   2.122   8.902  0.4073 -0.1715  0.3190
  169MPD1    H5 2584   1.558   2.078   8.991 -0.1931  0.8001  0.6455
  169MPD1    N1 2585   1.418   1.718   8.715 -0.0150 -0.2620 -0.2981
  169MPD1    H6 2586   1.411   1.679   8.808  2.2657 -0.4433 -0.1912
  169MPD1    H7 2587   1.438   1.647   8.645 -1.0021  0.8381 -1.7074
  170MPD1     C 2588   3.382   1.402  13.197  0.0728  0.3259 -0.6778
  170MPD1    C1 2589   3.374   1.455  13.322 -0.2523 -0.4381 -0.3574
  170MPD1    C2 2590   3.492   1.498  13.378 -0.2335 -0.0173  0.3132
  170MPD1    C3 2591   3.612   1.504  13.315 -0.1794 -0.8686  0.5377
  170MPD1    C4 2592   3.608   1.462  13.182 -0.6534 -0.0780 -0.7437
  170MPD1    C5 2593   3.497   1.414  13.128 -0.1992 -0.0271 -0.2881
  170MPD1     H 2594   3.487   1.532  13.481 -0.0006  0.6578  0.1007
  170MPD1    H1 2595   3.691   1.463  13.112  0.5329 -1.4126  0.6673
  170MPD1    H2 2596   3.293   1.361  13.151  1.0586 -3.4075  0.8054
  170MPD1    H3 2597   3.508   1.377  13.027 -0.5471 -0.1753 -0.2694
  170MPD1     N 2598   3.717   1.565  13.383 -0.5907  0.1847  0.0765
  170MPD1    H5 2599   3.697   1.595  13.478 -0.3127  2.0855 -0.4541
  170MPD1    N1 2600   3.258   1.455  13.399  0.1465 -0.5030 -0.5066
  170MPD1    H6 2601   3.252   1.509  13.484  1.5670 -2.6186  0.9258
  170MPD1    H7 2602   3.174   1.485  13.349  0.6129 -1.9017 -2.1206
  171MPD1     C 2603   3.042   2.698  15.337  0.4120 -0.1543  0.1137
  171MPD1    C1 2604   3.052   2.599  15.245 -0.2024  0.5474  0.3901
  171MPD1    C2 2605   2.961   2.493  15.259  0.0869  0.0093  0.2534
  171MPD1    C3 2606   2.852   2.497  15.351 -0.0964  0.8155  0.4156
  171MPD1    C4 2607   2.829   2.619  15.409 -0.2280 -0.3844  0.1871
  171MPD1    C5 2608   2.928   2.711  15.408  0.0190  0.0182  0.8672
  171MPD1     H 2609   2.984   2.409  15.194  0.4118 -0.0616  0.4629
  171MPD1    H1 2610   2.741   2.632  15.473 -1.4794 -0.9845 -1.4180
  171MPD1    H2 2611   3.119   2.772  15.354  1.5513 -1.6257  1.3959
  171MPD1    H3 2612   2.915   2.797  15.473 -1.0430  0.1914  0.4169
  171MPD1     N 2613   2.768   2.385  15.378 -0.1912 -0.5171  0.1824
  171MPD1    H5 2614   2.692   2.406  15.441  0.8506  1.0319  0.9289
  171MPD1    N1 2615   3.172   2.580  15.171 -0.7642  0.1447  0.8745
  171MPD1    H6 2616   3.227   2.665  15.165 -0.7598  0.2789  2.8500
  171MPD1    H7 2617   3.160   2.536  15.080 -0.1617 -2.5694  2.1057
  172MPD1     C 2618   1.894   1.238   0.096  0.2129 -0.2293 -0.1326
  172MPD1    C1 2619   1.787   1.309   0.043  0.0356  0.3965  0.4651
  172MPD1    C2 2620   1.735   1.411   0.118 -0.6382  0.1438  0.6019
  172MPD1    C3 2621   1.795   1.466   0.229  0.1054 -0.4652 -0.0832
  172MPD1    C4 2622   1.909   1.397   0.276 -0.0514  0.0380  0.6427
  172MPD1    C5 2623   1.951   1.280   0.210 -0.7658 -0.0769 -0.3908
  172MPD1     H 2624   1.644   1.455   0.079 -0.6866 -0.7215 -0.2336
  172MPD1    H1 2625   1.964   1.431   0.363 -0.4178 -2.5787  1.9147
  172MPD1    H2 2626   1.934   1.145   0.058  0.8499 -0.3212  0.7754
  172MPD1    H3 2627   2.019   1.207   0.252 -2.4209 -1.1769  0.3961
  172MPD1     N 2628   1.746   1.569   0.307 -0.0520  0.2945  0.3411
  172MPD1    H5 2629   1.796   1.603   0.388  0.4324  1.2510 -0.3547
  172MPD1    N1 2630   1.707   1.252  17.634 -0.4028 -0.0927  0.3067
  172MPD1    H6 2631   1.655   1.329  17.593  3.5283  1.8187 -1.1926
  172MPD1    H7 2632   1.768   1.218  17.559  0.1991  0.1843  0.6744
  173MPD1     C 2633   2.709   0.548  14.037  0.3323  0.3614 -0.6076
  173MPD1    C1 2634   2.717   0.510  14.171 -0.0976 -0.1524 -0.4657
  173MPD1    C2 2635   2.695   0.607  14.267  0.3666 -0.2312  0.2542
  173MPD1    C3 2636   2.665   0.734  14.226 -0.2110  0.1013 -0.4581
  173MPD1    C4 2637   2.657   0.773  14.093  0.3531  0.5273  0.3207
  173MPD1    C5 2638   2.666   0.675  13.998  0.7193  0.0702 -0.3571
  173MPD1     H 2639   2.714   0.585  14.371 -2.5457  0.2407  0.8623
  173MPD1    H1 2640   2.625   0.872  14.060 -0.3850  0.1602 -0.0727
  173MPD1    H2 2641   2.711   0.472  13.959 -1.7891 -1.9445  1.6159
  173MPD1    H3 2642   2.658   0.695  13.892 -0.3676 -0.8238 -0.4323
  173MPD1     N 2643   2.650   0.834  14.331  0.4783 -0.6116 -0.0242
  173MPD1    H5 2644   2.657   0.804  14.427 -0.2108 -2.2014 -0.4660
  173MPD1    N1 2645   2.768   0.380  14.198  0.4555 -0.4815  0.4285
  173MPD1    H6 2646   2.742   0.342  14.289 -0.1292  1.7316  1.1892
  173MPD1    H7 2647   2.735   0.313  14.129 -3.0087  1.7805 -0.1026
  174MPD1     C 2648   2.979   1.809  14.417  0.3763  0.0738  0.0419
  174MPD1    C1 2649   2.938   1.774  14.544 -0.1158 -0.0992  0.2117
  174MPD1    C2 2650   2.877   1.654  14.560 -0.4261  0.0277 -0.1814
  174MPD1    C3 2651   2.871   1.558  14.459  0.7953  0.4981 -0.2404
  174MPD1    C4 2652   2.917   1.591  14.331  0.3296  0.7173 -0.7564
  174MPD1    C5 2653   2.974   1.715  14.316 -0.4142 -0.0692  0.3189
  174MPD1     H 2654   2.849   1.632  14.663 -1.0403 -0.1722 -0.3883
  174MPD1    H1 2655   2.927   1.526  14.244 -3.7936  1.0835 -1.4708
  174MPD1    H2 2656   3.020   1.903  14.381 -0.9838  0.7295  0.2231
  174MPD1    H3 2657   3.021   1.745  14.223  0.1526 -0.2444  0.5473
  174MPD1     N 2658   2.813   1.431  14.473 -1.0390 -0.2043  0.4903
  174MPD1    H5 2659   2.824   1.371  14.392  0.5021  1.1501 -0.3131
  174MPD1    N1 2660   2.938   1.870  14.649 -0.3822 -0.9341 -0.8996
  174MPD1    H6 2661   3.019   1.932  14.642 -2.1277  1.5474  1.0626
  174MPD1    H7 2662   2.955   1.826  14.739 -1.0480  0.8120  0.0772
  175MPD1     C 2663   1.865   2.245  15.441  0.4971 -0.2265 -0.0249
  175MPD1    C1 2664   1.751   2.259  15.522 -0.3172  0.5883  0.6090
  175MPD1    C2 2665   1.720   2.171  15.621  0.1524  0.0690  1.2141
  175MPD1    C3 2666   1.811   2.069  15.646 -0.8969 -0.0971 -0.0795
  175MPD1    C4 2667   1.924   2.057  15.567  0.3915 -0.6965 -1.6006
  175MPD1    C5 2668   1.956   2.152  15.475 -0.2065 -0.8886  1.0944
  175MPD1     H 2669   1.637   2.197  15.685 -0.9557  2.1345 -1.0927
  175MPD1    H1 2670   1.998   1.979  15.582 -1.2857 -2.2641 -1.4922
  175MPD1    H2 2671   1.894   2.308  15.357  0.8862 -0.2393  0.0973
  175MPD1    H3 2672   2.050   2.145  15.421 -0.8058  1.8010 -0.3143
  175MPD1     N 2673   1.793   1.968  15.745 -0.6752 -0.3220  0.6402
  175MPD1    H5 2674   1.873   1.906  15.745 -0.7978 -0.4817 -1.5272
  175MPD1    N1 2675   1.661   2.361  15.492 -0.2355  0.3025  1.2031
  175MPD1    H6 2676   1.702   2.453  15.480  0.3907  0.0769  1.6063
  175MPD1    H7 2677   1.596   2.371  15.570  0.0717  0.4806  1.4349
  176MPD1     C 2678   3.007   3.805  17.252  0.2619 -0.1588  0.2614
  176MPD1    C1 2679   3.052   3.877  17.146 -0.3488 -0.1021  0.4045
  176MPD1    C2 2680   3.083   4.014  17.164  0.4756  0.2774  0.4744
  176MPD1    C3 2681   3.072   4.080  17.286  0.6064  0.0448 -0.0001
  176MPD1    C4 2682   3.039   4.001  17.397  0.2677  0.0849 -0.3536
  176MPD1    C5 2683   3.009   3.869  17.377 -0.2535  0.4150 -0.1179
  176MPD1     H 2684   3.103   4.061  17.069  2.4065 -1.4304  0.0449
  176MPD1    H1 2685   3.030   4.043  17.497  2.6255 -2.6711  1.0281
  176MPD1    H2 2686   2.977   3.701  17.250 -0.2009  0.0581 -3.3163
  176MPD1    H3 2687   2.988   3.806  17.463 -0.6671 -0.6277 -0.9872
  176MPD1     N 2688   3.100   4.217  17.284  0.8934  0.4993  0.4155
  176MPD1    H5 2689   3.118   4.264  17.196  0.4878 -0.1090  0.0102
  176MPD1    N1 2690   3.053   3.823  17.020  0.2257 -0.8093 -0.4099
  176MPD1    H6 2691   3.046   3.723  17.034  0.4660 -0.9737 -1.5222
  176MPD1    H7 2692   3.137   3.855  16.972 -0.5405 -0.9111 -1.8189
  177MPD1     C 2693   2.661   3.887   9.078  0.8948 -0.4604  0.0929
  177MPD1    C1 2694   2.651   3.817   8.963  0.5366  0.0671  0.4184
  177MPD1    C2 2695   2.531   3.826   8.894 -0.2111  0.2124 -0.0433
  177MPD1    C3 2696   2.430   3.904   8.936  0.7557 -0.6123 -0.6114
  177MPD1    C4 2697   2.438   3.966   9.058  0.3987  0.0830  0.2114
  177MPD1    C5 2698   2.557   3.964   9.127  0.1098  0.5328  0.4201
  177MPD1     H 2699   2.521   3.765   8.804  1.4870 -1.3727  0.8437
  177MPD1    H1 2700   2.359   4.033   9.089 -1.8707 -2.1409 -0.7283
  177MPD1    H2 2701   2.753   3.902   9.133  0.8018 -2.1593  0.7204
  177MPD1    H3 2702   2.574   4.029   9.213 -1.5073 -0.7179  1.6785
  177MPD1     N 2703   2.307   3.895   8.861  0.3881  0.1544 -0.2595
  177MPD1    H5 2704   2.303   3.831   8.782 -0.3901  0.2727 -0.3114
  177MPD1    N1 2705   2.757   3.732   8.928  0.1995 -0.4901 -0.2443
  177MPD1    H6 2706   2.714   3.644   8.901  0.7287 -1.0640  0.7779
  177MPD1    H7 2707   2.817   3.724   9.010  0.4774  0.6203 -0.3373
  178MPD1     C 2708   3.358   4.439   0.483 -0.2136  0.4480  0.6676
  178MPD1    C1 2709   3.492   4.419   0.487  1.0107 -0.5747 -1.1532
  178MPD1    C2 2710   3.564   4.416   0.371 -0.0671  0.2295 -0.5212
  178MPD1    C3 2711   3.503   4.454   0.250 -0.4149  0.2855  0.1081
  178MPD1    C4 2712   3.374   4.503   0.251  0.8968  0.4478 -0.0764
  178MPD1    C5 2713   3.300   4.496   0.367  0.4392  0.1893 -0.4074
  178MPD1     H 2714   3.668   4.388   0.381 -0.2213  0.5247  1.9118
  178MPD1    H1 2715   3.325   4.549   0.166  0.0990 -0.2855 -0.0150
  178MPD1    H2 2716   3.299   4.424   0.573  1.5569  0.6841  1.8897
  178MPD1    H3 2717   3.196   4.526   0.359  0.3807 -0.0094 -0.3953
  178MPD1     N 2718   3.578   4.465   0.132 -0.2030  0.2673  0.5434
  178MPD1    H5 2719   3.532   4.507   0.052 -1.6852 -0.0983  1.1858
  178MPD1    N1 2720   3.547   4.356   0.608 -0.1830 -0.0546 -0.4871
  178MPD1    H6 2721   3.636   4.385   0.648 -0.0274 -0.3880 -0.5931
  178MPD1    H7 2722   3.483   4.359   0.688  0.0530 -2.1263 -0.2414
  179MPD1     C 2723   4.289   2.818  15.165 -0.1628  0.7594 -0.3187
  179MPD1    C1 2724   4.191   2.906  15.114 -0.7477 -0.2234  0.0621
  179MPD1    C2 2725   4.100   2.952  15.209  0.8408  0.2073 -0.2229
  179MPD1    C3 2726   4.093   2.903  15.337  0.3802 -0.8582 -0.1191
  179MPD1    C4 2727   4.189   2.815  15.380 -0.1570 -0.1621  0.4083
  179MPD1    C5 2728   4.286   2.781  15.296  0.2016 -0.7405  0.5148
  179MPD1     H 2729   4.031   3.033  15.188 -0.5509 -1.3396 -1.6622
  179MPD1    H1 2730   4.207   2.781  15.481  1.6285 -0.4051  0.0134
  179MPD1    H2 2731   4.369   2.780  15.103 -0.5012  1.0282 -0.9212
  179MPD1    H3 2732   4.368   2.721  15.335  0.4040 -1.6410 -1.2894
  179MPD1     N 2733   3.996   2.947  15.430  0.3352  0.5310  0.0263
  179MPD1    H5 2734   3.984   2.883  15.508 -2.2860  0.1591 -0.7009
  179MPD1    N1 2735   4.197   2.958  14.986  0.9772  0.9225  0.1342
  179MPD1    H6 2736   4.109   2.998  14.958 -0.3779 -2.0264  0.1594
  179MPD1    H7 2737   4.227   2.877  14.932 -2.4059 -0.1740 -0.1058
  180MPD1     C 2738   3.840   4.466  15.158  0.0518 -0.4028  0.5045
  180MPD1    C1 2739   3.897   4.518  15.043 -0.5709  0.5999  0.6308
  180MPD1    C2 2740   3.821   4.595  14.960 -0.2833  0.7101  0.3557
  180MPD1    C3 2741   3.683   4.598  14.970  0.3779  0.3063 -0.3116
  180MPD1    C4 2742   3.622   4.526  15.068  0.3256  0.9148 -0.3981
  180MPD1    C5 2743   3.702   4.467  15.165  0.3248  0.5918  0.4752
  180MPD1     H 2744   3.857   4.645  14.870 -0.7960 -0.4123 -0.4716
  180MPD1    H1 2745   3.514   4.522  15.067  0.3031  1.1331  1.5341
  180MPD1    H2 2746   3.899   4.417  15.235  0.2010 -0.1702  0.5390
  180MPD1    H3 2747   3.653   4.415  15.246  1.7294 -2.0641 -0.3779
  180MPD1     N 2748   3.611   4.669  14.876  0.1706 -0.3601  0.0572
  180MPD1    H5 2749   3.668   4.715  14.805  0.1865 -0.9566 -0.3174
  180MPD1    N1 2750   4.035   4.535  15.037 -0.0789 -0.6395  0.3908
  180MPD1    H6 2751   4.058   4.559  14.941  0.5639  0.0617  0.7227
  180MPD1    H7 2752   4.083   4.447  15.056 -0.6649 -0.6131  1.9939
  181MPD1     C 2753   0.162   1.308   9.360  0.2675  0.1154  0.0349
  181MPD1    C1 2754   0.268   1.322   9.438 -0.0313  0.9561 -0.5175
  181MPD1    C2 2755   0.393   1.299   9.385  0.3609  0.7791  0.1166
  181MPD1    C3 2756   0.409   1.260   9.253  0.2228 -0.3606  0.8056
  181MPD1    C4 2757   0.294   1.233   9.181  0.6555 -0.2480  0.2260
  181MPD1    C5 2758   0.176   1.254   9.233  0.0498 -1.1013  1.0626
  181MPD1     H 2759   0.476   1.316   9.453  0.9686 -0.8561 -0.2162
  181MPD1    H1 2760   0.298   1.197   9.079 -0.1666 -1.1860  0.5270
  181MPD1    H2 2761   0.065   1.346   9.393  1.1243  1.8673  0.5727
  181MPD1    H3 2762   0.087   1.233   9.174 -0.3103 -0.6892  1.4645
  181MPD1     N 2763   0.542   1.239   9.198  0.3763  0.2859  0.0012
  181MPD1    H5 2764   0.540   1.193   9.107  1.6631  1.0339 -0.4143
  181MPD1    N1 2765   0.255   1.377   9.566 -0.2721 -0.3696 -0.3660
  181MPD1    H6 2766   0.161   1.361   9.602  0.6174  2.1152  3.0364
  181MPD1    H7 2767   0.336   1.377   9.628  0.1119 -0.2472 -0.8687
  182MPD1     C 2768   2.073   0.552   1.593  0.0378 -0.0258  0.6725
  182MPD1    C1 2769   2.108   0.532   1.459 -0.2819 -0.0729 -0.2071
  182MPD1    C2 2770   2.013   0.522   1.361  0.7440  0.5298  0.4808
  182MPD1    C3 2771   1.883   0.542   1.395  0.4558  0.7488 -0.6513
  182MPD1    C4 2772   1.846   0.577   1.523  0.2185 -0.3262 -1.0012
  182MPD1    C5 2773   1.942   0.589   1.620  0.5866  0.1253 -0.1229
  182MPD1     H 2774   2.042   0.501   1.259 -1.3528 -2.0491  0.4263
  182MPD1    H1 2775   1.747   0.613   1.549  1.0349  2.0945 -1.2030
  182MPD1    H2 2776   2.152   0.568   1.666  0.5153 -2.1174  0.5925
  182MPD1    H3 2777   1.917   0.620   1.721  4.5415 -2.4096  1.6299
  182MPD1     N 2778   1.782   0.547   1.293 -0.0727 -0.1696  0.8856
  182MPD1    H5 2779   1.688   0.577   1.317  0.8557  3.0338  0.4529
  182MPD1    N1 2780   2.244   0.503   1.432 -0.1009  1.0913 -0.2694
  182MPD1    H6 2781   2.265   0.547   1.343  0.1467  0.6747 -0.4150
  182MPD1    H7 2782   2.307   0.550   1.498 -0.2145  0.5381  0.2297
  183MPD1     C 2783   2.242   4.664   8.485 -0.0225 -0.8996 -0.1455
  183MPD1    C1 2784   2.125   4.643   8.415 -0.3426 -0.0439 -0.7521
  183MPD1    C2 2785   2.018   0.010   8.436 -0.0550  0.2475 -0.2443
  183MPD1    C3 2786   2.027   0.112   8.525  0.0651  0.3239 -0.2457
  183MPD1    C4 2787   2.138   0.123   8.605  0.4455  0.0912  0.1277
  183MPD1    C5 2788   2.241   0.035   8.582  0.5713  0.7027 -0.1356
  183MPD1     H 2789   1.928   0.015   8.375 -0.1007 -0.2370 -0.2137
  183MPD1    H1 2790   2.155   0.187   8.691 -0.6616 -1.8177  1.7787
  183MPD1    H2 2791   2.332   4.608   8.463  0.8232  0.1230  0.7148
  183MPD1    H3 2792   2.331   0.060   8.638 -0.0910 -1.4260  1.8921
  183MPD1     N 2793   1.908   0.187   8.544 -0.4761 -0.3684  0.1638
  183MPD1    H5 2794   1.831   0.161   8.483 -0.2291 -0.9060  0.0819
  183MPD1    N1 2795   2.119   4.542   8.310  0.3204 -0.5518 -0.9414
  183MPD1    H6 2796   2.168   4.454   8.326 -1.5189 -1.3209  0.5269
  183MPD1    H7 2797   2.027   4.510   8.280 -0.6658 -0.7503  2.3039
  184MPD1     C 2798   2.244   3.511   9.052  0.1406 -0.2882  0.6312
  184MPD1    C1 2799   2.120   3.450   9.057 -0.0905  0.2806 -0.3725
  184MPD1    C2 2800   2.014   3.527   9.098 -0.7386 -0.1746 -0.1368
  184MPD1    C3 2801   2.029   3.660   9.141  0.7134 -0.1441  0.5234
  184MPD1    C4 2802   2.153   3.718   9.135  0.5190 -0.5596  0.4181
  184MPD1    C5 2803   2.260   3.642   9.088  0.1082  0.2633  0.6494
  184MPD1     H 2804   1.914   3.485   9.097  0.3182 -2.6847 -0.0656
  184MPD1    H1 2805   2.163   3.824   9.156 -0.9596 -0.3959  0.2931
  184MPD1    H2 2806   2.331   3.453   9.023  0.3328 -0.7728  2.1389
  184MPD1    H3 2807   2.359   3.686   9.096  0.1726  0.3120 -0.4117
  184MPD1     N 2808   1.922   3.751   9.170  0.2307 -0.0406 -0.3594
  184MPD1    H5 2809   1.954   3.841   9.204  0.7000 -0.3493  0.0127
  184MPD1    N1 2810   2.105   3.313   9.040  0.1346 -0.6007 -0.2067
  184MPD1    H6 2811   2.158   3.279   8.960  0.8966  1.7860 -0.7451
  184MPD1    H7 2812   2.006   3.292   9.032 -0.2345  0.2639  2.0685
  185MPD1     C 2813   0.960   3.594   9.520 -0.6982 -0.3599  0.6344
  185MPD1    C1 2814   0.995   3.727   9.523 -0.1391 -0.3130  0.0551
  185MPD1    C2 2815   1.116   3.780   9.478 -0.9048 -0.2351  0.6178
  185MPD1    C3 2816   1.195   3.691   9.403 -0.2394 -0.4793  0.0148
  185MPD1    C4 2817   1.159   3.560   9.381  0.6555 -0.4016 -0.0443
  185MPD1    C5 2818   1.047   3.512   9.451 -0.2388 -0.3709  0.1937
  185MPD1     H 2819   1.145   3.879   9.510  1.1424 -0.7972  0.4696
  185MPD1    H1 2820   1.218   3.492   9.320  0.5775 -0.6019  0.1022
  185MPD1    H2 2821   0.865   3.553   9.552 -1.0816 -0.3230 -0.4683
  185MPD1    H3 2822   1.015   3.410   9.432 -0.8575 -0.0621 -0.4305
  185MPD1     N 2823   1.304   3.741   9.333 -0.5063  0.6179 -0.1365
  185MPD1    H5 2824   1.360   3.679   9.275 -1.3220 -0.6105  0.3846
  185MPD1    N1 2825   0.920   3.814   9.609 -0.8469  0.1082  0.3329
  185MPD1    H6 2826   0.918   3.906   9.566 -1.1774 -0.3453 -0.6200
  185MPD1    H7 2827   0.822   3.791   9.625 -0.4369 -3.2011 -1.9613
  186MPD1     C 2828   4.178   2.769  15.798  0.1964 -0.2573  0.3778
  186MPD1    C1 2829   4.233   2.890  15.777  0.6108 -0.2351  0.1282
  186MPD1    C2 2830   4.187   2.996  15.864  0.0843 -0.9388 -1.0176
  186MPD1    C3 2831   4.084   2.974  15.957 -0.3884 -0.1546  0.6542
  186MPD1    C4 2832   4.036   2.843  15.977 -0.2221  0.3896  0.1933
  186MPD1    C5 2833   4.086   2.743  15.896 -0.1367 -0.6262  0.0219
  186MPD1     H 2834   4.242   3.089  15.875  0.3220 -1.1458 -0.4357
  186MPD1    H1 2835   3.956   2.827  16.049  0.4820 -3.4331  0.1078
  186MPD1    H2 2836   4.222   2.683  15.748 -0.8130 -1.0111  0.7966
  186MPD1    H3 2837   4.063   2.637  15.907 -1.6168 -0.2254  0.7722
  186MPD1     N 2838   4.036   3.079  16.042 -0.0788 -0.1203 -0.1544
  186MPD1    H5 2839   3.961   3.046  16.101 -0.1852 -1.4154 -1.0170
  186MPD1    N1 2840   4.348   2.908  15.696 -0.5999  0.2262  0.1233
  186MPD1    H6 2841   4.352   2.999  15.651 -1.3938 -0.9960 -2.4619
  186MPD1    H7 2842   4.365   2.837  15.624  1.3736  0.1733  0.6711
  187MPD1     C 2843   3.763   0.193  17.496 -0.0344 -0.3917 -0.4903
  187MPD1    C1 2844   3.827   0.239  17.386  0.4394 -0.2605  1.0315
  187MPD1    C2 2845   3.750   0.297  17.285  0.0931  0.4954  1.2183
  187MPD1    C3 2846   3.610   0.322  17.306 -0.4808 -0.5457 -0.6695
  187MPD1    C4 2847   3.550   0.277  17.421  0.3263  0.3694 -0.0194
  187MPD1    C5 2848   3.630   0.220  17.517 -0.4001 -0.6431 -0.7986
  187MPD1     H 2849   3.791   0.325  17.189  0.7490  1.9738  1.9187
  187MPD1    H1 2850   3.449   0.304  17.448  0.6319  0.8406  0.6677
  187MPD1    H2 2851   3.808   0.133  17.574  0.0228  0.5484  0.2034
  187MPD1    H3 2852   3.578   0.188  17.607  0.8467 -0.6162 -0.0789
  187MPD1     N 2853   3.532   0.399  17.212 -0.5580 -0.1467  0.6787
  187MPD1    H5 2854   3.434   0.409  17.237 -0.7776  1.7187 -0.9541
  187MPD1    N1 2855   3.959   0.190  17.362  0.6719 -0.5883 -0.0185
  187MPD1    H6 2856   4.014   0.168  17.445 -1.6282 -0.4910  1.5190
  187MPD1    H7 2857   4.010   0.250  17.298 -1.0087  2.4402  1.4779
  188MPD1     C 2858   4.120   0.354  10.733 -0.2980  1.0448  0.9215
  188MPD1    C1 2859   4.009   0.408  10.665 -0.5896  0.4285 -0.6739
  188MPD1    C2 2860   3.960   0.341  10.552 -0.7267 -0.1513 -0.3165
  188MPD1    C3 2861   3.993   0.209  10.527 -0.3491 -0.4497 -0.4721
  188MPD1    C4 2862   4.099   0.161  10.590 -0.5199  0.2291  0.1702
  188MPD1    C5 2863   4.156   0.222  10.702 -0.4295  0.0301  0.2167
  188MPD1     H 2864   3.877   0.388  10.499  0.5569  1.4198 -0.9295
  188MPD1    H1 2865   4.118   0.055  10.577  0.2686  0.5362 -1.2174
  188MPD1    H2 2866   4.161   0.396  10.824  0.1764  0.4054  1.0043
  188MPD1    H3 2867   4.236   0.169  10.753  0.2046  1.5514  0.8115
  188MPD1     N 2868   3.944   0.131  10.421  0.0711  0.4131 -0.3311
  188MPD1    H5 2869   3.990   0.042  10.406 -1.1686  0.0729 -2.1220
  188MPD1    N1 2870   3.969   0.539  10.688  0.4628 -0.2637  0.3241
  188MPD1    H6 2871   3.999   0.571  10.780 -0.3693  0.7365  0.2484
  188MPD1    H7 2872   3.872   0.558  10.665  0.5758  0.2499  0.2823
  189MPD1     C 2873   0.244   0.341   0.211 -0.8453 -0.0448 -0.5778
  189MPD1    C1 2874   0.145   0.248   0.197 -0.1235 -0.2130  0.2553
  189MPD1    C2 2875   0.011   0.288   0.188 -0.1761  0.1319  0.0484
  189MPD1    C3 2876   4.704   0.418   0.168 -0.2517  0.0775  0.0022
  189MPD1    C4 2877   0.078   0.517   0.183 -0.1778  0.1274  0.2838
  189MPD1    C5 2878   0.210   0.478   0.211 -0.6339 -0.2344 -0.5636
  189MPD1     H 2879   4.660   0.208   0.188  1.4882 -1.4105  0.1204
  189MPD1    H1 2880   0.049   0.621   0.195 -0.2943  0.2702 -1.2584
  189MPD1    H2 2881   0.345   0.308   0.234 -1.5121 -1.3238  0.5033
  189MPD1    H3 2882   0.283   0.559   0.207 -1.6364  0.6832 -0.0636
  189MPD1     N 2883   4.567   0.450   0.142 -0.1417 -0.1960  0.6083
  189MPD1    H5 2884   4.504   0.372   0.151  0.6322 -0.9309 -0.4125
  189MPD1    N1 2885   0.166   0.108   0.206  0.3870 -0.0710  0.1043
  189MPD1    H6 2886   0.261   0.082   0.178  1.2728  2.9978  0.3591
  189MPD1    H7 2887   0.098   0.055   0.152  1.2460  0.1825 -1.2383
  190MPD1     C 2888   3.200   4.149  15.229  0.1385 -0.5304  0.3637
  190MPD1    C1 2889   3.199   4.102  15.351 -0.0420  0.3485  0.4309
  190MPD1    C2 2890   3.311   4.124  15.435  0.1710 -0.1406 -0.0980
  190MPD1    C3 2891   3.435   4.158  15.383  0.1551  0.0124  0.3648
  190MPD1    C4 2892   3.430   4.192  15.249 -0.0076  0.1021 -0.1955
  190MPD1    C5 2893   3.315   4.187  15.169 -0.5502  0.7248  0.7982
  190MPD1     H 2894   3.303   4.103  15.541 -0.6157  0.2532 -0.0750
  190MPD1    H1 2895   3.516   4.233  15.198  0.7461  0.6413  1.5182
  190MPD1    H2 2896   3.104   4.155  15.179  0.3636  2.4690  0.2655
  190MPD1    H3 2897   3.306   4.236  15.072  2.5690  1.0907  0.6967
  190MPD1     N 2898   3.544   4.163  15.466 -0.5280 -0.2414 -0.5850
  190MPD1    H5 2899   3.533   4.171  15.567  1.0067 -0.1762 -0.4215
  190MPD1    N1 2900   3.075   4.065  15.407 -0.0159  0.1800  0.1202
  190MPD1    H6 2901   3.028   4.011  15.334  0.2782  1.1596 -0.8028
  190MPD1    H7 2902   3.089   4.002  15.485  0.8050 -0.8623 -0.8632
  191MPD1     C 2903   3.450   1.628  12.885  0.2209 -0.8653 -0.3218
  191MPD1    C1 2904   3.493   1.643  12.758  0.2627  0.2519  0.0532
  191MPD1    C2 2905   3.401   1.673  12.659 -0.0665  0.2915 -0.1079
  191MPD1    C3 2906   3.267   1.700  12.685 -0.3668 -0.2528  0.5197
  191MPD1    C4 2907   3.233   1.682  12.815 -0.3988 -0.1425 -0.3634
  191MPD1    C5 2908   3.320   1.642  12.915 -0.4109  0.1500 -0.2414
  191MPD1     H 2909   3.433   1.692  12.557  0.5397 -2.4706 -0.4366
  191MPD1    H1 2910   3.126   1.691  12.831 -0.3059  1.1181 -0.4000
  191MPD1    H2 2911   3.529   1.606  12.956 -0.2277  1.5312  0.9225
  191MPD1    H3 2912   3.282   1.630  13.016  1.3113 -0.0600  0.3824
  191MPD1     N 2913   3.178   1.733  12.581  0.1563  0.6504 -0.2732
  191MPD1    H5 2914   3.236   1.750  12.499 -1.0647  2.6500 -0.7210
  191MPD1    N1 2915   3.633   1.603  12.728  0.1854  0.1767  0.3453
  191MPD1    H6 2916   3.701   1.627  12.800 -1.5416  0.8126  1.7863
  191MPD1    H7 2917   3.667   1.645  12.642 -0.3266  0.8554  0.4692
  192MPD1     C 2918   2.254   2.232  12.263  0.4159 -0.4014 -0.0410
  192MPD1    C1 2919   2.269   2.126  12.349  0.2731 -0.4492  0.1432
  192MPD1    C2 2920   2.398   2.082  12.376  0.4756  0.5973  0.3313
  192MPD1    C3 2921   2.509   2.151  12.326  0.8996  1.0216  0.0953
  192MPD1    C4 2922   2.490   2.272  12.265  0.9152  0.4168  0.2141
  192MPD1    C5 2923   2.368   2.301  12.226  0.7432  0.5785  0.2509
  192MPD1     H 2924   2.408   1.995  12.440 -1.2916 -0.6950 -1.1268
  192MPD1    H1 2925   2.572   2.320  12.212 -1.2054  2.6195 -1.0309
  192MPD1    H2 2926   2.156   2.262  12.226  0.0868  1.2514  2.1735
  192MPD1    H3 2927   2.348   2.390  12.167 -0.8000  0.5171  0.6926
  192MPD1     N 2928   2.640   2.096  12.340  0.0898 -0.2488  0.1672
  192MPD1    H5 2929   2.716   2.162  12.330  1.4828 -2.0188 -0.9469
  192MPD1    N1 2930   2.161   2.044  12.393 -0.3473  0.1049 -0.3981
  192MPD1    H6 2931   2.173   2.014  12.490 -0.7572  1.2465  0.0070
  192MPD1    H7 2932   2.069   2.086  12.381 -0.5641  0.3157  1.9054
  193MPD1     C 2933   2.859   1.571  17.129 -0.3098  0.0092 -0.2402
  193MPD1    C1 2934   2.849   1.700  17.169  0.3093 -0.0765  0.5402
  193MPD1    C2 2935   2.844   1.798  17.066  0.3640 -0.6246  0.0418
  193MPD1    C3 2936   2.811   1.763  16.932 -0.3673  0.0093  0.3716
  193MPD1    C4 2937   2.818   1.625  16.900 -0.3507  0.3649  0.0483
  193MPD1    C5 2938   2.846   1.543  16.996 -0.5575 -0.1374  0.5376
  193MPD1     H 2939   2.857   1.900  17.100 -0.9610  0.1714 -1.8584
  193MPD1    H1 2940   2.793   1.590  16.800  0.9382  1.4565 -0.6692
  193MPD1    H2 2941   2.874   1.491  17.201 -0.8817 -1.1690 -1.4492
  193MPD1    H3 2942   2.861   1.444  16.953 -0.8157 -1.1871  2.8526
  193MPD1     N 2943   2.791   1.854  16.824  0.0805  0.5699  0.0652
  193MPD1    H5 2944   2.804   1.828  16.726 -1.2130  0.7372 -0.1601
  193MPD1    N1 2945   2.865   1.748  17.303 -0.4271  0.0435 -0.9129
  193MPD1    H6 2946   2.821   1.679  17.364  0.2450 -0.5273 -1.0709
  193MPD1    H7 2947   2.830   1.842  17.321  0.1634 -0.2806  1.9143
  194MPD1     C 2948   0.680   4.244  17.044  0.0325  0.5268  0.0403
  194MPD1    C1 2949   0.747   4.191  16.932  0.0933 -0.0083 -0.1612
  194MPD1    C2 2950   0.765   4.051  16.930 -0.6075  0.6152  1.1033
  194MPD1    C3 2951   0.713   3.973  17.033  0.2023  0.3429 -0.1327
  194MPD1    C4 2952   0.648   4.031  17.138 -0.4719  0.6642  0.7353
  194MPD1    C5 2953   0.633   4.165  17.144 -0.0506 -0.3201  0.1679
  194MPD1     H 2954   0.804   4.015  16.836 -2.8951 -0.0724  0.4228
  194MPD1    H1 2955   0.599   3.969  17.213 -0.3029 -1.7402 -1.1379
  194MPD1    H2 2956   0.662   4.349  17.065 -4.1677 -0.0920 -0.4389
  194MPD1    H3 2957   0.592   4.211  17.233  1.7564 -0.4396  1.0763
  194MPD1     N 2958   0.722   3.826  17.031  0.1337 -0.3257 -0.6563
  194MPD1    H5 2959   0.675   3.783  17.109  0.7789 -0.9071 -0.5892
  194MPD1    N1 2960   0.823   4.280  16.847  0.5700 -0.3037  0.2549
  194MPD1    H6 2961   0.792   4.377  16.842 -1.5156 -1.0306 -0.5684
  194MPD1    H7 2962   0.847   4.234  16.759  0.2171 -1.1691  0.6203
  195MPD1     C 2963   2.624   1.357  17.420  0.1184  0.0446  0.0127
  195MPD1    C1 2964   2.718   1.364  17.517  0.5245  0.2031  0.7826
  195MPD1    C2 2965   2.753   1.250  17.587  0.1348 -0.0085 -0.4158
  195MPD1    C3 2966   2.669   1.132  17.575 -0.6103 -0.1395  0.5362
  195MPD1    C4 2967   2.556   1.142  17.494  0.0511 -0.0621  0.0980
  195MPD1    C5 2968   2.537   1.253  17.412  0.2691 -0.0738  0.5467
  195MPD1     H 2969   2.840   1.251  17.651  1.3573  0.0911 -2.0641
  195MPD1    H1 2970   2.480   1.065  17.490 -0.3947  0.4343 -0.9305
  195MPD1    H2 2971   2.616   1.435  17.346  0.1478  1.1019  1.1298
  195MPD1    H3 2972   2.453   1.266  17.346  0.0667  0.1055  0.8372
  195MPD1     N 2973   2.686   1.014  17.647  0.0128 -0.1929 -0.2313
  195MPD1    H5 2974   2.628   0.934  17.623 -1.6938  0.6225  1.1923
  195MPD1    N1 2975   2.806   1.470  17.501  0.2249 -0.2271  0.3154
  195MPD1    H6 2976   2.748   1.550  17.477  0.4749  0.1565  0.9864
  195MPD1    H7 2977   2.870   1.488  17.579 -1.7510  0.0167  1.8672
  196MPD1     C 2978   1.942   4.383   0.738 -0.1461  0.0607  0.2668
  196MPD1    C1 2979   1.956   4.497   0.666 -0.3423  0.1533  0.7144
  196MPD1    C2 2980   2.039   4.587   0.717 -0.8181  0.6003 -0.9982
  196MPD1    C3 2981   2.088   4.579   0.845 -0.2846 -0.2296 -0.2500
  196MPD1    C4 2982   2.072   4.466   0.924 -0.1756 -0.7076 -0.5474
  196MPD1    C5 2983   1.986   4.370   0.863  0.0883  0.1854 -0.4603
  196MPD1     H 2984   2.074   4.669   0.655  0.6957  0.9125  0.2608
  196MPD1    H1 2985   2.100   4.443   1.026 -0.8058  0.0947 -0.1989
  196MPD1    H2 2986   1.881   4.306   0.693 -0.4287  0.7224 -0.4730
  196MPD1    H3 2987   1.971   4.277   0.918 -0.2155 -0.8249 -2.2482
  196MPD1     N 2988   2.181   4.678   0.895 -0.1933  0.1025  0.5247
  196MPD1    H5 2989   2.221   4.665   0.987  0.2212 -0.9473  0.2048
  196MPD1    N1 2990   1.928   4.506   0.534  0.1183 -0.5966 -0.0911
  196MPD1    H6 2991   1.924   4.605   0.512  0.1916 -0.5731  0.0013
  196MPD1    H7 2992   1.843   4.453   0.516 -0.0910 -0.9541  1.8969
  197MPD1     C 2993   1.203   2.085  17.349 -0.3778 -0.8427 -0.8757
  197MPD1    C1 2994   1.253   2.205  17.412  0.5504 -0.0059 -0.3719
  197MPD1    C2 2995   1.355   2.288  17.352 -0.0197 -0.0154  0.3214
  197MPD1    C3 2996   1.391   2.251  17.217 -0.1573 -0.2387  0.3980
  197MPD1    C4 2997   1.348   2.131  17.168  0.0462  0.1768 -0.0798
  197MPD1    C5 2998   1.257   2.046  17.231  0.1885  0.6186 -0.0819
  197MPD1     H 2999   1.387   2.384  17.393  0.2561 -0.2296  0.6028
  197MPD1    H1 3000   1.386   2.082  17.078  2.4716 -0.2067  1.1575
  197MPD1    H2 3001   1.126   2.020  17.389 -1.4949  0.6779 -0.5629
  197MPD1    H3 3002   1.215   1.966  17.170  0.1710  1.4278 -1.1432
  197MPD1     N 3003   1.479   2.333  17.139 -0.3819 -0.9627  0.2424
  197MPD1    H5 3004   1.516   2.300  17.051 -1.3714 -0.9809 -0.1682
  197MPD1    N1 3005   1.219   2.233  17.545  0.3330  0.4653 -0.4169
  197MPD1    H6 3006   1.222   2.334  17.559 -0.9009  0.5161 -0.5287
  197MPD1    H7 3007   1.130   2.196  17.577  0.7592  2.4858  3.1492
  198MPD1     C 3008   2.781   1.036  15.555 -0.0823 -0.1076  0.6474
  198MPD1    C1 3009   2.880   0.986  15.469  0.2439  0.2369 -0.4634
  198MPD1    C2 3010   3.013   0.997  15.501  0.3085  0.4975  0.0404
  198MPD1    C3 3011   3.041   1.061  15.617 -0.1078 -0.1837  0.1515
  198MPD1    C4 3012   2.943   1.114  15.705  0.4618 -0.2220 -0.4462
  198MPD1    C5 3013   2.812   1.101  15.673  0.3858  0.0702 -0.4505
  198MPD1     H 3014   3.084   0.945  15.438  1.7318  0.8963  1.3068
  198MPD1    H1 3015   2.968   1.173  15.792 -0.1363 -0.0081 -0.4195
  198MPD1    H2 3016   2.678   1.036  15.523 -0.2435 -0.5607  1.1637
  198MPD1    H3 3017   2.734   1.137  15.738 -0.5336 -0.7694 -1.0906
  198MPD1     N 3018   3.183   1.060  15.649  0.2760 -0.0053 -0.1385
  198MPD1    H5 3019   3.250   1.018  15.586 -0.1366  0.1937 -0.7149
  198MPD1    N1 3020   2.849   0.906  15.359 -0.4179  0.2742  0.1352
  198MPD1    H6 3021   2.925   0.900  15.292  2.0760 -2.1908  3.2393
  198MPD1    H7 3022   2.758   0.922  15.317  0.8156  0.6783 -2.3884
  199MPD1     C 3023   1.014   1.253   8.748 -0.4126 -1.0172 -0.0825
  199MPD1    C1 3024   0.880   1.263   8.758  0.0239  0.2710 -0.6032
  199MPD1    C2 3025   0.830   1.350   8.848 -0.1034 -0.5863  0.8914
  199MPD1    C3 3026   0.917   1.433   8.927 -0.5614  0.1661 -0.5468
  199MPD1    C4 3027   1.055   1.423   8.912  0.0462  0.3483 -0.4024
  199MPD1    C5 3028   1.101   1.325   8.826 -0.2097 -0.5714 -0.0358
  199MPD1     H 3029   0.723   1.358   8.861 -0.0209 -0.9373  1.8163
  199MPD1    H1 3030   1.122   1.485   8.971  1.0534 -1.5109  0.4124
  199MPD1    H2 3031   1.067   1.181   8.686 -3.3468 -0.1537 -3.5912
  199MPD1    H3 3032   1.208   1.307   8.825 -0.1884 -0.3845 -1.4775
  199MPD1     N 3033   0.872   1.526   9.021 -0.6982 -0.0137 -0.0442
  199MPD1    H5 3034   0.944   1.570   9.075 -0.5302  0.9831 -1.0775
  199MPD1    N1 3035   0.796   1.178   8.680 -0.0480 -0.1603  0.5739
  199MPD1    H6 3036   0.698   1.196   8.701  0.0216  1.0301 -0.1278
  199MPD1    H7 3037   0.822   1.169   8.582 -0.6914  0.9858  0.3055
  200MPD1     C 3038   4.325   2.108  14.368 -0.6863  0.0233  0.2538
  200MPD1    C1 3039   4.326   2.160  14.245  0.7076 -0.4448 -0.5167
  200MPD1    C2 3040   4.452   2.214  14.202 -0.2795  0.0672  0.0751
  200MPD1    C3 3041   4.573   2.199  14.272  0.7147  0.4385  0.2397
  200MPD1    C4 3042   4.564   2.143  14.394  0.1572  0.0880 -0.1234
  200MPD1    C5 3043   4.440   2.098  14.441  0.1148  0.2620  0.3950
  200MPD1     H 3044   4.449   2.264  14.106 -2.6047 -0.1912  0.0260
  200MPD1    H1 3045   4.649   2.142  14.461 -1.8133  0.1893  2.4155
  200MPD1    H2 3046   4.236   2.070  14.416 -1.2859  0.6103 -0.3995
  200MPD1    H3 3047   4.438   2.068  14.546  0.5913  0.3489  0.4285
  200MPD1     N 3048   4.693   2.254  14.212  0.6677  0.0551  0.6520
  200MPD1    H5 3049   4.694   2.306  14.125 -1.1152 -2.4610 -0.8821
  200MPD1    N1 3050   4.208   2.189  14.177 -0.3227  0.4243 -0.2384
  200MPD1    H6 3051   4.129   2.126  14.184 -0.1612  0.2333 -0.1254
  200MPD1    H7 3052   4.230   2.194  14.077  2.7584  2.0546  0.5192
  201MPD1     C 3053   2.794   1.126  12.349  0.5729 -0.2924  0.2396
  201MPD1    C1 3054   2.711   1.017  12.345  0.1348 -0.2849 -0.1632
  201MPD1    C2 3055   2.681   0.965  12.468 -0.2419  0.2006  0.3392
  201MPD1    C3 3056   2.726   1.018  12.590 -0.1906  0.3578  0.0792
  201MPD1    C4 3057   2.804   1.125  12.587 -0.5434 -0.3228 -0.4259
  201MPD1    C5 3058   2.829   1.183  12.465 -0.6209  0.4650  0.6043
  201MPD1     H 3059   2.619   0.876  12.469  1.3886 -0.9437  0.5844
  201MPD1    H1 3060   2.839   1.174  12.677 -0.1312 -0.2049 -0.6491
  201MPD1    H2 3061   2.846   1.167  12.263  1.5478 -0.3871  0.7749
  201MPD1    H3 3062   2.901   1.264  12.461  0.1665 -0.2413  0.3994
  201MPD1     N 3063   2.675   0.950  12.713 -0.1509 -0.3497 -0.4268
  201MPD1    H5 3064   2.618   0.870  12.691  0.3149 -0.5515 -0.9118
  201MPD1    N1 3065   2.697   0.941  12.231  0.4640 -0.4068  0.2167
  201MPD1    H6 3066   2.607   0.893  12.233 -0.2127  0.8755  0.4519
  201MPD1    H7 3067   2.703   1.009  12.155 -1.4138  1.1074  1.4529
  202MPD1     C 3068   1.600   0.803  10.210  0.2581 -0.3106 -0.7758
  202MPD1    C1 3069   1.716   0.743  10.264  0.3105  0.6979 -0.4453
  202MPD1    C2 3070   1.814   0.752  10.166  0.0340  0.3068 -0.4084
  202MPD1    C3 3071   1.819   0.841  10.064 -0.5482  0.5498 -0.0772
  202MPD1    C4 3072   1.704   0.916  10.035  0.2675  0.3405 -0.3428
  202MPD1    C5 3073   1.592   0.889  10.107 -0.2468  0.2079  0.2726
  202MPD1     H 3074   1.907   0.702  10.192 -0.3693  0.4633  1.3496
  202MPD1    H1 3075   1.697   0.987   9.954  2.2039  1.2774  0.3113
  202MPD1    H2 3076   1.512   0.776  10.268  0.1613 -1.4765 -1.4598
  202MPD1    H3 3077   1.502   0.944  10.081  0.0923  0.3785 -0.5512
  202MPD1     N 3078   1.921   0.840   9.962 -0.1768  0.3464  0.1840
  202MPD1    H5 3079   1.912   0.912   9.891  0.6605  0.9518  0.6963
  202MPD1    N1 3080   1.707   0.632  10.345  0.2673 -0.6484  0.1734
  202MPD1    H6 3081   1.646   0.640  10.426  1.1377 -0.5329  0.8136
  202MPD1    H7 3082   1.803   0.607  10.367  1.2908  1.0692 -2.3249
  203MPD1     C 3083   0.973   1.906  12.362 -0.2429  0.4302  0.3956
  203MPD1    C1 3084   0.986   1.861  12.493 -0.2518  0.2141  0.5008
  203MPD1    C2 3085   0.971   1.722  12.523  0.3272 -0.1996 -0.8896
  203MPD1    C3 3086   0.959   1.638  12.410 -0.0992 -0.5540 -0.2228
  203MPD1    C4 3087   0.964   1.688  12.288 -0.1178  0.4935 -0.5036
  203MPD1    C5 3088   0.977   1.817  12.255 -0.2349  0.0482 -0.7085
  203MPD1     H 3089   0.975   1.682  12.623  2.2816 -0.8863 -1.2579
  203MPD1    H1 3090   0.943   1.631  12.199  0.2300 -0.2383 -0.1186
  203MPD1    H2 3091   0.958   2.011  12.340 -2.2175 -0.0134 -0.3743
  203MPD1    H3 3092   0.972   1.858  12.155  1.7442  1.7620 -0.1166
  203MPD1     N 3093   0.944   1.501  12.416 -0.7283 -0.1120  0.0978
  203MPD1    H5 3094   0.931   1.452  12.328  0.2634 -0.3774  0.0933
  203MPD1    N1 3095   0.978   1.959  12.592  0.5643  0.0786  0.3374
  203MPD1    H6 3096   1.010   1.930  12.684 -0.4100 -0.4069  0.5280
  203MPD1    H7 3097   1.024   2.046  12.568  0.7954 -0.1628 -0.0906
  204MPD1     C 3098   4.236   2.079  17.157  0.1008 -0.1446 -0.2998
  204MPD1    C1 3099   4.333   2.039  17.241  0.4405  0.2820 -0.5909
  204MPD1    C2 3100   4.455   1.991  17.193  0.1530 -0.7208 -0.2385
  204MPD1    C3 3101   4.469   1.984  17.056  0.4080  0.4061  0.2332
  204MPD1    C4 3102   4.381   2.037  16.975  0.5522 -0.2164  0.5213
  204MPD1    C5 3103   4.254   2.068  17.022 -0.3187  0.2553 -0.7022
  204MPD1     H 3104   4.530   1.951  17.261  1.3222 -0.3678 -1.3126
  204MPD1    H1 3105   4.402   2.042  16.868 -0.6749  1.0757  0.3408
  204MPD1    H2 3106   4.148   2.126  17.200  0.9189  0.4003  0.7580
  204MPD1    H3 3107   4.180   2.095  16.947 -0.6837  0.9330 -0.0970
  204MPD1     N 3108   4.593   1.934  17.014 -0.3765 -0.9171 -0.1917
  204MPD1    H5 3109   4.652   1.901  17.089 -1.5202 -0.9673  0.6970
  204MPD1    N1 3110   4.323   2.063  17.377 -0.1455 -0.1516  0.4816
  204MPD1    H6 3111   4.229   2.064  17.417  0.7160  0.5674  2.4670
  204MPD1    H7 3112   4.370   1.995  17.437 -1.0208  0.0297  1.3859
  205MPD1     C 3113   1.199   0.671  16.721 -0.0543  0.1072  0.0823
  205MPD1    C1 3114   1.100   0.756  16.670  0.3846  0.6323  0.1577
  205MPD1    C2 3115   0.995   0.791  16.753 -0.0162  0.1229 -0.2008
  205MPD1    C3 3116   0.968   0.721  16.875  0.0087  0.3818 -0.2784
  205MPD1    C4 3117   1.057   0.624  16.905 -0.0688 -0.3700  0.1326
  205MPD1    C5 3118   1.167   0.591  16.828 -0.6174 -0.2409 -0.3664
  205MPD1     H 3119   0.926   0.869  16.723  1.6204  1.7291  0.2365
  205MPD1    H1 3120   1.037   0.559  16.989 -1.1582  1.8786  1.6077
  205MPD1    H2 3121   1.291   0.641  16.672 -0.5760 -0.1482 -0.7300
  205MPD1    H3 3122   1.244   0.518  16.853 -0.5152 -0.2668 -0.7563
  205MPD1     N 3123   0.858   0.751  16.965 -0.1104 -0.7629  0.2216
  205MPD1    H5 3124   0.859   0.722  17.063  2.0637 -2.8362 -0.3980
  205MPD1    N1 3125   1.118   0.819  16.546 -0.3454 -0.1584  0.1720
  205MPD1    H6 3126   1.031   0.854  16.507 -0.5902 -0.1235  0.7677
  205MPD1    H7 3127   1.161   0.750  16.484  1.7124  1.0799  0.2123
  206MPD1     C 3128   0.499   4.091  16.719 -0.1259  0.2995 -0.6438
  206MPD1    C1 3129   0.558   4.008  16.624 -0.2699  0.1195  0.0116
  206MPD1    C2 3130   0.567   4.052  16.492 -0.7772 -0.0519 -0.0432
  206MPD1    C3 3131   0.542   4.187  16.453 -0.6142  0.5534  0.4417
  206MPD1    C4 3132   0.497   4.275  16.551 -0.8333 -0.2024  0.7332
  206MPD1    C5 3133   0.475   4.223  16.684  0.2942 -0.1246  0.1423
  206MPD1     H 3134   0.598   3.982  16.415 -2.1970 -0.8631  0.1315
  206MPD1    H1 3135   0.475   4.378  16.526 -1.6081  0.1322  2.7610
  206MPD1    H2 3136   0.474   4.057  16.818 -0.1365  1.4911 -0.2385
  206MPD1    H3 3137   0.445   4.292  16.762  0.3984  2.2635 -1.9035
  206MPD1     N 3138   0.548   4.235  16.319  0.1194  0.1765 -0.3645
  206MPD1    H5 3139   0.497   4.319  16.294  1.7275  0.9890 -0.9615
  206MPD1    N1 3140   0.594   3.879  16.662  0.3373  0.1306  0.0072
  206MPD1    H6 3141   0.652   3.873  16.745 -2.5491  0.2066  2.0196
  206MPD1    H7 3142   0.650   3.839  16.587 -1.5390 -2.3131 -0.1243
  207MPD1     C 3143   3.017   1.467   9.381  1.4255 -0.7434 -0.6172
  207MPD1    C1 3144   3.015   1.433   9.516 -0.4400  0.1781 -0.3505
  207MPD1    C2 3145   3.126   1.475   9.599 -0.2247  0.1376 -0.0137
  207MPD1    C3 3146   3.222   1.561   9.546  0.0914  0.1870 -0.3447
  207MPD1    C4 3147   3.216   1.600   9.418 -0.0672 -0.2198 -0.2732
  207MPD1    C5 3148   3.109   1.560   9.336  0.1996 -0.6723 -0.2990
  207MPD1     H 3149   3.123   1.433   9.699  0.2637 -1.0106 -0.4790
  207MPD1    H1 3150   3.285   1.666   9.367 -0.4149  0.3346 -0.0262
  207MPD1    H2 3151   2.929   1.442   9.323 -0.3325 -1.8854  2.5152
  207MPD1    H3 3152   3.108   1.599   9.235 -0.0799 -0.2584 -0.1421
  207MPD1     N 3153   3.328   1.616   9.621 -0.0300 -0.4718  0.0894
  207MPD1    H5 3154   3.398   1.667   9.568 -2.1718  3.7773  1.4223
  207MPD1    N1 3155   2.915   1.342   9.564 -0.3177  0.7792  0.1626
  207MPD1    H6 3156   2.908   1.351   9.665 -1.6256 -0.1123  0.1487
  207MPD1    H7 3157   2.822   1.357   9.524 -0.2276 -1.8421 -0.9986
  208MPD1     C 3158   1.738   0.869  17.449  0.3964 -0.1574 -0.4125
  208MPD1    C1 3159   1.772   0.810  17.566 -0.7217 -0.3932 -0.4404
  208MPD1    C2 3160   1.699   0.695  17.595  0.1326  0.7625  0.2169
  208MPD1    C3 3161   1.603   0.641  17.511 -0.7727  0.4600 -0.3162
  208MPD1    C4 3162   1.597   0.690  17.384 -0.0126 -1.1286  0.1471
  208MPD1    C5 3163   1.660   0.811  17.360 -0.2865  0.0229  0.1166
  208MPD1     H 3164   1.720   0.652  17.692  1.5700  0.8294 -0.0582
  208MPD1    H1 3165   1.519   0.666  17.313  1.2370 -1.9421 -0.9458
  208MPD1    H2 3166   1.782   0.963  17.420 -0.1128 -0.2699 -1.5553
  208MPD1    H3 3167   1.623   0.867  17.276 -1.5250 -0.8131  0.0917
  208MPD1     N 3168   1.529   0.538  17.559  0.3600  0.3724  0.6714
  208MPD1    H5 3169   1.549   0.516  17.657  0.0373  1.6858  1.0367
  208MPD1    N1 3170   1.845   0.885  17.656 -0.1012  0.5790 -0.6991
  208MPD1    H6 3171   1.926   0.918  17.604  2.0750 -0.5042  1.9483
  208MPD1    H7 3172   1.887   0.829   0.038 -3.3141 -0.1450  0.5504
  209MPD1     C 3173   3.492   2.244  11.229 -0.4692 -0.0543 -0.2792
  209MPD1    C1 3174   3.530   2.224  11.096  0.3825 -0.8067 -0.4542
  209MPD1    C2 3175   3.519   2.096  11.052  0.4557 -0.0911  0.0918
  209MPD1    C3 3176   3.518   1.984  11.130  0.0247 -0.2959 -0.2909
  209MPD1    C4 3177   3.498   2.003  11.268  0.2121  0.1341  0.4995
  209MPD1    C5 3178   3.476   2.136  11.314  0.0900  0.2010 -0.3157
  209MPD1     H 3179   3.527   2.083  10.945  2.3437 -1.0946  0.3468
  209MPD1    H1 3180   3.485   1.921  11.338 -0.8342  0.6815  0.9474
  209MPD1    H2 3181   3.467   2.345  11.258  2.3906  0.4446  0.4237
  209MPD1    H3 3182   3.460   2.158  11.419 -2.5407  1.2302 -0.9194
  209MPD1     N 3183   3.516   1.860  11.061 -0.5312  0.3003 -0.5145
  209MPD1    H5 3184   3.525   1.855  10.960  0.4230  0.5349 -0.4433
  209MPD1    N1 3185   3.534   2.323  10.998 -0.0640 -0.0936  0.2834
  209MPD1    H6 3186   3.555   2.414  11.040 -0.1397 -1.0611  2.4112
  209MPD1    H7 3187   3.594   2.295  10.921 -0.0880 -1.2995  0.7042
  210MPD1     C 3188   3.528   0.810  11.222  0.1889 -0.2660  0.4796
  210MPD1    C1 3189   3.637   0.846  11.144  0.1066  0.1311 -0.7967
  210MPD1    C2 3190   3.652   0.980  11.114 -0.8269 -0.1690 -0.2804
  210MPD1    C3 3191   3.564   1.073  11.169  0.2060 -0.2143 -0.1455
  210MPD1    C4 3192   3.452   1.033  11.236 -0.3609  0.5125 -0.2981
  210MPD1    C5 3193   3.441   0.903  11.273  0.0252  0.3915 -0.0895
  210MPD1     H 3194   3.735   1.012  11.052  0.2764 -1.0660  0.7443
  210MPD1    H1 3195   3.386   1.100  11.289 -2.0910 -2.3893  1.2456
  210MPD1    H2 3196   3.512   0.704  11.231  1.6659 -0.2282  3.6054
  210MPD1    H3 3197   3.359   0.870  11.335  0.2381 -0.1829 -0.1169
  210MPD1     N 3198   3.578   1.214  11.142 -0.3894  0.6098  0.3134
  210MPD1    H5 3199   3.496   1.270  11.162  0.5260  1.8462  0.5591
  210MPD1    N1 3200   3.731   0.750  11.101  0.6167 -0.5420 -0.0100
  210MPD1    H6 3201   3.687   0.658  11.097 -2.7329  1.0951 -0.6592
  210MPD1    H7 3202   3.774   0.783  11.015  1.9852 -2.0299  0.1070
  211MPD1     C 3203   1.162   1.655  15.347  0.4320 -0.3056 -0.7147
  211MPD1    C1 3204   1.051   1.731  15.383  0.4930  0.0189  0.1649
  211MPD1    C2 3205   1.015   1.741  15.518 -0.1508  0.1514 -0.5392
  211MPD1    C3 3206   1.062   1.640  15.603  0.4454  1.2368  0.0065
  211MPD1    C4 3207   1.161   1.555  15.557 -0.6134 -0.5777  0.1297
  211MPD1    C5 3208   1.220   1.570  15.439 -0.4922 -0.5293 -0.3423
  211MPD1     H 3209   0.954   1.822  15.553  0.2682 -0.6674  2.0491
  211MPD1    H1 3210   1.213   1.484  15.619 -0.1929  1.5190  2.1741
  211MPD1    H2 3211   1.202   1.646  15.246 -1.9127 -0.6391 -1.6110
  211MPD1    H3 3212   1.305   1.511  15.407 -0.3742  1.1733 -3.2449
  211MPD1     N 3213   1.000   1.636  15.726  0.4936 -1.0682  0.0227
  211MPD1    H5 3214   0.921   1.699  15.735  0.0546 -1.7239  0.8390
  211MPD1    N1 3215   1.023   1.831  15.298 -0.5636  0.0819 -0.0651
  211MPD1    H6 3216   0.939   1.877  15.332 -2.5316 -2.2057 -1.8035
  211MPD1    H7 3217   1.004   1.789  15.207 -0.3849 -0.4626  0.1450
  212MPD1     C 3218   0.188   4.521  16.696 -0.4882 -0.0289 -0.1677
  212MPD1    C1 3219   0.095   4.539  16.793 -0.8164 -0.2703 -0.5907
  212MPD1    C2 3220   0.035   4.426  16.830 -0.5342 -0.6136 -1.0603
  212MPD1    C3 3221   0.027   4.312  16.753  0.1669 -0.0417  0.2348
  212MPD1    C4 3222   0.116   4.302  16.646 -0.0248  0.3318  0.1867
  212MPD1    C5 3223   0.198   4.406  16.618  0.4494 -0.3176 -0.0985
  212MPD1     H 3224   4.698   4.429  16.921  0.5833 -0.3923 -0.3307
  212MPD1    H1 3225   0.123   4.218  16.578 -0.4147 -0.4750  1.1468
  212MPD1    H2 3226   0.257   4.601  16.671 -0.2832 -0.3350 -0.5907
  212MPD1    H3 3227   0.268   4.394  16.536  2.3948 -1.0101  1.6619
  212MPD1     N 3228   4.669   4.202  16.783 -0.3100 -0.4990 -0.7921
  212MPD1    H5 3229   4.685   4.119  16.727  0.0471 -1.3114  0.5315
  212MPD1    N1 3230   0.105   4.645  16.887  0.2251 -0.3767 -0.2340
  212MPD1    H6 3231   0.129   4.722  16.826 -0.4278 -0.6506 -0.8336
  212MPD1    H7 3232   0.014   4.671  16.924 -0.4199 -0.2654 -1.9248
  213MPD1     C 3233   3.428   0.551  15.305 -0.4613  0.3163 -0.1138
  213MPD1    C1 3234   3.398   0.661  15.221 -0.2592 -0.4616  0.2748
  213MPD1    C2 3235   3.260   0.648  15.172 -0.3786  0.3475  0.1248
  213MPD1    C3 3236   3.190   0.530  15.173  0.2190  0.3748  0.7563
  213MPD1    C4 3237   3.244   0.410  15.232 -0.2125  0.1283  1.2066
  213MPD1    C5 3238   3.365   0.423  15.299 -0.8798  0.1840 -0.5387
  213MPD1     H 3239   3.216   0.735  15.124 -0.3875 -0.1256 -0.7039
  213MPD1    H1 3240   3.194   0.315  15.242  1.1628 -0.8060 -0.8842
  213MPD1    H2 3241   3.524   0.555  15.354 -0.8458 -0.2209  0.7004
  213MPD1    H3 3242   3.414   0.347  15.358 -0.0534  2.4316  1.6502
  213MPD1     N 3243   3.071   0.529  15.100 -0.1532 -0.3438 -0.5035
  213MPD1    H5 3244   3.055   0.618  15.053  0.0001 -0.0977 -0.0964
  213MPD1    N1 3245   3.465   0.782  15.247  0.4818  0.2809  0.0020
  213MPD1    H6 3246   3.466   0.835  15.160  1.0617 -2.6614 -1.7632
  213MPD1    H7 3247   3.563   0.792  15.273  0.4938  0.9995 -0.3220
  214MPD1     C 3248   2.148   0.076  14.706 -0.3949  0.9652  0.0581
  214MPD1    C1 3249   2.224   0.037  14.810  0.2362 -0.5744 -0.1762
  214MPD1    C2 3250   2.322   0.126  14.851  0.0229  0.4230  0.0777
  214MPD1    C3 3251   2.348   0.249  14.798  0.2081 -0.0846  0.3158
  214MPD1    C4 3252   2.261   0.291  14.701 -0.6802  0.0439 -0.2259
  214MPD1    C5 3253   2.163   0.203  14.655 -0.1143  0.7613 -0.0916
  214MPD1     H 3254   2.374   0.092  14.939  1.1326 -1.5242 -1.3153
  214MPD1    H1 3255   2.259   0.389  14.654 -1.1558  0.8150  1.4214
  214MPD1    H2 3256   2.077   0.001  14.673 -1.4225  1.2881  1.5458
  214MPD1    H3 3257   2.090   0.225  14.578 -2.3060 -2.1260  1.1375
  214MPD1     N 3258   2.458   0.341  14.828  0.3290  0.2052 -0.5915
  214MPD1    H5 3259   2.459   0.416  14.760  0.4507  0.8980  0.1750
  214MPD1    N1 3260   2.207   4.627  14.849 -0.0228 -0.1574  0.1352
  214MPD1    H6 3261   2.113   4.591  14.835  0.6885 -1.5790 -1.0313
  214MPD1    H7 3262   2.231   4.610  14.947  1.0544  2.1101  0.2823
  215MPD1     C 3263   3.813   0.764  10.321  0.5488 -0.3190  0.3856
  215MPD1    C1 3264   3.746   0.863  10.240  0.0999 -0.6474  0.7240
  215MPD1    C2 3265   3.663   0.953  10.305  0.5310  0.0105 -0.2278
  215MPD1    C3 3266   3.645   0.951  10.442  0.0012  0.6317  0.4746
  215MPD1    C4 3267   3.703   0.852  10.520 -0.3029  0.5297 -0.1439
  215MPD1    C5 3268   3.789   0.766  10.454 -0.1313 -0.5561  0.6158
  215MPD1     H 3269   3.588   1.016  10.258 -0.1554  0.4633  1.4414
  215MPD1    H1 3270   3.703   0.849  10.628 -0.7975  2.3034 -0.1006
  215MPD1    H2 3271   3.869   0.683  10.276 -0.3177 -0.8354  0.2382
  215MPD1    H3 3272   3.841   0.695  10.517  0.2002  0.6791  1.7552
  215MPD1     N 3273   3.550   1.046  10.490 -0.2497  0.8022  0.5960
  215MPD1    H5 3274   3.490   1.083  10.417  0.3221 -1.0006 -0.7863
  215MPD1    N1 3275   3.749   0.840  10.099  0.3767 -0.0230 -0.3300
  215MPD1    H6 3276   3.759   0.925  10.044 -1.8702 -0.5401 -1.5311
  215MPD1    H7 3277   3.834   0.793  10.070  1.1926  2.3794 -1.8500
  216MPD1     C 3278   0.298   2.952  16.082 -0.1482  0.5648  0.3729
  216MPD1    C1 3279   0.161   2.977  16.075  0.2913 -0.7063 -0.2643
  216MPD1    C2 3280   0.090   2.923  16.178  0.1618  0.4884 -0.7679
  216MPD1    C3 3281   0.152   2.842  16.272  0.3542 -0.1102  0.2395
  216MPD1    C4 3282   0.282   2.807  16.262  0.0650  0.4469  0.2151
  216MPD1    C5 3283   0.361   2.860  16.164  0.4697  0.3370 -0.1341
  216MPD1     H 3284   4.713   2.962  16.196 -0.3598 -0.3345 -1.8788
  216MPD1    H1 3285   0.330   2.738  16.331 -0.5845 -1.2278 -0.9917
  216MPD1    H2 3286   0.361   3.000  16.008 -0.0348 -1.0002 -0.5360
  216MPD1    H3 3287   0.465   2.836  16.145  0.8384 -0.0720  2.4685
  216MPD1     N 3288   0.070   2.800  16.384 -0.2514 -0.2540 -0.3354
  216MPD1    H5 3289   4.707   2.851  16.407  0.3644  0.7896 -0.3222
  216MPD1    N1 3290   0.112   3.082  15.998 -0.6440 -0.0875 -0.1412
  216MPD1    H6 3291   0.018   3.061  15.963 -0.1524 -0.4360 -1.2412
  216MPD1    H7 3292   0.176   3.079  15.919  0.2246 -1.4127  0.6325
  217MPD1     C 3293   1.577   3.221   8.663 -0.2666  0.0173 -0.0652
  217MPD1    C1 3294   1.450   3.238   8.712 -0.0918  0.6965 -0.6538
  217MPD1    C2 3295   1.389   3.367   8.684  0.3297 -0.1154 -0.5382
  217MPD1    C3 3296   1.454   3.460   8.606  0.1226  0.0012 -0.3332
  217MPD1    C4 3297   1.571   3.416   8.549 -0.0956  0.5256  0.1125
  217MPD1    C5 3298   1.638   3.303   8.577  0.6750 -0.3497  0.2188
  217MPD1     H 3299   1.285   3.378   8.713  0.8123 -0.7119  1.3560
  217MPD1    H1 3300   1.627   3.487   8.489  1.4501 -0.0101  0.9125
  217MPD1    H2 3301   1.634   3.130   8.679 -0.9848 -0.6832 -1.4739
  217MPD1    H3 3302   1.737   3.280   8.539 -0.0118 -4.5972  0.9509
  217MPD1     N 3303   1.401   3.588   8.573  0.1127 -0.4777 -0.2120
  217MPD1    H5 3304   1.449   3.641   8.501 -0.8202 -0.4842 -0.8285
  217MPD1    N1 3305   1.405   3.147   8.810  0.1231 -0.1805 -0.4554
  217MPD1    H6 3306   1.413   3.050   8.780  0.2839 -1.1754  2.8915
  217MPD1    H7 3307   1.306   3.155   8.830  0.9025  0.1323  3.2255
  218MPD1     C 3308   1.861   1.159  12.764 -0.1956  0.3553 -0.4937
  218MPD1    C1 3309   1.925   1.235  12.858 -0.7854 -0.2239  0.3617
  218MPD1    C2 3310   2.056   1.275  12.827  0.3287  0.0699  0.1972
  218MPD1    C3 3311   2.106   1.261  12.701  0.2214 -0.0328  0.7587
  218MPD1    C4 3312   2.039   1.188  12.601 -0.0417  0.2366  0.1466
  218MPD1    C5 3313   1.914   1.137  12.635  0.2206  0.2322  0.3512
  218MPD1     H 3314   2.114   1.316  12.908  0.2301  0.3635  0.1217
  218MPD1    H1 3315   2.078   1.169  12.502  2.9104  1.3021  1.1249
  218MPD1    H2 3316   1.764   1.113  12.780  0.0680  0.4116  1.2010
  218MPD1    H3 3317   1.859   1.073  12.566  0.0297  0.1847  0.5472
  218MPD1     N 3318   2.230   1.323  12.680 -0.0903  0.6785 -0.0352
  218MPD1    H5 3319   2.279   1.344  12.767  3.2392 -2.0635 -1.2775
  218MPD1    N1 3320   1.888   1.225  12.991  0.3482 -0.1431 -0.3549
  218MPD1    H6 3321   1.932   1.294  13.051  0.8348 -1.7037  1.0711
  218MPD1    H7 3322   1.788   1.241  12.989  0.6448  1.9133  1.6294
  219MPD1     C 3323   2.676   1.661  11.849  0.3378 -0.4387 -0.3461
  219MPD1    C1 3324   2.763   1.577  11.917 -0.0514 -0.6938 -0.5828
  219MPD1    C2 3325   2.738   1.570  12.054  0.5629  0.0725  0.2718
  219MPD1    C3 3326   2.620   1.621  12.114 -0.8990  0.4306 -0.0648
  219MPD1    C4 3327   2.525   1.691  12.036 -0.4668 -0.2045 -0.4285
  219MPD1    C5 3328   2.564   1.710  11.907  0.0227  0.2630 -0.1449
  219MPD1     H 3329   2.813   1.520  12.115  0.9592 -0.7644 -0.8873
  219MPD1    H1 3330   2.432   1.733  12.074 -0.5183  1.0983 -1.9845
  219MPD1    H2 3331   2.700   1.690  11.747 -1.8556 -0.2981 -0.8241
  219MPD1    H3 3332   2.496   1.770  11.848 -2.3425 -2.3801 -0.1161
  219MPD1     N 3333   2.587   1.604  12.254  0.5606 -0.0111 -0.4726
  219MPD1    H5 3334   2.491   1.630  12.274  1.5603  1.9484  1.6775
  219MPD1    N1 3335   2.891   1.555  11.867 -0.5968  0.0254 -0.0859
  219MPD1    H6 3336   2.901   1.544  11.766 -0.0226  2.3652 -0.2686
  219MPD1    H7 3337   2.923   1.469  11.912  0.8478  0.4034 -0.4126
  220MPD1     C 3338   3.122   2.101   9.077 -0.4267 -0.3553 -0.7557
  220MPD1    C1 3339   3.197   2.131   9.187  0.2087  0.7416  0.1205
  220MPD1    C2 3340   3.174   2.063   9.302  0.3862 -0.4022 -0.0753
  220MPD1    C3 3341   3.069   1.977   9.313 -0.2338 -0.3288 -0.8120
  220MPD1    C4 3342   2.996   1.943   9.206 -0.2717 -0.5355 -0.0817
  220MPD1    C5 3343   3.017   2.012   9.087  0.3554 -0.4720  0.8600
  220MPD1     H 3344   3.242   2.078   9.385  1.9165  0.3778 -1.4673
  220MPD1    H1 3345   2.916   1.870   9.203 -0.2405 -0.5343 -1.0760
  220MPD1    H2 3346   3.129   2.150   8.981  0.0798 -1.8583 -1.4898
  220MPD1    H3 3347   2.959   1.978   9.002  0.9398  2.2838 -0.6127
  220MPD1     N 3348   3.048   1.928   9.440 -0.4727 -0.0848  0.2255
  220MPD1    H5 3349   3.097   1.972   9.517  1.7762  3.3663 -3.1523
  220MPD1    N1 3350   3.315   2.212   9.181 -0.7807  0.1261  0.4078
  220MPD1    H6 3351   3.334   2.254   9.271  0.1639  1.3154 -0.3392
  220MPD1    H7 3352   3.314   2.283   9.108  1.1163  0.2879  0.5318
  221MPD1     C 3353   0.944   0.282  17.282 -0.0041 -0.1121 -0.6214
  221MPD1    C1 3354   1.048   0.255  17.198  0.3613  0.3743  0.2520
  221MPD1    C2 3355   1.033   0.284  17.062 -0.9653  0.4140  0.1426
  221MPD1    C3 3356   0.904   0.303  17.022  0.3441 -0.5253  0.4213
  221MPD1    C4 3357   0.798   0.328  17.111 -0.1072  0.4248  0.1684
  221MPD1    C5 3358   0.821   0.315  17.242 -0.4714 -0.2802  0.3967
  221MPD1     H 3359   1.119   0.275  16.996 -0.1987 -1.1991  1.3525
  221MPD1    H1 3360   0.696   0.346  17.078  0.5171 -1.1924 -2.6874
  221MPD1    H2 3361   0.967   0.264  17.386  1.0112  0.6037 -0.7128
  221MPD1    H3 3362   0.734   0.330  17.305  0.0212 -0.9397  1.2270
  221MPD1     N 3363   0.868   0.306  16.883  0.8243  0.0883  0.7526
  221MPD1    H5 3364   0.770   0.325  16.867  1.0279 -1.1284 -1.9163
  221MPD1    N1 3365   1.173   0.230  17.245  0.2918 -0.1928  0.3833
  221MPD1    H6 3366   1.224   0.189  17.166 -1.8212  0.5896 -1.3799
  221MPD1    H7 3367   1.189   0.162  17.319  1.7972  1.4343  1.5370
  222MPD1     C 3368   0.315   4.118  17.050  0.1895  0.0279 -0.1021
  222MPD1    C1 3369   0.211   4.185  17.098 -0.2749  0.0407 -0.0967
  222MPD1    C2 3370   0.111   4.109  17.162  0.4558 -0.0272 -0.0203
  222MPD1    C3 3371   0.106   3.971  17.150 -0.4370 -0.4509 -0.1654
  222MPD1    C4 3372   0.208   3.905  17.075 -0.5913  0.4615 -0.3511
  222MPD1    C5 3373   0.313   3.984  17.030 -0.0462 -0.1773  0.3816
  222MPD1     H 3374   0.036   4.164  17.217  2.0366  0.1613  1.9330
  222MPD1    H1 3375   0.196   3.804  17.039 -1.9865  0.8808 -1.0681
  222MPD1    H2 3376   0.394   4.180  17.010  0.5780 -0.0821  0.5083
  222MPD1    H3 3377   0.398   3.941  16.979 -0.0519  0.6872 -0.3668
  222MPD1     N 3378   4.720   3.893  17.206  0.1085  0.2207 -0.0154
  222MPD1    H5 3379   0.003   3.792  17.193  0.3871  0.2815 -0.3363
  222MPD1    N1 3380   0.227   4.326  17.119  0.0099  0.1189  0.0660
  222MPD1    H6 3381   0.280   4.385  17.056  0.2527 -0.1926 -0.0230
  222MPD1    H7 3382   0.139   4.373  17.138 -0.3107  0.3064 -1.9741
  223MPD1     C 3383   4.610   3.030  17.288  0.0717 -0.8806  0.1692
  223MPD1    C1 3384   4.710   3.121  17.309  0.2244  0.1480  0.4572
  223MPD1    C2 3385   4.684   3.252  17.315 -0.3057  0.5667 -0.5732
  223MPD1    C3 3386   4.552   3.301  17.312 -0.1516 -0.2558  0.5411
  223MPD1    C4 3387   4.453   3.207  17.284 -0.7984 -0.1713 -0.5457
  223MPD1    C5 3388   4.481   3.074  17.265  1.2146 -0.1010  0.3939
  223MPD1     H 3389   0.033   3.329  17.343  0.4709 -0.9228  1.5880
  223MPD1    H1 3390   4.348   3.232  17.272 -1.4187 -1.7742  1.5703
  223MPD1    H2 3391   4.629   2.924  17.275 -0.0595 -0.7099 -1.4703
  223MPD1    H3 3392   4.400   3.009  17.234  0.2971  0.9923  0.4848
  223MPD1     N 3393   4.533   3.436  17.335  0.7536  0.0861 -0.1564
  223MPD1    H5 3394   4.611   3.497  17.358  0.7678 -1.0080  2.8374
  223MPD1    N1 3395   0.117   3.079  17.344 -0.2164  0.0376  0.4852
  223MPD1    H6 3396   0.139   2.984  17.315  0.6684 -0.3369  2.3125
  223MPD1    H7 3397   0.189   3.147  17.323  1.8409 -1.5391  2.3639
  224MPD1     C 3398   0.567   4.385   8.429 -0.0236 -0.6060 -0.5637
  224MPD1    C1 3399   0.682   4.354   8.497  0.5489 -0.3934  0.1454
  224MPD1    C2 3400   0.760   4.451   8.552  0.5080  0.0293  0.1181
  224MPD1    C3 3401   0.715   4.588   8.544  0.1596  0.0756  0.5922
  224MPD1    C4 3402   0.594   4.610   8.485 -0.8202 -0.0409  0.2028
  224MPD1    C5 3403   0.517   4.508   8.438 -0.0316  0.1263  0.4861
  224MPD1     H 3404   0.850   4.428   8.607  0.4370 -1.9051 -0.5703
  224MPD1    H1 3405   0.558   4.712   8.470 -1.0765 -0.2065 -0.3079
  224MPD1    H2 3406   0.503   4.321   8.369 -0.4377 -0.4906 -0.2430
  224MPD1    H3 3407   0.425   4.539   8.389 -0.0853 -0.6515  0.0942
  224MPD1     N 3408   0.796   4.692   8.605 -0.0952 -0.1898  0.5805
  224MPD1    H5 3409   0.754   0.059   8.627  1.7259  0.5819  0.9282
  224MPD1    N1 3410   0.705   4.217   8.524  0.1186 -1.0869  0.1350
  224MPD1    H6 3411   0.804   4.195   8.534  0.6570  0.8166 -1.0816
  224MPD1    H7 3412   0.654   4.142   8.478  0.2469 -1.9398  1.3669
  225MPD1     C 3413   2.841   2.606  12.275 -0.0045 -0.6789  0.7821
  225MPD1    C1 3414   2.849   2.509  12.182 -0.1256  0.5518  0.0991
  225MPD1    C2 3415   2.738   2.490  12.106  0.3283  0.5175  0.2387
  225MPD1    C3 3416   2.629   2.582  12.104  0.0714 -0.1684  0.4160
  225MPD1    C4 3417   2.632   2.686  12.190  0.8929  0.7898  0.1775
  225MPD1    C5 3418   2.735   2.693  12.279 -0.1088 -0.5748 -0.0715
  225MPD1     H 3419   2.733   2.404  12.041 -3.5506  1.3687 -0.6261
  225MPD1    H1 3420   2.557   2.763  12.176  0.2558  0.1900  0.2898
  225MPD1    H2 3421   2.922   2.631  12.343  0.1143 -1.8234  1.0680
  225MPD1    H3 3422   2.750   2.781  12.340  1.4829  0.3620 -1.8104
  225MPD1     N 3423   2.508   2.569  12.028  0.5722 -0.5397 -0.1939
  225MPD1    H5 3424   2.434   2.638  12.032 -0.5696 -1.7832 -0.2440
  225MPD1    N1 3425   2.943   2.409  12.193 -0.5832 -0.4625 -0.0439
  225MPD1    H6 3426   2.963   2.352  12.111  1.9954 -0.5078  0.6070
  225MPD1    H7 3427   3.032   2.451  12.219 -0.4045  0.0152 -1.4653
  226MPD1     C 3428   0.383   4.030   7.888  0.2617  0.2334  0.4392
  226MPD1    C1 3429   0.516   4.000   7.886  0.7305 -0.1662 -0.0829
  226MPD1    C2 3430   0.608   4.089   7.942 -0.2155 -0.4838  0.2852
  226MPD1    C3 3431   0.574   4.213   7.993 -0.1138  1.0444 -0.3698
  226MPD1    C4 3432   0.436   4.243   7.986 -0.1438 -1.4129  0.9162
  226MPD1    C5 3433   0.346   4.151   7.928  0.3504 -0.4288  0.3361
  226MPD1     H 3434   0.712   4.060   7.952 -0.2642 -0.6322  0.3624
  226MPD1    H1 3435   0.395   4.339   8.014  0.6035 -0.9843  0.5587
  226MPD1    H2 3436   0.305   3.961   7.861  0.5709  0.4353 -0.9560
  226MPD1    H3 3437   0.241   4.175   7.934  0.5718  0.5444  0.3428
  226MPD1     N 3438   0.674   4.299   8.044 -0.4746 -0.1206  0.3005
  226MPD1    H5 3439   0.763   4.252   8.058 -0.3160 -0.0680 -0.4969
  226MPD1    N1 3440   0.549   3.859   7.866 -0.6763  0.3635 -0.1898
  226MPD1    H6 3441   0.494   3.825   7.787  2.0111 -1.2664 -1.3775
  226MPD1    H7 3442   0.648   3.851   7.845 -0.9536 -2.0973 -0.5639
  227MPD1     C 3443   1.600   4.282   8.321  0.2825 -0.2910 -0.2377
  227MPD1    C1 3444   1.577   4.413   8.368 -0.1057 -0.1441  0.5617
  227MPD1    C2 3445   1.454   4.465   8.337  0.2418  0.2745 -0.3757
  227MPD1    C3 3446   1.353   4.378   8.306 -0.3097  0.1202  0.0282
  227MPD1    C4 3447   1.370   4.245   8.297 -0.3202  0.0238  0.3661
  227MPD1    C5 3448   1.493   4.192   8.296  0.7541  0.2529 -0.1409
  227MPD1     H 3449   1.435   4.570   8.357  1.4866  0.5338 -0.5389
  227MPD1    H1 3450   1.286   4.178   8.281 -0.4363  0.4631 -0.8773
  227MPD1    H2 3451   1.701   4.243   8.328  0.0384 -1.1846 -1.7501
  227MPD1    H3 3452   1.519   4.089   8.276 -0.1154  0.3802 -1.9226
  227MPD1     N 3453   1.225   4.439   8.284 -0.1209 -0.2289 -0.1817
  227MPD1    H5 3454   1.220   4.539   8.300 -2.3443 -0.4497  0.4807
  227MPD1    N1 3455   1.677   4.505   8.411 -0.3886  0.1818  0.1717
  227MPD1    H6 3456   1.640   4.581   8.468  1.2279 -1.0720  2.8680
  227MPD1    H7 3457   1.752   4.465   8.467 -0.3315 -0.2936 -0.2448
  228MPD1     C 3458   4.719   4.602  12.494 -0.2975 -0.1816  0.8551
  228MPD1    C1 3459   4.698   4.606  12.632 -0.1477  0.5468 -0.2594
  228MPD1    C2 3460   4.595   4.686  12.678  0.1900  0.5861  0.1746
  228MPD1    C3 3461   4.522   0.043  12.586  0.0628 -0.6607  0.7128
  228MPD1    C4 3462   4.545   0.031  12.452 -0.4883  0.9666 -1.1219
  228MPD1    C5 3463   4.650   4.682  12.409  0.0281 -0.5546 -0.3841
  228MPD1     H 3464   4.570   4.686  12.783  2.0086 -2.2778  0.6375
  228MPD1    H1 3465   4.489   0.094  12.383 -0.8518  0.2902 -1.4426
  228MPD1    H2 3466   0.066   4.537  12.443  0.5200  0.8583  0.6502
  228MPD1    H3 3467   4.685   4.676  12.307 -0.5276  0.3367 -0.6382
  228MPD1     N 3468   4.414   0.108  12.644  1.3026  0.1067  0.0145
  228MPD1    H5 3469   4.392   0.094  12.742 -1.5601  1.8889 -0.3724
  228MPD1    N1 3470   0.062   4.546  12.727  0.6207 -0.7701  0.0633
  228MPD1    H6 3471   0.028   4.536  12.823  0.8020  0.3244  0.2471
  228MPD1    H7 3472   0.118   4.464  12.705  1.9853  0.2323 -0.1623
  229MPD1     C 3473   3.030   3.375  14.455 -0.8068 -0.5895  0.5857
  229MPD1    C1 3474   3.040   3.275  14.356  0.9322 -0.6388 -0.7180
  229MPD1    C2 3475   3.153   3.191  14.356 -0.3637  1.1155 -0.7983
  229MPD1    C3 3476   3.246   3.214  14.458  0.5381 -1.1791 -0.1456
  229MPD1    C4 3477   3.225   3.302  14.556 -0.3784  0.5884 -0.1912
  229MPD1    C5 3478   3.130   3.389  14.549 -0.0441  0.2121  0.0918
  229MPD1     H 3479   3.166   3.108  14.288  2.3034  1.0137 -0.1382
  229MPD1    H1 3480   3.305   3.318  14.627  0.8242  1.0127 -1.6483
  229MPD1    H2 3481   2.943   3.439  14.458 -0.3507  0.0807 -0.4880
  229MPD1    H3 3482   3.135   3.472  14.619  1.8399 -0.4915  0.7727
  229MPD1     N 3483   3.356   3.131  14.464 -0.0629  0.0412  0.1963
  229MPD1    H5 3484   3.408   3.136  14.551  0.4367  1.2987 -0.1741
  229MPD1    N1 3485   2.962   3.276  14.245  0.4079 -0.5959  0.4395
  229MPD1    H6 3486   2.864   3.302  14.250 -0.6124 -3.9938 -1.3946
  229MPD1    H7 3487   2.962   3.185  14.199 -0.5493 -0.1318 -0.4777
  230MPD1     C 3488   3.821   2.739  15.180 -0.1499  0.4008 -0.1175
  230MPD1    C1 3489   3.900   2.687  15.085  0.0466  0.9397  0.4769
  230MPD1    C2 3490   3.859   2.694  14.956 -0.2494 -0.1345 -1.2815
  230MPD1    C3 3491   3.742   2.750  14.910  0.2176  0.3724 -0.3038
  230MPD1    C4 3492   3.653   2.792  15.013 -0.2520  0.0824 -0.2558
  230MPD1    C5 3493   3.695   2.791  15.144  0.3385 -0.1228 -0.0466
  230MPD1     H 3494   3.920   2.645  14.882 -1.6360 -1.2244 -1.7026
  230MPD1    H1 3495   3.557   2.842  15.005  0.6996  1.9952  0.1166
  230MPD1    H2 3496   3.841   2.727  15.286  3.7884  0.7362 -0.8407
  230MPD1    H3 3497   3.632   2.815  15.228  1.7305  1.8523  0.4648
  230MPD1     N 3498   3.711   2.766  14.771 -0.2719 -0.1891  0.0879
  230MPD1    H5 3499   3.782   2.746  14.702  0.3472  1.1465  0.3382
  230MPD1    N1 3500   4.014   2.614  15.119 -0.2094 -0.1404  0.6976
  230MPD1    H6 3501   4.065   2.655  15.198  1.2719 -1.9384  0.6703
  230MPD1    H7 3502   4.076   2.595  15.040 -0.6851 -0.0189  0.2938
  231MPD1     C 3503   1.902   4.331  15.300  0.2484 -0.0005  0.4679
  231MPD1    C1 3504   1.882   4.424  15.399  0.6117  0.4614  0.6627
  231MPD1    C2 3505   1.880   4.557  15.353  0.1987  0.0130  0.0249
  231MPD1    C3 3506   1.913   4.597  15.226 -1.4432  0.0188 -0.3927
  231MPD1    C4 3507   1.945   4.495  15.134 -0.2771  0.1620  0.7225
  231MPD1    C5 3508   1.942   4.368  15.172 -0.4802 -0.1762 -0.0533
  231MPD1     H 3509   1.843   4.638  15.415  1.4396 -0.9085  1.9473
  231MPD1    H1 3510   1.980   4.524  15.035  0.0937  1.9366  1.3625
  231MPD1    H2 3511   1.901   4.227  15.330 -0.9904  0.7953  3.2218
  231MPD1    H3 3512   1.968   4.288  15.104  2.8744  0.3737  0.5793
  231MPD1     N 3513   1.927   0.015  15.194 -0.0888 -0.7510  0.2382
  231MPD1    H5 3514   1.948   0.084  15.265  2.7518 -1.6912  0.3252
  231MPD1    N1 3515   1.822   4.379  15.519  0.2440  0.0741 -0.4162
  231MPD1    H6 3516   1.847   4.433  15.601 -0.8062 -0.1842  0.0826
  231MPD1    H7 3517   1.830   4.280  15.544  0.5629 -0.7528 -3.8075
  232MPD1     C 3518   3.604   2.573  17.576  0.4196 -0.1012  0.4263
  232MPD1    C1 3519   3.698   2.500  17.644  0.0973 -0.0230  0.2965
  232MPD1    C2 3520   3.709   2.362  17.631 -0.0861 -1.1646  0.0985
  232MPD1    C3 3521   3.599   2.294  17.582  0.3645 -0.7560  0.0695
  232MPD1    C4 3522   3.501   2.369  17.517 -0.5273 -0.2743  0.0738
  232MPD1    C5 3523   3.504   2.504  17.513 -0.1538 -0.1456  0.0361
  232MPD1     H 3524   3.782   2.301  17.682  0.5929 -0.4945 -0.0797
  232MPD1    H1 3525   3.413   2.321  17.474 -0.7456  1.3290 -1.2679
  232MPD1    H2 3526   3.606   2.681  17.583  2.8939 -0.1768  1.0743
  232MPD1    H3 3527   3.425   2.562  17.467 -0.0769 -0.6199 -0.6869
  232MPD1     N 3528   3.593   2.148  17.594  0.6854 -0.2734 -0.4675
  232MPD1    H5 3529   3.661   2.118  17.663  0.1906 -0.7696 -0.1860
  232MPD1    N1 3530   3.811   2.558   0.009 -0.1965 -0.0430  0.0832
  232MPD1    H6 3531   3.814   2.660   0.015 -0.9950 -0.0293  0.2805
  232MPD1    H7 3532   3.842   2.512   0.094  0.3679 -0.0223 -0.1108
  233MPD1     C 3533   0.115   1.076   1.145  0.1341  0.4349  0.1961
  233MPD1    C1 3534   0.083   0.951   1.185  0.2359  0.0375 -0.2539
  233MPD1    C2 3535   0.175   0.874   1.238 -0.2040  0.3627  0.0796
  233MPD1    C3 3536   0.314   0.900   1.230 -0.5030 -0.0074 -0.2882
  233MPD1    C4 3537   0.347   1.027   1.180  0.0778  0.3700 -0.0376
  233MPD1    C5 3538   0.245   1.114   1.143 -0.1852  0.2480 -0.3638
  233MPD1     H 3539   0.144   0.777   1.275  0.6713 -0.0977 -0.4078
  233MPD1    H1 3540   0.449   1.063   1.166 -1.0046  3.2820 -0.3882
  233MPD1    H2 3541   0.047   1.149   1.102 -1.7065 -0.5601  1.3960
  233MPD1    H3 3542   0.268   1.212   1.103  0.0844  0.2101 -0.2988
  233MPD1     N 3543   0.414   0.808   1.267 -0.3162 -0.3122 -0.6057
  233MPD1    H5 3544   0.505   0.838   1.233  0.0960 -1.2593 -0.3341
  233MPD1    N1 3545   4.674   0.927   1.202 -0.1176  0.1740  0.2146
  233MPD1    H6 3546   4.621   0.984   1.136  1.8575  0.7128 -0.8806
  233MPD1    H7 3547   4.641   0.831   1.189 -0.4939  0.1589  1.2754
  234MPD1     C 3548   2.766   4.244   9.014 -0.4245 -0.0879 -0.2879
  234MPD1    C1 3549   2.712   4.195   8.899  0.3556 -1.2959  0.5745
  234MPD1    C2 3550   2.581   4.244   8.865  1.0690  0.3764  0.1332
  234MPD1    C3 3551   2.516   4.329   8.940 -0.1380  0.3335  0.1633
  234MPD1    C4 3552   2.561   4.353   9.062 -0.3194  0.7257 -0.0023
  234MPD1    C5 3553   2.692   4.316   9.105 -0.4634 -0.3161  0.6957
  234MPD1     H 3554   2.534   4.214   8.772 -0.5229 -0.0064  1.0610
  234MPD1    H1 3555   2.501   4.403   9.137  1.0337  0.1477  1.4490
  234MPD1    H2 3556   2.868   4.226   9.047 -0.7372 -0.9946  0.1993
  234MPD1    H3 3557   2.731   4.319   9.206  0.8021  0.6783  0.1760
  234MPD1     N 3558   2.391   4.388   8.898  0.4183 -0.1031  0.2570
  234MPD1    H5 3559   2.358   4.355   8.808  1.6056 -0.7224  0.0553
  234MPD1    N1 3560   2.785   4.125   8.806 -0.2312 -0.7317 -0.0358
  234MPD1    H6 3561   2.860   4.074   8.853  0.8567  2.0346  1.1883
  234MPD1    H7 3562   2.743   4.063   8.737  0.4211 -0.6518 -0.5043
  235MPD1     C 3563   2.261   2.621   9.394 -0.0034  0.3377 -0.3422
  235MPD1    C1 3564   2.269   2.727   9.487  0.1032 -0.1536  0.3117
  235MPD1    C2 3565   2.380   2.737   9.564 -0.3076 -0.0236  0.0153
  235MPD1    C3 3566   2.492   2.656   9.540 -0.3630  0.4702  0.8789
  235MPD1    C4 3567   2.488   2.559   9.448 -0.2981  0.0130  0.7466
  235MPD1    C5 3568   2.364   2.528   9.393  0.3758  0.0891 -0.3456
  235MPD1     H 3569   2.376   2.816   9.638  1.0149  0.0326  0.0317
  235MPD1    H1 3570   2.561   2.485   9.418 -1.9416 -1.1884 -0.3178
  235MPD1    H2 3571   2.166   2.612   9.343  0.2376 -0.4338 -0.6575
  235MPD1    H3 3572   2.370   2.449   9.319  1.4208 -1.2537  1.1724
  235MPD1     N 3573   2.618   2.703   9.586  0.1256  0.3005  0.1451
  235MPD1    H5 3574   2.623   2.800   9.613  0.2888 -0.0801  1.4686
  235MPD1    N1 3575   2.154   2.804   9.504 -0.6209 -0.0603  0.1313
  235MPD1    H6 3576   2.106   2.816   9.415  1.3386  2.4431 -0.5903
  235MPD1    H7 3577   2.183   2.897   9.534  1.1875 -0.4419 -0.3956
  236MPD1     C 3578   2.413   3.711   9.422  0.1191 -0.1744  0.3880
  236MPD1    C1 3579   2.380   3.694   9.553 -0.4152 -0.5690  0.5859
  236MPD1    C2 3580   2.478   3.695   9.649 -0.3982  0.1118 -0.1154
  236MPD1    C3 3581   2.607   3.684   9.608  0.7231 -0.6610 -0.8544
  236MPD1    C4 3582   2.641   3.693   9.472  0.4442  1.0258  0.3066
  236MPD1    C5 3583   2.543   3.705   9.381 -0.0779 -0.0395  0.0354
  236MPD1     H 3584   2.446   3.702   9.753 -0.6969  1.1109 -0.2785
  236MPD1    H1 3585   2.743   3.679   9.437  0.8485  0.5768  1.6620
  236MPD1    H2 3586   2.338   3.717   9.345 -1.3982 -1.3151  1.7776
  236MPD1    H3 3587   2.555   3.703   9.273  0.7280  1.1034  0.1003
  236MPD1     N 3588   2.713   3.677   9.701 -0.2204 -0.5980  0.2357
  236MPD1    H5 3589   2.807   3.685   9.665  0.3981 -1.6942  1.6220
  236MPD1    N1 3590   2.242   3.702   9.582  0.0499  0.4253  0.0752
  236MPD1    H6 3591   2.229   3.663   9.675  0.9957  0.6029  0.2829
  236MPD1    H7 3592   2.196   3.631   9.526 -0.3983  2.5249 -2.2471
  237MPD1     C 3593   2.467   2.076  14.972 -1.1124  0.1059  0.2679
  237MPD1    C1 3594   2.428   2.044  15.101  0.0515 -0.5977  0.7549
  237MPD1    C2 3595   2.416   1.910  15.129  0.6040 -0.3469  0.1794
  237MPD1    C3 3596   2.451   1.814  15.033  0.5060  0.7720 -0.0314
  237MPD1    C4 3597   2.516   1.861  14.916  0.1712 -0.7063  0.4926
  237MPD1    C5 3598   2.524   1.992  14.883  0.3219 -0.3321 -0.1489
  237MPD1     H 3599   2.366   1.877  15.219  1.3332 -1.3828  0.2046
  237MPD1    H1 3600   2.557   1.794  14.842 -0.2879 -0.3404 -0.0920
  237MPD1    H2 3601   2.473   2.179  14.940  1.9683 -0.8396 -2.1509
  237MPD1    H3 3602   2.571   2.033  14.795 -0.3768 -1.4181 -1.0292
  237MPD1     N 3603   2.401   1.680  15.038 -0.0374 -0.2984  0.0497
  237MPD1    H5 3604   2.440   1.619  14.966  0.6946  0.1870  0.0289
  237MPD1    N1 3605   2.370   2.141  15.188  0.5798  0.1136  0.0161
  237MPD1    H6 3606   2.434   2.220  15.181  0.6294  0.0705 -0.0212
  237MPD1    H7 3607   2.370   2.111  15.285 -1.7708  0.7402  0.2080
  238MPD1     C 3608   4.492   0.545  14.876 -0.6063 -0.0503  0.4959
  238MPD1    C1 3609   4.451   0.425  14.929 -0.2661 -0.3939  0.4770
  238MPD1    C2 3610   4.323   0.415  14.983 -0.2529  0.0731  0.6149
  238MPD1    C3 3611   4.222   0.514  14.964  1.0487 -0.4527 -0.4230
  238MPD1    C4 3612   4.261   0.625  14.891  0.2950 -0.9150  0.6545
  238MPD1    C5 3613   4.392   0.643  14.854  0.1454 -0.6397  0.5772
  238MPD1     H 3614   4.303   0.320  15.033  1.3069 -0.0265  1.0451
  238MPD1    H1 3615   4.188   0.703  14.873  0.0926 -0.7779  2.0624
  238MPD1    H2 3616   4.592   0.558  14.835 -1.8093 -0.4309 -2.5578
  238MPD1    H3 3617   4.404   0.738  14.804 -0.3998 -0.9089 -0.0603
  238MPD1     N 3618   4.084   0.488  14.998  0.6062  0.1868  0.9313
  238MPD1    H5 3619   4.021   0.567  15.009  0.7370  0.1659  1.8507
  238MPD1    N1 3620   4.548   0.320  14.946  0.1440  0.2410  0.0380
  238MPD1    H6 3621   4.507   0.227  14.951  0.1998  0.2616  1.0006
  238MPD1    H7 3622   4.613   0.326  14.869  2.2951  1.3979  1.9380
  239MPD1     C 3623   4.447   1.381  14.858  0.1257  0.6305 -0.1337
  239MPD1    C1 3624   4.332   1.348  14.799  0.4831 -0.1742  0.1149
  239MPD1    C2 3625   4.283   1.428  14.694  0.5474 -0.8510  0.0906
  239MPD1    C3 3626   4.358   1.542  14.658  0.1408 -0.0449 -0.3906
  239MPD1    C4 3627   4.482   1.563  14.714  0.1461 -0.4675 -0.0915
  239MPD1    C5 3628   4.523   1.484  14.813  0.2246  0.8957 -0.0851
  239MPD1     H 3629   4.189   1.403  14.647 -1.7143  1.7112  3.2471
  239MPD1    H1 3630   4.552   1.640  14.682 -2.9614  1.8069 -1.4340
  239MPD1    H2 3631   4.489   1.319  14.937 -0.8441 -0.0172 -0.1217
  239MPD1    H3 3632   4.616   1.514  14.860  0.8025  0.5318 -1.0112
  239MPD1     N 3633   4.314   1.635  14.553  0.3862 -0.4988 -0.5308
  239MPD1    H5 3634   4.370   1.716  14.528 -0.4940 -0.0939 -1.1841
  239MPD1    N1 3635   4.257   1.234  14.847  0.1670  0.6603 -0.2644
  239MPD1    H6 3636   4.187   1.215  14.775  0.5703 -3.2166  0.3453
  239MPD1    H7 3637   4.306   1.146  14.856  2.6000  2.1146  0.6250
  240MPD1     C 3638   3.361   0.839  13.812 -0.1988  0.3042 -0.4461
  240MPD1    C1 3639   3.388   0.712  13.856  0.2210 -0.8023  0.3773
  240MPD1    C2 3640   3.367   0.682  13.990  0.0126 -0.3233 -0.0659
  240MPD1    C3 3641   3.328   0.779  14.079  0.2375 -0.0795  0.3136
  240MPD1    C4 3642   3.319   0.911  14.039  0.2331 -1.1739  0.1213
  240MPD1    C5 3643   3.326   0.937  13.901  0.0580  0.2137 -0.2472
  240MPD1     H 3644   3.380   0.582  14.031 -3.0893  0.5570  3.0412
  240MPD1    H1 3645   3.298   0.997  14.101  0.0365 -1.4825  0.4827
  240MPD1    H2 3646   3.384   0.867  13.710 -0.7015 -0.7289 -0.8486
  240MPD1    H3 3647   3.302   1.038  13.868  0.5634 -0.5791 -3.0143
  240MPD1     N 3648   3.314   0.738  14.213 -0.1492  0.0551  0.5379
  240MPD1    H5 3649   3.300   0.643  14.244  1.8622 -0.8016 -1.2174
  240MPD1    N1 3650   3.424   0.619  13.762  0.1957 -0.7183  0.0106
  240MPD1    H6 3651   3.467   0.532  13.794 -0.2480 -1.0589 -0.3021
  240MPD1    H7 3652   3.479   0.664  13.690 -1.3584  1.2165  0.0196
  241MPD1     C 3653   3.325   1.263  15.077  0.2099  0.2563 -0.0572
  241MPD1    C1 3654   3.296   1.139  15.118  0.1931 -0.0824  0.0885
  241MPD1    C2 3655   3.300   1.040  15.027 -0.4301  0.6541 -1.0869
  241MPD1    C3 3656   3.329   1.068  14.892  0.4197 -0.5486  0.4204
  241MPD1    C4 3657   3.374   1.193  14.856  0.3584 -0.1210  0.1738
  241MPD1    C5 3658   3.376   1.292  14.951 -0.4856 -0.5423 -0.2854
  241MPD1     H 3659   3.259   0.945  15.059 -2.9181  2.7979  2.0669
  241MPD1    H1 3660   3.404   1.214  14.753 -1.6971 -1.5292 -0.7080
  241MPD1    H2 3661   3.308   1.341  15.151 -0.1271  1.1966 -1.1389
  241MPD1    H3 3662   3.416   1.391  14.935 -3.4867  0.8086  0.5796
  241MPD1     N 3663   3.324   0.968  14.785 -0.1864  0.1945 -0.1533
  241MPD1    H5 3664   3.361   0.993  14.694 -0.8130 -0.3239 -0.5578
  241MPD1    N1 3665   3.249   1.121  15.253 -0.4550 -0.2105 -0.2590
  241MPD1    H6 3666   3.288   1.035  15.291 -1.8176  0.4693  2.6597
  241MPD1    H7 3667   3.277   1.200  15.312  0.5380  0.7744 -2.0390
  242MPD1     C 3668   3.393   3.759  15.759 -0.3314 -0.2174 -0.2320
  242MPD1    C1 3669   3.258   3.737  15.726 -0.0305 -0.3057 -0.0967
  242MPD1    C2 3670   3.221   3.740  15.595  0.1198 -0.1887  0.7854
  242MPD1    C3 3671   3.303   3.765  15.492 -0.3927  0.0858 -0.0706
  242MPD1    C4 3672   3.429   3.803  15.527 -0.3590 -0.5087  0.0074
  242MPD1    C5 3673   3.469   3.807  15.657  0.4626 -0.2763 -0.4062
  242MPD1     H 3674   3.121   3.709  15.569 -0.7902  1.9486  1.7216
  242MPD1    H1 3675   3.505   3.827  15.454  0.5765  0.3580  1.2700
  242MPD1    H2 3676   3.432   3.759  15.860 -3.1525 -1.6457  0.8779
  242MPD1    H3 3677   3.564   3.854  15.681  0.6122 -1.6835  1.8046
  242MPD1     N 3678   3.267   3.748  15.355 -0.7306 -0.0981 -0.1412
  242MPD1    H5 3679   3.341   3.771  15.289 -0.4752  0.5397  0.3640
  242MPD1    N1 3680   3.167   3.690  15.824  0.0634  0.7823  0.8638
  242MPD1    H6 3681   3.192   3.719  15.918 -1.6929  0.6595  1.3589
  242MPD1    H7 3682   3.071   3.711  15.796  0.9567  1.5674 -1.6515
  243MPD1     C 3683   0.536   2.311  17.526 -0.0990 -0.4004 -0.3917
  243MPD1    C1 3684   0.521   2.418  17.447  0.1034 -0.0836  0.4487
  243MPD1    C2 3685   0.415   2.419  17.351  0.6647  0.2006 -0.4804
  243MPD1    C3 3686   0.311   2.331  17.366  0.4357 -1.0515 -0.2000
  243MPD1    C4 3687   0.312   2.242  17.473  0.0558  0.2734  0.9749
  243MPD1    C5 3688   0.430   2.226  17.540 -0.3170 -0.4457 -0.2470
  243MPD1     H 3689   0.415   2.496  17.274 -0.9511 -0.1382 -0.8180
  243MPD1    H1 3690   0.237   2.167  17.495  0.0079  0.0649  0.1137
  243MPD1    H2 3691   0.623   2.311  17.591  1.4713 -2.7166 -2.4827
  243MPD1    H3 3692   0.439   2.137  17.602  0.5776 -0.1805  0.0021
  243MPD1     N 3693   0.198   2.345  17.280 -0.2771 -0.3337 -0.4571
  243MPD1    H5 3694   0.223   2.395  17.195  3.2815 -0.1578  0.6937
  243MPD1    N1 3695   0.625   2.509  17.436  0.0343  0.1649  0.0127
  243MPD1    H6 3696   0.602   2.604  17.407 -1.7882 -0.7819 -1.6362
  243MPD1    H7 3697   0.676   2.534  17.521 -2.3945  0.4346  1.3638
  244MPD1     C 3698   3.987   2.571  17.287  0.3574 -0.9367  0.1673
  244MPD1    C1 3699   4.033   2.463  17.354  1.3191  0.2544 -0.2563
  244MPD1    C2 3700   4.144   2.401  17.299 -0.4253  0.2548  0.0206
  244MPD1    C3 3701   4.211   2.447  17.190 -0.2781 -0.2739  0.3582
  244MPD1    C4 3702   4.162   2.556  17.126  0.1193 -0.4030 -0.0393
  244MPD1    C5 3703   4.043   2.605  17.171 -0.9017  0.2808  0.6130
  244MPD1     H 3704   4.197   2.323  17.353  0.8163  0.1375 -1.3302
  244MPD1    H1 3705   4.202   2.582  17.029 -1.6144 -0.7342 -0.8366
  244MPD1    H2 3706   3.893   2.617  17.317  1.7509  2.7311 -1.1098
  244MPD1    H3 3707   4.014   2.695  17.117  1.0201  0.1493 -0.6283
  244MPD1     N 3708   4.329   2.373  17.160 -0.2711 -0.1288 -0.2539
  244MPD1    H5 3709   4.354   2.295  17.220 -1.9496 -0.4545  0.0209
  244MPD1    N1 3710   3.966   2.399  17.466 -0.1379  0.7244 -0.3799
  244MPD1    H6 3711   3.916   2.467  17.522 -0.4847 -1.3059  1.7758
  244MPD1    H7 3712   4.031   2.355  17.532  0.6341 -1.0890 -2.3353
  245MPD1     C 3713   2.490   3.456  12.804  0.4502 -0.2292 -0.3006
  245MPD1    C1 3714   2.399   3.426  12.908  0.2222 -0.3107 -0.1687
  245MPD1    C2 3715   2.385   3.521  13.008  0.4275  0.1666  0.1012
  245MPD1    C3 3716   2.469   3.625  13.020  0.2319  0.0613 -0.3895
  245MPD1    C4 3717   2.572   3.652  12.923  0.3855 -0.3269 -0.1779
  245MPD1    C5 3718   2.581   3.558  12.818 -0.3452 -0.0312  0.3492
  245MPD1     H 3719   2.308   3.502  13.081 -1.6834  0.0964 -2.1616
  245MPD1    H1 3720   2.648   3.729  12.912  2.6523 -2.4308  0.6291
  245MPD1    H2 3721   2.490   3.388  12.720 -1.2731  1.2304 -1.4547
  245MPD1    H3 3722   2.660   3.562  12.744 -0.9122 -1.2561 -0.3323
  245MPD1     N 3723   2.464   3.702  13.144 -0.1739 -0.5830  0.3401
  245MPD1    H5 3724   2.398   3.670  13.215 -1.7588 -1.5053 -1.5357
  245MPD1    N1 3725   2.307   3.326  12.886 -0.2910 -0.6574  0.6030
  245MPD1    H6 3726   2.338   3.241  12.841  1.0353  0.2550 -0.2093
  245MPD1    H7 3727   2.265   3.299  12.975  0.4822  2.8796  2.0438
  246MPD1     C 3728   4.401   0.624   9.861 -0.6088 -0.1423  0.1917
  246MPD1    C1 3729   4.322   0.581   9.756 -0.0835  0.0625 -0.0492
  246MPD1    C2 3730   4.254   0.466   9.784 -0.2234 -0.2874  0.6813
  246MPD1    C3 3731   4.251   0.400   9.907  0.9177 -0.2028 -0.0885
  246MPD1    C4 3732   4.331   0.445  10.004 -0.4831  0.0953 -0.2285
  246MPD1    C5 3733   4.403   0.561   9.980  0.6998 -0.2506  0.0755
  246MPD1     H 3734   4.201   0.411   9.706  0.3317  1.6758 -1.0935
  246MPD1    H1 3735   4.352   0.381  10.089 -1.4761  1.0268  0.7022
  246MPD1    H2 3736   4.473   0.702   9.840 -1.6884  1.5865  2.9454
  246MPD1    H3 3737   4.476   0.596  10.052  0.5663  0.7617 -0.2859
  246MPD1     N 3738   4.179   0.281   9.913 -0.7378 -0.5259 -0.2728
  246MPD1    H5 3739   4.108   0.267   9.842  0.0686 -1.3497 -0.9150
  246MPD1    N1 3740   4.335   0.631   9.621 -0.6691  0.0102 -0.5915
  246MPD1    H6 3741   4.245   0.639   9.575 -0.1574 -1.8725 -1.9270
  246MPD1    H7 3742   4.372   0.726   9.628  2.2585 -0.8962 -3.3401
  247MPD1     C 3743   1.380   2.623  16.757  0.0080 -0.6550  0.3412
  247MPD1    C1 3744   1.397   2.721  16.657 -0.4522 -0.3166  0.9193
  247MPD1    C2 3745   1.433   2.682  16.529 -0.4435 -0.6917  0.1307
  247MPD1    C3 3746   1.441   2.548  16.491 -0.8178 -0.6317 -0.4687
  247MPD1    C4 3747   1.412   2.457  16.586 -0.4077  0.2035  0.8368
  247MPD1    C5 3748   1.380   2.486  16.717  0.4428  0.1655  0.2233
  247MPD1     H 3749   1.452   2.760  16.455  0.3324 -1.1595 -0.1621
  247MPD1    H1 3750   1.434   2.352  16.568 -0.6955  0.2706  0.1109
  247MPD1    H2 3751   1.356   2.650  16.859 -4.1101  3.2985 -1.7215
  247MPD1    H3 3752   1.363   2.414  16.797 -1.0273 -3.2708 -3.1839
  247MPD1     N 3753   1.483   2.503  16.362 -0.2247  0.3217 -0.0743
  247MPD1    H5 3754   1.513   2.407  16.347  1.1597  1.0598 -2.0003
  247MPD1    N1 3755   1.402   2.857  16.696 -0.7062  0.4602 -0.4751
  247MPD1    H6 3756   1.345   2.875  16.779  0.9481  1.1370  0.5192
  247MPD1    H7 3757   1.372   2.921  16.623 -0.3119  0.8838 -0.2693
  248MPD1     C 3758   2.250   3.550  17.664 -0.3975 -0.0163 -0.2266
  248MPD1    C1 3759   2.352   3.560   0.061  0.1418 -0.1317 -0.5182
  248MPD1    C2 3760   2.329   3.622   0.187 -0.3890  0.0467 -0.3181
  248MPD1    C3 3761   2.216   3.697   0.206  0.1704 -0.0376  0.4203
  248MPD1    C4 3762   2.115   3.697   0.110 -0.4245  0.9573  0.4103
  248MPD1    C5 3763   2.136   3.617  17.690  0.2324  0.3735 -0.4112
  248MPD1     H 3764   2.406   3.622   0.263 -1.2149  1.1503  0.5169
  248MPD1    H1 3765   2.016   3.741   0.117 -1.0301 -0.5101  1.2196
  248MPD1    H2 3766   2.270   3.486  17.578 -1.0017 -1.2592  0.5476
  248MPD1    H3 3767   2.060   3.608  17.613  0.7537 -2.4980 -0.5859
  248MPD1     N 3768   2.214   3.780   0.319 -0.0838  0.2968  0.3868
  248MPD1    H5 3769   2.295   3.792   0.379  1.4039 -0.4106 -1.4685
  248MPD1    N1 3770   2.465   3.480   0.046  0.4940  0.6966  0.2569
  248MPD1    H6 3771   2.549   3.524   0.084  1.0628  0.8752 -1.1764
  248MPD1    H7 3772   2.486   3.449  17.644  0.8608  0.3838  0.4402
  249MPD1     C 3773   3.543   2.750   9.026 -0.2229 -0.2170  0.1512
  249MPD1    C1 3774   3.665   2.777   9.079 -0.3975  0.2588  0.3971
  249MPD1    C2 3775   3.707   2.691   9.184 -0.1659 -0.4577  0.2487
  249MPD1    C3 3776   3.628   2.591   9.236  0.2510  0.3348  0.0852
  249MPD1    C4 3777   3.504   2.574   9.180 -0.2547  0.1251 -0.0340
  249MPD1    C5 3778   3.456   2.653   9.074  0.5459 -0.1840  0.0260
  249MPD1     H 3779   3.798   2.705   9.242 -0.6625 -0.5558  1.0577
  249MPD1    H1 3780   3.435   2.498   9.217  0.7331 -0.5056  0.5035
  249MPD1    H2 3781   3.505   2.805   8.941  2.6830 -1.2545 -1.8477
  249MPD1    H3 3782   3.359   2.641   9.029 -0.1818  0.0775  1.5065
  249MPD1     N 3783   3.683   2.498   9.336  0.1476  0.7421  0.0494
  249MPD1    H5 3784   3.777   2.511   9.374  0.1706 -1.1438  0.6351
  249MPD1    N1 3785   3.745   2.879   9.023 -0.0705 -0.0896  0.1653
  249MPD1    H6 3786   3.820   2.914   9.081  1.0067 -1.6245 -0.2979
  249MPD1    H7 3787   3.697   2.959   8.983 -0.4013 -0.1655  0.4078
  250MPD2     C 3788   4.553   2.329  12.689 -0.7840 -0.3264  0.6184
  250MPD2    C1 3789   4.642   2.348  12.580 -0.2417  0.1447  0.7049
  250MPD2    C2 3790   4.690   2.247  12.509  0.3283 -0.4042 -0.0045
  250MPD2    C3 3791   4.658   2.115  12.550 -0.8272 -0.4170 -0.3662
  250MPD2    C4 3792   4.594   2.098  12.668  0.0838  0.0346  0.5594
  250MPD2    C5 3793   4.534   2.202  12.734 -0.3879  0.1008 -0.7135
  250MPD2     H 3794   0.032   2.270  12.425  2.5876 -2.3156  1.2154
  250MPD2    H1 3795   4.583   2.002  12.717  0.6116 -0.6151 -0.5948
  250MPD2    H2 3796   4.520   2.419  12.740  2.0681  1.1171 -0.0816
  250MPD2    H3 3797   4.487   2.181  12.829  1.2210 -1.3268 -0.2353
  250MPD2     N 3798   4.699   1.994  12.484  0.3723  0.4605 -0.1659
  250MPD2    H5 3799   4.682   1.905  12.529  0.5123 -0.2388 -1.4817
  250MPD2    N1 3800   4.668   2.483  12.550  0.9383 -0.2520 -0.2163
  250MPD2    H7 3801   4.617   2.540  12.615 -0.6591 -1.1551 -0.6906
  251TMC3    C1 3802   0.021   2.681  12.451 -0.7695  0.5796 -0.3238
  251TMC3    C2 3803   4.633   2.759  12.479 -0.5773 -1.0163 -0.0081
  251TMC3    C3 3804   4.650   2.894  12.471  0.5263  0.3642  0.3197
  251TMC3    C4 3805   0.131   2.738  12.391 -0.4475 -0.0342  0.2747
  251TMC3    C5 3806   0.144   2.874  12.406  0.0521  0.4010 -0.3420
  251TMC3    C6 3807   0.046   2.953  12.445  0.5266  1.4585 -0.6428
  251TMC3     C 3808   0.020   2.537  12.447  0.1694 -0.2760  0.1726
  251TMC3     O 3809   0.101   2.476  12.378 -0.0153 -0.2713  0.3189
  251TMC3     H 3810   4.539   2.706  12.482 -0.7869 -0.5495  1.6787
  251TMC3    H1 3811   0.209   2.681  12.343  1.0747  0.5857  2.0038
  251TMC3    H2 3812   0.066   3.060  12.438 -0.7947  1.6135 -2.0725
  251TMC3    C7 3813   0.261   2.884  12.492 -0.5589  0.0929 -0.2891
  251TMC3    C8 3814   4.553   2.982  12.533 -0.5050 -0.4623  0.6499
  251TMC3    O1 3815   0.338   2.793  12.491 -0.0692 -0.2283 -0.0432
  251TMC3    O2 3816   4.573   3.100  12.517  0.1666 -0.1103 -0.3915
  252TMC3    C1 3817   1.657   2.303   9.024 -0.1440 -0.2586 -0.9781
  252TMC3    C2 3818   1.747   2.403   9.040  0.0513  0.3809 -0.4041
  252TMC3    C3 3819   1.761   2.461   9.161 -0.1335  0.6976 -0.4373
  252TMC3    C4 3820   1.561   2.279   9.116  0.4964 -0.2726  0.2860
  252TMC3    C5 3821   1.568   2.346   9.235  0.8260 -0.5988 -0.3559
  252TMC3    C6 3822   1.670   2.438   9.263 -0.2400 -0.3862 -0.7842
  252TMC3     C 3823   1.655   2.235   8.899  0.0118  0.8846  0.2293
  252TMC3     O 3824   1.708   2.297   8.809 -0.1415  1.0677  0.4471
  252TMC3     H 3825   1.826   2.432   8.971  0.8413 -3.8651 -1.2660
  252TMC3    H1 3826   1.470   2.228   9.087 -1.7683  2.2867  2.9218
  252TMC3    H2 3827   1.689   2.467   9.366 -2.3197 -2.3830  0.1541
  252TMC3    C7 3828   1.453   2.332   9.320 -0.2193  0.2389  0.5746
  252TMC3    C8 3829   1.846   2.575   9.168 -0.5210 -0.0499 -0.9246
  252TMC3    O1 3830   1.460   2.411   9.414 -0.9366  0.3617 -0.1192
  252TMC3    O2 3831   1.930   2.583   9.081 -0.9941  0.2710  0.2769
  253MPD2     C 3832   1.993   1.878  14.809 -0.5304  0.4753  0.1653
  253MPD2    C1 3833   1.861   1.843  14.840  0.2210 -0.5902 -0.7588
  253MPD2    C2 3834   1.834   1.787  14.964  0.0925 -0.1952  0.7472
  253MPD2    C3 3835   1.926   1.779  15.059  0.1591  0.2104 -0.1488
  253MPD2    C4 3836   2.055   1.818  15.030  0.3647 -0.1104  0.2843
  253MPD2    C5 3837   2.083   1.864  14.907 -0.2983 -0.3411 -0.0131
  253MPD2     H 3838   1.729   1.775  14.989  0.5226  1.0200  3.1204
  253MPD2    H1 3839   2.130   1.824  15.108 -0.9079 -1.4350  1.6150
  253MPD2    H2 3840   2.025   1.918  14.714 -0.1510  0.2257  0.1870
  253MPD2    H3 3841   2.186   1.890  14.886 -0.4273  1.1789  1.2533
  253MPD2     N 3842   1.894   1.744  15.191  0.2930  0.1535 -0.1944
  253MPD2    H5 3843   1.960   1.762  15.265 -1.4874 -0.5884  1.5968
  253MPD2    N1 3844   1.751   1.852  14.753  0.0143  0.5394  0.2257
  253MPD2    H7 3845   1.667   1.799  14.777  0.6314 -0.6182 -0.1590
  254TMC3    C1 3846   1.755   1.711  15.371  0.4671 -0.4073  0.1938
  254TMC3    C2 3847   1.631   1.743  15.407  0.5094 -0.0144  0.0654
  254TMC3    C3 3848   1.584   1.696  15.527 -0.4944  0.2485 -0.3343
  254TMC3    C4 3849   1.830   1.636  15.456  0.0286  0.0433  0.2791
  254TMC3    C5 3850   1.781   1.589  15.572  0.1162  0.1829  0.1692
  254TMC3    C6 3851   1.653   1.616  15.612 -0.6320 -0.2335  0.4425
  254TMC3     C 3852   1.774   1.694  15.230 -0.0627 -0.3280  0.3473
  254TMC3     O 3853   1.682   1.656  15.161  0.2724 -0.5368 -0.5089
  254TMC3     H 3854   1.563   1.796  15.340  0.1710 -0.5002  0.0211
  254TMC3    H1 3855   1.930   1.603  15.428  0.5579  1.9318 -0.0805
  254TMC3    H2 3856   1.622   1.593  15.713  0.1704  0.8959  0.9396
  254TMC3    C7 3857   1.874   1.568  15.681  0.2213 -0.6397  0.1602
  254TMC3    C8 3858   1.470   1.751  15.594 -0.6656  0.4174 -0.3141
  254TMC3    O1 3859   1.837   1.477  15.757 -0.3780  0.9027 -0.3082
  254TMC3    O2 3860   1.439   1.708  15.702  0.6435  0.7060  0.2982
  255MPD2     C 3861   0.940   4.383  10.406 -0.1207  0.1248 -0.5800
  255MPD2    C1 3862   0.870   4.389  10.287 -0.1094 -0.4673 -0.1826
  255MPD2    C2 3863   0.940   4.370  10.167  0.4366  0.4089  0.0356
  255MPD2    C3 3864   1.082   4.345  10.169  0.2698 -0.5801 -0.1513
  255MPD2    C4 3865   1.146   4.344  10.289  0.0767  0.2726 -0.1364
  255MPD2    C5 3866   1.071   4.351  10.404 -0.2370  0.5047  0.0176
  255MPD2     H 3867   0.904   4.386  10.066  3.3315  1.0212 -0.9068
  255MPD2    H1 3868   1.254   4.332  10.298  0.0912  1.1647  0.8623
  255MPD2    H2 3869   0.883   4.394  10.497 -0.2454 -0.3170 -0.6048
  255MPD2    H3 3870   1.122   4.351  10.499  0.4714 -0.3835 -0.3564
  255MPD2     N 3871   1.147   4.326  10.040 -0.1628 -0.0264 -0.3688
  255MPD2    H5 3872   1.093   4.333   9.955 -0.6543  1.1860  0.0425
  255MPD2    N1 3873   0.734   4.416  10.296  0.2911 -0.5072 -0.0701
  255MPD2    H7 3874   0.709   4.412  10.395 -1.7261 -0.2382 -0.5686
  256TMC3    C1 3875   0.519   4.423  10.211  0.2539  0.2630  0.0761
  256TMC3    C2 3876   0.435   4.450  10.104 -0.3394  0.6029  0.2089
  256TMC3    C3 3877   0.303   4.438  10.132  0.1950 -0.2857  0.2633
  256TMC3    C4 3878   0.468   4.378  10.332  0.0816 -0.3560 -0.1827
  256TMC3    C5 3879   0.334   4.385  10.359 -0.1661  0.1738 -0.3718
  256TMC3    C6 3880   0.252   4.416  10.254 -0.2945 -0.3939  0.3025
  256TMC3     C 3881   0.657   4.449  10.189 -0.5726 -0.3091  0.4585
  256TMC3     O 3882   0.695   4.490  10.080 -0.3302  0.5290 -0.1739
  256TMC3     H 3883   0.478   4.475  10.008  0.5113 -3.3172 -0.4441
  256TMC3    H1 3884   0.536   4.348  10.411  1.6390 -0.0103 -1.3884
  256TMC3    H2 3885   0.147   4.395  10.266  0.0976 -1.0520  2.5879
  256TMC3    C7 3886   0.287   4.277  10.448  0.3828  0.1228  0.1128
  256TMC3    C8 3887   0.206   4.465  10.023 -0.3469 -1.6399 -0.8563
  256TMC3    O1 3888   0.366   4.184  10.459 -0.0509 -0.0493  0.1747
  256TMC3    O2 3889   0.106   4.526  10.054 -0.0674 -0.0190  0.0557
  257MPD2     C 3890   4.284   2.282  12.977 -0.3519 -0.1407  0.1957
  257MPD2    C1 3891   4.163   2.231  12.939  0.2242  0.5326  0.0721
  257MPD2    C2 3892   4.107   2.134  13.028 -0.4547  0.1311 -0.4891
  257MPD2    C3 3893   4.166   2.107  13.147 -0.4963 -0.3231  0.7492
  257MPD2    C4 3894   4.291   2.157  13.175  0.5959 -0.2809 -0.0254
  257MPD2    C5 3895   4.355   2.241  13.089 -0.6280 -0.0615 -0.0551
  257MPD2     H 3896   4.017   2.080  13.001 -0.9615  0.2693  0.9378
  257MPD2    H1 3897   4.332   2.118  13.268  1.0815 -0.2225 -0.2131
  257MPD2    H2 3898   4.332   2.358  12.916 -1.1757  0.0812 -0.1777
  257MPD2    H3 3899   4.453   2.275  13.119 -0.2227  0.9050 -2.4664
  257MPD2     N 3900   4.097   2.011  13.220  0.3282 -0.4517 -0.1558
  257MPD2    H5 3901   4.003   1.998  13.184  0.4735 -1.0915 -0.3041
  257MPD2    N1 3902   4.101   2.285  12.826 -0.3035  0.1416 -0.6398
  257MPD2    H7 3903   4.148   2.366  12.788 -1.2126  0.1429 -1.7493
  258TMC3    C1 3904   4.053   1.861  13.413 -0.5288 -0.0309 -0.2752
  258TMC3    C2 3905   3.971   1.789  13.339 -0.2859  0.3634  0.3351
  258TMC3    C3 3906   3.895   1.698  13.402 -0.5736  0.2032  0.2372
  258TMC3    C4 3907   4.077   1.842  13.541 -0.6426 -0.0863 -0.4407
  258TMC3    C5 3908   3.994   1.755  13.603  0.7305 -0.2825 -0.7178
  258TMC3    C6 3909   3.901   1.678  13.534  0.5648 -0.4536  0.0503
  258TMC3     C 3910   4.138   1.958  13.343 -0.2204 -0.5111  0.1707
  258TMC3     O 3911   4.241   1.979  13.407 -0.5360 -0.1057 -0.0472
  258TMC3     H 3912   3.968   1.802  13.231  1.1428  0.1362  0.2685
  258TMC3    H1 3913   4.141   1.907  13.599 -1.2009 -2.2887  2.6285
  258TMC3    H2 3914   3.848   1.595  13.579  0.2987  0.2221  0.9814
  258TMC3    C7 3915   4.045   1.706  13.724  0.2206 -0.3734  0.1695
  258TMC3    C8 3916   3.832   1.600  13.320  0.2425 -0.0888 -0.0443
  258TMC3    O1 3917   4.139   1.761  13.781 -0.3947 -0.1224  0.0296
  258TMC3    O2 3918   3.870   1.595  13.205  0.1273 -0.7805  0.1184
  259MPD2     C 3919   3.157   2.228   1.692  0.5739 -0.1036 -0.9144
  259MPD2    C1 3920   3.063   2.265   1.602  0.3610  1.1083 -0.6500
  259MPD2    C2 3921   3.089   2.251   1.459 -0.0001  0.1990 -0.2062
  259MPD2    C3 3922   3.210   2.193   1.422  0.2498  0.3050  0.1205
  259MPD2    C4 3923   3.299   2.152   1.518 -0.1889  0.5296 -0.0599
  259MPD2    C5 3924   3.276   2.173   1.653  0.0570  0.6884  0.7213
  259MPD2     H 3925   3.014   2.273   1.384 -0.9392  1.1872  1.0267
  259MPD2    H1 3926   3.387   2.094   1.493 -0.7720 -0.1240 -0.5917
  259MPD2    H2 3927   3.140   2.239   1.798  0.8178  0.3413 -0.9200
  259MPD2    H3 3928   3.347   2.155   1.732 -0.5907 -1.4521  0.8093
  259MPD2     N 3929   3.222   2.169   1.282 -0.5682  0.1205 -0.2537
  259MPD2    H5 3930   3.146   2.206   1.225 -1.9331 -1.2765  0.6759
  259MPD2    N1 3931   2.945   2.318   1.654 -0.2460 -0.5013  0.1401
  259MPD2    H7 3932   2.928   2.306   1.753 -1.0580 -0.3667  0.0190
  260TMC3    C1 3933   3.310   2.090   1.079  0.6994 -0.2072  0.9877
  260TMC3    C2 3934   3.413   2.045   1.006  0.4292  0.7721  0.5679
  260TMC3    C3 3935   3.395   2.015   0.878  0.3360  0.3788 -0.1937
  260TMC3    C4 3936   3.185   2.091   1.029 -0.1736  0.1840  0.4686
  260TMC3    C5 3937   3.168   2.047   0.901  0.0816 -0.1077  0.6030
  260TMC3    C6 3938   3.269   2.010   0.821  0.1851  0.2383  0.0902
  260TMC3     C 3939   3.324   2.101   1.222  0.1349  0.1821  0.6783
  260TMC3     O 3940   3.433   2.072   1.268  0.1658  0.6118  0.0229
  260TMC3     H 3941   3.513   2.041   1.048  0.7072  0.1648 -0.1479
  260TMC3    H1 3942   3.098   2.101   1.093 -1.1652 -0.0342 -0.8609
  260TMC3    H2 3943   3.253   1.944   0.736  2.5011 -1.0050  0.5989
  260TMC3    C7 3944   3.025   2.056   0.847 -0.7227  0.0722  0.4444
  260TMC3    C8 3945   3.504   1.946   0.818  0.6827 -0.6483  0.3349
  260TMC3    O1 3946   2.931   2.053   0.926  0.3820 -0.3251 -0.4254
  260TMC3    O2 3947   3.586   1.896   0.893 -0.0940  0.1223  0.1861
  261MPD2     C 3948   0.240   1.423  11.838  0.6045 -0.0108  0.1948
  261MPD2    C1 3949   0.219   1.553  11.846  0.3348  0.4982 -0.2505
  261MPD2    C2 3950   0.216   1.628  11.726  0.0959  0.1766 -0.3570
  261MPD2    C3 3951   0.223   1.571  11.599 -0.5062  0.1024  0.1963
  261MPD2    C4 3952   0.265   1.441  11.598 -0.6036  0.1367 -0.3475
  261MPD2    C5 3953   0.269   1.367  11.716  0.1567  0.3827 -0.1573
  261MPD2     H 3954   0.196   1.735  11.728 -1.5536 -0.0974 -1.3456
  261MPD2    H1 3955   0.285   1.383  11.509 -0.1260  0.3299 -0.3634
  261MPD2    H2 3956   0.245   1.363  11.929  0.5705 -0.1395  0.1121
  261MPD2    H3 3957   0.282   1.260  11.704 -0.4423  0.2741  0.1203
  261MPD2     N 3958   0.201   1.658  11.496  0.1077  0.0661 -0.5767
  261MPD2    H5 3959   0.182   1.757  11.511  0.5458  0.2755 -1.3991
  261MPD2    N1 3960   0.192   1.605  11.975  0.3184 -0.7247  0.4839
  261MPD2    H7 3961   0.192   1.545  12.057  0.7852 -0.8437  0.3967
  262TMC3    C1 3962   0.209   1.725  11.270  0.5175 -0.5433  0.6279
  262TMC3    C2 3963   0.179   1.855  11.298  0.3871 -0.0995  0.7876
  262TMC3    C3 3964   0.175   1.940  11.192  0.1340 -0.5861 -0.4852
  262TMC3    C4 3965   0.231   1.683  11.141  0.1424 -0.0724 -0.5544
  262TMC3    C5 3966   0.226   1.777  11.039 -0.3746  0.4748 -0.1199
  262TMC3    C6 3967   0.186   1.905  11.060  0.3405 -0.4718  0.0707
  262TMC3     C 3968   0.216   1.619  11.366  0.1904 -1.0697 -0.0912
  262TMC3     O 3969   0.233   1.505  11.319 -0.0623 -0.3014  1.3138
  262TMC3     H 3970   0.182   1.898  11.398 -2.8217 -0.2944  0.9640
  262TMC3    H1 3971   0.265   1.585  11.109 -1.2119 -0.8758  0.4577
  262TMC3    H2 3972   0.182   1.984  10.986 -0.6331 -0.4689  0.1272
  262TMC3    C7 3973   0.267   1.727  10.908 -0.2231  0.6964  0.2437
  262TMC3    C8 3974   0.158   2.081  11.217  0.5572 -0.1174  0.1740
  262TMC3    O1 3975   0.246   1.609  10.876 -0.5025 -0.1251  0.2447
  262TMC3    O2 3976   0.191   2.155  11.129  0.3497 -0.1702 -0.1179
  263MPD2     C 3977   0.916   1.245  11.344 -0.5225  0.5343  0.2300
  263MPD2    C1 3978   1.038   1.227  11.288 -0.2812  0.1078 -0.6548
  263MPD2    C2 3979   1.043   1.225  11.148 -0.3763  0.3229 -0.2149
  263MPD2    C3 3980   0.933   1.255  11.080  0.7251  0.2793 -0.4720
  263MPD2    C4 3981   0.808   1.285  11.140  0.3009 -0.0982  0.2015
  263MPD2    C5 3982   0.802   1.281  11.280 -0.8890  1.0037 -0.5461
  263MPD2     H 3983   1.136   1.199  11.098  0.9482  1.5626  1.5811
  263MPD2    H1 3984   0.721   1.297  11.076  0.4830 -1.1831 -0.2458
  263MPD2    H2 3985   0.910   1.250  11.452  2.4839 -0.4163  0.4454
  263MPD2    H3 3986   0.717   1.324  11.332  1.0979  4.2772  0.0310
  263MPD2     N 3987   0.934   1.270  10.936 -0.8983 -0.2381  0.3867
  263MPD2    H5 3988   0.843   1.282  10.892  0.6906  0.2960 -2.7369
  263MPD2    N1 3989   1.147   1.206  11.386 -0.0188  0.1484 -0.2658
  263MPD2    H7 3990   1.118   1.193  11.482 -1.6034 -0.6740 -0.8554
  264TMC3    C1 3991   1.020   1.326  10.721 -0.1683 -0.1679  0.0179
  264TMC3    C2 3992   0.927   1.428  10.707  0.2544 -0.2069  0.5641
  264TMC3    C3 3993   0.925   1.492  10.583 -0.3276 -0.2625  0.7005
  264TMC3    C4 3994   1.105   1.280  10.623  0.2142  1.1357  0.8800
  264TMC3    C5 3995   1.087   1.344  10.500  0.1132  0.1923 -0.7976
  264TMC3    C6 3996   0.995   1.443  10.473  0.2103  0.1971 -0.3329
  264TMC3     C 3997   1.044   1.283  10.854  0.6108  0.2163 -0.4174
  264TMC3     O 3998   1.159   1.248  10.877 -0.3820  0.2665 -0.3582
  264TMC3     H 3999   0.881   1.475  10.793  1.2902  0.4273  0.7779
  264TMC3    H1 4000   1.189   1.215  10.643 -2.6252 -2.7781  0.0872
  264TMC3    H2 4001   0.986   1.488  10.375 -1.4947 -0.9873 -0.7291
  264TMC3    C7 4002   1.208   1.367  10.430  0.2211 -0.4109 -0.5635
  264TMC3    C8 4003   0.930   1.641  10.574 -0.3043  0.4067  0.1613
  264TMC3    O1 4004   1.298   1.281  10.417 -0.0028  0.4575  0.0088
  264TMC3    O2 4005   1.009   1.692  10.496 -0.0323 -0.1042 -0.1893
  265MPD2     C 4006   2.696   1.538  15.245  0.0548  0.2820 -0.9052
  265MPD2    C1 4007   2.759   1.656  15.209  0.4604  0.5553  0.0733
  265MPD2    C2 4008   2.846   1.649  15.102 -0.6447 -0.1271 -0.0690
  265MPD2    C3 4009   2.858   1.539  15.024  0.5827  1.0166 -0.0050
  265MPD2    C4 4010   2.777   1.427  15.047 -0.7096  0.1342  1.0499
  265MPD2    C5 4011   2.699   1.427  15.160  0.4522 -0.2581  0.2597
  265MPD2     H 4012   2.903   1.736  15.073 -1.4676 -0.0720 -1.5550
  265MPD2    H1 4013   2.789   1.338  14.987  0.9339  0.2004  1.2806
  265MPD2    H2 4014   2.626   1.544  15.328  1.5634  1.5162  0.2714
  265MPD2    H3 4015   2.628   1.350  15.185 -1.0619  1.7431  2.1496
  265MPD2     N 4016   2.949   1.521  14.918  0.1534 -0.0708 -0.1619
  265MPD2    H5 4017   2.972   1.427  14.891 -1.9868 -0.8346  0.6038
  265MPD2    N1 4018   2.743   1.782  15.271 -0.0816 -0.4757 -0.3240
  265MPD2    H7 4019   2.764   1.864  15.214 -1.6151  1.8391  2.4942
  266TMC3    C1 4020   2.703   1.940  15.447  0.2774 -0.1084 -0.2499
  266TMC3    C2 4021   2.660   1.965  15.583 -0.4696  0.2935 -0.6875
  266TMC3    C3 4022   2.656   2.097  15.617  0.3888  0.2345  0.1646
  266TMC3    C4 4023   2.732   2.043  15.355  0.4259  0.0891  0.8698
  266TMC3    C5 4024   2.719   2.170  15.397 -0.9247  0.4547 -0.1700
  266TMC3    C6 4025   2.681   2.200  15.529  0.4111 -0.6003 -0.8217
  266TMC3     C 4026   2.688   1.802  15.393 -0.4696  0.3188 -0.3969
  266TMC3     O 4027   2.653   1.724  15.481  0.2728  0.0660 -0.0372
  266TMC3     H 4028   2.631   1.885  15.651 -0.1547 -0.8320 -1.8908
  266TMC3    H1 4029   2.770   2.025  15.255  0.9170 -1.4336  1.3207
  266TMC3    H2 4030   2.671   2.300  15.569 -2.3739 -1.7851  1.4418
  266TMC3    C7 4031   2.771   2.268  15.309  0.0278 -0.1925 -0.0769
  266TMC3    C8 4032   2.595   2.124  15.750  0.0687 -0.1532  0.0311
  266TMC3    O1 4033   2.825   2.230  15.201  0.1378 -0.2100 -0.1129
  266TMC3    O2 4034   2.521   2.040  15.799  1.0783  0.0978 -0.2019
  267MPD2     C 4035   4.522   2.660  17.427  0.3283  0.7199 -0.3037
  267MPD2    C1 4036   4.650   2.657  17.371 -0.5426  0.1397 -0.0897
  267MPD2    C2 4037   4.664   2.674  17.235  0.3853  0.0796  0.4206
  267MPD2    C3 4038   4.557   2.706  17.153 -0.3227  0.0629 -0.6140
  267MPD2    C4 4039   4.430   2.719  17.214  1.0865 -0.2320  0.3970
  267MPD2    C5 4040   4.416   2.685  17.345  0.6153  0.4021 -0.1530
  267MPD2     H 4041   0.038   2.658  17.190  1.0246 -0.1918  1.8912
  267MPD2    H1 4042   4.346   2.742  17.150  0.4940  0.5393  1.4560
  267MPD2    H2 4043   4.497   2.644  17.532  2.6101  0.4693  0.2117
  267MPD2    H3 4044   4.319   2.690  17.394  0.3553 -0.4245 -0.5925
  267MPD2     N 4045   4.557   2.704  17.010 -0.0281 -0.4508 -0.0410
  267MPD2    H5 4046   4.467   2.717  16.964  1.8690  1.2005 -3.2856
  267MPD2    N1 4047   0.037   2.629  17.459 -0.5724  0.7781  0.5153
  267MPD2    H7 4048   0.014   2.603  17.554 -1.7576  0.9843  0.2942
  268TMC3    C1 4049   0.241   2.648  17.561  0.2699  0.5257 -0.5623
  268TMC3    C2 4050   0.340   2.744  17.572 -0.1492 -0.4552  0.9892
  268TMC3    C3 4051   0.416   2.740  17.689 -0.3948 -0.3757  0.1311
  268TMC3    C4 4052   0.225   2.544  17.647  0.2499 -0.1704 -0.0705
  268TMC3    C5 4053   0.300   2.546   0.069  0.3797 -0.2049  0.2822
  268TMC3    C6 4054   0.397   2.640   0.090 -0.0791 -0.6891  0.7488
  268TMC3     C 4055   0.167   2.657  17.440 -0.1874 -0.2730  0.6193
  268TMC3     O 4056   0.231   2.690  17.342  0.7771 -0.4073 -0.3119
  268TMC3     H 4057   0.333   2.825  17.501 -0.4826 -0.4037  1.0777
  268TMC3    H1 4058   0.183   2.453  17.605  0.0358 -0.0674 -0.0799
  268TMC3    H2 4059   0.447   2.644   0.185 -0.0750  0.6633  0.6937
  268TMC3    C7 4060   0.293   2.432   0.153 -0.1856  0.3390  0.0515
  268TMC3    C8 4061   0.501   2.848   0.030  0.3790 -1.0054 -0.5293
  268TMC3    O1 4062   0.381   2.432   0.238 -0.8037  0.4014 -0.3010
  268TMC3    O2 4063   0.533   2.869   0.146 -0.4188 -0.9000 -0.2215
  269MPD2     C 4064   0.904   2.169  15.408 -0.1090  0.2813  0.4851
  269MPD2    C1 4065   0.787   2.218  15.458  0.6846  0.2009 -0.6426
  269MPD2    C2 4066   0.768   2.359  15.457 -0.4214  0.2326 -0.5709
  269MPD2    C3 4067   0.857   2.441  15.394 -0.4035 -0.2756  0.3915
  269MPD2    C4 4068   0.960   2.386  15.327 -0.7687  0.0326  0.4355
  269MPD2    C5 4069   0.981   2.250  15.331  0.9764 -0.0370 -0.1741
  269MPD2     H 4070   0.680   2.403  15.502  0.2126 -0.2111  1.0966
  269MPD2    H1 4071   1.039   2.446  15.282  0.1588  0.8309  3.1143
  269MPD2    H2 4072   0.917   2.061  15.409 -1.1247  0.1749  1.9260
  269MPD2    H3 4073   1.067   2.205  15.282  0.4993  0.1488 -1.1650
  269MPD2     N 4074   0.833   2.582  15.401 -0.0294  0.1732 -0.4832
  269MPD2    H5 4075   0.751   2.616  15.451  1.6782  1.6113  1.3182
  269MPD2    N1 4076   0.692   2.129  15.514  0.5456  0.0395  0.7630
  269MPD2    H7 4077   0.722   2.035  15.536 -0.8907 -0.0619  2.3243
  270TMC3    C1 4078   0.491   2.036  15.593  0.6058  0.6290 -0.3884
  270TMC3    C2 4079   0.356   2.032  15.578  0.2716  0.1877 -0.7516
  270TMC3    C3 4080   0.300   1.909  15.608  0.2565  0.0777 -0.0868
  270TMC3    C4 4081   0.563   1.941  15.658 -0.1570  0.1492  0.2204
  270TMC3    C5 4082   0.495   1.831  15.698 -0.4235 -0.4644 -0.8824
  270TMC3    C6 4083   0.361   1.809  15.673 -0.8831 -0.0470 -0.0922
  270TMC3     C 4084   0.554   2.156  15.542  0.5313  0.2721  0.0621
  270TMC3     O 4085   0.485   2.244  15.491  0.1028 -0.2051 -0.0225
  270TMC3     H 4086   0.297   2.105  15.524 -1.6784 -0.4957  0.4504
  270TMC3    H1 4087   0.668   1.957  15.678 -0.5479  0.5774  1.9423
  270TMC3    H2 4088   0.298   1.726  15.702 -0.1359 -0.1083  1.3440
  270TMC3    C7 4089   0.580   1.711  15.705  0.1153 -0.1840  0.0913
  270TMC3    C8 4090   0.177   1.880  15.536  0.5768 -0.0372 -0.4704
  270TMC3    O1 4091   0.696   1.724  15.673  0.0489 -0.1334  0.1210
  270TMC3    O2 4092   0.097   1.972  15.531 -0.1277  0.3328 -0.2048
  271MPD2     C 4093   0.051   2.011  13.763  0.0835 -0.3740  0.1539
  271MPD2    C1 4094   4.694   2.015  13.876  0.6923  0.6154 -0.3324
  271MPD2    C2 4095   4.570   2.073  13.860  0.5470  0.2697 -0.1651
  271MPD2    C3 4096   4.537   2.137  13.745 -0.3287 -0.0313 -0.0204
  271MPD2    C4 4097   4.627   2.151  13.645  0.3196  0.2583  0.0816
  271MPD2    C5 4098   0.017   2.088  13.658 -0.5330 -0.3581  0.4963
  271MPD2     H 4099   4.503   2.068  13.945  1.3371 -0.5803  0.4009
  271MPD2    H1 4100   4.618   2.197  13.547 -1.9660  1.2459  0.7513
  271MPD2    H2 4101   0.139   1.947  13.760 -0.2556 -0.8805  1.2107
  271MPD2    H3 4102   0.079   2.079  13.570 -0.2472  1.1950  0.5356
  271MPD2     N 4103   4.411   2.188  13.719 -0.2802  0.3493  0.4233
  271MPD2    H5 4104   4.394   2.232  13.629 -0.9115 -2.0008 -0.5893
  271MPD2    N1 4105   4.720   1.944  13.998 -0.5924 -0.4252  0.1525
  271MPD2    H7 4106   4.639   1.929  14.057  0.8387  1.2480  2.5553
  272TMC3    C1 4107   0.117   1.811  14.158 -0.7890  0.1513 -0.6319
  272TMC3    C2 4108   0.217   1.720  14.170  0.6948  0.4242 -0.1602
  272TMC3    C3 4109   0.232   1.655  14.294  0.0724 -0.2116 -0.0416
  272TMC3    C4 4110   0.025   1.835  14.256 -0.0689 -0.0057  0.1909
  272TMC3    C5 4111   0.047   1.770  14.377 -0.7607  0.6968  0.1439
  272TMC3    C6 4112   0.150   1.682  14.400  0.2778  0.1909 -0.1916
  272TMC3     C 4113   0.118   1.880  14.028  0.4474  0.1016 -0.5255
  272TMC3     O 4114   0.225   1.870  13.968 -0.0769  0.3301  0.0445
  272TMC3     H 4115   0.282   1.698  14.086 -0.3769  1.9163 -1.3730
  272TMC3    H1 4116   4.664   1.904  14.245  1.1322  1.8766  2.9842
  272TMC3    H2 4117   0.159   1.642  14.501  0.7307 -0.7425 -0.6004
  272TMC3    C7 4118   4.686   1.805  14.489 -0.2575  0.4563  0.1171
  272TMC3    C8 4119   0.333   1.555  14.298 -0.4533  0.1640 -0.2236
  272TMC3    O1 4120   4.566   1.786  14.479  0.0266  0.2804 -0.1180
  272TMC3    O2 4121   0.399   1.551  14.199  0.9203  0.0955  0.0337
  273MPD2     C 4122   1.898   4.497  11.734 -0.3115 -0.8210  0.3716
  273MPD2    C1 4123   2.004   4.583  11.740  0.0216  0.0099 -0.4927
  273MPD2    C2 4124   2.037   4.652  11.630 -0.7431  0.5061  0.7713
  273MPD2    C3 4125   1.963   4.634  11.509 -0.6512  0.3186 -0.4084
  273MPD2    C4 4126   1.853   4.545  11.505  0.2226  0.5566  0.3133
  273MPD2    C5 4127   1.823   4.475  11.622 -0.2453  0.0067  0.4802
  273MPD2     H 4128   2.120   4.722  11.633  1.2856 -1.9280  0.8738
  273MPD2    H1 4129   1.785   4.534  11.421 -0.0342  1.9129  0.3523
  273MPD2    H2 4130   1.847   4.438  11.810  0.5145 -2.6443 -0.4964
  273MPD2    H3 4131   1.742   4.406  11.638 -0.6484  0.4514  0.3515
  273MPD2     N 4132   1.974   4.717  11.396 -0.0722 -0.6555 -0.0507
  273MPD2    H5 4133   1.909   4.696  11.321 -1.6080  1.3725  0.7230
  273MPD2    N1 4134   2.072   4.614  11.862 -0.3913  0.5559 -0.2805
  273MPD2    H7 4135   2.149   4.679  11.849  0.6123 -0.3893  0.9901
  274TMC3    C1 4136   2.043   0.188  11.270  0.1579  0.0131  0.6650
  274TMC3    C2 4137   2.000   0.133  11.149  0.7151 -0.6203 -0.1905
  274TMC3    C3 4138   1.976   0.227  11.050 -0.0971 -0.2322 -0.5741
  274TMC3    C4 4139   2.060   0.320  11.284 -1.1327  0.7300  0.1250
  274TMC3    C5 4140   2.049   0.410  11.181  0.7151 -0.0545  0.4659
  274TMC3    C6 4141   2.009   0.360  11.058 -0.1661  0.2444  0.3793
  274TMC3     C 4142   2.060   0.105  11.389  0.7120 -0.2770 -0.0548
  274TMC3     O 4143   2.128   0.152  11.484  0.3895 -0.0905  0.1522
  274TMC3     H 4144   1.981   0.027  11.138 -0.1386 -0.1809 -2.8069
  274TMC3    H1 4145   2.091   0.346  11.385  0.2871  0.8774 -0.3470
  274TMC3    H2 4146   1.958   0.427  10.990 -0.3615  0.3623  0.6423
  274TMC3    C7 4147   1.968   0.522  11.219  0.0146  0.0144 -0.7171
  274TMC3    C8 4148   1.883   0.178  10.949  0.2412 -0.1481  0.4595
  274TMC3    O1 4149   1.897   0.512  11.319  0.4965 -0.6656  0.3916
  274TMC3    O2 4150   1.821   0.079  10.985 -0.4079 -0.1344 -0.3876
  275MPD2     C 4151   1.173   3.048  14.061  0.3144  0.0852 -0.0377
  275MPD2    C1 4152   1.142   3.053  14.197  0.1559 -0.0891  0.8550
  275MPD2    C2 4153   1.042   2.970  14.237  0.5632 -0.0948  0.7434
  275MPD2    C3 4154   0.971   2.887  14.143 -0.1281  0.2342  0.2964
  275MPD2    C4 4155   1.010   2.878  14.014 -0.0481  0.1962 -0.9561
  275MPD2    C5 4156   1.110   2.964  13.979 -0.8061  0.0986  0.0324
  275MPD2     H 4157   1.036   2.951  14.344 -1.4784 -3.7979 -0.0280
  275MPD2    H1 4158   0.975   2.810  13.938 -0.1259 -1.5871  0.6904
  275MPD2    H2 4159   1.258   3.102  14.020  0.8758  0.5498  1.7348
  275MPD2    H3 4160   1.143   2.961  13.876 -0.3893 -0.2768  0.1755
  275MPD2     N 4161   0.875   2.789  14.188  0.0052 -0.5146 -0.5311
  275MPD2    H5 4162   0.874   2.715  14.118 -0.7024  2.1713 -3.3897
  275MPD2    N1 4163   1.214   3.124  14.294  0.2606  0.3963  0.2458
  275MPD2    H7 4164   1.171   3.136  14.386 -0.7830 -0.9299 -0.0645
  276TMC3    C1 4165   1.394   3.139  14.418 -0.6865 -0.0599 -0.6532
  276TMC3    C2 4166   1.328   3.067  14.509 -0.3147  0.3726 -0.3150
  276TMC3    C3 4167   1.389   3.004  14.610  1.2708  0.7069  0.2334
  276TMC3    C4 4168   1.531   3.154  14.434  0.5637  0.0952 -0.3895
  276TMC3    C5 4169   1.587   3.090  14.538 -0.2541 -0.6279  0.5770
  276TMC3    C6 4170   1.523   3.004  14.625 -0.2935  1.2069  0.4186
  276TMC3     C 4171   1.343   3.164  14.286  0.7679  0.7193  0.9551
  276TMC3     O 4172   1.428   3.147  14.197 -0.2015 -0.1736 -0.6435
  276TMC3     H 4173   1.220   3.062  14.523 -0.0721  3.6585  2.6718
  276TMC3    H1 4174   1.591   3.212  14.365  2.2144  0.9065  1.6903
  276TMC3    H2 4175   1.574   2.955  14.707 -0.5688  0.4330  0.1292
  276TMC3    C7 4176   1.728   3.123  14.560  1.3455 -0.5230 -0.1699
  276TMC3    C8 4177   1.306   2.901  14.673  0.1400  0.2419 -0.4985
  276TMC3    O1 4178   1.796   3.143  14.460  0.0733  0.0912  0.1832
  276TMC3    O2 4179   1.188   2.919  14.695 -0.4148  0.3159 -0.1848
  277MPD2     C 4180   3.406   1.876  13.216  0.3194 -1.4471  0.0820
  277MPD2    C1 4181   3.263   1.881  13.213  0.4525 -0.0283 -0.9158
  277MPD2    C2 4182   3.190   1.838  13.321 -0.8714  0.3454 -0.4297
  277MPD2    C3 4183   3.251   1.810  13.441 -0.1994 -0.3322 -0.1805
  277MPD2    C4 4184   3.389   1.817  13.450  0.5176 -0.5626 -0.8938
  277MPD2    C5 4185   3.463   1.843  13.339  0.3182  0.5016 -0.1992
  277MPD2     H 4186   3.082   1.835  13.317 -0.8469 -2.5745  1.4230
  277MPD2    H1 4187   3.441   1.796  13.542 -0.6263  1.0758  0.1395
  277MPD2    H2 4188   3.459   1.903  13.125  0.0471  0.0146  0.3480
  277MPD2    H3 4189   3.572   1.842  13.344  0.3045  0.1380  0.0236
  277MPD2     N 4190   3.175   1.757  13.543  0.1244  0.1678 -0.3566
  277MPD2    H5 4191   3.078   1.740  13.520  0.1261  1.2907 -1.1838
  277MPD2    N1 4192   3.203   1.924  13.091  0.1147  0.6210 -0.4185
  277MPD2    H7 4193   3.268   1.934  13.014  0.5981  2.0136  0.1735
  278TMC3    C1 4194   3.106   1.647  13.726  0.2039 -0.0877 -0.0098
  278TMC3    C2 4195   3.119   1.508  13.752 -0.8392  0.2785  0.1903
  278TMC3    C3 4196   3.011   1.431  13.726 -0.8364 -0.3612 -0.7313
  278TMC3    C4 4197   2.993   1.703  13.680 -0.6906 -0.7349 -0.0558
  278TMC3    C5 4198   2.889   1.625  13.663 -0.9009  0.7061  0.7056
  278TMC3    C6 4199   2.893   1.485  13.673 -0.6518 -0.0648  0.5392
  278TMC3     C 4200   3.224   1.706  13.663  0.2318 -0.9902 -0.0186
  278TMC3     O 4201   3.335   1.684  13.708  0.2160 -0.1064  0.0050
  278TMC3     H 4202   3.217   1.476  13.787 -1.4926 -1.3951  0.4776
  278TMC3    H1 4203   2.969   1.808  13.690 -1.6979 -0.7850 -2.0276
  278TMC3    H2 4204   2.806   1.432  13.635  0.4351  0.6131 -2.9275
  278TMC3    C7 4205   2.792   1.682  13.569 -0.4021  0.0164 -0.5019
  278TMC3    C8 4206   3.044   1.296  13.693  0.3202  0.2891 -0.3847
  278TMC3    O1 4207   2.830   1.768  13.488  0.3497  0.3173 -0.3305
  278TMC3    O2 4208   3.160   1.273  13.696  0.0824 -0.8508  0.5854
  279MPD2     C 4209   2.085   2.178   0.362  0.3208  0.1320  0.0410
  279MPD2    C1 4210   2.020   2.080   0.290 -0.7486  0.3971  0.1782
  279MPD2    C2 4211   2.062   2.057   0.159 -0.4470 -0.2781  0.4859
  279MPD2    C3 4212   2.141   2.151   0.095 -0.3101 -0.2750  0.0136
  279MPD2    C4 4213   2.193   2.253   0.168 -0.2732  1.0571 -0.6780
  279MPD2    C5 4214   2.163   2.270   0.298  0.6013 -0.0020 -0.2490
  279MPD2     H 4215   2.019   1.976   0.102  0.0162  0.3509 -0.7669
  279MPD2    H1 4216   2.266   2.322   0.127 -0.2456  2.1929  1.2971
  279MPD2    H2 4217   2.059   2.192   0.467 -0.6717  2.9970 -0.5825
  279MPD2    H3 4218   2.203   2.358   0.347 -1.9883  0.5933  0.7914
  279MPD2     N 4219   2.158   2.154  17.645  0.1604  0.5615 -0.3917
  279MPD2    H5 4220   2.224   2.223  17.613 -0.0513  0.0983 -1.8101
  279MPD2    N1 4221   1.922   1.993   0.340 -0.1932  0.5141  0.2305
  279MPD2    H7 4222   1.876   1.928   0.277  0.3675  0.4807 -0.1493
  280TMC3    C1 4223   1.732   1.946   0.461  0.1931 -0.3557 -0.1758
  280TMC3    C2 4224   1.744   1.821   0.407  0.3392 -0.6682 -0.4205
  280TMC3    C3 4225   1.630   1.770   0.358  0.6254 -0.3562  0.4392
  280TMC3    C4 4226   1.616   2.010   0.477  0.2923 -0.3588 -0.2207
  280TMC3    C5 4227   1.503   1.955   0.436  0.2962 -0.1481  0.6733
  280TMC3    C6 4228   1.511   1.841   0.358 -0.1387 -0.0265 -0.2477
  280TMC3     C 4229   1.852   2.025   0.457  0.6731 -0.5557 -0.2353
  280TMC3     O 4230   1.853   2.118   0.534 -0.3412  0.2089 -0.6317
  280TMC3     H 4231   1.839   1.778   0.377  1.2507  0.8385  0.3010
  280TMC3    H1 4232   1.618   2.112   0.514 -2.4712 -0.0613 -0.8852
  280TMC3    H2 4233   1.418   1.806   0.316  1.5985  0.0111 -4.2344
  280TMC3    C7 4234   1.396   2.048   0.421  0.0826  0.3722 -0.2865
  280TMC3    C8 4235   1.637   1.651   0.279 -0.5932 -0.2931 -0.6710
  280TMC3    O1 4236   1.371   2.123   0.515 -0.2324  0.5566  0.3705
  280TMC3    O2 4237   1.557   1.636   0.191 -0.3654 -0.0610 -0.4109
  281TMC3    C1 4238   0.629   2.516  13.226  0.4351 -0.0543  0.4293
  281TMC3    C2 4239   0.607   2.586  13.114  0.8545 -0.7889 -0.3376
  281TMC3    C3 4240   0.534   2.535  13.014  0.3528 -0.1083  0.0860
  281TMC3    C4 4241   0.564   2.398  13.255  0.5135  0.1577  0.6518
  281TMC3    C5 4242   0.491   2.341  13.152  0.5043 -0.2486 -0.4432
  281TMC3    C6 4243   0.469   2.413  13.032 -0.7598 -0.4341 -0.0229
  281TMC3     C 4244   0.732   2.549  13.327  0.2111 -0.8436  0.1416
  281TMC3     O 4245   0.766   2.459  13.407  0.3770 -0.2027  0.2638
  281TMC3     H 4246   0.673   2.671  13.107  0.5595 -0.4489  1.0932
  281TMC3    H1 4247   0.576   2.358  13.355  0.0393  3.6728  2.1210
  281TMC3    H2 4248   0.416   2.361  12.953  0.9997 -2.1991 -0.0273
  281TMC3    C7 4249   0.437   2.209  13.152  0.2359  0.1272  0.0750
  281TMC3    C8 4250   0.466   2.623  12.920  0.3347 -0.0399 -0.4478
  281TMC3    O1 4251   0.350   2.171  13.076  0.6224  0.4706 -0.2655
  281TMC3    O2 4252   0.416   2.570  12.819 -0.0530  0.1083  0.0992
  282MPD2     C 4253   2.972   3.292  15.001  0.3880 -1.0403 -0.3066
  282MPD2    C1 4254   2.843   3.325  15.033  0.0660 -0.4542 -0.4226
  282MPD2    C2 4255   2.745   3.319  14.937  0.2872  0.4310 -0.6716
  282MPD2    C3 4256   2.772   3.290  14.807 -0.3141 -0.5486  0.5410
  282MPD2    C4 4257   2.906   3.270  14.777  0.3851  0.3282  0.2094
  282MPD2    C5 4258   3.005   3.272  14.873  1.1810  0.2561  0.4161
  282MPD2     H 4259   2.645   3.330  14.978  1.3375 -0.5123  2.1529
  282MPD2    H1 4260   2.942   3.235  14.680  1.7109  2.1178  0.0575
  282MPD2    H2 4261   3.057   3.293  15.068 -0.1197  3.1250  0.2615
  282MPD2    H3 4262   3.110   3.265  14.847  0.9022  1.1561 -0.9340
  282MPD2     N 4263   2.667   3.272  14.716  0.3973  0.4695 -0.0500
  282MPD2    H5 4264   2.571   3.270  14.748  0.7848  2.0231  1.1933
  282MPD2    N1 4265   2.805   3.360  15.163  0.0035 -0.4145 -0.6166
  282MPD2    H7 4266   2.705   3.361  15.183  0.3441  0.0538  1.0292
  283TMC3    C1 4267   2.811   3.382  15.395 -0.6830  0.0818 -0.2675
  283TMC3    C2 4268   2.875   3.453  15.487  0.6477 -0.5422 -0.2628
  283TMC3    C3 4269   2.833   3.438  15.619  0.0570 -0.8904  0.0740
  283TMC3    C4 4270   2.712   3.295  15.427 -0.5466 -0.1177 -0.8003
  283TMC3    C5 4271   2.689   3.273  15.564 -0.4336 -0.0657 -0.5687
  283TMC3    C6 4272   2.745   3.340  15.665  0.2759 -1.1112  0.4860
  283TMC3     C 4273   2.888   3.373  15.272  0.7642 -0.5416 -0.5186
  283TMC3     O 4274   3.009   3.378  15.270 -0.3219 -0.2341 -0.1222
  283TMC3     H 4275   2.951   3.527  15.465  0.7746 -0.3730  0.7433
  283TMC3    H1 4276   2.659   3.242  15.348 -0.8640 -3.0398  1.4086
  283TMC3    H2 4277   2.704   3.339  15.765  0.3866  0.1144  0.5382
  283TMC3    C7 4278   2.580   3.178  15.600  0.0385 -0.5234  0.1936
  283TMC3    C8 4279   2.853   3.544  15.711  0.1892  0.6985  0.2334
  283TMC3    O1 4280   2.541   3.182  15.715  0.2426  0.1258 -0.4956
  283TMC3    O2 4281   2.876   3.522  15.828  0.0046  0.7336 -0.5410
  284MPD2     C 4282   0.936   2.973  11.387 -0.3110 -0.0417  0.2918
  284MPD2    C1 4283   1.056   3.008  11.451  0.2802 -0.0046 -0.2768
  284MPD2    C2 4284   1.071   2.969  11.580 -0.2663 -0.2998 -0.0410
  284MPD2    C3 4285   0.983   2.896  11.646  0.4646  0.0628 -0.7563
  284MPD2    C4 4286   0.868   2.862  11.584  0.2929 -1.0367 -0.1038
  284MPD2    C5 4287   0.838   2.901  11.458  0.0714  0.1818 -0.2070
  284MPD2     H 4288   1.164   2.986  11.632 -0.1516 -0.5871 -0.1550
  284MPD2    H1 4289   0.799   2.799  11.639 -0.3907  1.1618  1.5862
  284MPD2    H2 4290   0.904   3.004  11.288  2.0391 -2.1163 -1.1170
  284MPD2    H3 4291   0.747   2.875  11.404  0.1756 -0.4090 -0.0967
  284MPD2     N 4292   1.024   2.844  11.774  1.2719 -0.1839  0.0513
  284MPD2    H5 4293   1.111   2.882  11.808  1.2711 -1.8772  1.9095
  284MPD2    N1 4294   1.162   3.061  11.374 -0.3004  0.0132 -0.3912
  284MPD2    H7 4295   1.154   3.070  11.273 -0.4388  2.3986 -0.1891
  285TMC3    C1 4296   1.379   3.090  11.320  0.0268 -0.0800 -0.3536
  285TMC3    C2 4297   1.367   2.998  11.215  0.5541  0.0049  0.6446
  285TMC3    C3 4298   1.471   2.985  11.132 -0.1913 -0.2242 -0.4037
  285TMC3    C4 4299   1.483   3.178  11.331  0.0936  0.2455  0.0142
  285TMC3    C5 4300   1.580   3.163  11.241 -0.5037 -0.4253 -0.5504
  285TMC3    C6 4301   1.578   3.073  11.138  0.3400  0.1972  0.3962
  285TMC3     C 4302   1.283   3.093  11.426  0.2701  0.2763 -0.4759
  285TMC3     O 4303   1.306   3.134  11.536  0.0580 -0.4192  0.3640
  285TMC3     H 4304   1.300   2.914  11.227 -0.3289  0.7514  0.9130
  285TMC3    H1 4305   1.498   3.244  11.416  1.7238 -1.5444  1.0951
  285TMC3    H2 4306   1.653   3.081  11.061 -0.4812 -0.8212 -0.5133
  285TMC3    C7 4307   1.655   3.280  11.210 -0.0073  0.5374 -0.1114
  285TMC3    C8 4308   1.506   2.848  11.093  1.0880 -0.1265  0.4163
  285TMC3    O1 4309   1.721   3.332  11.303  0.3442 -0.2045  0.0133
  285TMC3    O2 4310   1.413   2.777  11.054 -0.2096  0.3755  0.4229
  286MPD2     C 4311   1.028   1.180   1.218  0.0907  0.4734 -0.9600
  286MPD2    C1 4312   1.081   1.214   1.091 -0.4372 -0.0403 -0.2337
  286MPD2    C2 4313   1.203   1.157   1.061  0.0417  0.4657 -0.1728
  286MPD2    C3 4314   1.264   1.077   1.151 -0.9468  0.0804  0.2003
  286MPD2    C4 4315   1.214   1.055   1.276 -0.3764 -0.0262 -0.5273
  286MPD2    C5 4316   1.095   1.107   1.311 -0.1780  0.5318  0.2352
  286MPD2     H 4317   1.257   1.183   0.971  1.6763  0.6674  0.8791
  286MPD2    H1 4318   1.263   0.987   1.344  0.4931  1.3762  0.2509
  286MPD2    H2 4319   0.935   1.216   1.261  0.5866  0.9405 -0.2793
  286MPD2    H3 4320   1.056   1.106   1.412 -2.0904  0.3609 -0.5086
  286MPD2     N 4321   1.399   1.045   1.133  0.1109 -0.3526  0.1227
  286MPD2    H5 4322   1.452   1.013   1.213 -0.2379  0.3932  0.6531
  286MPD2    N1 4323   0.994   1.287   0.999 -0.1003  0.2842 -0.4598
  286MPD2    H7 4324   1.042   1.314   0.914  0.3996 -0.1717 -0.3281
  287TMC3    C1 4325   1.611   1.010   1.033 -0.0260 -0.2677 -0.5994
  287TMC3    C2 4326   1.677   0.968   0.921  0.4540  0.2748 -0.3087
  287TMC3    C3 4327   1.792   0.898   0.935  0.0758  0.1866 -0.7138
  287TMC3    C4 4328   1.651   0.972   1.156  0.5300  0.0511  0.7944
  287TMC3    C5 4329   1.776   0.903   1.169 -0.1348  0.3496 -0.3278
  287TMC3    C6 4330   1.842   0.867   1.055  0.1469 -0.5211  0.5297
  287TMC3     C 4331   1.478   1.059   1.017 -0.0003  0.6589 -0.2299
  287TMC3     O 4332   1.441   1.091   0.906 -0.5421 -0.4474 -0.1055
  287TMC3     H 4333   1.634   0.983   0.823  1.0441 -0.8741 -0.7479
  287TMC3    H1 4334   1.617   1.031   1.240  1.4035 -0.2043  1.3158
  287TMC3    H2 4335   1.938   0.817   1.057  0.2790 -0.2409  1.0632
  287TMC3    C7 4336   1.849   0.919   1.294  0.6761  0.1222  0.0887
  287TMC3    C8 4337   1.850   0.820   0.825 -0.0009 -0.7490 -0.5431
  287TMC3    O1 4338   1.786   0.965   1.388  0.2841  0.4983  0.7041
  287TMC3    O2 4339   1.906   0.715   0.847  0.6047  0.8633 -0.9300
  288TMC3    C1 4340   2.725   1.231  14.579 -0.4430 -0.5311 -0.1884
  288TMC3    C2 4341   2.687   1.172  14.693 -1.0086  0.4973 -0.3805
  288TMC3    C3 4342   2.643   1.050  14.690 -0.2394  0.3931  0.6065
  288TMC3    C4 4343   2.708   1.170  14.448 -0.0320  0.0077  0.4198
  288TMC3    C5 4344   2.660   1.044  14.450  1.2777  0.0021  0.0154
  288TMC3    C6 4345   2.629   0.975  14.566 -0.1196  0.5640 -0.1307
  288TMC3     C 4346   2.752   1.379  14.586 -0.3620 -0.0473 -0.2594
  288TMC3     O 4347   2.734   1.429  14.699 -0.2071 -0.3548 -0.2613
  288TMC3     H 4348   2.702   1.223  14.788 -1.1482 -0.2051  0.0202
  288TMC3    H1 4349   2.742   1.217  14.357 -0.5039 -0.0905  0.1948
  288TMC3    H2 4350   2.598   0.871  14.566  0.5007  0.3741 -2.7413
  288TMC3    C7 4351   2.656   0.972  14.322 -0.6339 -0.4107 -0.0834
  288TMC3    C8 4352   2.635   0.975  14.815  0.1847  0.6751  0.4558
  288TMC3    O1 4353   2.664   1.039  14.222  0.0015 -0.7244 -0.4649
  288TMC3    O2 4354   2.716   1.019  14.896  1.2411 -0.4915 -0.0500
  289MPD2     C 4355   3.021   0.155  14.729  0.1324  0.6112  0.1744
  289MPD2    C1 4356   2.992   0.270  14.648  0.0910  0.6921  0.1804
  289MPD2    C2 4357   2.868   0.269  14.585 -0.4912  0.2240 -0.0502
  289MPD2    C3 4358   2.772   0.164  14.595  0.0983 -0.6890  0.6696
  289MPD2    C4 4359   2.810   0.052  14.670 -0.4024  0.4908 -0.2313
  289MPD2    C5 4360   2.933   0.050  14.737  0.6573 -0.1771  0.1939
  289MPD2     H 4361   2.851   0.360  14.528  1.7275  1.3250  1.0585
  289MPD2    H1 4362   2.744   4.688  14.669 -0.2906  0.4027  1.0187
  289MPD2    H2 4363   3.109   0.159  14.792  0.3916 -0.1515 -0.1478
  289MPD2    H3 4364   2.956   4.691  14.805 -0.2046  0.9665  1.8286
  289MPD2     N 4365   2.647   0.171  14.528  0.1355  0.0914  0.1622
  289MPD2    H5 4366   2.593   0.088  14.506 -1.4611  1.0886  0.2368
  289MPD2    N1 4367   3.084   0.380  14.639  0.0465  0.1131 -0.3090
  289MPD2    H7 4368   3.165   0.374  14.699 -0.8237  0.9122  0.9351
  290TMC3    C1 4369   2.474   0.268  14.404 -0.3079 -0.1356  0.1669
  290TMC3    C2 4370   2.437   0.370  14.327 -0.8002  0.7178 -0.6616
  290TMC3    C3 4371   2.355   0.341  14.220 -0.3321  0.3594  0.1493
  290TMC3    C4 4372   2.410   0.147  14.397 -0.3985  0.3665  0.1481
  290TMC3    C5 4373   2.316   0.130  14.302  0.7163 -0.4819  0.7855
  290TMC3    C6 4374   2.294   0.221  14.205  0.5217  0.0322 -0.6358
  290TMC3     C 4375   2.592   0.283  14.488 -0.0381 -0.0661 -0.5438
  290TMC3     O 4376   2.626   0.396  14.510  0.0225  0.2039  0.2128
  290TMC3     H 4377   2.478   0.470  14.342 -0.8152  0.6470 -0.1346
  290TMC3    H1 4378   2.417   0.085  14.487  1.3083 -0.6564 -0.6760
  290TMC3    H2 4379   2.216   0.200  14.132  0.4095 -2.1082  0.0897
  290TMC3    C7 4380   2.212   0.036  14.333  0.1731  0.4479  0.1722
  290TMC3    C8 4381   2.313   0.440  14.128 -0.4914 -0.2303  0.3678
  290TMC3    O1 4382   2.102   0.051  14.284 -0.0912  0.2875  0.0630
  290TMC3    O2 4383   2.266   0.409  14.021 -0.2687  0.3539 -0.6822
  291MPD2     C 4384   2.168   0.393   0.206 -0.0839 -0.2638  0.6554
  291MPD2    C1 4385   2.286   0.332   0.218 -0.0168 -0.2826  0.8855
  291MPD2    C2 4386   2.400   0.387   0.161 -0.8058  0.6676 -0.0286
  291MPD2    C3 4387   2.396   0.519   0.108  0.4784  0.4587 -0.5698
  291MPD2    C4 4388   2.269   0.581   0.108 -0.2990  0.2323  0.1717
  291MPD2    C5 4389   2.161   0.519   0.158 -0.1316  0.8921 -0.4149
  291MPD2     H 4390   2.493   0.332   0.175 -1.0198 -0.3662 -2.8384
  291MPD2    H1 4391   2.262   0.686   0.082  2.3728 -0.2274 -2.3945
  291MPD2    H2 4392   2.079   0.344   0.244 -0.5397  0.6053  0.7136
  291MPD2    H3 4393   2.067   0.572   0.145 -0.3027  1.1537  1.9868
  291MPD2     N 4394   2.507   0.591   0.061 -0.1367  0.3676 -0.2349
  291MPD2    H5 4395   2.494   0.684   0.024 -0.5937  1.0602  1.6921
  291MPD2    N1 4396   2.300   0.194   0.270 -0.2028  0.3817  0.3897
  291MPD2    H7 4397   2.395   0.162   0.283 -0.2701  0.8252  1.9531
  292TMC3    C1 4398   2.246   0.000   0.383  0.4475 -0.1027 -0.6014
  292TMC3    C2 4399   2.347   0.023   0.466  0.6112  0.2411 -0.9408
  292TMC3    C3 4400   2.410   4.647   0.531 -0.5498  0.6111 -0.6384
  292TMC3    C4 4401   2.189   4.598   0.385 -0.2643  0.1978  0.0730
  292TMC3    C5 4402   2.253   4.502   0.454 -0.4726  0.3258  0.1479
  292TMC3    C6 4403   2.368   4.518   0.527  0.4140 -0.3935 -0.3743
  292TMC3     C 4404   2.200   0.101   0.298  0.1590  0.6150 -0.0061
  292TMC3     O 4405   2.087   0.088   0.253  0.0415  0.1411  0.7361
  292TMC3     H 4406   2.385   0.124   0.478  0.5414  0.1371  0.1682
  292TMC3    H1 4407   2.098   4.581   0.329  0.8662 -2.4201 -0.9535
  292TMC3    H2 4408   2.406   4.436   0.587 -2.4325 -0.6291  1.1141
  292TMC3    C7 4409   2.245   4.372   0.387 -0.7170 -0.2947  0.1364
  292TMC3    C8 4410   2.512   4.687   0.619 -0.0786 -0.3312 -0.2932
  292TMC3    O1 4411   2.353   4.319   0.373  0.7003  0.1329  0.7544
  292TMC3    O2 4412   2.566   0.069   0.591 -0.4430  0.1993 -0.0932
  293MPD2     C 4413   4.510   1.699  12.474 -0.3766  0.9372 -0.6148
  293MPD2    C1 4414   4.405   1.746  12.550  0.8299 -0.3789  0.0081
  293MPD2    C2 4415   4.423   1.763  12.687  0.3832  0.0578  0.8401
  293MPD2    C3 4416   4.550   1.732  12.736  0.5077 -0.1430 -0.2004
  293MPD2    C4 4417   4.648   1.683  12.662  0.3832 -0.1564 -0.1596
  293MPD2    C5 4418   4.637   1.665  12.528 -0.8209  0.3031 -0.2442
  293MPD2     H 4419   4.354   1.800  12.762 -2.1862 -2.3280 -0.3784
  293MPD2    H1 4420   0.016   1.653  12.715 -1.1204 -2.5819  1.0813
  293MPD2    H2 4421   4.499   1.688  12.367 -0.0753 -0.7316 -0.4843
  293MPD2    H3 4422   4.719   1.626  12.468 -0.4326 -0.6823  0.9335
  293MPD2     N 4423   4.570   1.761  12.873 -0.1289 -0.1164 -0.5020
  293MPD2    H5 4424   4.484   1.778  12.924  1.0671 -1.0607  1.8255
  293MPD2    N1 4425   4.287   1.789  12.476  0.2480  0.0745 -0.0073
  293MPD2    H7 4426   4.300   1.796  12.376 -2.1475  1.1493 -0.2472
  294TMC3    C1 4427   4.065   1.878  12.459  0.4033 -0.0845 -0.7177
  294TMC3    C2 4428   3.931   1.867  12.494  0.0900 -0.1764  0.0480
  294TMC3    C3 4429   3.834   1.919  12.406  0.0919 -0.9896 -0.1392
  294TMC3    C4 4430   4.094   1.947  12.340  0.4695 -0.0274 -0.2982
  294TMC3    C5 4431   3.991   2.001  12.266 -0.2412  0.2621  0.4460
  294TMC3    C6 4432   3.861   1.993  12.291  0.2875 -0.5986 -0.1983
  294TMC3     C 4433   4.171   1.817  12.544  0.5878  0.2695  0.7659
  294TMC3     O 4434   4.144   1.775  12.657  0.1869 -0.1034  0.2429
  294TMC3     H 4435   3.904   1.811  12.583 -0.3079  0.4951  0.3491
  294TMC3    H1 4436   4.195   1.979  12.319  0.4853  2.3092  3.2407
  294TMC3    H2 4437   3.782   2.032  12.227  0.1590 -1.5365 -0.6248
  294TMC3    C7 4438   4.033   2.072  12.147 -0.0556  0.1215  0.1402
  294TMC3    C8 4439   3.708   1.845  12.417  0.7851  0.4642 -0.4208
  294TMC3    O1 4440   3.952   2.163  12.122 -0.1946 -0.2981  0.1170
  294TMC3    O2 4441   3.707   1.747  12.486 -0.8040  0.0661 -0.6006
  295MPD2     C 4442   3.841   4.299   1.003  0.7766  0.2773 -0.3166
  295MPD2    C1 4443   3.958   4.264   0.938 -0.0728 -0.1077 -0.4231
  295MPD2    C2 4444   4.063   4.208   1.005  0.2111  0.0351  0.0487
  295MPD2    C3 4445   4.046   4.169   1.137  0.4125  0.3855  0.0332
  295MPD2    C4 4446   3.923   4.186   1.200  0.6475  0.0419  0.7305
  295MPD2    C5 4447   3.824   4.244   1.128 -0.8562  0.0067 -0.1606
  295MPD2     H 4448   4.153   4.186   0.950 -1.0702  0.1438 -2.0964
  295MPD2    H1 4449   3.902   4.160   1.303 -3.1544 -2.1537 -0.6055
  295MPD2    H2 4450   3.756   4.350   0.959  2.1242  1.2958 -1.7171
  295MPD2    H3 4451   3.737   4.261   1.190 -1.8414  0.1847 -1.6083
  295MPD2     N 4452   4.159   4.108   1.195  0.1653  0.0643  0.2834
  295MPD2    H5 4453   4.249   4.107   1.146 -0.1465 -4.6397 -0.2164
  295MPD2    N1 4454   3.979   4.294   0.802  0.1626 -0.0588  0.0394
  295MPD2    H7 4455   4.070   4.272   0.763  1.9251  0.9142  3.6374
  296TMC3    C1 4456   4.301   3.997   1.345 -0.3701  0.2123 -0.5699
  296TMC3    C2 4457   4.378   3.966   1.232  0.3322  0.3474 -0.6358
  296TMC3    C3 4458   4.496   3.899   1.253  0.2619  0.5076  0.3453
  296TMC3    C4 4459   4.327   3.954   1.474 -0.5530  0.3518  0.1251
  296TMC3    C5 4460   4.454   3.898   1.494  0.4553  0.0347 -0.1968
  296TMC3    C6 4461   4.530   3.866   1.381  0.0403  0.0289  0.8444
  296TMC3     C 4462   4.172   4.057   1.320  0.3357  0.7449  0.0054
  296TMC3     O 4463   4.092   4.057   1.410 -0.4085 -0.5759  0.0403
  296TMC3     H 4464   4.356   3.994   1.130 -0.4520  0.6345 -0.3892
  296TMC3    H1 4465   4.254   3.975   1.551  1.0199 -0.7925  1.9592
  296TMC3    H2 4466   4.623   3.811   1.387  0.8903  1.2281 -1.2020
  296TMC3    C7 4467   4.474   3.804   1.602 -0.0346  0.2253  0.7718
  296TMC3    C8 4468   4.585   3.883   1.144 -0.2846  0.1945 -0.4023
  296TMC3    O1 4469   4.549   3.712   1.582 -0.6959  0.4292  0.2648
  296TMC3    O2 4470   4.542   3.870   1.033 -0.1507 -0.1013  0.5474
  297MPD2     C 4471   2.105   2.011  16.382  0.2055  0.4300 -0.1474
  297MPD2    C1 4472   2.088   2.021  16.250  0.2596 -0.3388  0.6191
  297MPD2    C2 4473   2.146   2.128  16.189  0.0574  0.1415 -0.0899
  297MPD2    C3 4474   2.225   2.219  16.256  0.2785  0.3872 -0.2323
  297MPD2    C4 4475   2.246   2.207  16.390  0.8555  0.0170  0.6969
  297MPD2    C5 4476   2.185   2.103  16.450 -0.1312  0.4318  0.0537
  297MPD2     H 4477   2.121   2.145  16.084 -1.9857  0.0083  0.3669
  297MPD2    H1 4478   2.303   2.270  16.458  0.0089  0.2652  1.1656
  297MPD2    H2 4479   2.061   1.933  16.443  0.1512  1.7860  1.5549
  297MPD2    H3 4480   2.203   2.091  16.556  0.2340 -1.1428 -0.1910
  297MPD2     N 4481   2.268   2.333  16.185  0.0011  0.0711 -0.3051
  297MPD2    H5 4482   2.249   2.339  16.085 -0.8055 -0.3914 -0.1709
  297MPD2    N1 4483   1.989   1.957  16.173  0.5341 -0.6921  0.1187
  297MPD2    H7 4484   1.969   1.989  16.079  0.2558  0.9413  0.7432
  298TMC3    C1 4485   1.791   1.821  16.130 -0.6087  0.3945  0.1498
  298TMC3    C2 4486   1.804   1.846  15.994 -0.0664 -0.1379  0.4030
  298TMC3    C3 4487   1.691   1.852  15.922  0.9657  0.1010 -0.2311
  298TMC3    C4 4488   1.668   1.813  16.186 -0.3339  0.5918 -0.0642
  298TMC3    C5 4489   1.559   1.833  16.119 -0.4154  0.0705  0.6208
  298TMC3    C6 4490   1.570   1.834  15.980  0.5638  0.4367 -0.8191
  298TMC3     C 4491   1.907   1.848  16.218 -0.4550 -0.9021  0.4850
  298TMC3     O 4492   1.909   1.794  16.328  0.2337  0.3552  0.4056
  298TMC3     H 4493   1.904   1.854  15.954 -0.1356  1.4659  0.5223
  298TMC3    H1 4494   1.661   1.804  16.294 -2.8167 -1.2581 -0.3821
  298TMC3    H2 4495   1.472   1.835  15.934  0.0662 -1.5087  0.2134
  298TMC3    C7 4496   1.473   1.936  16.178  0.4759 -0.3010  0.2638
  298TMC3    C8 4497   1.681   1.952  15.827 -0.1568  0.4752  0.0652
  298TMC3    O1 4498   1.452   1.949  16.298  0.2696  0.0383 -0.3402
  298TMC3    O2 4499   1.572   2.007  15.818 -0.7239  0.0522 -0.0280
  299MPD2     C 4500   2.957   1.667  10.402 -0.3273 -0.1447  0.3360
  299MPD2    C1 4501   2.908   1.793  10.384  0.4722 -0.6703  0.0565
  299MPD2    C2 4502   2.818   1.829  10.284 -0.3743 -0.2675  0.1294
  299MPD2    C3 4503   2.764   1.729  10.209 -0.0738 -0.3363  0.5073
  299MPD2    C4 4504   2.825   1.598  10.216 -0.0516  0.6962 -0.9242
  299MPD2    C5 4505   2.917   1.568  10.316  0.5083  0.0167 -0.1899
  299MPD2     H 4506   2.795   1.934  10.269 -1.2318 -0.5113 -0.2301
  299MPD2    H1 4507   2.792   1.509  10.164  1.2359 -0.4252  0.1585
  299MPD2    H2 4508   3.022   1.645  10.486  0.7647 -3.0655 -1.2681
  299MPD2    H3 4509   2.939   1.462  10.331  1.5092  0.2391 -0.0836
  299MPD2     N 4510   2.644   1.747  10.132  0.0867  0.2093 -0.5339
  299MPD2    H5 4511   2.592   1.664  10.104 -1.5034  0.9074  0.3701
  299MPD2    N1 4512   2.946   1.884  10.475  0.6806  0.1272  0.1855
  299MPD2    H7 4513   2.992   1.845  10.557  0.9324 -0.2954 -0.1618
  300TMC3    C1 4514   2.445   1.831  10.078 -0.2493 -0.6982  0.0727
  300TMC3    C2 4515   2.371   1.929  10.017 -0.4000  0.3095  0.1366
  300TMC3    C3 4516   2.242   1.956  10.039 -0.7875 -0.7250 -0.0676
  300TMC3    C4 4517   2.378   1.743  10.157 -0.2859  0.2418 -0.1574
  300TMC3    C5 4518   2.253   1.775  10.189 -0.4409  0.2164 -0.3496
  300TMC3    C6 4519   2.180   1.882  10.128  0.1194  0.1256  0.0892
  300TMC3     C 4520   2.582   1.861  10.097  0.0788 -0.0762  0.2214
  300TMC3     O 4521   2.613   1.980  10.099 -0.4985  0.5395 -0.4967
  300TMC3     H 4522   2.424   1.985   9.940  0.0234  1.3666  1.1815
  300TMC3    H1 4523   2.426   1.657  10.204 -0.9257 -0.6570 -1.1620
  300TMC3    H2 4524   2.078   1.898  10.162  1.0491  0.2141  2.8519
  300TMC3    C7 4525   2.200   1.697  10.304 -0.0642 -0.4042  0.7329
  300TMC3    C8 4526   2.208   2.097  10.036  0.1764 -0.0848  0.3105
  300TMC3    O1 4527   2.258   1.601  10.352  0.6969 -0.0247  0.6788
  300TMC3    O2 4528   2.303   2.166  10.008 -0.0519 -0.2327 -0.6339
  301MPD2     C 4529   0.813   3.219   0.818  0.4227 -0.1838  0.0933
  301MPD2    C1 4530   0.713   3.140   0.770 -0.5587  0.4906 -0.3231
  301MPD2    C2 4531   0.701   3.018   0.833 -0.2782 -0.3036 -0.3383
  301MPD2    C3 4532   0.777   2.973   0.937  0.2374 -0.1474 -0.6168
  301MPD2    C4 4533   0.878   3.052   0.976  0.1319  0.7679  0.5958
  301MPD2    C5 4534   0.898   3.171   0.910  0.5079 -0.3088 -0.2192
  301MPD2     H 4535   0.607   2.967   0.812  0.8037 -3.3305  2.1571
  301MPD2    H1 4536   0.945   3.031   1.058 -0.2301 -0.7658  0.4990
  301MPD2    H2 4537   0.836   3.318   0.781  1.5536  0.0855  1.5379
  301MPD2    H3 4538   0.982   3.234   0.937  0.9715 -1.0769  0.1219
  301MPD2     N 4539   0.755   2.848   1.007  0.0275 -0.4456  0.4624
  301MPD2    H5 4540   0.820   2.827   1.082 -1.3471  1.9374  2.2984
  301MPD2    N1 4541   0.620   3.180   0.666 -0.0497 -0.4418 -0.6104
  301MPD2    H7 4542   0.540   3.120   0.647 -0.9889  0.5664  0.1640
  302TMC3    C1 4543   0.654   2.634   1.043  0.1133 -0.0858 -0.3686
  302TMC3    C2 4544   0.760   2.603   1.128  0.1771 -0.0570  0.2503
  302TMC3    C3 4545   0.756   2.476   1.173  0.0241  0.3491 -0.5985
  302TMC3    C4 4546   0.551   2.548   1.009 -0.9644  0.7447  0.0847
  302TMC3    C5 4547   0.565   2.416   1.056  0.2581  1.0768 -1.2738
  302TMC3    C6 4548   0.663   2.380   1.138  0.9086 -0.0128 -0.2760
  302TMC3     C 4549   0.652   2.757   0.973 -0.6283 -0.0987  0.3687
  302TMC3     O 4550   0.571   2.761   0.880 -0.4570  0.0373 -0.3365
  302TMC3     H 4551   0.851   2.659   1.140  0.5737 -0.5021 -0.6883
  302TMC3    H1 4552   0.462   2.586   0.962  1.5571  0.5926 -4.8035
  302TMC3    H2 4553   0.670   2.277   1.170 -3.2692 -0.5378 -1.0675
  302TMC3    C7 4554   0.477   2.306   1.013 -0.0353  0.8981  0.9683
  302TMC3    C8 4555   0.874   2.412   1.249 -0.7442  0.3075 -0.4361
  302TMC3    O1 4556   0.487   2.195   1.067  0.1467 -0.2821 -0.5812
  302TMC3    O2 4557   0.884   2.290   1.237  0.5414  0.5234  0.3740
  303MPD2     C 4558   1.245   0.858   9.405  0.1824  0.6428  0.9256
  303MPD2    C1 4559   1.207   0.750   9.479  0.3738 -0.4378  0.6175
  303MPD2    C2 4560   1.111   0.771   9.574  0.1513 -0.1413  0.2092
  303MPD2    C3 4561   1.058   0.898   9.591 -0.5210  0.3245 -0.1709
  303MPD2    C4 4562   1.088   1.003   9.507 -0.7909 -0.2623  0.1541
  303MPD2    C5 4563   1.189   0.983   9.417  0.1214  0.0915  0.5937
  303MPD2     H 4564   1.072   0.687   9.629  0.9495  0.2458  1.3879
  303MPD2    H1 4565   1.035   1.098   9.500 -0.5784 -0.1304  0.3205
  303MPD2    H2 4566   1.326   0.846   9.335 -0.8750  1.8113 -0.5010
  303MPD2    H3 4567   1.230   1.065   9.359 -0.0972 -1.0011 -1.1249
  303MPD2     N 4568   0.953   0.925   9.690 -0.5126 -0.8873 -0.5746
  303MPD2    H5 4569   0.895   1.007   9.676 -0.3955 -0.6556  0.3068
  303MPD2    N1 4570   1.266   0.631   9.449 -0.2196  0.1055 -0.1127
  303MPD2    H7 4571   1.319   0.622   9.363 -0.2240 -0.5967 -0.0449
  304TMC3    C1 4572   1.302   0.404   9.454 -0.1101  0.6232  0.0983
  304TMC3    C2 4573   1.336   0.305   9.542 -0.1238 -0.3089  0.2952
  304TMC3    C3 4574   1.336   0.180   9.496 -0.0309 -0.1395 -0.0450
  304TMC3    C4 4575   1.282   0.388   9.321 -0.1708  0.3866 -0.0703
  304TMC3    C5 4576   1.285   0.260   9.274 -0.2295  0.2998  0.5441
  304TMC3    C6 4577   1.318   0.155   9.363 -0.3219  0.9999 -0.4747
  304TMC3     C 4578   1.243   0.514   9.523  0.3715 -0.5291  0.7625
  304TMC3     O 4579   1.184   0.494   9.629 -0.8285  0.4308 -0.3538
  304TMC3     H 4580   1.363   0.327   9.645  0.6605  0.9675 -0.1809
  304TMC3    H1 4581   1.231   0.462   9.260 -0.6320 -0.2611 -0.4709
  304TMC3    H2 4582   1.327   0.050   9.336  0.6764  1.2426 -1.0830
  304TMC3    C7 4583   1.162   0.220   9.195  0.5768 -0.0241 -0.6186
  304TMC3    C8 4584   1.263   0.083   9.568 -0.0282  0.1312 -0.1081
  304TMC3    O1 4585   1.132   0.292   9.101  0.0599 -0.5450  0.2455
  304TMC3    O2 4586   1.200   0.002   9.507  0.3091  0.0520  0.1122
  305MPD2     C 4587   2.859   3.826  13.568 -0.4388  0.0814 -0.7868
  305MPD2    C1 4588   2.796   3.711  13.609  0.8639  0.6291 -0.4770
  305MPD2    C2 4589   2.747   3.623  13.516  0.2670  0.7773  0.1496
  305MPD2    C3 4590   2.771   3.645  13.375  0.3662 -0.4238  0.0154
  305MPD2    C4 4591   2.840   3.765  13.345 -0.2532  1.2658 -0.0828
  305MPD2    C5 4592   2.871   3.855  13.437  0.2381  0.1938  0.2612
  305MPD2     H 4593   2.706   3.526  13.544 -0.3964  1.6399  2.1664
  305MPD2    H1 4594   2.861   3.800  13.245 -1.1682  1.6782 -0.1335
  305MPD2    H2 4595   2.903   3.906  13.627  3.4294 -3.1719  0.7003
  305MPD2    H3 4596   2.928   3.943  13.412  0.3495  0.3437  1.0296
  305MPD2     N 4597   2.751   3.557  13.274 -0.5974  0.5839 -0.3812
  305MPD2    H5 4598   2.801   3.580  13.189  1.0412  5.0899  1.8499
  305MPD2    N1 4599   2.814   3.686  13.743 -0.3102  0.3426  0.1595
  305MPD2    H7 4600   2.858   3.759  13.798  1.6565  0.6381 -1.8399
  306TMC3    C1 4601   2.811   3.608  13.947  0.4996 -0.0881 -0.7879
  306TMC3    C2 4602   2.939   3.645  13.966  0.0365  0.5702 -0.3625
  306TMC3    C3 4603   2.989   3.644  14.100  0.4271  0.4795 -0.7959
  306TMC3    C4 4604   2.730   3.569  14.047  0.0884  0.1868  0.0404
  306TMC3    C5 4605   2.783   3.560  14.174  0.3071  0.2881  0.3594
  306TMC3    C6 4606   2.915   3.591  14.202  0.1195 -0.2531  0.9531
  306TMC3     C 4607   2.772   3.579  13.817  0.3384 -0.3327  0.0173
  306TMC3     O 4608   2.745   3.466  13.787  0.0087 -0.7742 -0.4163
  306TMC3     H 4609   3.010   3.668  13.888  1.9552  0.0697  1.2134
  306TMC3    H1 4610   2.627   3.537  14.036  0.3084 -0.4733 -0.1070
  306TMC3    H2 4611   2.957   3.560  14.298 -3.3719 -1.0222  2.2144
  306TMC3    C7 4612   2.698   3.555  14.289  0.2382  0.5124  0.5648
  306TMC3    C8 4613   3.133   3.639  14.117  1.3050 -0.2139 -0.9041
  306TMC3    O1 4614   2.587   3.500  14.274  0.3440  0.3025  0.0490
  306TMC3    O2 4615   3.206   3.609  14.023 -0.0824  1.1608  0.5157
  307MPD2     C 4616   0.876   0.843  17.612  0.2221 -0.0793  0.9920
  307MPD2    C1 4617   0.773   0.938  17.604  0.1939  0.8459  0.6520
  307MPD2    C2 4618   0.691   0.958   0.020 -0.0548 -0.3123  0.6150
  307MPD2    C3 4619   0.695   0.875   0.130  0.3474  0.3181 -0.4684
  307MPD2    C4 4620   0.788   0.773   0.129 -0.2075  0.9055  0.5122
  307MPD2    C5 4621   0.877   0.755   0.028  0.4934  0.0990 -0.0740
  307MPD2     H 4622   0.622   1.042   0.021 -1.5329 -1.5468  0.1928
  307MPD2    H1 4623   0.793   0.705   0.213 -2.1479  1.4757  1.0922
  307MPD2    H2 4624   0.957   0.835  17.541  0.7981  0.3616  1.6060
  307MPD2    H3 4625   0.944   0.670   0.037  1.2146  0.6067 -0.6468
  307MPD2     N 4626   0.597   0.896   0.226  0.2733  0.3395  0.2138
  307MPD2    H5 4627   0.538   0.978   0.213  1.1844  1.4166  2.7641
  307MPD2    N1 4628   0.760   1.031  17.496  0.0785 -0.4038  0.4972
  307MPD2    H7 4629   0.679   1.091  17.501  1.4701  1.2853  2.7558
  308TMC3    C1 4630   0.254   0.868   0.481  0.2352 -0.5203 -0.8055
  308TMC3    C2 4631   0.254   1.009   0.475  0.1994 -0.2220 -0.1975
  308TMC3    C3 4632   0.371   1.075   0.454  0.0651 -0.6149 -0.4790
  308TMC3    C4 4633   0.370   0.797   0.450  0.3428 -0.0646 -0.1743
  308TMC3    C5 4634   0.483   0.869   0.429  0.5698  0.2253 -0.9016
  308TMC3    C6 4635   0.486   1.006   0.427 -0.2981  0.3369  0.3604
  308TMC3     C 4636   0.127   0.798   0.493  0.1934  0.1748  0.0759
  308TMC3     O 4637   0.131   0.675   0.488  0.4396 -0.0812 -0.3643
  308TMC3     H 4638   0.183   1.063   0.537  1.6826  1.2511  0.2480
  308TMC3    H1 4639   0.365   0.691   0.428 -0.0116 -0.3994  1.5027
  308TMC3    H2 4640   0.582   1.054   0.410 -0.1639 -0.2036 -0.3972
  308TMC3    C7 4641   0.571   0.813   0.335 -0.6254  0.3660 -0.3499
  308TMC3    C8 4642   0.374   1.225   0.441  0.1399  0.4710  0.1963
  308TMC3    O1 4643   0.601   0.694   0.348 -0.3591  0.2795 -0.6224
  308TMC3    O2 4644   0.485   1.275   0.450  0.0234 -0.1958  0.1290
  309MPD2     C 4645   4.441   1.615  16.859  0.2985 -0.2464 -0.3483
  309MPD2    C1 4646   4.370   1.705  16.775  0.1413  0.6271 -0.2488
  309MPD2    C2 4647   4.255   1.767  16.823  0.2468 -1.1652 -0.4665
  309MPD2    C3 4648   4.211   1.731  16.951  0.4597  0.1755  0.2449
  309MPD2    C4 4649   4.293   1.666  17.046 -0.3705  0.1762  0.6015
  309MPD2    C5 4650   4.411   1.608  16.992  0.2073 -0.3994 -0.6110
  309MPD2     H 4651   4.197   1.819  16.748  0.8379  1.3510  0.8571
  309MPD2    H1 4652   4.267   1.666  17.151 -1.1658 -0.0143  0.3993
  309MPD2    H2 4653   4.532   1.561  16.836  2.4235  2.8201  0.7566
  309MPD2    H3 4654   4.467   1.541  17.056  0.1047  1.8205  1.8115
  309MPD2     N 4655   4.077   1.763  16.991 -0.5685  0.2073 -0.1785
  309MPD2    H5 4656   4.058   1.757  17.091  0.5783 -0.9535 -0.0220
  309MPD2    N1 4657   4.406   1.755  16.647 -0.4037 -0.1774  0.9757
  309MPD2    H7 4658   4.336   1.816  16.604  0.0002  2.0577  3.4959
  310TMC3    C1 4659   4.560   1.822  16.485 -0.2137  0.1762  0.3947
  310TMC3    C2 4660   4.469   1.903  16.428  0.2713  0.1591 -0.2524
  310TMC3    C3 4661   4.508   2.001  16.341 -0.2715  0.1193  0.3272
  310TMC3    C4 4662   4.695   1.857  16.462  0.0553  0.4664  0.4312
  310TMC3    C5 4663   0.011   1.955  16.371 -0.9591  0.0498 -0.5756
  310TMC3    C6 4664   4.638   2.028  16.309  0.4565 -0.6766  0.0460
  310TMC3     C 4665   4.532   1.743  16.600  0.5598 -0.1491  0.5241
  310TMC3     O 4666   4.614   1.661  16.635 -0.5234  0.6296 -0.2154
  310TMC3     H 4667   4.366   1.869  16.433  0.0053  0.8605 -0.9136
  310TMC3    H1 4668   0.051   1.807  16.517  0.0535 -0.9123 -0.7919
  310TMC3    H2 4669   4.662   2.100  16.231  1.8017 -1.8523 -0.6039
  310TMC3    C7 4670   0.150   1.942  16.333  0.2984  0.0970  0.4792
  310TMC3    C8 4671   4.425   2.036  16.230 -0.1260  0.5209  0.0169
  310TMC3    O1 4672   0.215   1.841  16.358  0.5900 -0.4964  0.2425
  310TMC3    O2 4673   4.435   2.151  16.192 -0.0158  0.2255 -0.0178
  311MPD2     C 4674   1.825   3.021  12.525  0.0373 -0.3618 -0.0744
  311MPD2    C1 4675   1.830   3.135  12.592 -0.0335 -0.7041 -0.0524
  311MPD2    C2 4676   1.710   3.174  12.657  0.6954  0.8858 -0.2856
  311MPD2    C3 4677   1.595   3.100  12.647 -0.8490 -0.1843  0.1198
  311MPD2    C4 4678   1.603   2.973  12.587 -0.1504 -0.1609 -0.8027
  311MPD2    C5 4679   1.720   2.937  12.533 -0.7977  0.9163  0.4908
  311MPD2     H 4680   1.720   3.268  12.710  1.9684  1.3561 -1.3643
  311MPD2    H1 4681   1.520   2.904  12.590 -0.5664  0.4076  0.4979
  311MPD2    H2 4682   1.910   2.983  12.469  2.1865  1.7409  1.7365
  311MPD2    H3 4683   1.726   2.835  12.496 -1.5104  1.1944 -0.3791
  311MPD2     N 4684   1.470   3.142  12.699  0.2949  0.1701 -0.1336
  311MPD2    H5 4685   1.481   3.238  12.731  0.8661 -0.1753  0.7074
  311MPD2    N1 4686   1.943   3.219  12.589 -0.4495 -0.5778 -0.4338
  311MPD2    H7 4687   1.937   3.310  12.635 -0.1268 -1.6006  1.6477
  312TMC3    C1 4688   1.239   3.166  12.721  0.1445  0.2638 -0.0906
  312TMC3    C2 4689   1.132   3.190  12.639  0.0227 -1.0749  0.3238
  312TMC3    C3 4690   1.030   3.272  12.673  0.0900  0.1202  0.2546
  312TMC3    C4 4691   1.243   3.225  12.842  0.4052  0.3855  0.8426
  312TMC3    C5 4692   1.129   3.287  12.879  0.7315 -0.0467 -0.1509
  312TMC3    C6 4693   1.022   3.317  12.796  0.2400  0.0848 -0.2606
  312TMC3     C 4694   1.344   3.086  12.675 -0.2624 -0.1301 -0.3598
  312TMC3     O 4695   1.307   2.999  12.597  0.2636 -0.2455  0.1635
  312TMC3     H 4696   1.138   3.149  12.539 -1.6340  2.3873 -1.2258
  312TMC3    H1 4697   1.316   3.195  12.916 -1.3938 -0.3518  2.3056
  312TMC3    H2 4698   0.928   3.349  12.839  0.4575  1.4663 -0.8171
  312TMC3    C7 4699   1.098   3.296  13.016 -0.0837 -0.2188  0.2616
  312TMC3    C8 4700   0.912   3.274  12.595 -0.1116  0.9623 -0.6012
  312TMC3    O1 4701   0.986   3.275  13.058 -0.0885 -0.0923  0.4541
  312TMC3    O2 4702   0.897   3.191  12.511 -0.2287  0.4874  0.0405
  313MPD2     C 4703   1.663   2.246  10.473 -0.4430 -0.5026  0.5109
  313MPD2    C1 4704   1.528   2.273  10.452  0.0082  0.5704 -0.1538
  313MPD2    C2 4705   1.459   2.190  10.357  0.2524 -0.9280 -0.8426
  313MPD2    C3 4706   1.524   2.107  10.271  0.8924  0.6619 -0.8202
  313MPD2    C4 4707   1.659   2.091  10.288  0.0985 -0.3349  0.8088
  313MPD2    C5 4708   1.728   2.164  10.387  0.0110  0.3335  0.9379
  313MPD2     H 4709   1.351   2.188  10.350  0.1083  0.6814  0.8218
  313MPD2    H1 4710   1.723   2.025  10.232 -1.3912  1.1661 -2.6437
  313MPD2    H2 4711   1.726   2.298  10.545 -0.2032 -0.0229 -0.0470
  313MPD2    H3 4712   1.832   2.146  10.413  0.3918  0.6636 -0.3948
  313MPD2     N 4713   1.449   2.033  10.174  0.4022 -0.1474  0.3700
  313MPD2    H5 4714   1.349   2.046  10.177  0.3782 -0.5779  1.4127
  313MPD2    N1 4715   1.462   2.380  10.521 -0.1711  0.0610  0.2490
  313MPD2    H7 4716   1.361   2.388  10.513  0.0328  1.4554 -0.8102
  314TMC3    C1 4717   1.422   2.586  10.642  0.7011  0.2225 -0.0896
  314TMC3    C2 4718   1.489   2.676  10.722 -0.7367  0.0495  0.2039
  314TMC3    C3 4719   1.468   2.806  10.695 -0.1888  0.1565  0.2479
  314TMC3    C4 4720   1.334   2.631  10.545  0.1081 -0.0346  0.8286
  314TMC3    C5 4721   1.317   2.767  10.531  0.1336  0.0230 -0.4560
  314TMC3    C6 4722   1.380   2.853  10.607  0.3041 -0.4652  0.8651
  314TMC3     C 4723   1.519   2.482  10.596 -0.0144  0.9266 -0.3230
  314TMC3     O 4724   1.634   2.500  10.629  0.0188  0.0144  0.3044
  314TMC3     H 4725   1.554   2.637  10.800  0.9150 -1.3406 -1.8736
  314TMC3    H1 4726   1.285   2.566  10.474  0.8511 -1.7497  1.8694
  314TMC3    H2 4727   1.376   2.958  10.580 -2.8131 -0.9306 -0.4334
  314TMC3    C7 4728   1.260   2.804  10.403  0.2781  0.7626 -0.5540
  314TMC3    C8 4729   1.575   2.901  10.726 -0.6006 -0.2834 -0.1458
  314TMC3    O1 4730   1.165   2.738  10.360 -0.9145  0.4949 -0.3943
  314TMC3    O2 4731   1.558   3.022  10.730 -0.1429 -0.0246  0.7867
  315MPD2     C 4732   0.719   1.297   0.160 -0.2367  0.3012  0.6835
  315MPD2    C1 4733   0.818   1.313   0.061  0.1173  0.1151  0.5505
  315MPD2    C2 4734   0.802   1.413  17.657  0.8036 -0.2319 -0.2833
  315MPD2    C3 4735   0.694   1.504  17.668 -0.2538  0.2479  0.4879
  315MPD2    C4 4736   0.606   1.496   0.085 -0.1538  0.1244 -0.2224
  315MPD2    C5 4737   0.614   1.385   0.166  0.0528  0.1439 -0.4129
  315MPD2     H 4738   0.878   1.415  17.580 -0.2601  1.7957 -1.2808
  315MPD2    H1 4739   0.520   1.559   0.100  0.0644  0.3067  0.2499
  315MPD2    H2 4740   0.733   1.223   0.237  3.2088  3.1227  2.7480
  315MPD2    H3 4741   0.549   1.385   0.253  2.0979 -1.4367  1.1305
  315MPD2     N 4742   0.697   1.616  17.581 -0.5119 -0.2451 -0.3006
  315MPD2    H5 4743   0.772   1.616  17.512 -0.8580 -0.6200 -0.6758
  315MPD2    N1 4744   0.939   1.248   0.066 -0.9878  0.7823 -0.1755
  315MPD2    H7 4745   1.005   1.277  17.687 -0.6822  0.3960 -0.0494
  316TMC3    C1 4746   0.672   1.842  17.534 -0.7565  0.7886  0.1616
  316TMC3    C2 4747   0.716   1.944  17.613 -0.4948  0.2664 -0.6854
  316TMC3    C3 4748   0.782   2.043  17.544 -0.2029  0.2754  0.3294
  316TMC3    C4 4749   0.706   1.830  17.399  0.2589  0.1888  0.7489
  316TMC3    C5 4750   0.760   1.941  17.339 -0.2558  0.2066 -0.4862
  316TMC3    C6 4751   0.798   2.045  17.410  0.4124 -0.1843 -0.2446
  316TMC3     C 4752   0.623   1.731  17.604 -0.0570  0.3354 -0.1731
  316TMC3     O 4753   0.529   1.757  17.683 -0.3408 -0.0722 -0.0350
  316TMC3     H 4754   0.694   1.941   0.027  0.8996  2.4436 -0.3162
  316TMC3    H1 4755   0.671   1.744  17.344 -2.1321  0.9227  1.1389
  316TMC3    H2 4756   0.852   2.122  17.355  0.3519 -0.2347 -0.3748
  316TMC3    C7 4757   0.849   1.904  17.235  0.6282  0.7129  0.2575
  316TMC3    C8 4758   0.856   2.141  17.623  0.0181  0.1068  0.0587
  316TMC3    O1 4759   0.870   1.781  17.232 -0.2958  0.7424 -0.3221
  316TMC3    O2 4760   0.876   2.245  17.572  0.5784  0.3966  0.1201
  317MPD2     C 4761   3.048   0.768  12.698  0.1256 -0.0577 -0.0290
  317MPD2    C1 4762   3.152   0.693  12.638 -0.1470 -0.4557 -0.8205
  317MPD2    C2 4763   3.223   0.598  12.715  0.0849 -0.0360  0.3347
  317MPD2    C3 4764   3.173   0.579  12.846  0.0095 -0.0670 -0.2531
  317MPD2    C4 4765   3.073   0.655  12.904  0.0232 -0.2346  0.4123
  317MPD2    C5 4766   3.002   0.739  12.823  0.1122  0.1004  0.2263
  317MPD2     H 4767   3.317   0.559  12.676  1.3398  4.6472 -1.3866
  317MPD2    H1 4768   3.051   0.651  13.010 -0.9479  1.7574  0.2730
  317MPD2    H2 4769   2.983   0.830  12.637  0.8490  0.3445 -0.3890
  317MPD2    H3 4770   2.920   0.799  12.861 -0.2549  0.4970 -1.1782
  317MPD2     N 4771   3.261   0.503  12.922  0.1960  0.5741  0.5654
  317MPD2    H5 4772   3.344   0.468  12.876 -0.1408 -1.0071  1.1602
  317MPD2    N1 4773   3.188   0.699  12.495 -0.3244 -0.1016 -0.5680
  317MPD2    H7 4774   3.262   0.638  12.461  0.8630  0.0110  1.8288
  318TMC3    C1 4775   3.341   0.379  13.106  0.0578  0.1738 -0.0735
  318TMC3    C2 4776   3.307   0.276  13.192 -0.1303 -0.3974 -0.6238
  318TMC3    C3 4777   3.411   0.203  13.253 -0.1998  0.4310  0.1158
  318TMC3    C4 4778   3.471   0.397  13.065 -0.3695  0.1725  0.1183
  318TMC3    C5 4779   3.569   0.316  13.127 -0.1014  0.3161  0.2362
  318TMC3    C6 4780   3.540   0.224  13.223 -0.7540  0.0513 -0.5600
  318TMC3     C 4781   3.229   0.446  13.038 -0.4796 -0.2657 -0.2336
  318TMC3     O 4782   3.120   0.434  13.091 -0.5215  0.5492  0.0605
  318TMC3     H 4783   3.205   0.243  13.204 -0.8273  1.6996 -0.8315
  318TMC3    H1 4784   3.499   0.473  12.993  0.8528  0.0710  0.4839
  318TMC3    H2 4785   3.598   0.141  13.263 -1.0551 -0.8648 -2.0259
  318TMC3    C7 4786   3.705   0.311  13.070  0.1989  0.0382 -1.4420
  318TMC3    C8 4787   3.371   0.080  13.307 -0.1616  0.3114  0.1583
  318TMC3    O1 4788   3.710   0.380  12.967 -0.7819 -0.5942 -0.3074
  318TMC3    O2 4789   3.428   0.054  13.414  0.2141 -0.0145 -0.1127
  319MPD2     C 4790   4.060   1.545  16.404 -0.7073 -0.2369 -0.5683
  319MPD2    C1 4791   3.972   1.478  16.480 -0.6369  0.4846 -0.2872
  319MPD2    C2 4792   3.841   1.453  16.440  0.0622  0.1071 -0.3910
  319MPD2    C3 4793   3.795   1.508  16.325  0.3870 -0.4073  0.0436
  319MPD2    C4 4794   3.876   1.592  16.254  0.3801 -0.4610 -0.5830
  319MPD2    C5 4795   4.004   1.610  16.299 -0.3045 -0.1596  0.3026
  319MPD2     H 4796   3.780   1.387  16.501 -0.0011  1.3950  0.9382
  319MPD2    H1 4797   3.851   1.639  16.160  1.4600 -0.0703 -0.6808
  319MPD2    H2 4798   4.164   1.562  16.430 -0.8977  0.6241 -0.3828
  319MPD2    H3 4799   4.061   1.686  16.246  3.6254 -1.7859  2.2563
  319MPD2     N 4800   3.666   1.473  16.271 -0.5665 -0.7721  0.1621
  319MPD2    H5 4801   3.651   1.497  16.173  1.9668  0.2321  0.0177
  319MPD2    N1 4802   4.007   1.430  16.609  0.4641 -0.0082  0.2765
  319MPD2    H7 4803   3.932   1.395  16.668 -1.2153  2.5357 -0.3266
  320TMC3    C1 4804   3.460   1.344  16.255 -0.8274 -0.6526  0.0451
  320TMC3    C2 4805   3.405   1.439  16.171 -0.2733 -0.2906 -0.6679
  320TMC3    C3 4806   3.281   1.401  16.111  0.4326  0.0477 -0.2971
  320TMC3    C4 4807   3.388   1.229  16.285 -0.8950 -0.4612  0.6051
  320TMC3    C5 4808   3.274   1.193  16.222 -0.5033  0.3914 -0.6167
  320TMC3    C6 4809   3.219   1.284  16.131  0.1212 -0.0453 -0.6102
  320TMC3     C 4810   3.581   1.379  16.328 -0.1683 -0.0872  0.3173
  320TMC3     O 4811   3.596   1.314  16.430 -0.3296 -0.0482 -0.0077
  320TMC3     H 4812   3.429   1.545  16.167  0.3453 -0.4006 -0.0192
  320TMC3    H1 4813   3.433   1.162  16.357  1.1022  1.4023  1.0846
  320TMC3    H2 4814   3.124   1.260  16.082 -0.7589  1.1782  0.5050
  320TMC3    C7 4815   3.197   1.074  16.265  0.0919 -0.0828 -0.0102
  320TMC3    C8 4816   3.226   1.498  16.020 -0.0101  0.4114  0.0408
  320TMC3    O1 4817   3.137   1.020  16.175 -0.0451 -0.2800 -0.0019
  320TMC3    O2 4818   3.270   1.612  16.031 -0.8394  0.3522  0.0898
  321TMC3    C1 4819   4.122   1.402  16.807 -0.0350 -0.2983  0.6301
  321TMC3    C2 4820   4.007   1.448  16.869 -0.1632 -0.3011 -0.2332
  321TMC3    C3 4821   4.004   1.417  17.005 -1.1968  0.4713 -0.7517
  321TMC3    C4 4822   4.228   1.344  16.863  0.2009 -0.9467 -0.1635
  321TMC3    C5 4823   4.204   1.298  16.993 -0.5735 -0.2180 -0.3468
  321TMC3    C6 4824   4.101   1.342  17.065  0.3483  0.3460 -0.2437
  321TMC3     C 4825   4.131   1.441  16.669  0.3425  0.1213  0.0410
  321TMC3     O 4826   4.240   1.458  16.617  0.6751 -0.1893  0.1288
  321TMC3     H 4827   3.936   1.523  16.835  0.4576 -0.5931 -2.1643
  321TMC3    H1 4828   4.307   1.300  16.803 -1.0280 -1.0708 -1.6861
  321TMC3    H2 4829   4.100   1.304  17.166 -1.0703  2.4537  0.5453
  321TMC3    C7 4830   4.198   1.155  17.019  0.7524  0.5071 -0.5459
  321TMC3    C8 4831   3.864   1.382  17.051  0.3193  0.1290  0.1796
  321TMC3    O1 4832   4.080   1.111  17.011  0.6885 -0.5133  0.0011
  321TMC3    O2 4833   3.777   1.474  17.049  0.0031 -0.0418 -0.0789
  322MPD2     C 4834   2.533   2.727  13.249 -0.8212 -0.2118 -0.3018
  322MPD2    C1 4835   2.576   2.676  13.366  0.0322  0.1352  1.2547
  322MPD2    C2 4836   2.673   2.580  13.361 -0.7629 -0.4842  0.0664
  322MPD2    C3 4837   2.737   2.545  13.235  0.6232  0.8166  0.1621
  322MPD2    C4 4838   2.689   2.602  13.119  0.2080  0.3623  0.1079
  322MPD2    C5 4839   2.587   2.690  13.127  0.3184 -0.6346 -0.5445
  322MPD2     H 4840   2.711   2.528  13.449 -0.8397  2.6266  1.9496
  322MPD2    H1 4841   2.718   2.560  13.023  1.9640  2.6922 -0.3731
  322MPD2    H2 4842   2.459   2.807  13.250  0.6146  1.1061  0.4570
  322MPD2    H3 4843   2.553   2.724  13.029  0.1925 -0.6249 -0.4966
  322MPD2     N 4844   2.847   2.456  13.234 -0.3740  0.1067 -0.6856
  322MPD2    H5 4845   2.865   2.418  13.326 -1.8261  2.5391  0.5726
  322MPD2    N1 4846   2.525   2.722  13.493  0.0791  0.4169 -0.5423
  322MPD2    H7 4847   2.574   2.685  13.574  0.3086 -0.2188 -0.9715
  323TMC3    C1 4848   2.480   2.920  13.611 -0.3553  0.1984 -0.7768
  323TMC3    C2 4849   2.518   3.036  13.556  0.4118 -0.2858  0.0389
  323TMC3    C3 4850   2.634   3.097  13.608 -0.2030  0.5016 -0.0174
  323TMC3    C4 4851   2.556   2.865  13.714  0.2542  0.1591 -0.5195
  323TMC3    C5 4852   2.658   2.945  13.777  0.3923 -0.0954  0.1326
  323TMC3    C6 4853   2.707   3.055  13.712  0.1231  0.0375 -0.4873
  323TMC3     C 4854   2.439   2.834  13.509  0.5498  0.3233  0.2716
  323TMC3     O 4855   2.355   2.877  13.433 -0.0795  0.0102  0.6847
  323TMC3     H 4856   2.464   3.074  13.470 -1.0077 -0.4542  0.8503
  323TMC3    H1 4857   2.531   2.771  13.762  0.4740 -0.4582 -1.6298
  323TMC3    H2 4858   2.784   3.122  13.749  1.2251 -0.7024 -1.4498
  323TMC3    C7 4859   2.715   2.896  13.899  0.2008  0.1491 -0.5779
  323TMC3    C8 4860   2.724   3.144  13.508  0.4656  0.3855  0.1068
  323TMC3    O1 4861   2.644   2.807  13.949  0.5561  0.0306  0.8384
  323TMC3    O2 4862   2.710   3.110  13.396 -0.1653  0.2168  0.3476
  324MPD2     C 4863   4.573   4.445  14.337  0.0892 -0.3926 -0.5968
  324MPD2    C1 4864   4.639   4.537  14.253 -0.2109 -0.7805 -0.0944
  324MPD2    C2 4865   4.561   4.634  14.196  0.9942 -0.0435 -0.7902
  324MPD2    C3 4866   4.426   4.644  14.232  0.0738 -0.1373  0.0938
  324MPD2    C4 4867   4.366   4.545  14.310 -0.1262  1.3332  0.2234
  324MPD2    C5 4868   4.440   4.442  14.360  0.3021  0.1423 -0.4343
  324MPD2     H 4869   4.601   4.704  14.123 -1.9199  1.6612 -0.7887
  324MPD2    H1 4870   4.260   4.546  14.334 -0.4547  0.9195 -1.1861
  324MPD2    H2 4871   4.624   4.362  14.384  0.4541 -1.3250 -2.6117
  324MPD2    H3 4872   4.394   4.371  14.428  0.2591  0.1914 -0.4110
  324MPD2     N 4873   4.334   0.012  14.175 -0.8632  0.5358  0.3248
  324MPD2    H5 4874   4.240   0.003  14.212 -0.8108 -0.1425  0.2951
  324MPD2    N1 4875   0.055   4.540  14.226 -0.3389  0.0583 -0.4144
  324MPD2    H7 4876   0.093   4.604  14.157 -3.0379  0.4668 -1.5198
  325TMC3    C1 4877   4.235   0.169  14.032 -0.6620 -0.6612 -0.1453
  325TMC3    C2 4878   4.154   0.089  13.953  0.0282 -0.5892 -0.0437
  325TMC3    C3 4879   4.028   0.134  13.922 -0.1670 -0.7539  0.9039
  325TMC3    C4 4880   4.191   0.290  14.084  0.2599  0.0284  0.0287
  325TMC3    C5 4881   4.065   0.328  14.053  0.2460 -0.0922 -0.5083
  325TMC3    C6 4882   3.984   0.258  13.964  0.4444 -0.1429 -0.1391
  325TMC3     C 4883   4.359   0.112  14.085 -0.1436 -0.4876  0.3634
  325TMC3     O 4884   4.463   0.174  14.056  0.6434 -0.0229  0.1984
  325TMC3     H 4885   4.170   4.708  13.926 -1.0255 -0.6720 -0.3605
  325TMC3    H1 4886   4.254   0.346  14.151  0.0292  1.4288 -0.9252
  325TMC3    H2 4887   3.881   0.289  13.952  0.1900 -0.7483  0.4662
  325TMC3    C7 4888   3.989   0.337  14.177 -0.4204 -0.6391 -0.1593
  325TMC3    C8 4889   3.930   0.029  13.903 -0.3655  0.2091  0.1763
  325TMC3    O1 4890   3.899   0.252  14.189 -0.0497 -0.0065 -1.0300
  325TMC3    O2 4891   3.952   4.667  13.819  0.3571  0.2126  0.0896
  326MPD2     C 4892   1.097   0.251  11.006 -0.0888  0.1865  0.1702
  326MPD2    C1 4893   1.219   0.214  10.954 -0.5368  0.4299 -0.6031
  326MPD2    C2 4894   1.312   0.313  10.953 -0.0680  0.1593  0.4521
  326MPD2    C3 4895   1.298   0.436  11.016  0.1407 -0.3923 -0.6258
  326MPD2    C4 4896   1.181   0.464  11.074  0.0894  0.4129 -0.2941
  326MPD2    C5 4897   1.083   0.368  11.070 -0.2878 -0.0530 -0.3194
  326MPD2     H 4898   1.400   0.292  10.893  0.9256  3.6648  0.6677
  326MPD2    H1 4899   1.155   0.562  11.112 -0.3402  0.1065  0.2035
  326MPD2    H2 4900   1.014   0.182  11.013 -1.1663  1.5947  1.3692
  326MPD2    H3 4901   0.990   0.388  11.120  0.0947  1.3951 -0.2038
  326MPD2     N 4902   1.399   0.536  11.019  0.4172 -0.1193  0.3229
  326MPD2    H5 4903   1.370   0.626  11.054 -1.3086 -0.5214 -0.0797
  326MPD2    N1 4904   1.228   0.103  10.870 -0.3756 -0.3467  0.5167
  326MPD2    H7 4905   1.322   0.094  10.834  0.1028  0.9149  1.4627
  327TMC3    C1 4906   1.152   4.680  10.706 -0.2769 -0.0104  0.2231
  327TMC3    C2 4907   1.059   4.712  10.613  0.2329 -0.7913 -0.3274
  327TMC3    C3 4908   1.098   4.698  10.481 -0.1998  0.3496 -0.3854
  327TMC3    C4 4909   1.283   4.646  10.666  0.3154  0.0351  0.5650
  327TMC3    C5 4910   1.326   4.652  10.538 -0.1548  0.1591 -1.3512
  327TMC3    C6 4911   1.227   4.674  10.443 -0.3513 -0.5260  0.2176
  327TMC3     C 4912   1.124   0.018  10.833  0.3419 -0.1920  0.1449
  327TMC3     O 4913   1.006   0.011  10.868 -0.2628  0.3970  0.1008
  327TMC3     H 4914   0.956   4.718  10.646  0.6339 -0.1470  0.8264
  327TMC3    H1 4915   1.348   4.612  10.746  0.1352 -1.1252  0.2192
  327TMC3    H2 4916   1.253   4.682  10.338 -1.2578 -3.1332 -0.1978
  327TMC3    C7 4917   1.446   4.711  10.497  0.1369  0.0363  0.6379
  327TMC3    C8 4918   1.029   0.076  10.402  0.1298 -0.2436  0.5289
  327TMC3    O1 4919   1.476   4.701  10.378 -0.1182 -0.0303 -0.0266
  327TMC3    O2 4920   1.103   0.142  10.329 -0.1609 -0.9778 -0.5782
  328MPD2     C 4921   3.459   0.147  16.899  0.1782  0.1108  0.1511
  328MPD2    C1 4922   3.341   0.082  16.921  0.8466 -0.3902 -0.7788
  328MPD2    C2 4923   3.239   0.102  16.826  0.0788 -0.5029  0.4551
  328MPD2    C3 4924   3.249   0.185  16.716  0.3104 -0.3202  0.0157
  328MPD2    C4 4925   3.374   0.242  16.694 -0.4543 -0.2693 -0.6428
  328MPD2    C5 4926   3.473   0.231  16.787  0.2260  0.2131  0.7868
  328MPD2     H 4927   3.144   0.052  16.844 -0.8636  1.0370 -0.2935
  328MPD2    H1 4928   3.387   0.309  16.610 -0.1453 -0.0728 -0.4395
  328MPD2    H2 4929   3.544   0.136  16.966 -1.2202 -0.8316  1.7710
  328MPD2    H3 4930   3.561   0.291  16.768 -1.3438  2.3514  0.3268
  328MPD2     N 4931   3.143   0.209  16.628 -0.6762  0.2504 -0.1670
  328MPD2    H5 4932   3.172   0.271  16.553  1.7386 -0.7596 -0.0638
  328MPD2    N1 4933   3.325   0.013  17.043 -0.7648  0.0888 -0.2280
  328MPD2    H7 4934   3.408   0.003  17.101 -0.1642  2.9720 -0.5904
  329TMC3    C1 4935   3.232   4.600  17.217  0.4532  0.1913 -0.1544
  329TMC3    C2 4936   3.287   4.675  17.314 -0.0296 -0.1748  0.6587
  329TMC3    C3 4937   3.297   4.614  17.441 -0.2647  0.1402 -0.0489
  329TMC3    C4 4938   3.167   4.479  17.237  0.1894  0.0073 -0.3482
  329TMC3    C5 4939   3.186   4.420  17.361  0.0403 -0.1977 -0.1912
  329TMC3    C6 4940   3.254   4.488  17.463  0.9186 -0.5459  0.0754
  329TMC3     C 4941   3.220   4.657  17.083  0.5289  0.3001 -0.4984
  329TMC3     O 4942   3.118   4.633  17.017  0.3850 -0.0025  0.1298
  329TMC3     H 4943   3.326   0.052  17.298 -3.4424  0.9926 -0.5498
  329TMC3    H1 4944   3.106   4.436  17.158  0.4338 -1.5642  0.3175
  329TMC3    H2 4945   3.274   4.437  17.557  0.6348  1.9778  1.5245
  329TMC3    C7 4946   3.122   4.297  17.395 -0.2306  0.2074 -0.3507
  329TMC3    C8 4947   3.347   4.694  17.550 -0.1511  0.0268  0.6584
  329TMC3    O1 4948   3.124   4.266  17.512  0.3595  0.2272  0.5799
  329TMC3    O2 4949   3.406   4.628  17.637  0.4107 -0.2613 -0.3167
  330TMC3    C1 4950   1.856   3.887   8.828  0.1613  0.3963 -0.0500
  330TMC3    C2 4951   1.863   3.768   8.749  0.3719 -0.7432  0.2855
  330TMC3    C3 4952   1.985   3.727   8.702 -0.3111 -0.3027  0.4760
  330TMC3    C4 4953   1.963   3.967   8.858 -0.3291 -0.1887 -0.6072
  330TMC3    C5 4954   2.085   3.924   8.806 -0.6645  0.1081  0.4927
  330TMC3    C6 4955   2.093   3.810   8.733 -0.0554 -0.7645  0.7921
  330TMC3     C 4956   1.726   3.939   8.871  0.2448  0.4223 -0.1345
  330TMC3     O 4957   1.720   4.060   8.898  0.2205 -0.0610  0.0237
  330TMC3     H 4958   1.782   3.700   8.725 -0.1692 -0.7053  2.0036
  330TMC3    H1 4959   1.954   4.054   8.922 -2.7016 -1.8033  1.2162
  330TMC3    H2 4960   2.185   3.789   8.679 -0.1195  0.2437  0.2846
  330TMC3    C7 4961   2.196   3.975   8.870 -0.9335  0.3163  0.2998
  330TMC3    C8 4962   2.026   3.591   8.677 -0.3043 -0.5024 -0.0498
  330TMC3    O1 4963   2.180   4.071   8.947  0.3994 -0.2668  0.4820
  330TMC3    O2 4964   2.127   3.566   8.613 -0.7515 -0.1068  0.0421
  331MPD2     C 4965   3.492   3.380  12.649 -0.5438 -0.7173 -0.0415
  331MPD2    C1 4966   3.587   3.460  12.591  0.1660  0.6482 -0.2440
  331MPD2    C2 4967   3.696   3.403  12.527 -0.1987  0.1764  0.1038
  331MPD2    C3 4968   3.698   3.268  12.513  0.6077  0.0824  0.2624
  331MPD2    C4 4969   3.598   3.188  12.570  0.0181  0.6010 -0.9012
  331MPD2    C5 4970   3.494   3.244  12.634  0.8568 -0.5648  0.2512
  331MPD2     H 4971   3.765   3.466  12.471  0.8888 -2.1728 -1.2106
  331MPD2    H1 4972   3.596   3.080  12.559  0.8167  0.1853  2.9714
  331MPD2    H2 4973   3.409   3.422  12.704 -0.6749 -2.4320  1.0704
  331MPD2    H3 4974   3.417   3.183  12.679  0.5324 -1.5934 -1.6836
  331MPD2     N 4975   3.798   3.211  12.432 -0.3898 -0.1036 -0.6815
  331MPD2    H5 4976   3.863   3.274  12.384 -0.7269  0.2369 -0.6895
  331MPD2    N1 4977   3.571   3.602  12.606  0.1956 -0.2746 -0.2328
  331MPD2    H7 4978   3.492   3.640  12.657 -0.1448 -1.0579 -0.1711
  332TMC3    C1 4979   3.910   3.054  12.312  0.5180 -0.0788  0.5205
  332TMC3    C2 4980   3.912   3.146  12.210  0.9081  0.6385  0.4776
  332TMC3    C3 4981   3.988   3.111  12.101  0.1775  0.0027  1.0115
  332TMC3    C4 4982   3.994   2.943  12.321 -0.5535  0.9525  0.2451
  332TMC3    C5 4983   4.076   2.926  12.215  0.0876 -0.0287 -0.4156
  332TMC3    C6 4984   4.063   2.997  12.098  0.6597  0.4288  0.1767
  332TMC3     C 4985   3.826   3.078  12.423 -0.6411 -0.0490  0.2852
  332TMC3     O 4986   3.804   2.985  12.505 -0.6617  0.1152 -0.0122
  332TMC3     H 4987   3.850   3.235  12.208 -0.2716 -0.1643  0.9865
  332TMC3    H1 4988   4.004   2.884  12.411  3.0171 -0.4108 -1.0053
  332TMC3    H2 4989   4.117   2.982  12.005  3.3575 -0.5206  1.8904
  332TMC3    C7 4990   4.199   2.861  12.256 -0.0448  0.0403  0.2967
  332TMC3    C8 4991   3.976   3.192  11.988 -0.3390 -0.4515  0.5812
  332TMC3    O1 4992   4.196   2.779  12.347 -0.2669 -0.5870  0.1829
  332TMC3    O2 4993   3.994   3.126  11.886  0.0977 -0.2214 -0.3874
  333MPD2     C 4994   4.566   3.310  10.901  0.4968  0.3575 -0.2048
  333MPD2    C1 4995   4.654   3.229  10.827  0.4738  0.1050 -0.1574
  333MPD2    C2 4996   4.597   3.101  10.798  0.1531 -0.1951  0.4540
  333MPD2    C3 4997   4.468   3.064  10.834  0.5992  0.1585 -0.3465
  333MPD2    C4 4998   4.383   3.162  10.890  0.0088  0.5036  0.8802
  333MPD2    C5 4999   4.438   3.278  10.928  0.8509 -0.4007  0.3523
  333MPD2     H 5000   4.677   3.042  10.756  1.8847  1.2546  1.6783
  333MPD2    H1 5001   4.280   3.152  10.922 -0.4169  3.3589  0.3396
  333MPD2    H2 5002   4.601   3.404  10.944 -0.7676  0.5603  0.3830
  333MPD2    H3 5003   4.377   3.341  10.992  0.2380 -1.8568  1.2097
  333MPD2     N 5004   4.426   2.935  10.819  0.2089  0.4010  0.0567
  333MPD2    H5 5005   4.491   2.862  10.793 -0.6532 -0.3410 -0.0237
  333MPD2    N1 5006   0.062   3.274  10.809  0.0426  0.0581 -0.4190
  333MPD2    H7 5007   0.080   3.371  10.832 -0.0725 -0.1797  0.6794
  334TMC3    C1 5008   0.289   3.283  10.727 -0.9863 -0.2834  0.6927
  334TMC3    C2 5009   0.392   3.212  10.663 -0.3707  0.3967  0.0407
  334TMC3    C3 5010   0.500   3.289  10.612 -0.5302  0.6535  0.4728
  334TMC3    C4 5011   0.295   3.422  10.741 -0.7799 -0.7183  0.8445
  334TMC3    C5 5012   0.407   3.492  10.703  0.3077 -0.0609 -1.0457
  334TMC3    C6 5013   0.506   3.425  10.635 -0.2736  0.3607  0.0028
  334TMC3     C 5014   0.167   3.204  10.765  0.5578 -0.2234 -0.5195
  334TMC3     O 5015   0.172   3.086  10.734 -0.1864 -0.5851 -0.0422
  334TMC3     H 5016   0.386   3.106  10.640 -1.6547 -0.1194  2.7249
  334TMC3    H1 5017   0.212   3.475  10.787  0.0905  1.6170 -0.2953
  334TMC3    H2 5018   0.597   3.476  10.604  0.7774 -0.5050  1.6391
  334TMC3    C7 5019   0.441   3.626  10.769 -0.5090 -1.3906  0.7160
  334TMC3    C8 5020   0.605   3.217  10.543 -0.3800 -0.9604  0.7085
  334TMC3    O1 5021   0.554   3.675  10.758 -0.1308 -0.2047 -0.5682
  334TMC3    O2 5022   0.624   3.097  10.564 -0.3071 -0.8731  0.0942
  335TMC3    C1 5023   3.758   4.464  17.679  0.0291 -0.3735  0.2338
  335TMC3    C2 5024   3.674   4.481  17.573  0.1021  0.3099  0.7760
  335TMC3    C3 5025   3.719   4.506  17.449 -0.6286 -0.1203 -0.0583
  335TMC3    C4 5026   3.892   4.474  17.666 -0.1499  0.1122 -0.5746
  335TMC3    C5 5027   3.938   4.521  17.542  0.3744  0.2956  0.0180
  335TMC3    C6 5028   3.852   4.549  17.434 -0.1909 -0.3762 -0.1350
  335TMC3     C 5029   3.705   4.421   0.114  0.2755 -0.1467 -0.4308
  335TMC3     O 5030   3.783   4.364   0.192 -0.3410  0.6954 -0.4199
  335TMC3     H 5031   3.569   4.454  17.569  0.0206  0.8834 -1.0620
  335TMC3    H1 5032   3.958   4.448   0.055 -2.6990  0.2478  1.5254
  335TMC3    H2 5033   3.883   4.575  17.334  1.5938  1.9516  1.0285
  335TMC3    C7 5034   4.078   4.556  17.525  0.1793  0.1061  0.2309
  335TMC3    C8 5035   3.641   4.472  17.329  0.3334  0.1163 -0.8067
  335TMC3    O1 5036   4.113   4.559  17.408  0.1331 -0.3797 -0.0802
  335TMC3    O2 5037   3.672   4.527  17.226 -0.1150 -0.3016 -0.0334
  336MPD2     C 5038   3.729   2.726  16.071 -0.0931 -0.2181  0.1343
  336MPD2    C1 5039   3.734   2.693  15.938 -0.0639  0.9023  0.5505
  336MPD2    C2 5040   3.734   2.558  15.905 -0.4530  0.1438 -0.0682
  336MPD2    C3 5041   3.727   2.463  16.002  0.2917  0.3349  0.3412
  336MPD2    C4 5042   3.730   2.502  16.134 -0.0284 -0.4947  0.8319
  336MPD2    C5 5043   3.733   2.631  16.171 -0.2218  0.3161  0.0060
  336MPD2     H 5044   3.735   2.535  15.799 -0.7591  1.6752 -0.3975
  336MPD2    H1 5045   3.734   2.431  16.217  0.1028 -0.9296  0.4530
  336MPD2    H2 5046   3.728   2.831  16.099 -1.6130 -0.9501  2.8406
  336MPD2    H3 5047   3.746   2.660  16.274 -0.8987  0.2282  0.1139
  336MPD2     N 5048   3.721   2.324  15.986 -0.6994  0.1135 -0.7319
  336MPD2    H5 5049   3.699   2.270  16.069 -2.0120 -0.1654 -1.2696
  336MPD2    N1 5050   3.734   2.792  15.832  0.0095  0.3435 -0.3959
  336MPD2    H7 5051   3.732   2.762  15.736 -0.4219  0.1709 -0.3316
  337TMC3    C1 5052   3.694   2.993  15.716 -0.1079 -0.3441  0.1335
  337TMC3    C2 5053   3.577   3.043  15.676  0.1364  0.3296 -0.0602
  337TMC3    C3 5054   3.567   3.069  15.546  0.1150 -0.1725 -0.4134
  337TMC3    C4 5055   3.805   2.974  15.634 -0.6889 -0.6451 -0.0720
  337TMC3    C5 5056   3.792   3.027  15.505  0.0692 -0.5142  0.5851
  337TMC3    C6 5057   3.672   3.065  15.457  0.0824  0.6745  0.0309
  337TMC3     C 5058   3.701   2.928  15.847  0.0868 -0.2303  0.0153
  337TMC3     O 5059   3.678   3.003  15.941 -0.1788 -0.6564 -1.3074
  337TMC3     H 5060   3.495   3.040  15.748  0.2271 -0.8561 -0.0075
  337TMC3    H1 5061   3.892   2.921  15.671 -0.2675 -1.1359 -1.7642
  337TMC3    H2 5062   3.649   3.090  15.354 -3.2103 -0.5134  0.4811
  337TMC3    C7 5063   3.899   3.036  15.410  0.0139 -0.1609  0.4222
  337TMC3    C8 5064   3.436   3.070  15.480 -0.3013  0.4556  0.0305
  337TMC3    O1 5065   3.881   3.127  15.332  0.0474 -0.0655  0.1274
  337TMC3    O2 5066   3.433   3.029  15.365 -0.6723 -0.6719 -0.1648
  338MPD2     C 5067   4.182   1.596   0.771 -0.0075  0.0414 -0.0375
  338MPD2    C1 5068   4.098   1.510   0.704 -0.4388 -0.3827  0.3787
  338MPD2    C2 5069   3.981   1.467   0.769  0.1600  0.7574  0.1637
  338MPD2    C3 5070   3.926   1.533   0.878 -0.1814 -0.1789  0.7999
  338MPD2    C4 5071   4.004   1.637   0.933 -0.0092  0.0132  0.6437
  338MPD2    C5 5072   4.131   1.663   0.875 -0.1126 -0.1224 -0.5070
  338MPD2     H 5073   3.925   1.395   0.710  1.4348  0.0826 -0.2123
  338MPD2    H1 5074   3.969   1.694   1.018 -1.2456  0.4309 -0.1500
  338MPD2    H2 5075   4.287   1.615   0.753  0.0866  1.3879  2.0619
  338MPD2    H3 5076   4.187   1.747   0.912  0.3312 -0.9218  0.6422
  338MPD2     N 5077   3.790   1.513   0.914  0.1808 -0.0186 -0.3061
  338MPD2    H5 5078   3.741   1.449   0.852  0.6897  0.2086 -0.9350
  338MPD2    N1 5079   4.110   1.454   0.578  0.1823 -1.0315  0.4836
  338MPD2    H7 5080   4.047   1.378   0.553 -1.9971  1.6768 -2.3523
  339TMC3    C1 5081   3.583   1.582   0.992 -0.0878  0.1088  0.1799
  339TMC3    C2 5082   3.503   1.624   1.097 -0.1563 -0.8340  1.0069
  339TMC3    C3 5083   3.371   1.657   1.074  0.9084 -0.3986 -0.1980
  339TMC3    C4 5084   3.522   1.554   0.876  0.5977 -0.8401 -0.1973
  339TMC3    C5 5085   3.388   1.589   0.850 -0.2769  0.5474 -0.0698
  339TMC3    C6 5086   3.312   1.645   0.951  0.4105 -0.2677 -0.3575
  339TMC3     C 5087   3.722   1.571   1.019  0.3819  0.5807 -0.1743
  339TMC3     O 5088   3.757   1.647   1.108  0.6439 -0.1740 -0.4833
  339TMC3     H 5089   3.559   1.635   1.189  0.7380  0.9785  0.2636
  339TMC3    H1 5090   3.579   1.523   0.788 -0.4432  1.3181 -1.6443
  339TMC3    H2 5091   3.206   1.654   0.931  0.0346 -1.4386  1.0725
  339TMC3    C7 5092   3.343   1.596   0.706 -0.6446  0.2880 -0.3072
  339TMC3    C8 5093   3.286   1.716   1.171  0.3487 -0.0814  0.3995
  339TMC3    O1 5094   3.426   1.555   0.623 -0.1003 -0.0198  0.1038
  339TMC3    O2 5095   3.195   1.781   1.120  0.0169  0.3188 -0.7409
  340MPD2     C 5096   4.671   3.988  10.695  0.2958  0.1343 -0.3133
  340MPD2    C1 5097   0.049   3.947  10.612 -0.0557  1.2928  0.2969
  340MPD2    C2 5098   0.128   4.053  10.562  0.4317 -0.9678  0.1415
  340MPD2    C3 5099   0.096   4.188  10.578  0.3477 -0.1457  0.0666
  340MPD2    C4 5100   4.714   4.221  10.660  0.5187 -0.4880  0.1300
  340MPD2    C5 5101   4.650   4.117  10.723 -1.0258 -0.2841  0.5878
  340MPD2     H 5102   0.207   4.031  10.491  0.4526 -1.8568  0.4375
  340MPD2    H1 5103   4.689   4.317  10.703 -0.1925 -1.1567  1.2025
  340MPD2    H2 5104   4.604   3.915  10.739 -0.7349  0.7856 -0.8067
  340MPD2    H3 5105   4.582   4.147  10.803  1.0486 -0.1234  2.2812
  340MPD2     N 5106   0.159   4.291  10.501  0.6972 -0.7496 -0.2091
  340MPD2    H5 5107   0.125   4.387  10.506 -1.1534 -1.4771  1.1529
  340MPD2    N1 5108   0.074   3.808  10.587 -0.1514  0.3888 -0.2281
  340MPD2    H7 5109   0.005   3.751  10.635 -1.2239  1.4065 -0.5595
  341TMC3    C1 5110   0.152   3.615  10.461  0.1720 -0.1440  0.2354
  341TMC3    C2 5111   0.034   3.548  10.493  0.3803  0.7534 -0.5182
  341TMC3    C3 5112   0.031   3.415  10.454 -0.4164  0.3594  0.3352
  341TMC3    C4 5113   0.260   3.553  10.407  0.1452 -0.0922 -0.5419
  341TMC3    C5 5114   0.253   3.421  10.379 -0.0708 -0.5136 -0.5974
  341TMC3    C6 5115   0.135   3.348  10.391 -0.7519  0.8462 -0.1350
  341TMC3     C 5116   0.161   3.758  10.492  0.3700 -0.1789 -0.7259
  341TMC3     O 5117   0.253   3.813  10.437  0.1610 -0.0584 -0.3799
  341TMC3     H 5118   4.663   3.602  10.505 -1.1899 -2.3757  1.1524
  341TMC3    H1 5119   0.346   3.615  10.390  0.4424 -0.5085 -0.5649
  341TMC3    H2 5120   0.127   3.245  10.359 -1.0634  0.8467 -0.0640
  341TMC3    C7 5121   0.360   3.365  10.299  0.3524  0.2325 -0.1012
  341TMC3    C8 5122   4.629   3.343  10.485  0.5374 -0.5843  0.5562
  341TMC3    O1 5123   0.456   3.434  10.281 -0.1495  0.4087  0.5081
  341TMC3    O2 5124   4.528   3.407  10.518  0.0536 -0.2816 -0.0522
  342MPD2     C 5125   1.813   3.313  17.302  0.0360 -0.3050 -0.3070
  342MPD2    C1 5126   1.939   3.284  17.258  0.2444 -0.1193 -0.0756
  342MPD2    C2 5127   2.035   3.376  17.256  0.1932  0.2959  0.4160
  342MPD2    C3 5128   2.007   3.501  17.307 -0.1507  0.5181  0.7552
  342MPD2    C4 5129   1.876   3.538  17.335 -0.0294  0.3862  0.3307
  342MPD2    C5 5130   1.780   3.442  17.326 -0.4367 -0.2864  0.3409
  342MPD2     H 5131   2.136   3.342  17.240  0.0381 -0.3027  0.7225
  342MPD2    H1 5132   1.849   3.636  17.373  1.0742 -0.4563  3.2734
  342MPD2    H2 5133   1.734   3.239  17.307 -0.6557  0.3807 -1.0844
  342MPD2    H3 5134   1.678   3.466  17.352 -0.8507 -1.4333 -0.2119
  342MPD2     N 5135   2.099   3.607  17.323  0.3704 -0.0971  0.6658
  342MPD2    H5 5136   2.064   3.699  17.349  2.3002  0.6903  0.4822
  342MPD2    N1 5137   1.982   3.150  17.230 -0.0439  0.1462 -0.1738
  342MPD2    H7 5138   2.077   3.135  17.196  0.3463 -0.6550  1.2696
  343TMC3    C1 5139   1.975   2.921  17.188  0.2618 -0.1459  0.2554
  343TMC3    C2 5140   2.055   2.938  17.074  0.2139  0.0367  0.6836
  343TMC3    C3 5141   2.116   2.828  17.022 -0.3536  0.7374 -0.7176
  343TMC3    C4 5142   1.943   2.801  17.237  0.3994  0.4372  0.5731
  343TMC3    C5 5143   1.997   2.691  17.175  0.3779  0.2840 -0.3607
  343TMC3    C6 5144   2.092   2.701  17.072  1.0256  0.7051  0.3878
  343TMC3     C 5145   1.903   3.037  17.240  0.1894 -0.2136  0.1852
  343TMC3     O 5146   1.803   3.008  17.307  0.1435 -0.1365 -0.6042
  343TMC3     H 5147   2.068   3.038  17.033 -0.2381  0.4000  1.4163
  343TMC3    H1 5148   1.871   2.790  17.318 -1.7941  1.4045 -1.2307
  343TMC3    H2 5149   2.116   2.609  17.018 -1.6720 -0.2954  0.9047
  343TMC3    C7 5150   1.934   2.560  17.198  0.5383 -0.3630 -0.4176
  343TMC3    C8 5151   2.226   2.850  16.937 -0.6958 -0.0174 -0.6885
  343TMC3    O1 5152   1.910   2.499  17.098 -0.2876 -0.6279 -0.2636
  343TMC3    O2 5153   2.253   2.966  16.909  0.6204 -0.0241  0.3031
  344MPD2     C 5154   3.506   2.512  10.655 -0.5229 -0.1316 -0.1800
  344MPD2    C1 5155   3.386   2.516  10.586 -0.6680  0.1247  0.0067
  344MPD2    C2 5156   3.351   2.636  10.526 -0.0645 -0.1674  0.2383
  344MPD2    C3 5157   3.422   2.756  10.537  0.0100 -0.2341  0.6315
  344MPD2    C4 5158   3.537   2.743  10.604  0.0548 -0.1447  0.0221
  344MPD2    C5 5159   3.581   2.626  10.661  0.4729 -0.0624  0.3661
  344MPD2     H 5160   3.259   2.635  10.468 -1.2340 -1.0197  2.1215
  344MPD2    H1 5161   3.602   2.829  10.620 -0.3411 -0.1838  1.8053
  344MPD2    H2 5162   3.542   2.426  10.711  0.3333  0.0890 -0.3898
  344MPD2    H3 5163   3.665   2.622  10.730  1.6607 -0.8025 -1.1274
  344MPD2     N 5164   3.395   2.878  10.472 -0.0298  0.2855  0.1189
  344MPD2    H5 5165   3.463   2.951  10.493  1.4654 -0.8873 -0.7088
  344MPD2    N1 5166   3.303   2.401  10.574  0.3446 -0.4488 -0.0718
  344MPD2    H7 5167   3.220   2.420  10.519 -0.1376  1.4190  1.3201
  345TMC3    C1 5168   3.304   3.032  10.342 -0.1904  0.5628 -0.5058
  345TMC3    C2 5169   3.356   3.131  10.415 -0.3259  0.1482  0.1084
  345TMC3    C3 5170   3.382   3.245  10.335  0.8120  0.2442  0.1489
  345TMC3    C4 5171   3.270   3.041  10.210 -0.5640 -0.1065  0.6366
  345TMC3    C5 5172   3.272   3.158  10.150 -0.1115  0.5457 -0.2829
  345TMC3    C6 5173   3.335   3.261  10.209 -0.0580  0.0129 -0.0614
  345TMC3     C 5174   3.289   2.900  10.397  0.5699 -0.9051 -0.3828
  345TMC3     O 5175   3.199   2.826  10.356  0.1231  0.1495 -0.3340
  345TMC3     H 5176   3.359   3.127  10.523 -2.3199 -2.6103  0.0529
  345TMC3    H1 5177   3.236   2.955  10.152 -0.5655 -0.9839  1.9373
  345TMC3    H2 5178   3.344   3.361  10.167 -0.3982 -0.1531 -0.5307
  345TMC3    C7 5179   3.203   3.173  10.021 -0.1731  0.0754 -0.1195
  345TMC3    C8 5180   3.449   3.358  10.392  0.3336  0.5885  0.5723
  345TMC3    O1 5181   3.101   3.105  10.008 -0.4753 -0.0651  0.0666
  345TMC3    O2 5182   3.486   3.445  10.311 -0.1386 -0.1170 -0.4029
  346MPD2     C 5183   3.228   4.534  13.969  0.1691  0.3118 -0.0889
  346MPD2    C1 5184   3.342   4.611  13.971  0.3857  0.0775 -0.3377
  346MPD2    C2 5185   3.375   4.678  14.087 -0.5877  0.4480 -0.1923
  346MPD2    C3 5186   3.288   4.677  14.192  0.3676 -0.5991 -0.3895
  346MPD2    C4 5187   3.163   4.617  14.178 -0.4752  0.1753 -0.5819
  346MPD2    C5 5188   3.139   4.549  14.068 -0.3556  0.0222  0.2042
  346MPD2     H 5189   3.468   0.012  14.091 -0.0878 -0.3157 -0.9924
  346MPD2    H1 5190   3.094   4.631  14.260  0.1790 -0.2460  0.0378
  346MPD2    H2 5191   3.202   4.477  13.881 -0.5320  0.1832  0.2003
  346MPD2    H3 5192   3.039   4.509  14.058 -0.2820  0.2882 -1.4969
  346MPD2     N 5193   3.322   0.012  14.321 -0.1938  0.4676  0.8614
  346MPD2    H5 5194   3.417   0.047  14.319  0.1293 -0.5208 -2.1059
  346MPD2    N1 5195   3.428   4.612  13.858 -0.2401  0.3295  0.3296
  346MPD2    H7 5196   3.503   4.680  13.864 -2.4022  2.7705  0.1297
  347TMC3    C1 5197   3.337   0.049  14.553  0.0124 -0.3687 -0.5808
  347TMC3    C2 5198   3.416   0.158  14.520 -0.6682  0.1240 -0.1792
  347TMC3    C3 5199   3.504   0.205  14.614  0.3592 -0.0462 -0.4830
  347TMC3    C4 5200   3.342   4.700  14.665 -0.8735 -0.1253 -0.4706
  347TMC3    C5 5201   3.439   0.020  14.751 -1.0464 -0.5827  0.2993
  347TMC3    C6 5202   3.513   0.133  14.730 -0.1154 -0.1406 -0.6099
  347TMC3     C 5203   3.259   4.717  14.444  0.0101 -0.4393  0.5031
  347TMC3     O 5204   3.170   4.632  14.468  0.3946  0.0681 -0.0952
  347TMC3     H 5205   3.398   0.216  14.431 -0.3255 -2.6754 -2.0991
  347TMC3    H1 5206   3.279   4.612  14.669 -1.0706  0.1513  2.1424
  347TMC3    H2 5207   3.584   0.169  14.803  0.2135  2.0908 -2.0077
  347TMC3    C7 5208   3.482   4.649  14.851  0.0533 -0.0739  0.7682
  347TMC3    C8 5209   3.614   0.262  14.547 -0.6781 -0.4069 -0.0501
  347TMC3    O1 5210   3.405   4.566  14.884  0.4777  0.0642 -0.0621
  347TMC3    O2 5211   3.620   0.229  14.430  0.0179  0.3395 -0.4792
  348MPD2     C 5212   1.629   3.940  11.931 -0.1778  0.4380 -0.2251
  348MPD2    C1 5213   1.757   3.924  11.904  0.1050 -0.4395  0.3046
  348MPD2    C2 5214   1.807   3.977  11.785 -0.5982 -0.5060  0.1026
  348MPD2    C3 5215   1.721   4.011  11.685 -0.4195 -0.2148  0.6847
  348MPD2    C4 5216   1.583   4.009  11.709  0.1026 -0.4788 -0.2896
  348MPD2    C5 5217   1.540   3.985  11.836 -0.1048 -0.9959 -0.1760
  348MPD2     H 5218   1.915   3.972  11.773 -0.5130  1.2399  0.2331
  348MPD2    H1 5219   1.518   4.045  11.630  1.2198  1.5844 -0.2609
  348MPD2    H2 5220   1.595   3.913  12.030 -0.6558 -0.8340 -0.7267
  348MPD2    H3 5221   1.436   4.004  11.861  0.0980  0.9265 -0.8088
  348MPD2     N 5222   1.776   4.040  11.548 -0.0391  0.4210  0.4250
  348MPD2    H5 5223   1.875   4.059  11.549  0.0699 -0.1510  0.7313
  348MPD2    N1 5224   1.854   3.858  11.985 -0.0136  0.1723 -0.3783
  348MPD2    H7 5225   1.951   3.869  11.959 -0.5348  1.3687 -1.8627
  349TMC3    C1 5226   1.967   3.782  12.169  0.3843  0.1791  0.5534
  349TMC3    C2 5227   1.987   3.655  12.209 -0.2006 -0.1323  0.4621
  349TMC3    C3 5228   2.100   3.599  12.165 -0.2139  0.5255 -0.1603
  349TMC3    C4 5229   2.067   3.853  12.115  0.5888  0.3489 -0.1970
  349TMC3    C5 5230   2.195   3.803  12.097 -0.1990  0.6498  0.3678
  349TMC3    C6 5231   2.213   3.667  12.116  0.0361 -0.0966  0.1290
  349TMC3     C 5232   1.832   3.805  12.107  0.2284 -0.2034 -0.3832
  349TMC3     O 5233   1.730   3.738  12.132 -0.2746 -0.2783  0.0253
  349TMC3     H 5234   1.913   3.592  12.257 -0.0957  0.6331  1.6349
  349TMC3    H1 5235   2.047   3.956  12.086  1.0502  0.8504  1.2706
  349TMC3    H2 5236   2.307   3.619  12.094 -0.6227 -1.7303  0.8445
  349TMC3    C7 5237   2.225   3.827  11.956 -0.7074 -0.5564 -0.0339
  349TMC3    C8 5238   2.101   3.452  12.170  0.2282 -0.2575 -0.0449
  349TMC3    O1 5239   2.120   3.851  11.891 -0.1622 -0.3917  0.1637
  349TMC3    O2 5240   2.030   3.396  12.251 -0.3645 -0.2295  0.0472
  350MPD2     C 5241   1.408   1.346   9.334 -0.3608 -0.5548  0.0272
  350MPD2    C1 5242   1.286   1.342   9.399 -0.4466 -0.0434 -0.1958
  350MPD2    C2 5243   1.290   1.394   9.525 -0.1425  0.3226  0.7441
  350MPD2    C3 5244   1.403   1.443   9.581  0.5489 -0.5759 -0.9458
  350MPD2    C4 5245   1.530   1.418   9.522  0.3061 -0.0549 -0.1518
  350MPD2    C5 5246   1.524   1.371   9.397  0.0919  0.9573 -0.1979
  350MPD2     H 5247   1.198   1.412   9.581 -0.5315  0.1990  0.1432
  350MPD2    H1 5248   1.623   1.447   9.568 -0.9599  3.1424  0.3549
  350MPD2    H2 5249   1.425   1.334   9.228 -1.5509 -0.3122 -0.1927
  350MPD2    H3 5250   1.616   1.353   9.343 -0.4482 -0.3832 -0.6718
  350MPD2     N 5251   1.386   1.502   9.715  0.2880 -0.6246  0.0939
  350MPD2    H5 5252   1.291   1.510   9.748  1.2038  2.0760  2.1652
  350MPD2    N1 5253   1.156   1.308   9.337 -0.4449  0.1464 -0.3842
  350MPD2    H7 5254   1.077   1.322   9.399  0.2863  3.4786 -0.2197
  351TMC3    C1 5255   1.009   1.217   9.176  0.1612  0.5676 -0.1203
  351TMC3    C2 5256   1.004   1.106   9.094  1.0420  0.3127 -0.3216
  351TMC3    C3 5257   0.881   1.044   9.071  0.0440 -0.1253 -0.0964
  351TMC3    C4 5258   0.894   1.277   9.219  0.1482 -0.5758  0.6707
  351TMC3    C5 5259   0.774   1.217   9.189 -0.0253 -0.0409  0.1446
  351TMC3    C6 5260   0.764   1.094   9.130 -0.0719  0.2536 -0.1329
  351TMC3     C 5261   1.139   1.265   9.206 -0.7071  0.2187  0.5913
  351TMC3     O 5262   1.227   1.244   9.117  0.6357 -0.4105 -0.4201
  351TMC3     H 5263   1.099   1.061   9.065 -0.2683 -2.1989 -0.6884
  351TMC3    H1 5264   0.895   1.368   9.278  2.3466 -0.1000 -0.0964
  351TMC3    H2 5265   0.671   1.039   9.127  0.9422 -1.4944  0.3702
  351TMC3    C7 5266   0.660   1.274   9.260 -0.3738  0.8417  1.2573
  351TMC3    C8 5267   0.879   0.919   9.002 -0.8707  0.6776  0.6600
  351TMC3    O1 5268   0.674   1.342   9.356 -0.2358  0.4222 -0.4459
  351TMC3    O2 5269   0.988   0.873   8.970  0.1330 -0.2778  0.0383
  352MPD2     C 5270   4.722   3.954   0.633 -0.0508  0.2382 -0.6148
  352MPD2    C1 5271   4.695   3.824   0.661 -0.4051  0.1691  0.3431
  352MPD2    C2 5272   0.059   3.724   0.619 -0.2175  0.3045  0.4075
  352MPD2    C3 5273   0.186   3.753   0.572 -0.4106 -0.1190 -0.6518
  352MPD2    C4 5274   0.223   3.886   0.569  0.3566  0.3421 -0.3000
  352MPD2    C5 5275   0.132   3.986   0.591 -0.1616  0.4285  0.2042
  352MPD2     H 5276   0.035   3.622   0.644  0.2985  0.2603  0.7201
  352MPD2    H1 5277   0.320   3.918   0.532  0.3568 -1.5065 -1.9228
  352MPD2    H2 5278   4.658   4.037   0.660  0.6336  0.9223 -1.1090
  352MPD2    H3 5279   0.158   4.090   0.575 -0.0444  0.1363 -1.5578
  352MPD2     N 5280   0.279   3.663   0.518 -0.5707  0.2670 -0.6725
  352MPD2    H5 5281   0.370   3.694   0.487  0.3765 -1.1589  0.6655
  352MPD2    N1 5282   4.580   3.791   0.732 -0.0874 -0.4287 -0.2815
  352MPD2    H7 5283   4.518   3.869   0.752  0.1187  0.2713 -2.3203
  353TMC3    C1 5284   0.342   3.445   0.434 -0.2741  0.0191 -0.2609
  353TMC3    C2 5285   0.461   3.445   0.503  0.1775  0.1562  0.0669
  353TMC3    C3 5286   0.519   3.321   0.508 -0.0085  0.2890 -0.4150
  353TMC3    C4 5287   0.299   3.338   0.361 -0.2737  0.2672  0.4831
  353TMC3    C5 5288   0.379   3.225   0.344 -0.0547  0.1515 -0.5736
  353TMC3    C6 5289   0.492   3.217   0.426 -0.4100 -0.0240  0.0392
  353TMC3     C 5290   0.239   3.539   0.481  0.2263  0.4783 -0.6271
  353TMC3     O 5291   0.123   3.502   0.467  0.1605  0.0479  1.2265
  353TMC3     H 5292   0.494   3.521   0.573  0.7879 -0.7179  0.7335
  353TMC3    H1 5293   0.199   3.329   0.320 -0.1902 -1.3996  0.6308
  353TMC3    H2 5294   0.542   3.122   0.430 -1.6697 -0.5850  2.4837
  353TMC3    C7 5295   0.317   3.094   0.321 -0.1197  0.2471  0.1508
  353TMC3    C8 5296   0.628   3.307   0.601  0.1682 -0.4061 -1.0885
  353TMC3    O1 5297   0.322   3.014   0.415  0.3521 -0.6259  0.4432
  353TMC3    O2 5298   0.704   3.403   0.609 -0.4556 -0.1507  0.1622
  354TMC3    C1 5299   1.036   0.451  13.451 -0.0532 -0.3309  0.9794
  354TMC3    C2 5300   0.950   0.500  13.354  0.1889 -0.1085 -0.4055
  354TMC3    C3 5301   1.013   0.536  13.235 -0.2837  0.1652  0.4878
  354TMC3    C4 5302   1.169   0.441  13.439  0.4167 -0.2895 -0.0672
  354TMC3    C5 5303   1.220   0.465  13.314  0.2103 -0.7536  0.7636
  354TMC3    C6 5304   1.150   0.529  13.209 -0.5650  0.1392  0.2008
  354TMC3     C 5305   0.966   0.409  13.570 -0.6599  0.3544  0.2177
  354TMC3     O 5306   0.851   0.375  13.554 -0.1268 -0.3332  0.3149
  354TMC3     H 5307   0.845   0.521  13.371  0.0706  0.3655 -1.7550
  354TMC3    H1 5308   1.224   0.370  13.500  1.0164  0.9456  0.8287
  354TMC3    H2 5309   1.196   0.574  13.122 -1.2571 -0.2308 -0.3605
  354TMC3    C7 5310   1.357   0.433  13.299  0.0732  0.0588  0.1980
  354TMC3    C8 5311   0.943   0.621  13.132  0.0517  0.2929  0.1971
  354TMC3    O1 5312   1.426   0.432  13.397  0.2033  0.1313 -0.2108
  354TMC3    O2 5313   0.991   0.616  13.025  0.1883 -0.0868 -0.4451
  355MPD2     C 5314   0.889   1.591  11.454  0.3335 -0.1505 -0.6340
  355MPD2    C1 5315   0.968   1.595  11.343 -0.1915  0.0817 -0.0606
  355MPD2    C2 5316   1.110   1.581  11.350 -0.0269 -0.1594 -0.2026
  355MPD2    C3 5317   1.163   1.583  11.479 -0.2017  0.7315 -0.6661
  355MPD2    C4 5318   1.078   1.578  11.589  0.1661  0.1528 -0.6140
  355MPD2    C5 5319   0.940   1.569  11.573  0.4010  0.3908  0.0292
  355MPD2     H 5320   1.173   1.566  11.263  1.9346  0.2214  1.1700
  355MPD2    H1 5321   1.117   1.570  11.690 -1.4541 -0.9917 -0.0751
  355MPD2    H2 5322   0.783   1.584  11.436  0.2599  0.3361 -0.3894
  355MPD2    H3 5323   0.877   1.579  11.662  2.1845  0.7638  1.2466
  355MPD2     N 5324   1.299   1.580  11.511 -0.1003  0.4026 -0.2985
  355MPD2    H5 5325   1.327   1.586  11.608  0.7834  1.2705 -0.6059
  355MPD2    N1 5326   0.899   1.598  11.219 -0.3925 -0.3902 -0.7919
  355MPD2    H7 5327   0.799   1.585  11.229 -0.3454  3.0447  4.0062
  356TMC3    C1 5328   1.529   1.574  11.486  0.3189 -0.3996  0.6115
  356TMC3    C2 5329   1.628   1.577  11.392 -0.1118  0.1465  0.3590
  356TMC3    C3 5330   1.744   1.644  11.420  0.0183 -0.0444  0.4559
  356TMC3    C4 5331   1.554   1.629  11.608  0.3426  0.2111 -0.4159
  356TMC3    C5 5332   1.666   1.709  11.628 -0.1448 -0.7125 -0.7197
  356TMC3    C6 5333   1.768   1.713  11.534 -0.0656  0.6974 -0.2043
  356TMC3     C 5334   1.395   1.581  11.420  0.2175 -0.4401  0.0273
  356TMC3     O 5335   1.388   1.582  11.295 -0.3324 -0.0189  1.2201
  356TMC3     H 5336   1.609   1.547  11.289 -1.4597  0.3501  0.5416
  356TMC3    H1 5337   1.471   1.635  11.678  0.6504  0.5600 -0.0791
  356TMC3    H2 5338   1.862   1.760  11.559 -1.4366  2.9219  0.6908
  356TMC3    C7 5339   1.673   1.781  11.753  0.5612  0.2203 -0.4633
  356TMC3    C8 5340   1.833   1.634  11.311  0.1119  0.2819  0.5502
  356TMC3    O1 5341   1.593   1.746  11.840  0.0022  0.1354 -0.5151
  356TMC3    O2 5342   1.816   1.551  11.222  0.2787 -0.1256 -0.2423
  357MPD2     C 5343   1.095   0.889   0.877  0.3103 -0.3732  0.4093
  357MPD2    C1 5344   1.148   0.796   0.967 -0.8296 -0.3106 -0.1717
  357MPD2    C2 5345   1.058   0.737   1.061 -0.9834 -0.3279  0.0448
  357MPD2    C3 5346   0.924   0.756   1.047 -0.0674 -0.3975  0.3404
  357MPD2    C4 5347   0.878   0.851   0.952  0.5133  0.6672 -0.1655
  357MPD2    C5 5348   0.959   0.918   0.864  0.5124  0.4760 -0.2600
  357MPD2     H 5349   1.108   0.677   1.137 -3.4157  1.0467  2.7147
  357MPD2    H1 5350   0.773   0.878   0.955  0.8780  2.2353 -1.5931
  357MPD2    H2 5351   1.163   0.944   0.813  1.8449 -2.3166  0.3535
  357MPD2    H3 5352   0.926   0.994   0.794 -2.4821  0.3100  0.9755
  357MPD2     N 5353   0.833   0.703   1.141 -0.1091 -0.0989  0.0897
  357MPD2    H5 5354   0.734   0.717   1.124  0.0383 -0.0302 -0.6913
  357MPD2    N1 5355   1.285   0.764   0.965 -0.7121  0.0045  0.1765
  357MPD2    H7 5356   1.333   0.798   0.882  0.1546 -0.0084  0.6683
  358TMC3    C1 5357   1.479   0.640   1.029  0.2943 -0.4715  0.0156
  358TMC3    C2 5358   1.481   0.597   0.901 -0.1899  0.2196 -0.5650
  358TMC3    C3 5359   1.590   0.532   0.857  0.4669  1.0293  0.7364
  358TMC3    C4 5360   1.571   0.611   1.125  0.7691 -0.7382  0.1631
  358TMC3    C5 5361   1.681   0.543   1.074 -0.3430  0.4141  0.1616
  358TMC3    C6 5362   1.688   0.499   0.944 -0.5330  0.3421  1.1436
  358TMC3     C 5363   1.353   0.703   1.065  0.0990 -0.0487  0.8133
  358TMC3     O 5364   1.325   0.687   1.184  0.2613 -0.0454  0.2040
  358TMC3     H 5365   1.396   0.608   0.834 -3.3535 -1.1491  3.2356
  358TMC3    H1 5366   1.564   0.627   1.231  0.5084  0.2541 -0.0069
  358TMC3    H2 5367   1.776   0.449   0.904 -1.7667  0.0658 -1.2533
  358TMC3    C7 5368   1.798   0.519   1.162  0.5875 -0.3272 -0.4240
  358TMC3    C8 5369   1.576   0.432   0.760 -0.2393  0.1970  0.4842
  358TMC3    O1 5370   1.897   0.468   1.110 -0.4235 -0.1366  0.1702
  358TMC3    O2 5371   1.642   0.447   0.660 -0.2293  0.4110 -0.1584
  359MPD2     C 5372   2.067   4.707  12.717  0.3347  0.6209  0.7237
  359MPD2    C1 5373   2.025   4.630  12.616  0.3377 -0.2573  0.4917
  359MPD2    C2 5374   1.953   4.515  12.638 -0.8475  0.0436  0.2340
  359MPD2    C3 5375   1.901   4.486  12.762  0.2475  1.1641  0.1011
  359MPD2    C4 5376   1.935   4.572  12.867  0.1320 -0.1156 -0.1812
  359MPD2    C5 5377   2.019   4.680  12.843  0.7902  0.5093 -0.0757
  359MPD2     H 5378   1.919   4.464  12.549 -0.7689 -2.4561  1.6509
  359MPD2    H1 5379   1.898   4.553  12.967  0.6521  2.4889  0.5147
  359MPD2    H2 5380   2.139   0.064  12.701 -0.5339  0.7320 -2.6492
  359MPD2    H3 5381   2.056   0.012  12.929  0.9597 -0.3314  0.3921
  359MPD2     N 5382   1.796   4.394  12.779  0.2254 -0.3955  0.1573
  359MPD2    H5 5383   1.758   4.385  12.872 -1.8743  2.8056 -0.3906
  359MPD2    N1 5384   2.074   4.648  12.482 -0.8807 -0.0535 -0.0855
  359MPD2    H7 5385   2.035   4.581  12.417  2.8036 -0.3415 -2.0402
  360TMC3    C1 5386   2.206   4.697  12.300 -0.0366 -0.2054  0.0680
  360TMC3    C2 5387   2.335   4.718  12.253  0.1297 -0.0250  0.5334
  360TMC3    C3 5388   2.356   4.668  12.126 -0.4557  1.0891 -0.1620
  360TMC3    C4 5389   2.106   4.661  12.216  0.6926  0.3397  0.7738
  360TMC3    C5 5390   2.137   4.617  12.089 -0.2690  0.0465  0.3479
  360TMC3    C6 5391   2.267   4.607  12.041  0.3908 -0.0345  0.2184
  360TMC3     C 5392   2.170   0.005  12.437  0.7542 -0.3402 -0.0031
  360TMC3     O 5393   2.249   0.071  12.496 -0.4825 -0.2163 -0.0190
  360TMC3     H 5394   2.414   0.019  12.324  0.9259  0.9205 -0.6697
  360TMC3    H1 5395   2.005   4.680  12.252  1.1509  1.0599  1.6745
  360TMC3    H2 5396   2.295   4.548  11.955  1.0687  2.5398 -1.3209
  360TMC3    C7 5397   2.030   4.590  11.993 -0.1696 -0.0104  0.7117
  360TMC3    C8 5398   2.489   4.689  12.073 -0.2921 -0.3625  0.3685
  360TMC3    O1 5399   1.919   4.555  12.035  0.0629  0.0799 -0.6551
  360TMC3    O2 5400   2.560   0.046  12.130 -0.2020  0.2702  0.7180
  361MPD2     C 5401   3.079   3.270  16.323  0.1530  0.0786  0.3484
  361MPD2    C1 5402   3.008   3.287  16.445 -0.5904 -0.3215 -0.1083
  361MPD2    C2 5403   3.066   3.241  16.565 -0.5399 -0.2752  0.2540
  361MPD2    C3 5404   3.184   3.165  16.559 -0.0787  0.2522 -0.3335
  361MPD2    C4 5405   3.234   3.136  16.437 -0.2410 -0.1060 -0.1251
  361MPD2    C5 5406   3.184   3.189  16.321 -0.4214 -0.0307  0.5722
  361MPD2     H 5407   3.006   3.250  16.655 -0.3506  1.2123  0.2368
  361MPD2    H1 5408   3.324   3.078  16.427  1.3234  2.0857  1.2152
  361MPD2    H2 5409   3.051   3.312  16.227  3.3078 -0.6398 -0.8947
  361MPD2    H3 5410   3.236   3.172  16.227 -0.2657 -3.3730  1.2587
  361MPD2     N 5411   3.231   3.081  16.663  0.0259 -0.0286 -0.0641
  361MPD2    H5 5412   3.303   3.016  16.633 -0.3919 -0.0599 -0.9914
  361MPD2    N1 5413   2.895   3.368  16.447  0.4165 -0.4852 -0.0824
  361MPD2    H7 5414   2.859   3.383  16.541 -2.4312  3.8464 -1.8907
  362TMC3    C1 5415   2.728   3.519  16.377  0.6651  0.3177 -0.0983
  362TMC3    C2 5416   2.652   3.510  16.499  0.3796  0.0755 -0.8992
  362TMC3    C3 5417   2.546   3.595  16.518  0.0577 -0.3231 -0.2753
  362TMC3    C4 5418   2.699   3.609  16.286  0.3499 -0.5535 -0.2631
  362TMC3    C5 5419   2.586   3.683  16.307  0.1852 -0.2737  0.4651
  362TMC3    C6 5420   2.514   3.687  16.421 -0.0821  0.2845  0.0715
  362TMC3     C 5421   2.833   3.435  16.344  0.2123 -0.6189 -0.5573
  362TMC3     O 5422   2.839   3.415  16.221 -0.2360 -0.1570  0.3737
  362TMC3     H 5423   2.683   3.441  16.577 -1.8922  0.5367  0.3856
  362TMC3    H1 5424   2.764   3.629  16.202  0.2041  0.2843 -0.1841
  362TMC3    H2 5425   2.421   3.741  16.427 -0.1398  0.4285 -1.9685
  362TMC3    C7 5426   2.520   3.743  16.190  0.1968 -0.1947 -0.3658
  362TMC3    C8 5427   2.461   3.567  16.630 -0.9290  0.8466 -0.0918
  362TMC3    O1 5428   2.447   3.841  16.204 -0.6536 -0.4809  0.3636
  362TMC3    O2 5429   2.475   3.462  16.693 -0.1702  0.6647  0.4802
  363TMC3    C1 5430   1.780   0.365   8.637  0.2929 -0.5555  0.1381
  363TMC3    C2 5431   1.767   0.465   8.729 -0.1752  0.9308  0.0294
  363TMC3    C3 5432   1.654   0.542   8.731  0.0486  0.3352 -0.8335
  363TMC3    C4 5433   1.679   0.327   8.554 -0.2140 -0.5065  0.4738
  363TMC3    C5 5434   1.564   0.408   8.554 -0.6327 -0.1527  0.4922
  363TMC3    C6 5435   1.557   0.512   8.644  0.2451 -0.1577  0.4436
  363TMC3     C 5436   1.903   0.288   8.643 -0.0329 -0.3630  0.3020
  363TMC3     O 5437   1.996   0.336   8.707  0.1777  0.7392 -0.3282
  363TMC3     H 5438   1.854   0.489   8.789  0.2450  0.4090 -0.3672
  363TMC3    H1 5439   1.673   0.236   8.495 -1.9482  1.0119 -1.7047
  363TMC3    H2 5440   1.462   0.563   8.656  0.1668 -0.4221  0.9618
  363TMC3    C7 5441   1.442   0.350   8.502 -0.6735 -0.4139  0.5221
  363TMC3    C8 5442   1.649   0.664   8.818 -0.1426  0.2637 -0.2712
  363TMC3    O1 5443   1.460   0.237   8.461 -0.4644  0.0425 -0.1203
  363TMC3    O2 5444   1.556   0.745   8.799  0.4022  0.4835  0.2909
  364MPD2     C 5445   0.665   0.456  10.440  1.3663  0.8237  0.2379
  364MPD2    C1 5446   0.793   0.459  10.386  0.0918 -0.4634 -0.6103
  364MPD2    C2 5447   0.876   0.349  10.389  0.4874  1.0954 -0.2367
  364MPD2    C3 5448   0.821   0.229  10.437 -0.2109 -0.4257 -0.8989
  364MPD2    C4 5449   0.687   0.228  10.486 -0.2131 -0.1004  0.1869
  364MPD2    C5 5450   0.615   0.340  10.486  0.4075  0.4139  0.7986
  364MPD2     H 5451   0.970   0.352  10.335  1.2788  0.0247  1.0838
  364MPD2    H1 5452   0.652   0.137  10.534  0.2923  0.0140  0.7759
  364MPD2    H2 5453   0.606   0.546  10.452 -1.1101 -0.9503  1.2126
  364MPD2    H3 5454   0.514   0.340  10.527  0.4896 -0.6630  1.0142
  364MPD2     N 5455   0.899   0.106  10.447  0.0883 -0.4828  0.3920
  364MPD2    H5 5456   0.850   0.034  10.499 -1.9822  2.3512  2.3641
  364MPD2    N1 5457   0.827   0.580  10.325  0.2634  0.4558 -0.0720
  364MPD2    H7 5458   0.764   0.658  10.339  0.2329  0.2169  1.1005
  365TMC3    C1 5459   0.969   0.758  10.261  0.1709  0.2534  0.0229
  365TMC3    C2 5460   1.025   0.808  10.148  0.0713  0.0507 -0.4387
  365TMC3    C3 5461   1.043   0.945  10.144 -0.0622  0.6838 -0.3874
  365TMC3    C4 5462   0.932   0.835  10.366 -0.2519  0.2330  0.1731
  365TMC3    C5 5463   0.948   0.971  10.361  0.3359  0.6068  0.4716
  365TMC3    C6 5464   0.997   1.030  10.245  0.3300 -0.4275 -0.2052
  365TMC3     C 5465   0.945   0.617  10.265  0.2101 -0.7682  0.9183
  365TMC3     O 5466   1.041   0.547  10.220  0.2104  0.0689 -0.5280
  365TMC3     H 5467   1.060   0.755  10.060  0.6205  0.9104 -0.7477
  365TMC3    H1 5468   0.887   0.789  10.453  0.0579 -0.9044 -0.2700
  365TMC3    H2 5469   1.020   1.136  10.238  0.9687 -0.8562 -4.1253
  365TMC3    C7 5470   0.876   1.053  10.452 -0.1920 -0.0283 -0.0835
  365TMC3    C8 5471   1.115   1.002  10.033  0.5446  0.0379 -0.6689
  365TMC3    O1 5472   0.820   1.155  10.408 -0.3145  0.3065  0.7483
  365TMC3    O2 5473   1.078   1.112   9.997 -0.1843 -0.2317  0.0717
  366MPD2     C 5474   3.392   1.623  15.125 -0.5423 -0.6727 -0.4608
  366MPD2    C1 5475   3.368   1.727  15.036 -0.0106 -0.5316  0.3964
  366MPD2    C2 5476   3.450   1.740  14.925  0.6942  0.2724 -0.0131
  366MPD2    C3 5477   3.562   1.660  14.915  0.2526  0.3828 -0.3998
  366MPD2    C4 5478   3.591   1.569  15.013  0.1733  0.2187  0.9768
  366MPD2    C5 5479   3.502   1.544  15.110  0.0754  0.5005 -0.0013
  366MPD2     H 5480   3.436   1.812  14.846 -0.4655 -1.9429 -1.8499
  366MPD2    H1 5481   3.679   1.507  15.020  0.9600  1.0786 -1.3552
  366MPD2    H2 5482   3.328   1.610  15.211  1.8527 -2.2664  1.0676
  366MPD2    H3 5483   3.523   1.459  15.174 -0.4369  1.0411  0.8861
  366MPD2     N 5484   3.651   1.692  14.816 -0.3281 -0.7391 -0.1408
  366MPD2    H5 5485   3.621   1.773  14.762 -3.3985 -1.0310  1.1118
  366MPD2    N1 5486   3.279   1.831  15.061 -0.4766  0.0800 -0.1443
  366MPD2    H7 5487   3.281   1.911  14.999  2.1041 -0.9579 -1.4001
  367TMC3    C1 5488   3.185   1.994  15.208 -0.4482  0.6353 -0.2109
  367TMC3    C2 5489   3.267   2.046  15.302 -0.0911 -0.2641  0.3387
  367TMC3    C3 5490   3.288   2.184  15.288  0.6394 -0.5151  1.1832
  367TMC3    C4 5491   3.135   2.067  15.101  0.1860 -0.4159 -0.2254
  367TMC3    C5 5492   3.160   2.202  15.097  0.1294  0.5133  0.3293
  367TMC3    C6 5493   3.248   2.260  15.181  0.4842  0.0720 -0.5313
  367TMC3     C 5494   3.223   1.854  15.186 -0.4937 -0.1654 -1.0116
  367TMC3     O 5495   3.231   1.788  15.287 -0.6337  0.1156 -0.2676
  367TMC3     H 5496   3.306   1.986  15.384 -1.3525 -1.4059  0.0962
  367TMC3    H1 5497   3.078   2.015  15.025 -0.6478  0.5669 -0.2674
  367TMC3    H2 5498   3.274   2.365  15.186  0.6688  0.0911 -1.8978
  367TMC3    C7 5499   3.125   2.284  14.987 -0.4331 -0.4232 -0.7652
  367TMC3    C8 5500   3.371   2.238  15.394 -0.2860  0.6231 -0.0568
  367TMC3    O1 5501   3.195   2.375  14.962  0.4081  0.4075  0.0828
  367TMC3    O2 5502   3.446   2.160  15.452 -0.2230 -0.3199  0.1323
  368MPD2     C 5503   0.154   3.476  13.227 -0.2122  0.3653 -0.0711
  368MPD2    C1 5504   0.204   3.607  13.249  0.0777 -0.3531  0.2278
  368MPD2    C2 5505   0.339   3.613  13.261  0.3421 -0.1662  0.3733
  368MPD2    C3 5506   0.426   3.507  13.226  0.3309 -0.3619  0.1392
  368MPD2    C4 5507   0.368   3.392  13.177  0.2829 -0.1477  0.0431
  368MPD2    C5 5508   0.234   3.378  13.182  0.3852 -0.4880  0.2013
  368MPD2     H 5509   0.379   3.710  13.288 -0.7232  0.6629 -0.9943
  368MPD2    H1 5510   0.440   3.317  13.147 -1.0083  0.3738 -4.3345
  368MPD2    H2 5511   0.048   3.455  13.228 -0.4085  1.3231 -1.6093
  368MPD2    H3 5512   0.194   3.279  13.163  1.0057 -1.1627  2.3846
  368MPD2     N 5513   0.573   3.512  13.230 -0.8551  0.3421 -0.1138
  368MPD2    H5 5514   0.623   3.434  13.189  0.0498  0.7984  0.1320
  368MPD2    N1 5515   0.113   3.713  13.271  0.3420 -0.4070 -0.1483
  368MPD2    H7 5516   0.014   3.694  13.260 -0.2709  3.3568 -1.2003
  369TMC3    C1 5517   0.044   3.941  13.302  0.3417  0.0731  0.5407
  369TMC3    C2 5518   0.100   4.062  13.272  0.2135  0.5874  0.5950
  369TMC3    C3 5519   0.009   4.165  13.233 -0.2521  0.1782  0.7092
  369TMC3    C4 5520   4.630   3.916  13.296  0.2176 -0.8397  0.2106
  369TMC3    C5 5521   4.548   4.024  13.276 -0.4951  0.3681 -0.5583
  369TMC3    C6 5522   4.599   4.142  13.237 -0.7742  0.1410  0.1608
  369TMC3     C 5523   0.150   3.838  13.315  0.0621  0.0608 -0.4216
  369TMC3     O 5524   0.261   3.873  13.353 -0.5146  0.1726 -0.0429
  369TMC3     H 5525   0.207   4.069  13.256  0.4668  2.6773  3.2097
  369TMC3    H1 5526   4.579   3.826  13.330 -1.1544 -0.5277 -1.0718
  369TMC3    H2 5527   4.538   4.230  13.225 -0.1860  0.7776  1.8405
  369TMC3    C7 5528   4.411   3.988  13.289 -0.7840  0.3418  0.4126
  369TMC3    C8 5529   0.059   4.277  13.168 -0.0897  0.0362 -0.2784
  369TMC3    O1 5530   4.374   3.896  13.356 -0.0145  0.0474 -0.2911
  369TMC3    O2 5531   4.704   4.341  13.091  0.4419 -1.0718  0.3310
  370TMC3    C1 5532   4.139   4.296  16.400 -0.0793 -0.3280  1.0715
  370TMC3    C2 5533   4.030   4.241  16.459 -0.5066  0.5051  0.5837
  370TMC3    C3 5534   3.975   4.129  16.396  0.3628 -0.9235 -1.1191
  370TMC3    C4 5535   4.197   4.250  16.284 -0.1959 -0.0710 -0.4749
  370TMC3    C5 5536   4.136   4.143  16.229  0.1197 -0.4719 -0.1627
  370TMC3    C6 5537   4.020   4.089  16.275 -0.2839 -0.6955  0.7022
  370TMC3     C 5538   4.224   4.375  16.495  0.1849 -0.5530  0.2516
  370TMC3     O 5539   4.203   4.363  16.618  0.0619 -0.3307  0.2056
  370TMC3     H 5540   3.992   4.282  16.551  0.4442  1.2588  0.6480
  370TMC3    H1 5541   4.297   4.275  16.252  0.0234  1.5897  1.5519
  370TMC3    H2 5542   3.977   4.001  16.227 -1.7380 -0.4163  1.4969
  370TMC3    C7 5543   4.213   4.075  16.121  0.1879 -0.5414 -0.0405
  370TMC3    C8 5544   3.919   4.022  16.483 -0.1756 -0.1926  0.2578
  370TMC3    O1 5545   4.334   4.075  16.134  0.0335  0.3674  0.1355
  370TMC3    O2 5546   3.925   3.909  16.436 -0.1686  0.5945 -0.5387
  371TMC3    C1 5547   0.875   2.815  15.393 -0.6278  0.3514  0.6564
  371TMC3    C2 5548   0.815   2.846  15.512  0.0856 -0.0954  0.0145
  371TMC3    C3 5549   0.776   2.975  15.532  0.8464 -0.1785  0.1111
  371TMC3    C4 5550   0.909   2.919  15.313 -0.1734  0.3276  0.9093
  371TMC3    C5 5551   0.877   3.048  15.338  0.2240 -0.8408 -0.5859
  371TMC3    C6 5552   0.796   3.077  15.442  0.4303  0.5015 -1.5233
  371TMC3     C 5553   0.916   2.676  15.351 -0.0749  0.4579 -0.8117
  371TMC3     O 5554   1.011   2.670  15.275  0.2895  0.9395 -0.1211
  371TMC3     H 5555   0.812   2.774  15.593  0.1102 -0.4267 -0.2828
  371TMC3    H1 5556   0.962   2.896  15.222 -0.5335 -0.4671  0.9067
  371TMC3    H2 5557   0.772   3.181  15.462  0.0821  0.1559 -0.1635
  371TMC3    C7 5558   0.907   3.153  15.243  0.3291 -0.0773  0.4399
  371TMC3    C8 5559   0.753   3.018  15.669  0.1787 -0.0978 -0.5479
  371TMC3    O1 5560   0.842   3.258  15.254 -0.3760 -0.4079  0.7645
  371TMC3    O2 5561   0.804   2.951  15.755  0.6110  0.1262  0.6574
  372MPD2     C 5562   4.513   4.451  13.364  0.5449  0.5433 -0.5097
  372MPD2    C1 5563   4.618   4.409  13.442 -0.2499  0.2095  0.5323
  372MPD2    C2 5564   4.598   4.309  13.535 -0.0439  0.7143  0.4951
  372MPD2    C3 5565   4.479   4.247  13.546 -0.7103  0.5823  0.0131
  372MPD2    C4 5566   4.372   4.285  13.470 -1.3335  0.0307  0.2561
  372MPD2    C5 5567   4.387   4.390  13.385  0.5850 -0.0847  0.4344
  372MPD2     H 5568   4.671   4.289  13.613 -2.8257 -1.8747  2.4422
  372MPD2    H1 5569   4.269   4.254  13.480 -1.4328  0.1792 -0.2816
  372MPD2    H2 5570   4.518   4.533  13.293  0.1177  1.3998  0.4624
  372MPD2    H3 5571   4.296   4.421  13.337  1.9660  2.7368 -0.3560
  372MPD2     N 5572   4.457   4.128  13.625 -0.2936  0.5117 -0.1144
  372MPD2    H5 5573   4.538   4.084  13.668 -0.4941  1.0229  0.8010
  372MPD2    N1 5574   0.020   4.479  13.447 -0.1204 -0.6791  0.0505
  372MPD2    H7 5575   0.088   4.452  13.518  0.6823  0.3257 -0.3300
  373TMC3    C1 5576   4.373   3.949  13.726 -0.0218 -0.8038  0.1875
  373TMC3    C2 5577   4.284   3.901  13.816  0.0285 -0.3014 -0.1014
  373TMC3    C3 5578   4.323   3.775  13.863 -0.2883 -0.0561 -0.3348
  373TMC3    C4 5579   4.475   3.875  13.664 -0.9548 -0.9115  0.3856
  373TMC3    C5 5580   4.477   3.745  13.685  0.5655 -0.2714  0.1097
  373TMC3    C6 5581   4.404   3.691  13.790 -0.2853  0.4800  0.6608
  373TMC3     C 5582   4.338   4.068  13.657 -0.7316  0.2594  0.2743
  373TMC3     O 5583   4.221   4.109  13.665  0.1060 -0.4845  0.2584
  373TMC3     H 5584   4.215   3.972  13.860 -0.2021 -1.8806  2.0775
  373TMC3    H1 5585   4.529   3.913  13.578 -0.6765  1.2049  1.4893
  373TMC3    H2 5586   4.420   3.587  13.816  0.2495  0.4571  0.2430
  373TMC3    C7 5587   4.586   3.665  13.627 -0.0136 -0.7030  0.0218
  373TMC3    C8 5588   4.380   3.775  14.006  0.7976  0.3142 -0.3299
  373TMC3    O1 5589   4.683   3.726  13.592 -0.1115 -0.5613  0.5990
  373TMC3    O2 5590   4.489   3.714  14.014 -0.5851  0.4192 -0.5829
  374TMC3    C1 5591   1.704   3.818   9.232 -0.0975  0.1219 -0.2652
  374TMC3    C2 5592   1.743   3.943   9.212 -0.1973 -0.0474  0.3188
  374TMC3    C3 5593   1.650   4.040   9.231  0.0874  0.0428 -0.2928
  374TMC3    C4 5594   1.571   3.784   9.269 -0.0770  0.3944  0.4705
  374TMC3    C5 5595   1.484   3.888   9.283 -0.0638 -0.3595 -0.1724
  374TMC3    C6 5596   1.528   4.018   9.280  0.2716  0.2652 -0.1088
  374TMC3     C 5597   1.792   3.708   9.181  0.1819  0.0388 -0.3923
  374TMC3     O 5598   1.737   3.601   9.159  0.5924  0.0242 -0.0124
  374TMC3     H 5599   1.840   3.979   9.179 -1.3782  0.4759 -2.5697
  374TMC3    H1 5600   1.542   3.680   9.274  0.5565  0.1271 -1.4271
  374TMC3    H2 5601   1.464   4.106   9.282 -1.5930 -1.1561  2.0892
  374TMC3    C7 5602   1.347   3.871   9.333  0.4004  0.4835 -0.0732
  374TMC3    C8 5603   1.703   4.174   9.273  0.0154  0.8015 -0.6180
  374TMC3    O1 5604   1.290   3.979   9.359  0.7731  0.1933 -0.2617
  374TMC3    O2 5605   1.766   4.236   9.190 -0.0432 -0.0235  0.2655
  375MPD2     C 5606   0.717   4.688  17.293 -0.2763  0.3347  0.1235
  375MPD2    C1 5607   0.648   4.653  17.184  0.5835 -0.4999 -0.0262
  375MPD2    C2 5608   0.712   4.615  17.064 -0.6779 -0.7674  0.4208
  375MPD2    C3 5609   0.850   4.633  17.056  0.6529  0.7945 -0.4094
  375MPD2    C4 5610   0.916   4.664  17.177 -0.0081  0.0742  0.1831
  375MPD2    C5 5611   0.850   4.684  17.297  0.3271  0.0335 -0.5551
  375MPD2     H 5612   0.648   4.590  16.980  0.5746 -2.3632 -0.0586
  375MPD2    H1 5613   1.024   4.674  17.175 -0.0682  0.5356 -0.5402
  375MPD2    H2 5614   0.663   4.715  17.383  2.0953 -0.9091  1.9061
  375MPD2    H3 5615   0.904   4.706  17.388 -1.2765 -1.8096  0.8565
  375MPD2     N 5616   0.928   4.619  16.940 -0.3047 -0.0958  0.1826
  375MPD2    H5 5617   1.030   4.620  16.937 -0.3012  1.8140  0.9348
  375MPD2    N1 5618   0.504   4.647  17.178 -0.5515  0.0888 -0.0605
  375MPD2    H7 5619   0.455   4.615  17.096 -0.1922  0.2835 -0.3542
  376TMC3    C1 5620   0.969   4.615  16.701 -0.4848  0.2135  0.0912
  376TMC3    C2 5621   1.097   4.596  16.722 -0.2469  0.4151  1.1358
  376TMC3    C3 5622   1.188   4.639  16.625 -0.9768 -0.0959 -0.3152
  376TMC3    C4 5623   0.926   4.652  16.574 -0.0594  0.2550  0.0493
  376TMC3    C5 5624   1.014   4.702  16.486  0.0249  0.1410  0.2993
  376TMC3    C6 5625   1.153   4.702  16.510 -0.5721  0.3460  0.4114
  376TMC3     C 5626   0.872   4.618  16.816  0.3994  0.1978  0.3880
  376TMC3     O 5627   0.754   4.620  16.788  0.0321  0.4417  0.1801
  376TMC3     H 5628   1.135   4.556  16.816 -1.5632  2.5822  2.5935
  376TMC3    H1 5629   0.821   4.675  16.554 -0.1562  0.4393  0.7727
  376TMC3    H2 5630   1.224   0.000  16.431 -1.1738  1.4877  0.1747
  376TMC3    C7 5631   0.969   0.048  16.367  1.1040 -0.3642 -0.4037
  376TMC3    C8 5632   1.329   4.630  16.635 -0.6242  0.1722  0.2030
  376TMC3    O1 5633   0.845   0.051  16.341  0.4437  0.0980 -0.1577
  376TMC3    O2 5634   1.387   0.006  16.594 -0.2105  0.0671  0.3030
  377MPD2     C 5635   3.733   4.246  12.838 -0.2908  0.4812  0.4403
  377MPD2    C1 5636   3.677   4.318  12.735 -0.6397 -0.9277 -0.0931
  377MPD2    C2 5637   3.543   4.298  12.702  0.5250  0.3717 -0.1334
  377MPD2    C3 5638   3.465   4.207  12.779  0.3488 -0.1373  0.1051
  377MPD2    C4 5639   3.521   4.146  12.888 -0.0965  0.1114 -0.4115
  377MPD2    C5 5640   3.656   4.161  12.916 -0.1677  0.4135  0.3148
  377MPD2     H 5641   3.503   4.343  12.612 -2.2419 -1.4566  0.1795
  377MPD2    H1 5642   3.460   4.071  12.939 -1.0468  0.7593 -0.5930
  377MPD2    H2 5643   3.840   4.257  12.856  0.5841 -0.6305 -4.0860
  377MPD2    H3 5644   3.703   4.094  12.988  0.5478  1.1028  0.4934
  377MPD2     N 5645   3.332   4.165  12.737 -0.2776 -0.0123  0.4280
  377MPD2    H5 5646   3.284   4.093  12.790  0.1705 -0.0597  0.7713
  377MPD2    N1 5647   3.763   4.413  12.667 -0.5677 -0.1231 -0.1998
  377MPD2    H7 5648   3.852   4.427  12.712 -0.9208 -1.2684  0.8722
  378TMC3    C1 5649   3.895   4.720  12.327  0.4784  0.0919  0.0661
  378TMC3    C2 5650   3.796   4.655  12.399  0.3808 -0.8293  0.3242
  378TMC3    C3 5651   3.833   4.575  12.505 -0.0923 -0.4858  0.4070
  378TMC3    C4 5652   4.026   4.702  12.354  0.6537 -0.3237 -1.0926
  378TMC3    C5 5653   4.060   4.623  12.461  0.4304 -0.1516  0.6768
  378TMC3    C6 5654   3.964   4.553  12.534 -0.1728 -0.5109  0.7480
  378TMC3     C 5655   3.846   0.080  12.213  0.0988 -0.3766  0.0143
  378TMC3     O 5656   3.724   0.070  12.193 -0.2552  0.6854 -0.2609
  378TMC3     H 5657   3.691   4.663  12.374  0.5677  0.4433 -0.0860
  378TMC3    H1 5658   4.103   0.023  12.292  2.3859  1.6509  2.3973
  378TMC3    H2 5659   3.985   4.479  12.610 -0.3554 -0.1353  1.1600
  378TMC3    C7 5660   4.184   4.548  12.451  0.2398 -0.4891  0.2946
  378TMC3    C8 5661   3.729   4.487  12.554 -0.1471  0.6748 -0.4836
  378TMC3    O1 5662   4.229   4.539  12.564  0.2747 -0.2137  0.0973
  378TMC3    O2 5663   3.638   4.465  12.477 -0.7390  0.6235 -0.4923
  379MPD2     C 5664   4.183   1.917  15.799 -0.1161  0.3347 -0.2249
  379MPD2    C1 5665   4.245   2.031  15.840 -0.0737  0.4355  0.9163
  379MPD2    C2 5666   4.305   2.040  15.960  1.2794  0.7303 -0.1523
  379MPD2    C3 5667   4.314   1.927  16.045  0.1761 -0.5374  0.1656
  379MPD2    C4 5668   4.252   1.816  16.002  0.2985  0.0563 -0.5145
  379MPD2    C5 5669   4.190   1.813  15.879 -0.0379  0.2883 -0.0842
  379MPD2     H 5670   4.354   2.133  15.985 -2.1826  2.6405 -0.5115
  379MPD2    H1 5671   4.237   1.733  16.070 -0.9509  2.0629  1.6920
  379MPD2    H2 5672   4.121   1.925  15.711 -1.8627  2.1337  1.1942
  379MPD2    H3 5673   4.138   1.721  15.854  2.5937 -1.3790  0.5268
  379MPD2     N 5674   4.368   1.926  16.173 -0.3838 -0.3199  0.0958
  379MPD2    H5 5675   4.370   1.844  16.232 -1.4011  0.7240  1.5667
  379MPD2    N1 5676   4.217   2.147  15.760 -0.0410 -0.2001  0.1370
  379MPD2    H7 5677   4.192   2.136  15.662  1.1954  0.1508 -0.2138
  380TMC3    C1 5678   4.188   2.379  15.705  0.4315 -0.4452  0.3943
  380TMC3    C2 5679   4.265   2.356  15.597  0.0153  0.1941 -0.1192
  380TMC3    C3 5680   4.217   2.403  15.475 -0.0184 -0.1476 -0.1777
  380TMC3    C4 5681   4.063   2.430  15.695 -0.1762  0.0876 -0.1179
  380TMC3    C5 5682   4.026   2.480  15.573 -0.0601  0.5357 -0.2608
  380TMC3    C6 5683   4.103   2.469  15.464 -0.5050  0.5261 -0.9054
  380TMC3     C 5684   4.207   2.280  15.807  0.3986 -0.2360  0.5803
  380TMC3     O 5685   4.200   2.313  15.923 -0.2371  0.1205 -0.0293
  380TMC3     H 5686   4.349   2.287  15.604  1.3034  1.8193  0.3931
  380TMC3    H1 5687   4.008   2.461  15.784  0.3491 -0.4739  0.4049
  380TMC3    H2 5688   4.060   2.510  15.374 -1.7538  1.7776  0.2479
  380TMC3    C7 5689   3.908   2.561  15.566  0.4052  0.1735 -0.0985
  380TMC3    C8 5690   4.307   2.399  15.360 -0.4437  0.1808  0.5888
  380TMC3    O1 5691   3.927   2.683  15.576  0.0471 -0.2021 -0.1091
  380TMC3    O2 5692   4.263   2.411  15.248 -0.5050 -0.2976  0.6154
  381TMC3    C1 5693   4.030   3.293  16.147  0.0246  0.0824 -0.4631
  381TMC3    C2 5694   4.107   3.402  16.175 -0.5865 -0.1803  0.0809
  381TMC3    C3 5695   4.072   3.478  16.278  1.0039 -0.5358  0.2097
  381TMC3    C4 5696   3.919   3.255  16.223 -0.2061  0.4294  0.2022
  381TMC3    C5 5697   3.885   3.333  16.332 -0.8170  0.5272 -0.7340
  381TMC3    C6 5698   3.968   3.437  16.360 -0.3098  0.0271  0.5141
  381TMC3     C 5699   4.069   3.218  16.030  0.1130  0.0626  0.4181
  381TMC3     O 5700   4.129   3.281  15.944 -0.0191  0.6406  0.5938
  381TMC3     H 5701   4.198   3.405  16.116  0.2091 -1.8162  1.2279
  381TMC3    H1 5702   3.853   3.180  16.182  0.8036 -1.0761  1.3521
  381TMC3    H2 5703   3.942   3.498  16.445 -0.8651  0.0750  0.3054
  381TMC3    C7 5704   3.824   3.255  16.440 -0.2442  0.3905 -0.5760
  381TMC3    C8 5705   4.157   3.592  16.294 -0.3304  0.4641  0.6393
  381TMC3    O1 5706   3.869   3.143  16.446  0.4447  0.0321  0.0189
  381TMC3    O2 5707   4.247   3.601  16.206  0.3474 -0.2122 -0.0795
  382MPD2     C 5708   3.596   1.283  16.737 -0.4229  0.4936  0.3204
  382MPD2    C1 5709   3.498   1.283  16.838 -0.1382  0.0160 -0.2432
  382MPD2    C2 5710   3.457   1.155  16.887  0.0409 -0.4186 -1.2398
  382MPD2    C3 5711   3.518   1.038  16.834 -0.1685 -0.4433  0.1051
  382MPD2    C4 5712   3.627   1.043  16.748 -0.6914  0.3030 -0.1577
  382MPD2    C5 5713   3.659   1.165  16.694 -0.0130  0.3220 -0.5233
  382MPD2     H 5714   3.377   1.156  16.959  1.1602 -0.5155  0.0072
  382MPD2    H1 5715   3.679   0.958  16.703 -2.0020 -0.7181  0.2648
  382MPD2    H2 5716   3.628   1.375  16.691 -1.2702 -0.7315 -2.7194
  382MPD2    H3 5717   3.734   1.169  16.616  1.4467 -0.4142  0.8554
  382MPD2     N 5718   3.476   0.912  16.878 -0.0002  0.6449  0.3321
  382MPD2    H5 5719   3.529   0.830  16.849  2.8589  3.2395 -1.7977
  382MPD2    N1 5720   3.450   1.405  16.899 -0.6093 -0.3987 -0.0071
  382MPD2    H7 5721   3.391   1.398  16.982 -0.7431  1.9434  0.1144
  383TMC3    C1 5722   3.365   0.744  16.999 -0.7447  0.7415  0.3373
  383TMC3    C2 5723   3.253   0.680  16.962  0.4875  0.6756  0.3824
  383TMC3    C3 5724   3.247   0.545  16.989 -0.5614 -0.6854  0.4559
  383TMC3    C4 5725   3.471   0.681  17.036  0.0043 -0.6747 -0.1769
  383TMC3    C5 5726   3.469   0.546  17.050  0.7122 -0.1337 -0.2661
  383TMC3    C6 5727   3.353   0.471  17.033  0.5998 -0.0941 -0.2214
  383TMC3     C 5728   3.371   0.889  16.966 -0.6582 -0.2786 -1.0980
  383TMC3     O 5729   3.266   0.949  16.971  0.1149 -0.1169 -0.1560
  383TMC3     H 5730   3.162   0.730  16.931  0.5936 -0.4884 -1.8370
  383TMC3    H1 5731   3.566   0.728  17.059 -0.7815  0.5549  0.5522
  383TMC3    H2 5732   3.364   0.363  17.032 -0.4705 -0.1926 -0.8881
  383TMC3    C7 5733   3.584   0.484  17.116  0.2672 -0.1854  0.4417
  383TMC3    C8 5734   3.137   0.478  16.920 -0.4552  0.1939 -0.1237
  383TMC3    O1 5735   3.693   0.527  17.089 -0.2292  0.2375 -0.0515
  383TMC3    O2 5736   3.085   0.535  16.819 -0.6487  0.0308 -0.8169
  384MPD2     C 5737   0.368   2.175  11.514 -0.2688  0.2304  0.0477
  384MPD2    C1 5738   0.379   2.178  11.655  0.3130 -0.2619 -0.2029
  384MPD2    C2 5739   0.453   2.084  11.720 -0.7530 -0.3271 -0.4612
  384MPD2    C3 5740   0.523   1.991  11.651  0.4527  0.4228  0.0540
  384MPD2    C4 5741   0.510   1.990  11.515 -0.6584 -1.2261 -1.1656
  384MPD2    C5 5742   0.437   2.078  11.445  0.1423 -0.5604  0.0865
  384MPD2     H 5743   0.464   2.083  11.828 -0.0477 -1.3804 -0.5361
  384MPD2    H1 5744   0.559   1.908  11.464  1.9995 -0.2515 -0.1413
  384MPD2    H2 5745   0.296   2.234  11.459  0.8403  1.4698 -0.0639
  384MPD2    H3 5746   0.422   2.075  11.337  0.2519  3.0005 -0.0086
  384MPD2     N 5747   0.584   1.882  11.731  0.0018 -0.0429  0.6621
  384MPD2    H5 5748   0.588   1.899  11.831 -1.8321  1.6578  0.4489
  384MPD2    N1 5749   0.298   2.254  11.737 -0.1133  0.0866 -0.1517
  384MPD2    H7 5750   0.305   2.240  11.837  2.2117 -0.3309 -0.3604
  385TMC3    C1 5751   0.682   1.691  11.812 -0.5400 -1.0308 -0.7226
  385TMC3    C2 5752   0.640   1.563  11.838  0.3021  0.9237  0.3163
  385TMC3    C3 5753   0.577   1.540  11.962 -0.5718 -0.8974 -0.6965
  385TMC3    C4 5754   0.705   1.775  11.913 -0.0454 -0.3201 -0.0502
  385TMC3    C5 5755   0.650   1.749  12.036 -0.2913  0.5225  0.2073
  385TMC3    C6 5756   0.590   1.631  12.067 -0.1413 -0.0460  0.2619
  385TMC3     C 5757   0.633   1.758  11.692  0.4259  0.3434  0.4053
  385TMC3     O 5758   0.601   1.696  11.595  0.0181 -0.2629 -0.4169
  385TMC3     H 5759   0.600   1.515  11.749  1.3848 -0.9609  0.8395
  385TMC3    H1 5760   0.761   1.867  11.901 -0.8250  0.3984  1.8189
  385TMC3    H2 5761   0.529   1.615  12.155 -0.6569 -0.8231 -0.2226
  385TMC3    C7 5762   0.604   1.873  12.083 -0.1227  0.0505 -0.5377
  385TMC3    C8 5763   0.521   1.410  11.992  0.1721 -0.0148  0.8782
  385TMC3    O1 5764   0.586   1.963  11.999 -0.2310  0.0925  0.2216
  385TMC3    O2 5765   0.491   1.383  12.108  0.1326 -0.3174  0.1499
  386TMC3    C1 5766   1.066   4.559  11.870 -0.4211 -0.2359 -0.0092
  386TMC3    C2 5767   1.072   4.538  11.738  0.1050 -0.0013 -0.1527
  386TMC3    C3 5768   0.969   4.581  11.667  1.1825  0.3249  0.0937
  386TMC3    C4 5769   0.961   4.607  11.937  0.4755  1.3284 -0.3927
  386TMC3    C5 5770   0.856   4.648  11.867 -0.4898 -0.0661  0.8291
  386TMC3    C6 5771   0.853   4.628  11.730  0.1257 -0.0765  0.3379
  386TMC3     C 5772   1.174   4.525  11.960 -0.5635 -0.8777 -0.5365
  386TMC3     O 5773   1.195   4.599  12.057  0.5789  0.2756  0.4221
  386TMC3     H 5774   1.162   4.499  11.691 -0.2280  0.3797 -1.1069
  386TMC3    H1 5775   0.959   4.630  12.043 -1.6801  2.4632 -0.6783
  386TMC3    H2 5776   0.765   4.640  11.668 -0.2655  0.2730  0.9637
  386TMC3    C7 5777   0.742   4.697  11.940 -0.1757  0.0056  0.0574
  386TMC3    C8 5778   0.967   4.568  11.523 -0.1600 -0.0318  0.1680
  386TMC3    O1 5779   0.745   4.680  12.060 -0.0768 -0.3840  0.9518
  386TMC3    O2 5780   0.863   4.588  11.460 -0.3147  0.5493 -0.5227
  387MPD2     C 5781   3.260   4.676   9.878  0.0950 -0.0336 -0.3655
  387MPD2    C1 5782   3.383   4.621   9.841  0.5827  0.3973  0.4507
  387MPD2    C2 5783   3.392   4.519   9.749 -0.6427  0.6771 -0.1280
  387MPD2    C3 5784   3.271   4.457   9.718 -0.9569  0.5302  0.7160
  387MPD2    C4 5785   3.148   4.500   9.764  0.2748 -0.4371  0.2670
  387MPD2    C5 5786   3.146   4.614   9.831  0.2521 -0.1119 -0.1721
  387MPD2     H 5787   3.485   4.476   9.715  0.4521  2.6964  0.3115
  387MPD2    H1 5788   3.052   4.455   9.743  0.0433 -0.6163  1.7106
  387MPD2    H2 5789   3.250   0.051   9.923 -0.5452 -0.2186 -0.1041
  387MPD2    H3 5790   3.047   4.655   9.848 -0.3808 -2.2214  1.2166
  387MPD2     N 5791   3.287   4.322   9.656 -1.1863  0.7559  0.1223
  387MPD2    H5 5792   3.386   4.301   9.648 -0.9097  2.1326 -0.1435
  387MPD2    N1 5793   3.506   4.661   9.899  0.2996  0.4044  0.5543
  387MPD2    H7 5794   3.595   4.623   9.869 -0.4245  0.0856 -1.1617
  388TMC3    C1 5795   3.636   0.004  10.083  0.3045 -0.7158  0.3950
  388TMC3    C2 5796   3.695   0.100  10.153 -0.0653  0.1728  0.2961
  388TMC3    C3 5797   3.803   0.068  10.243  0.7339  0.2503 -0.0131
  388TMC3    C4 5798   3.675   4.597  10.105  0.6870  0.6890 -0.0151
  388TMC3    C5 5799   3.790   4.580  10.176  0.3020  0.7171  0.6413
  388TMC3    C6 5800   3.859   4.665  10.253 -0.0228 -0.3713 -0.5518
  388TMC3     C 5801   3.518   0.029  10.007 -0.0680 -0.3928  0.5739
  388TMC3     O 5802   3.443   0.123  10.043  0.3005  0.7775  0.2418
  388TMC3     H 5803   3.643   0.195  10.152  1.1951  0.8520 -0.4772
  388TMC3    H1 5804   3.616   4.517  10.061 -2.2174  2.1346  1.2215
  388TMC3    H2 5805   3.945   4.627  10.307 -0.8956 -2.6146 -0.7514
  388TMC3    C7 5806   3.837   4.440  10.178 -0.3478  0.2258  0.9518
  388TMC3    C8 5807   3.842   0.172  10.334 -0.6723 -0.5251  0.0020
  388TMC3    O1 5808   3.918   4.401  10.260 -0.1645 -0.1051  0.3830
  388TMC3    O2 5809   3.799   0.285  10.316  0.1510  0.4063 -0.5261
  389MPD2     C 5810   2.635   2.665  10.942  0.5066  0.8731 -0.3655
  389MPD2    C1 5811   2.512   2.628  10.891 -0.2560 -0.0309 -0.5434
  389MPD2    C2 5812   2.421   2.559  10.977 -0.7981 -0.1559  0.1188
  389MPD2    C3 5813   2.457   2.545  11.110 -0.9825 -0.4265 -0.4403
  389MPD2    C4 5814   2.583   2.575  11.155  0.1191  0.1909  0.5144
  389MPD2    C5 5815   2.672   2.633  11.073  0.2174  0.3742 -0.1856
  389MPD2     H 5816   2.325   2.534  10.932 -0.9150 -0.6995  0.6743
  389MPD2    H1 5817   2.612   2.556  11.258  0.6122  0.3453  0.4031
  389MPD2    H2 5818   2.709   2.719  10.884  0.6009  0.2664 -0.8117
  389MPD2    H3 5819   2.772   2.649  11.111  0.3593  2.4452 -1.3970
  389MPD2     N 5820   2.369   2.493  11.210  0.0320 -0.0609  0.3324
  389MPD2    H5 5821   2.390   2.499  11.310  2.0206  0.5660 -0.1118
  389MPD2    N1 5822   2.481   2.662  10.749 -0.0145 -0.2921 -0.5097
  389MPD2    H7 5823   2.562   2.693  10.696 -0.4924  0.2669 -0.9153
  390TMC3    C1 5824   2.161   2.411  11.285  0.1814  0.1016 -0.3302
  390TMC3    C2 5825   2.074   2.310  11.280 -0.1967 -0.7078  0.4729
  390TMC3    C3 5826   1.972   2.304  11.372  0.3721 -0.2724 -0.3988
  390TMC3    C4 5827   2.153   2.512  11.375 -0.3702  0.3258 -0.1052
  390TMC3    C5 5828   2.043   2.510  11.459  0.1641  0.4113 -0.6239
  390TMC3    C6 5829   1.949   2.413  11.447  0.3731  0.0407 -0.6123
  390TMC3     C 5830   2.245   2.430  11.176  0.6014 -0.1491  0.2832
  390TMC3     O 5831   2.216   2.373  11.069  0.4805 -0.7757  0.4740
  390TMC3     H 5832   2.090   2.232  11.206 -0.7214  2.5291 -3.0147
  390TMC3    H1 5833   2.215   2.600  11.369  0.2907 -0.1562 -0.3888
  390TMC3    H2 5834   1.859   2.415  11.509 -0.1358  2.3032 -1.4336
  390TMC3    C7 5835   2.025   2.630  11.535 -0.6198  0.0954 -0.0510
  390TMC3    C8 5836   1.868   2.207  11.343  0.5410 -0.0722  0.1565
  390TMC3    O1 5837   2.099   2.726  11.518 -0.3736  0.1245  0.2795
  390TMC3    O2 5838   1.874   2.145  11.239  0.7990 -0.4414  0.1413
  391MPD2     C 5839   1.569   3.856  10.794  0.2216  0.2535 -0.9547
  391MPD2    C1 5840   1.667   3.948  10.815 -0.0481  0.2936 -0.0250
  391MPD2    C2 5841   1.727   4.009  10.704 -0.3289 -0.4692 -0.2363
  391MPD2    C3 5842   1.675   3.984  10.578 -0.1192  0.4111  0.1655
  391MPD2    C4 5843   1.574   3.891  10.564  0.5864  0.0078  0.1888
  391MPD2    C5 5844   1.520   3.824  10.671  0.3668  0.2454  0.8422
  391MPD2     H 5845   1.806   4.083  10.708 -1.6532  0.9995 -1.3580
  391MPD2    H1 5846   1.542   3.867  10.463 -1.2803 -0.8354  0.9792
  391MPD2    H2 5847   1.520   3.802  10.874  4.2971  0.6596  1.8052
  391MPD2    H3 5848   1.444   3.751  10.646  1.1628  0.1778 -1.3780
  391MPD2     N 5849   1.742   4.043  10.468  0.5200 -0.0788 -0.4131
  391MPD2    H5 5850   1.823   4.099  10.493 -0.8195  1.3174  0.8333
  391MPD2    N1 5851   1.719   3.964  10.945  0.2900 -0.2199 -0.0830
  391MPD2    H7 5852   1.670   3.919  11.022  1.1434  0.5685  0.9315
  392TMC3    C1 5853   1.778   4.127  10.243  0.2339  0.5210 -0.0824
  392TMC3    C2 5854   1.723   4.167  10.124 -0.3176  0.1122 -0.2797
  392TMC3    C3 5855   1.797   4.243  10.042  0.9419  0.2465  0.1490
  392TMC3    C4 5856   1.901   4.172  10.286  0.3016 -0.0220  0.3970
  392TMC3    C5 5857   1.965   4.265  10.207 -0.0602 -0.4074  0.4898
  392TMC3    C6 5858   1.916   4.295  10.081  1.1243  0.3036  0.0807
  392TMC3     C 5859   1.704   4.044  10.335 -0.4917 -0.1616  0.0603
  392TMC3     O 5860   1.606   3.992  10.285  0.2441  0.6387 -0.0520
  392TMC3     H 5861   1.622   4.134  10.101 -0.0138 -0.9566 -0.0506
  392TMC3    H1 5862   1.953   4.137  10.375 -1.2330 -0.2968  1.1893
  392TMC3    H2 5863   1.988   4.323  10.005  2.0076 -0.9213  0.4634
  392TMC3    C7 5864   2.067   4.354  10.272 -0.4169  0.2676 -0.4727
  392TMC3    C8 5865   1.752   4.257   9.909  0.5457  0.4442 -0.0956
  392TMC3    O1 5866   2.110   4.321  10.381 -0.3158 -0.2353  0.1555
  392TMC3    O2 5867   1.664   4.180   9.870  0.0178 -0.1859 -0.0535
  393TMC3    C1 5868   0.415   1.945  10.028 -0.8693  0.5479  0.2488
  393TMC3    C2 5869   0.338   1.996  10.130 -0.4186 -0.0744 -1.0284
  393TMC3    C3 5870   0.297   1.900  10.222  0.1825  0.1941  0.5445
  393TMC3    C4 5871   0.461   1.814  10.026 -0.2932 -0.0044 -0.9079
  393TMC3    C5 5872   0.408   1.734  10.117  0.1296  0.2692 -0.1879
  393TMC3    C6 5873   0.321   1.763  10.213  0.2730  0.7194 -0.1893
  393TMC3     C 5874   0.456   2.029   9.918  0.9791  0.2923  0.6641
  393TMC3     O 5875   0.478   1.983   9.806  0.4109 -0.1322 -0.0370
  393TMC3     H 5876   0.320   2.101  10.149  0.6019 -0.2378  0.8236
  393TMC3    H1 5877   0.518   1.783   9.939 -1.2475 -1.9671 -0.8182
  393TMC3    H2 5878   0.275   1.688  10.277  0.6903  0.9034  0.3234
  393TMC3    C7 5879   0.480   1.617  10.137 -0.0587 -0.3543 -0.6202
  393TMC3    C8 5880   0.237   1.943  10.348 -0.7261 -0.1531 -0.1488
  393TMC3    O1 5881   0.425   1.511  10.173 -0.8654  0.2162 -0.0937
  393TMC3    O2 5882   0.156   1.865  10.396 -0.3790  0.7526  0.2538
  394TMC3    C1 5883   2.357   2.690  10.549 -0.0056 -0.6011  0.1121
  394TMC3    C2 5884   2.242   2.663  10.475 -0.1800 -0.2344 -0.1784
  394TMC3    C3 5885   2.209   2.752  10.374 -0.1167  1.2253 -0.3112
  394TMC3    C4 5886   2.440   2.790  10.512 -0.1742  0.0751  0.6204
  394TMC3    C5 5887   2.403   2.873  10.405  0.1073 -0.5395  0.1123
  394TMC3    C6 5888   2.287   2.856  10.339 -0.4753 -0.4513 -0.2032
  394TMC3     C 5889   2.366   2.639  10.681 -0.2314  0.5745 -0.6037
  394TMC3     O 5890   2.271   2.577  10.714 -0.0035 -0.5493  0.4206
  394TMC3     H 5891   2.179   2.576  10.487  0.4736 -0.6228  0.4300
  394TMC3    H1 5892   2.525   2.818  10.574  0.1809 -2.3948  1.2455
  394TMC3    H2 5893   2.244   2.926  10.268 -0.6660  1.7854  2.1334
  394TMC3    C7 5894   2.501   2.951  10.338  0.8277  0.5386 -0.3102
  394TMC3    C8 5895   2.122   2.708  10.267  0.5380 -0.3345  0.5905
  394TMC3    O1 5896   2.468   3.010  10.237  0.0064  0.3418 -0.2448
  394TMC3    O2 5897   2.031   2.781  10.227  0.0244 -0.1802 -0.2861
  395TMC3    C1 5898   1.175   0.070  14.331  0.2497 -0.7746  0.1334
  395TMC3    C2 5899   1.088   4.705  14.390  0.2921  0.4752  1.2564
  395TMC3    C3 5900   1.046   0.019  14.519 -0.3775 -1.0587  0.3985
  395TMC3    C4 5901   1.209   0.191  14.383  0.3377  0.6050 -0.2270
  395TMC3    C5 5902   1.175   0.222  14.512  0.5740  0.5462  0.0459
  395TMC3    C6 5903   1.097   0.130  14.586  0.1019  0.0213 -0.4470
  395TMC3     C 5904   1.288   0.001  14.266 -0.0698 -0.0374  0.2602
  395TMC3     O 5905   1.402   0.050  14.284 -0.4149  0.2311 -0.2888
  395TMC3     H 5906   1.045   4.618  14.340 -0.2488  0.1257  2.3438
  395TMC3    H1 5907   1.272   0.252  14.319 -0.4463 -0.3165 -1.8828
  395TMC3    H2 5908   1.111   0.141  14.692 -0.6529 -0.3722 -0.3112
  395TMC3    C7 5909   1.293   0.273  14.583  0.5979 -0.9782 -0.1236
  395TMC3    C8 5910   1.033   4.628  14.611 -0.4221  0.3827  0.1099
  395TMC3    O1 5911   1.335   0.215  14.684  0.5980 -1.3926 -0.1789
  395TMC3    O2 5912   0.986   4.661  14.717  0.0313 -0.6707  0.2291
  396MPD2     C 5913   1.615   0.770  16.712 -0.2680 -0.3064  0.0756
  396MPD2    C1 5914   1.737   0.782  16.777  0.1571  0.7184 -0.4062
  396MPD2    C2 5915   1.829   0.879  16.738  0.3881  0.0286 -0.3930
  396MPD2    C3 5916   1.790   0.980  16.646  0.2124  0.0451 -1.2143
  396MPD2    C4 5917   1.665   0.964  16.590 -0.0051 -0.7299  0.7604
  396MPD2    C5 5918   1.575   0.866  16.625 -0.6536  0.1425  0.1250
  396MPD2     H 5919   1.929   0.880  16.778 -0.1777 -0.8651  1.0428
  396MPD2    H1 5920   1.616   1.051  16.547  0.6109 -0.9331 -0.3778
  396MPD2    H2 5921   1.540   0.700  16.746 -1.2134  0.0130 -1.3314
  396MPD2    H3 5922   1.482   0.866  16.569 -0.1328 -0.6659 -0.7350
  396MPD2     N 5923   1.874   1.094  16.614 -0.1555  0.6862  0.7930
  396MPD2    H5 5924   1.954   1.109  16.674  1.2870 -1.7846 -0.4928
  396MPD2    N1 5925   1.765   0.673  16.868 -0.0077  0.0376 -0.3298
  396MPD2    H7 5926   1.705   0.592  16.859 -1.1979  0.6536  2.0293
  397TMC3    C1 5927   1.869   0.556  17.055 -0.5106  0.7418 -0.4875
  397TMC3    C2 5928   1.995   0.512  17.072 -0.4342 -0.1890  0.2151
  397TMC3    C3 5929   2.023   0.384  17.035 -0.0093  0.1186 -0.4108
  397TMC3    C4 5930   1.764   0.470  17.027 -0.6207 -0.3874  0.0354
  397TMC3    C5 5931   1.801   0.333  17.029  0.3979  0.6749 -0.0736
  397TMC3    C6 5932   1.927   0.288  17.042  0.6346  0.0256  1.0289
  397TMC3     C 5933   1.858   0.679  16.970 -0.5451  0.1974  0.2947
  397TMC3     O 5934   1.935   0.776  16.997 -0.0246  0.3596 -0.2759
  397TMC3     H 5935   2.077   0.582  17.063  0.0468 -0.8241 -0.4503
  397TMC3    H1 5936   1.660   0.500  17.033 -0.0397  1.9455 -1.5684
  397TMC3    H2 5937   1.954   0.185  17.020  0.1991  0.5652 -1.9936
  397TMC3    C7 5938   1.701   0.255  17.097  0.5411 -1.0127 -0.1690
  397TMC3    C8 5939   2.155   0.325  17.039  0.1870  0.7036  0.2918
  397TMC3    O1 5940   1.587   0.255  17.051 -0.4069  0.0769  0.2839
  397TMC3    O2 5941   2.161   0.223  17.107 -0.2589  0.0547  0.5158
  398MPD2     C 5942   4.035   1.068  17.530 -0.0308 -0.5542  0.2505
  398MPD2    C1 5943   4.163   1.033  17.564  0.0877  0.4172 -0.3446
  398MPD2    C2 5944   4.262   1.130  17.549  0.3317 -0.1427  0.0052
  398MPD2    C3 5945   4.235   1.251  17.487 -0.5073 -0.7150  0.7960
  398MPD2    C4 5946   4.110   1.274  17.445 -0.4582  0.7319  0.8042
  398MPD2    C5 5947   4.013   1.179  17.462  0.1831 -0.1023  0.3902
  398MPD2     H 5948   4.364   1.106  17.578 -1.3623 -2.7405  3.8038
  398MPD2    H1 5949   4.078   1.377  17.429  2.4480  1.4193 -0.4880
  398MPD2    H2 5950   3.952   1.009  17.567 -1.1607  0.2229 -1.0740
  398MPD2    H3 5951   3.909   1.210  17.452  0.5372  0.4768 -1.4151
  398MPD2     N 5952   4.337   1.346  17.491  0.3066 -0.3528  0.0879
  398MPD2    H5 5953   4.421   1.321  17.543  0.9863  2.1614  0.2043
  398MPD2    N1 5954   4.200   0.916  17.630 -0.1948  0.2118 -0.5032
  398MPD2    H7 5955   4.300   0.905  17.645  0.1200 -0.5367 -3.1718
  399TMC3    C1 5956   4.190   0.719   0.067  0.4890  0.1977 -0.6880
  399TMC3    C2 5957   4.324   0.703   0.059  0.4518 -0.1320 -0.0094
  399TMC3    C3 5958   4.386   0.595   0.120 -0.6179 -0.0402 -0.5612
  399TMC3    C4 5959   4.114   0.638   0.143  0.9107  0.1104 -0.3323
  399TMC3    C5 5960   4.177   0.538   0.209  0.3398 -0.1398  0.2214
  399TMC3    C6 5961   4.307   0.508   0.189 -0.2838  0.5306  0.2965
  399TMC3     C 5962   4.114   0.819  17.681 -0.1331  0.7425  0.5753
  399TMC3     O 5963   3.993   0.819  17.690  0.3116  0.1510  0.4315
  399TMC3     H 5964   4.381   0.763  17.682  0.2146  1.4887  1.1784
  399TMC3    H1 5965   4.014   0.673   0.169  1.5539  2.1304 -0.5484
  399TMC3    H2 5966   4.356   0.428   0.244  0.1929  1.8803  1.8230
  399TMC3    C7 5967   4.110   0.476   0.324 -0.7806 -0.7125 -0.2704
  399TMC3    C8 5968   4.530   0.574   0.103 -0.9654  0.0049 -0.7468
  399TMC3    O1 5969   4.162   0.369   0.357  0.2758 -0.8623 -0.5532
  399TMC3    O2 5970   4.590   0.668   0.056 -0.1977  0.1202  0.6423
  400TMC3    C1 5971   2.929   0.247  16.565 -0.3220 -0.3597 -0.7661
  400TMC3    C2 5972   2.828   0.174  16.504  0.4028  0.0895 -0.2187
  400TMC3    C3 5973   2.756   0.248  16.413  0.6125  0.0811 -0.4232
  400TMC3    C4 5974   2.944   0.386  16.546 -0.2563 -0.3466 -0.4231
  400TMC3    C5 5975   2.870   0.446  16.453  0.1426 -0.3756 -0.1703
  400TMC3    C6 5976   2.769   0.380  16.389 -0.6361 -0.8162  0.0145
  400TMC3     C 5977   3.018   0.164  16.640  0.5071  0.0196  0.0831
  400TMC3     O 5978   2.975   0.062  16.693 -0.2707 -0.0747  0.5694
  400TMC3     H 5979   2.829   0.066  16.507 -3.0555  0.0393 -0.6180
  400TMC3    H1 5980   3.031   0.425  16.597 -0.3171 -0.7360 -0.0167
  400TMC3    H2 5981   2.696   0.422  16.321 -2.1042 -1.9250  0.9109
  400TMC3    C7 5982   2.864   0.592  16.444  0.7111 -0.0373  0.3184
  400TMC3    C8 5983   2.642   0.188  16.349 -0.4846  0.2852  0.1093
  400TMC3    O1 5984   2.811   0.634  16.345 -0.4562 -0.7032  0.5000
  400TMC3    O2 5985   2.609   0.230  16.238 -0.1478 -0.1759 -0.2072
  401MPD2     C 5986   2.197   4.181   1.819 -1.0555  1.2864 -0.0085
  401MPD2    C1 5987   2.207   4.170   1.681 -1.2352  0.1952  0.0226
  401MPD2    C2 5988   2.098   4.120   1.603 -0.2098 -0.0881 -0.7594
  401MPD2    C3 5989   1.983   4.071   1.669 -0.2815 -0.8988 -0.2028
  401MPD2    C4 5990   1.976   4.095   1.803  0.6190  0.1636  0.5699
  401MPD2    C5 5991   2.077   4.141   1.879  0.1200  0.2353 -0.1245
  401MPD2     H 5992   2.107   4.117   1.495  1.6101  1.0815 -0.6374
  401MPD2    H1 5993   1.890   4.065   1.862  0.3674  0.1526  0.1983
  401MPD2    H2 5994   2.281   4.212   1.880 -0.7046 -1.4105  0.8577
  401MPD2    H3 5995   2.069   4.135   1.987 -0.1704 -3.2126 -0.3336
  401MPD2     N 5996   1.884   4.002   1.592 -0.1099  0.4048  0.2473
  401MPD2    H5 5997   1.894   3.995   1.491 -0.1205 -1.4233  0.3675
  401MPD2    N1 5998   2.314   4.215   1.610 -0.3290  0.8280 -0.4064
  401MPD2    H7 5999   2.311   4.213   1.508 -0.7938 -1.1150 -0.3613
  402TMC3    C1 6000   1.687   3.883   1.569 -0.2223  1.1281  0.3496
  402TMC3    C2 6001   1.603   3.785   1.617  0.4587 -0.7328  0.2436
  402TMC3    C3 6002   1.491   3.762   1.549  0.4865  0.2633  0.4285
  402TMC3    C4 6003   1.662   3.952   1.454 -0.7061  0.3554  0.1299
  402TMC3    C5 6004   1.533   3.941   1.403  0.3224 -0.4620 -0.1607
  402TMC3    C6 6005   1.448   3.846   1.450  0.4564 -0.7575 -0.1923
  402TMC3     C 6006   1.794   3.927   1.656 -0.0555 -0.0212  1.2500
  402TMC3     O 6007   1.801   3.881   1.770  0.1044  0.0405  0.2621
  402TMC3     H 6008   1.617   3.744   1.716 -0.5426 -0.1146  0.6439
  402TMC3    H1 6009   1.718   4.041   1.425 -1.1726 -0.2203 -2.5222
  402TMC3    H2 6010   1.352   3.835   1.401  0.7810 -1.9982 -0.5505
  402TMC3    C7 6011   1.505   3.996   1.272  0.8393 -0.8182  0.1574
  402TMC3    C8 6012   1.482   3.619   1.520  0.0186  0.5203  0.0188
  402TMC3    O1 6013   1.383   4.008   1.254  0.5120 -0.2277 -0.3313
  402TMC3    O2 6014   1.574   3.545   1.556 -0.3525 -0.2149  0.4018
  403MPD2     C 6015   0.032   2.477  12.975  0.1165  0.1132  0.2678
  403MPD2    C1 6016   0.051   2.406  13.090 -0.0823 -0.4714  0.0895
  403MPD2    C2 6017   0.113   2.464  13.199  0.1845  0.4178 -1.1332
  403MPD2    C3 6018   0.148   2.601  13.195 -0.5709 -0.4380 -0.0867
  403MPD2    C4 6019   0.131   2.674  13.080  0.2374 -0.4065  0.0536
  403MPD2    C5 6020   0.049   2.617  12.977 -0.1472  0.2266 -0.0370
  403MPD2     H 6021   0.125   2.409  13.292  2.6031  2.9535  0.0866
  403MPD2    H1 6022   0.160   2.778  13.073 -2.4580  0.3104 -0.5757
  403MPD2    H2 6023   4.699   2.431  12.894 -0.1333 -0.8020  0.9622
  403MPD2    H3 6024   0.029   2.667  12.883  0.1467 -0.6973 -0.5850
  403MPD2     N 6025   0.221   2.642  13.307 -0.0221 -0.2969  0.2451
  403MPD2    H5 6026   0.221   2.574  13.382 -0.2946 -0.2856  0.2556
  403MPD2    N1 6027   0.009   2.266  13.079  0.7806  0.2961  0.5315
  403MPD2    H7 6028   4.705   2.229  12.988 -0.1394  4.3642 -0.8526
  404TMC3    C1 6029   4.652   2.065  13.165  0.0915 -0.3868 -0.7362
  404TMC3    C2 6030   4.585   2.009  13.270  0.4713 -0.2887 -0.2038
  404TMC3    C3 6031   4.542   1.876  13.263  0.5322  0.2217 -0.2471
  404TMC3    C4 6032   4.695   1.990  13.061 -0.2124  0.0008 -0.6407
  404TMC3    C5 6033   4.661   1.864  13.059  0.2568 -0.1419 -0.2213
  404TMC3    C6 6034   4.576   1.811  13.149 -0.4458 -0.1834 -0.7236
  404TMC3     C 6035   4.709   2.193  13.192  0.0712 -0.0832 -0.1688
  404TMC3     O 6036   4.686   2.238  13.304 -0.4514  0.1751  0.3005
  404TMC3     H 6037   4.551   2.065  13.357 -0.8814  1.4381 -1.8523
  404TMC3    H1 6038   0.032   2.034  12.983 -1.3063  2.2359 -0.2006
  404TMC3    H2 6039   4.556   1.706  13.131  0.3441 -0.1361 -1.8708
  404TMC3    C7 6040   4.691   1.786  12.933 -0.1924 -0.0517  0.1801
  404TMC3    C8 6041   4.571   1.805  13.380  0.8769  0.4482  0.5418
  404TMC3    O1 6042   0.081   1.796  12.894 -0.1591 -0.2564  0.1874
  404TMC3    O2 6043   4.666   1.725  13.364 -0.4115 -0.3873  0.1657
  405MPD2     C 6044   0.499   2.654  14.595  0.2749  0.5024  0.9259
  405MPD2    C1 6045   0.472   2.662  14.465  0.1466  0.2568 -0.5689
  405MPD2    C2 6046   0.454   2.792  14.413  0.3279  0.1274  0.5149
  405MPD2    C3 6047   0.462   2.910  14.486  1.1075 -0.2121 -0.5453
  405MPD2    C4 6048   0.481   2.901  14.627 -0.1995  0.1674  0.0741
  405MPD2    C5 6049   0.505   2.773  14.671  0.1282 -0.8870 -0.2840
  405MPD2     H 6050   0.439   2.799  14.306 -0.3191 -0.8633  0.5459
  405MPD2    H1 6051   0.481   2.988  14.692 -1.8484  0.9864 -1.0336
  405MPD2    H2 6052   0.523   2.555  14.631 -0.5336  1.1054  3.1876
  405MPD2    H3 6053   0.517   2.764  14.779  0.1767 -1.8624 -0.3701
  405MPD2     N 6054   0.436   3.035  14.424  0.2213  0.1236 -0.5009
  405MPD2    H5 6055   0.431   3.024  14.323  0.0030  0.3049 -0.5130
  405MPD2    N1 6056   0.467   2.541  14.385  0.2683 -0.6117  0.0941
  405MPD2    H7 6057   0.437   2.459  14.436 -1.2709 -0.7821 -1.0737
  406TMC3    C1 6058   0.113   3.347  14.347  0.2822  0.8137  0.6565
  406TMC3    C2 6059   0.119   3.321  14.212  0.0632 -1.3606  0.7141
  406TMC3    C3 6060   0.220   3.257  14.162 -0.2068 -0.3386 -0.0963
  406TMC3    C4 6061   0.229   3.322  14.424  0.1701 -0.3482  0.2587
  406TMC3    C5 6062   0.329   3.241  14.378  0.9923 -0.0356  0.4680
  406TMC3    C6 6063   0.327   3.211  14.239 -0.1887  0.1562 -0.3163
  406TMC3     C 6064   4.719   3.403  14.416  0.4830  0.8695 -0.5558
  406TMC3     O 6065   0.000   3.451  14.530  0.4994  0.2413  0.1409
  406TMC3     H 6066   0.034   3.341  14.149  0.2550 -0.7612  0.6406
  406TMC3    H1 6067   0.222   3.337  14.531  0.9637 -1.5699  0.4771
  406TMC3    H2 6068   0.418   3.167  14.201  1.3407  1.7319  1.5238
  406TMC3    C7 6069   0.406   3.159  14.479 -0.5130 -0.2708  0.3838
  406TMC3    C8 6070   0.181   3.179  14.042 -0.1305  0.1214 -1.0134
  406TMC3    O1 6071   0.409   3.191  14.599  0.1605  0.0607 -0.1836
  406TMC3    O2 6072   0.114   3.243  13.960 -0.2077  0.1241 -0.5803
  407MPD2     C 6073   2.989   4.030   9.289  1.0417 -0.4953  0.2503
  407MPD2    C1 6074   3.047   4.156   9.304 -0.0753  0.5093 -0.2429
  407MPD2    C2 6075   2.978   4.244   9.391  0.0825  0.6674 -0.8087
  407MPD2    C3 6076   2.868   4.210   9.468 -0.3302  1.1288 -0.9664
  407MPD2    C4 6077   2.824   4.081   9.455  0.3937  0.1641  0.0835
  407MPD2    C5 6078   2.882   3.997   9.370  0.0793 -0.2777 -0.7235
  407MPD2     H 6079   3.013   4.345   9.406  1.7983 -0.0309 -0.0283
  407MPD2    H1 6080   2.730   4.043   9.494  0.5580 -1.4804 -1.1012
  407MPD2    H2 6081   3.032   3.947   9.235  0.2019  0.4916 -1.9740
  407MPD2    H3 6082   2.836   3.899   9.361  1.6938 -1.1813  0.8396
  407MPD2     N 6083   2.809   4.310   9.550 -0.0635 -0.3693  0.0579
  407MPD2    H5 6084   2.840   4.406   9.546  0.9317 -0.5952  2.3947
  407MPD2    N1 6085   3.177   4.185   9.263  0.1618 -0.1755  0.0253
  407MPD2    H7 6086   3.218   4.272   9.295 -1.0513  0.5425 -0.3872
  408TMC3    C1 6087   3.390   4.148   9.187 -0.0826  0.4381  0.6144
  408TMC3    C2 6088   3.460   4.031   9.208  0.2069 -0.5824 -0.4515
  408TMC3    C3 6089   3.564   4.030   9.299  0.0829 -0.8112 -0.1372
  408TMC3    C4 6090   3.417   4.259   9.261  0.6465 -0.0930  0.1108
  408TMC3    C5 6091   3.520   4.254   9.351  0.1448  0.1032  0.2975
  408TMC3    C6 6092   3.597   4.139   9.379 -0.6636  0.4017 -0.4305
  408TMC3     C 6093   3.250   4.109   9.177  1.0734  0.4600 -0.0741
  408TMC3     O 6094   3.213   4.026   9.097 -0.2518  0.6321  0.0343
  408TMC3     H 6095   3.421   3.942   9.159 -0.7334 -2.4546  3.6914
  408TMC3    H1 6096   3.357   4.348   9.244  1.6875  0.6946  0.5535
  408TMC3    H2 6097   3.678   4.144   9.452 -0.6422 -0.4345 -0.3953
  408TMC3    C7 6098   3.531   4.361   9.448 -0.0900 -1.3263 -0.9225
  408TMC3    C8 6099   3.598   3.904   9.357  0.5322  0.3407 -0.1485
  408TMC3    O1 6100   3.569   4.326   9.559  0.1833  0.2821 -0.0246
  408TMC3    O2 6101   3.518   3.810   9.351 -0.2690 -0.2223  0.2240
  409MPD2     C 6102   1.780   4.690  16.851  0.1434  0.4175 -0.0856
  409MPD2    C1 6103   1.912   4.633  16.851 -0.4357 -0.3606  0.5400
  409MPD2    C2 6104   2.015   4.708  16.799  0.0681  0.5675 -0.2259
  409MPD2    C3 6105   1.983   0.107  16.740 -0.7909  0.2852 -0.4155
  409MPD2    C4 6106   1.858   0.154  16.733 -0.3602  0.1636 -0.9514
  409MPD2    C5 6107   1.753   0.090  16.792  0.1920 -0.0157 -0.9454
  409MPD2     H 6108   2.116   4.670  16.810 -0.7249 -0.9745  1.6606
  409MPD2    H1 6109   1.838   0.239  16.670  1.3402  1.4944  0.2890
  409MPD2    H2 6110   1.694   4.633  16.885 -0.3686  1.3713  0.2290
  409MPD2    H3 6111   1.652   0.129  16.783 -0.3977 -1.4664 -0.5641
  409MPD2     N 6112   2.078   0.191  16.675  0.3196 -0.3459  0.0358
  409MPD2    H5 6113   2.049   0.285  16.649  0.1391 -0.8932 -1.6651
  409MPD2    N1 6114   1.948   4.514  16.920  0.5952  0.4100  0.1017
  409MPD2    H7 6115   2.047   4.491  16.925 -0.4045 -3.6633  1.4812
  410TMC3    C1 6116   2.297   0.269  16.632 -0.0563 -0.6724 -0.5390
  410TMC3    C2 6117   2.417   0.274  16.692 -0.2135  0.4275 -0.5325
  410TMC3    C3 6118   2.500   0.372  16.653 -0.3239  0.2926 -0.2203
  410TMC3    C4 6119   2.266   0.347  16.528  0.6250 -0.7574 -0.1270
  410TMC3    C5 6120   2.350   0.443  16.491 -0.2208  0.3738 -0.2706
  410TMC3    C6 6121   2.472   0.457  16.552  0.2820  0.4882  0.1979
  410TMC3     C 6122   2.219   0.159  16.672  0.5757  0.7375  0.0823
  410TMC3     O 6123   2.280   0.061  16.704 -0.0912 -0.0767 -0.0080
  410TMC3     H 6124   2.430   0.220  16.785 -4.7564 -0.4402 -0.4071
  410TMC3    H1 6125   2.176   0.336  16.467  1.1375 -0.9278 -0.8523
  410TMC3    H2 6126   2.527   0.549  16.532 -0.1192  0.5558 -0.5693
  410TMC3    C7 6127   2.326   0.501  16.366  0.3659 -0.2089  0.5139
  410TMC3    C8 6128   2.624   0.393  16.723  0.2286  0.3695  0.0909
  410TMC3    O1 6129   2.277   0.428  16.283  0.2322  0.3614 -0.1815
  410TMC3    O2 6130   2.666   0.507  16.721 -0.0257  0.1945 -0.3983
  411MPD2     C 6131   2.064   0.603  14.433 -0.1821 -0.3614  0.2525
  411MPD2    C1 6132   2.024   0.709  14.355  0.3229 -0.4297  0.2620
  411MPD2    C2 6133   1.984   0.688  14.224  0.1079  0.5140 -0.2236
  411MPD2    C3 6134   1.970   0.554  14.180 -0.5316 -0.3606  0.2139
  411MPD2    C4 6135   1.995   0.450  14.261  0.1083 -0.2114 -0.6969
  411MPD2    C5 6136   2.059   0.476  14.383  0.6015 -0.1215 -0.0351
  411MPD2     H 6137   1.956   0.767  14.155  0.9698  0.2639 -0.8489
  411MPD2    H1 6138   2.004   0.352  14.216  1.4197  0.9289 -2.9287
  411MPD2    H2 6139   2.111   0.624  14.528 -1.5348 -0.8192  1.0064
  411MPD2    H3 6140   2.097   0.386  14.429 -1.3067  0.0927  1.9339
  411MPD2     N 6141   1.934   0.525  14.048  0.2572 -0.0998  0.0961
  411MPD2    H5 6142   1.948   0.429  14.018 -0.8550 -0.0022 -0.7355
  411MPD2    N1 6143   2.031   0.840  14.417 -0.5297  0.2026 -0.0840
  411MPD2    H7 6144   2.017   0.842  14.517 -0.4351  2.7904 -0.1202
  412TMC3    C1 6145   1.895   0.523  13.818 -0.1976 -0.1745 -0.0118
  412TMC3    C2 6146   1.810   0.570  13.720  0.0992 -0.0172 -1.0628
  412TMC3    C3 6147   1.812   0.519  13.601  0.0680  0.3561  0.3785
  412TMC3    C4 6148   1.981   0.422  13.804  0.8558 -0.8290  0.3405
  412TMC3    C5 6149   1.988   0.371  13.678  0.0245  0.4391  0.0595
  412TMC3    C6 6150   1.905   0.420  13.583  0.0636 -0.1740 -0.1433
  412TMC3     C 6151   1.888   0.597  13.939  0.7860 -0.4048  0.2731
  412TMC3     O 6152   1.870   0.717  13.926  0.5328  0.2576 -0.1940
  412TMC3     H 6153   1.747   0.656  13.738  1.0471  0.5088 -0.2335
  412TMC3    H1 6154   2.062   0.397  13.872  2.4070  1.9657 -0.4841
  412TMC3    H2 6155   1.910   0.376  13.485 -1.5070  0.1306 -0.3622
  412TMC3    C7 6156   2.124   0.375  13.642 -0.2665  0.6792 -0.0908
  412TMC3    C8 6157   1.819   0.617  13.489  0.2788  0.1198  0.2360
  412TMC3    O1 6158   2.209   0.296  13.690 -0.2735 -0.4791 -0.0907
  412TMC3    O2 6159   1.933   0.617  13.436 -0.2768 -0.0541 -0.5485
  413MPD2     C 6160   3.576   3.222  15.085  0.1149  0.6481  0.9068
  413MPD2    C1 6161   3.560   3.330  15.006 -0.5824  0.8970  0.6417
  413MPD2    C2 6162   3.656   3.358  14.909 -0.1103 -0.3626 -0.5898
  413MPD2    C3 6163   3.769   3.277  14.900  0.6291 -0.5802 -0.6612
  413MPD2    C4 6164   3.779   3.155  14.966 -0.0870 -0.5568  0.4009
  413MPD2    C5 6165   3.680   3.134  15.057 -0.2460  0.3501  0.1961
  413MPD2     H 6166   3.654   3.456  14.862  0.0069  0.1907  0.5714
  413MPD2    H1 6167   3.863   3.086  14.968 -1.5256 -2.3368 -0.5907
  413MPD2    H2 6168   3.510   3.198  15.167  2.4273 -2.7322  1.7841
  413MPD2    H3 6169   3.705   3.045  15.115 -1.5854  1.0358  1.8461
  413MPD2     N 6170   3.880   3.326  14.824 -0.5952 -0.3491  0.4120
  413MPD2    H5 6171   3.876   3.424  14.796 -0.5827 -0.9450 -1.6677
  413MPD2    N1 6172   3.457   3.414  15.034  0.6126 -0.5338 -0.1595
  413MPD2    H7 6173   3.396   3.386  15.110  0.6999  2.2065  0.9348
  414TMC3    C1 6174   4.099   3.317  14.725 -0.5444  0.2560  0.4646
  414TMC3    C2 6175   4.189   3.236  14.649 -0.2682  0.2809  0.7100
  414TMC3    C3 6176   4.319   3.266  14.647 -0.2389  1.1688  0.1388
  414TMC3    C4 6177   4.149   3.415  14.802 -0.3537 -0.2977  0.2290
  414TMC3    C5 6178   4.283   3.448  14.784 -0.8913 -0.3701  0.0787
  414TMC3    C6 6179   4.371   3.382  14.705 -0.0210 -0.5322 -0.1601
  414TMC3     C 6180   3.979   3.246  14.776 -1.0627 -0.0749  0.3714
  414TMC3     O 6181   3.981   3.123  14.769  0.3797 -0.3221 -0.4171
  414TMC3     H 6182   4.153   3.147  14.600 -0.9571  0.2930  1.1966
  414TMC3    H1 6183   4.090   3.464  14.879  0.3508  1.2596 -0.2196
  414TMC3    H2 6184   4.475   3.412  14.699 -0.3825  0.3305 -2.1177
  414TMC3    C7 6185   4.353   3.513  14.893  0.0130  0.1088 -0.5113
  414TMC3    C8 6186   4.410   3.166  14.599  0.0575  0.5310  0.7202
  414TMC3    O1 6187   4.476   3.514  14.889 -0.1096  0.1560  0.4838
  414TMC3    O2 6188   4.370   3.077  14.518  0.0817  0.2448 -0.3145
  415TMC3    C1 6189   0.793   0.872   9.855  0.0399  0.4530 -0.4799
  415TMC3    C2 6190   0.743   1.001   9.862  0.4517  0.4456 -0.0730
  415TMC3    C3 6191   0.628   1.024   9.934  0.1617  1.1000 -0.8419
  415TMC3    C4 6192   0.733   0.767   9.919  0.6903 -0.3229  0.2723
  415TMC3    C5 6193   0.620   0.790   9.989 -0.7535  0.6692 -0.9249
  415TMC3    C6 6194   0.580   0.919  10.012  0.7232 -0.3585  1.4652
  415TMC3     C 6195   0.916   0.838   9.788 -0.2169 -0.2296 -0.5149
  415TMC3     O 6196   0.981   0.738   9.822 -0.3847  0.1693 -0.4059
  415TMC3     H 6197   0.803   1.087   9.835 -0.4245  1.1118  0.0750
  415TMC3    H1 6198   0.781   0.670   9.919  0.7412 -0.2869 -1.3309
  415TMC3    H2 6199   0.484   0.933  10.061  0.4681  1.4146  0.4836
  415TMC3    C7 6200   0.548   0.681  10.039  0.3212 -0.1352 -0.5832
  415TMC3    C8 6201   0.556   1.145   9.930  0.5041  0.1814 -0.1305
  415TMC3    O1 6202   0.467   0.701  10.130 -0.0767  0.7113 -0.0929
  415TMC3    O2 6203   0.461   1.166  10.007 -0.5793  0.3226 -0.6211
  416MPD2     C 6204   1.854   1.021  11.161  0.7227 -0.0827  0.0511
  416MPD2    C1 6205   1.800   0.931  11.249  1.1953  0.2239  0.2561
  416MPD2    C2 6206   1.852   0.803  11.250  0.3332 -0.5730 -0.8871
  416MPD2    C3 6207   1.944   0.763  11.148 -0.0674 -0.5444 -0.0182
  416MPD2    C4 6208   1.981   0.850  11.049  0.2190  0.6299 -0.1417
  416MPD2    C5 6209   1.938   0.981  11.063 -0.1154 -0.0483  0.0323
  416MPD2     H 6210   1.820   0.730  11.324  0.9138  0.9366  0.8546
  416MPD2    H1 6211   2.039   0.816  10.963 -0.2256 -0.2406 -0.0930
  416MPD2    H2 6212   1.819   1.123  11.167  0.4351 -0.1409 -0.6059
  416MPD2    H3 6213   1.966   1.057  10.990 -0.7686 -0.2584 -0.4376
  416MPD2     N 6214   1.995   0.634  11.134  0.7484  0.4189 -0.4232
  416MPD2    H5 6215   2.054   0.617  11.053 -2.1101 -1.3110 -2.1465
  416MPD2    N1 6216   1.700   0.977  11.338 -0.6189 -0.5022  0.4185
  416MPD2    H7 6217   1.684   1.077  11.328 -0.3467 -0.6368 -1.3266
  417TMC3    C1 6218   1.540   1.005  11.504  0.0976 -0.9739 -0.7004
  417TMC3    C2 6219   1.500   0.979  11.632 -0.1872  0.3659 -0.9767
  417TMC3    C3 6220   1.386   1.045  11.677  0.3106  0.4345 -0.1272
  417TMC3    C4 6221   1.471   1.080  11.420  0.0661  0.8983  0.3885
  417TMC3    C5 6222   1.364   1.148  11.460  0.3961  0.7996  0.2488
  417TMC3    C6 6223   1.320   1.131  11.587 -0.2206  0.0592 -0.1270
  417TMC3     C 6224   1.649   0.920  11.455 -0.6114 -0.2196  0.2027
  417TMC3     O 6225   1.684   0.821  11.520  0.5842  0.7577 -0.4927
  417TMC3     H 6226   1.565   0.913  11.688 -2.2392  0.3570  1.3997
  417TMC3    H1 6227   1.490   1.085  11.314  0.0921 -1.6190  0.2576
  417TMC3    H2 6228   1.227   1.174  11.621 -1.8359 -2.4735 -1.3173
  417TMC3    C7 6229   1.281   1.202  11.357 -0.7237  0.2855  1.0243
  417TMC3    C8 6230   1.321   1.009  11.807 -0.4488 -0.5521 -0.2728
  417TMC3    O1 6231   1.331   1.227  11.246 -0.1173  0.1625  0.1630
  417TMC3    O2 6232   1.216   1.070  11.828  0.4192  0.2687 -0.9294
  418TMC3    C1 6233   4.624   1.665  17.434 -0.3109  0.0309 -0.4304
  418TMC3    C2 6234   4.499   1.626  17.401 -0.5878  0.1076  0.6134
  418TMC3    C3 6235   4.440   1.547  17.490 -0.1628 -0.3183 -0.0238
  418TMC3    C4 6236   4.670   1.649  17.560  0.1571  0.5874  0.2177
  418TMC3    C5 6237   4.596   1.572  17.652 -0.8842  0.0601 -0.4631
  418TMC3    C6 6238   4.475   1.517  17.620 -1.0325 -0.3537 -0.1709
  418TMC3     C 6239   4.722   1.711  17.333  1.0960  0.0925 -0.0507
  418TMC3     O 6240   4.685   1.729  17.218 -0.3589 -0.0681  0.4778
  418TMC3     H 6241   4.463   1.639  17.300 -0.0163  0.8344  0.5088
  418TMC3    H1 6242   0.033   1.703  17.599 -0.5803  0.3019  2.2050
  418TMC3    H2 6243   4.422   1.447  17.684 -0.8826 -1.0006 -0.7609
  418TMC3    C7 6244   4.635   1.550   0.099  0.6134  1.0395 -0.1378
  418TMC3    C8 6245   4.327   1.473  17.447  0.4063 -0.5976 -0.6245
  418TMC3    O1 6246   4.560   1.483   0.168 -0.7746  0.5430 -0.0925
  418TMC3    O2 6247   4.249   1.523  17.365 -0.4793 -0.0018 -0.5493
  419MPD2     C 6248   3.568   0.777  12.591  0.6197  0.1530  0.4681
  419MPD2    C1 6249   3.497   0.897  12.582  0.2615  0.3663  0.1724
  419MPD2    C2 6250   3.417   0.933  12.688  0.4119 -0.0433 -0.6348
  419MPD2    C3 6251   3.411   0.858  12.799  0.4697 -0.3735 -0.2128
  419MPD2    C4 6252   3.488   0.747  12.811 -0.1085  0.1497 -0.0307
  419MPD2    C5 6253   3.567   0.699  12.707 -0.4156 -0.1409  0.5136
  419MPD2     H 6254   3.368   1.029  12.691  1.3016  0.4097 -0.5691
  419MPD2    H1 6255   3.478   0.688  12.901  0.2733  0.1857  0.0337
  419MPD2    H2 6256   3.621   0.732  12.507 -1.7526 -0.6736 -0.5887
  419MPD2    H3 6257   3.622   0.606  12.716  1.4108  0.9830  0.8768
  419MPD2     N 6258   3.337   0.909  12.913  0.3489  0.3626 -0.9245
  419MPD2    H5 6259   3.276   0.989  12.900 -0.6690 -0.1893  0.4503
  419MPD2    N1 6260   3.522   0.990  12.476  0.1223 -0.4160  0.0633
  419MPD2    H7 6261   3.463   1.073  12.474 -0.0041 -0.5369 -1.0020
  420TMC3    C1 6262   3.290   0.950  13.144  0.3749  0.0372  0.0350
  420TMC3    C2 6263   3.184   1.025  13.116  0.0109  0.1146 -0.0297
  420TMC3    C3 6264   3.137   1.116  13.211  0.2401  0.0423 -0.0332
  420TMC3    C4 6265   3.358   0.961  13.266 -0.1899  0.4390 -0.4165
  420TMC3    C5 6266   3.318   1.059  13.351 -0.2175  0.1865 -1.0155
  420TMC3    C6 6267   3.206   1.136  13.321  0.4258 -0.0357  0.6276
  420TMC3     C 6268   3.336   0.859  13.046 -0.3745 -0.2743  0.0083
  420TMC3     O 6269   3.386   0.755  13.090  0.1023 -0.1299  0.2144
  420TMC3     H 6270   3.132   1.010  13.022 -0.8282  0.2824  0.4047
  420TMC3    H1 6271   3.445   0.897  13.279 -0.6548 -0.1068 -0.0069
  420TMC3    H2 6272   3.169   1.208  13.393  2.0790 -1.2440  2.6694
  420TMC3    C7 6273   3.396   1.065  13.474 -0.2370  0.2162 -0.0309
  420TMC3    C8 6274   3.038   1.211  13.170  0.6563 -1.6798 -0.1374
  420TMC3    O1 6275   3.467   0.967  13.486 -0.1413  0.2592  0.3755
  420TMC3    O2 6276   3.047   1.247  13.051 -0.0826 -0.0542  0.2940
  421TMC3    C1 6277   0.355   2.759  13.454  0.1469 -0.3319  0.2082
  421TMC3    C2 6278   0.396   2.874  13.509 -0.2180 -0.8497  0.1935
  421TMC3    C3 6279   0.468   2.871  13.620 -0.7194 -0.9927  0.3400
  421TMC3    C4 6280   0.400   2.638  13.514  0.4316 -0.4122 -0.3168
  421TMC3    C5 6281   0.484   2.636  13.619  0.0605 -0.0957 -0.0533
  421TMC3    C6 6282   0.520   2.751  13.677 -0.4997 -0.6053 -0.1521
  421TMC3     C 6283   0.283   2.758  13.328 -0.3776  0.2860 -0.2461
  421TMC3     O 6284   0.257   2.871  13.287 -0.1500  0.4834 -0.1360
  421TMC3     H 6285   0.368   2.966  13.458  0.0522 -1.5500 -1.2114
  421TMC3    H1 6286   0.395   2.550  13.451  0.5819 -0.5483 -0.1371
  421TMC3    H2 6287   0.570   2.761  13.773  0.5587 -0.5474 -0.7163
  421TMC3    C7 6288   0.535   2.515  13.688 -0.2635  0.4062 -0.4536
  421TMC3    C8 6289   0.465   3.002  13.688 -0.5985 -0.0534 -0.1059
  421TMC3    O1 6290   0.621   2.537  13.772  0.2346 -0.4493 -0.1509
  421TMC3    O2 6291   0.393   3.087  13.644 -0.2081 -0.0375  0.0643
  422TMC3    C1 6292   2.343   3.417  12.446  0.1291 -0.4939  0.7097
  422TMC3    C2 6293   2.302   3.535  12.486 -0.3172  0.2238  0.4581
  422TMC3    C3 6294   2.201   3.539  12.571 -0.6175  0.0082  1.0914
  422TMC3    C4 6295   2.267   3.299  12.463  0.3396 -1.5645  0.1860
  422TMC3    C5 6296   2.156   3.308  12.545 -0.4874  0.1506  0.4012
  422TMC3    C6 6297   2.124   3.432  12.603 -0.6182 -0.9838  0.2596
  422TMC3     C 6298   2.448   3.416  12.344  0.3947  0.3532  0.0149
  422TMC3     O 6299   2.480   3.525  12.298 -0.0883  0.1801 -0.2776
  422TMC3     H 6300   2.347   3.632  12.469 -0.8449  0.5458  0.8575
  422TMC3    H1 6301   2.293   3.205  12.415  0.5245  0.5902 -3.9157
  422TMC3    H2 6302   2.046   3.432  12.678  1.7043  0.4005  2.6559
  422TMC3    C7 6303   2.061   3.200  12.528  0.2798 -0.8069  0.0839
  422TMC3    C8 6304   2.171   3.664  12.642 -0.4534  0.3140 -0.0490
  422TMC3    O1 6305   2.101   3.099  12.478  0.2633  0.2487 -0.3614
  422TMC3    O2 6306   2.204   3.767  12.579  0.7673  0.1783 -0.0028
  423MPD2     C 6307   3.907   3.958   0.607 -1.3786  0.1070  0.0663
  423MPD2    C1 6308   4.000   3.860   0.580 -0.6478  0.6332  0.5541
  423MPD2    C2 6309   4.002   3.804   0.457 -0.5124 -0.3674  0.6011
  423MPD2    C3 6310   3.910   3.846   0.364  0.4699 -0.2801 -0.6669
  423MPD2    C4 6311   3.814   3.937   0.401  0.5760 -0.0798  0.1857
  423MPD2    C5 6312   3.819   4.001   0.518 -0.0381 -1.1620  0.3429
  423MPD2     H 6313   4.079   3.732   0.433 -1.3436 -0.6884 -1.0955
  423MPD2    H1 6314   3.741   3.965   0.325  0.8000 -2.4473 -0.9191
  423MPD2    H2 6315   3.921   4.011   0.701  0.5486 -0.2061 -0.0504
  423MPD2    H3 6316   3.744   4.072   0.552  1.5069 -0.0287  1.3955
  423MPD2     N 6317   3.890   3.790   0.229  0.1098  0.1126  0.6026
  423MPD2    H5 6318   3.824   3.836   0.167  0.7880 -2.1663 -1.8087
  423MPD2    N1 6319   4.102   3.824   0.667  0.4441  0.2871 -0.3200
  423MPD2    H7 6320   4.160   3.746   0.637  0.0717  0.0944 -0.5426
  424TMC3    C1 6321   4.222   3.805   0.873 -0.0622 -0.6216 -0.2248
  424TMC3    C2 6322   4.328   3.769   0.800 -0.0938 -0.0926 -0.6108
  424TMC3    C3 6323   4.409   3.666   0.841 -0.0347  0.0931  0.5107
  424TMC3    C4 6324   4.192   3.747   0.997  0.2545  0.4146  0.4409
  424TMC3    C5 6325   4.269   3.627   1.025  0.4055  0.6110  0.5590
  424TMC3    C6 6326   4.379   3.588   0.947 -0.6696 -0.1222 -0.8654
  424TMC3     C 6327   4.122   3.870   0.799 -0.1676 -0.7468 -0.1140
  424TMC3     O 6328   4.036   3.920   0.878 -0.2443 -0.5754 -0.2205
  424TMC3     H 6329   4.354   3.839   0.722 -1.0382  1.4365  0.4672
  424TMC3    H1 6330   4.098   3.765   1.048  0.2698  1.1096  0.2267
  424TMC3    H2 6331   4.441   3.504   0.977 -0.0702  0.9950  1.0426
  424TMC3    C7 6332   4.247   3.559   1.152  0.5145 -0.4888 -0.5313
  424TMC3    C8 6333   4.547   3.672   0.794  0.3246  0.6115  0.0685
  424TMC3    O1 6334   4.322   3.467   1.179 -0.6668 -0.1969 -0.1536
  424TMC3    O2 6335   4.607   3.567   0.808  0.1859  0.5116 -0.4542
  425MPD2     C 6336   3.009   3.496  17.676  0.3680  0.0189 -0.2505
  425MPD2    C1 6337   2.965   3.462  17.554 -0.0840  0.4023 -0.5320
  425MPD2    C2 6338   2.862   3.541  17.493  0.1703 -0.4845 -0.3479
  425MPD2    C3 6339   2.790   3.627  17.576  0.2976 -0.5868  0.0052
  425MPD2    C4 6340   2.840   3.662   0.006 -0.2751  0.0413  0.1576
  425MPD2    C5 6341   2.956   3.600   0.053  0.4389  1.0326  0.1680
  425MPD2     H 6342   2.826   3.506  17.397  2.3851 -1.3497 -0.8732
  425MPD2    H1 6343   2.798   3.744   0.063  0.7269  1.0085 -0.5061
  425MPD2    H2 6344   3.084   3.438   0.037  1.2551  1.3725 -0.0411
  425MPD2    H3 6345   2.993   3.628   0.151  0.4154  4.0169 -0.6812
  425MPD2     N 6346   2.683   3.700  17.517 -0.2609 -0.0669  0.1951
  425MPD2    H5 6347   2.664   3.681  17.419  0.3888 -0.4017  0.1352
  425MPD2    N1 6348   3.022   3.345  17.498 -0.4062 -0.7010  0.3173
  425MPD2    H7 6349   3.064   3.287  17.570  1.3468 -1.2375 -1.1354
  426TMC3    C1 6350   3.065   3.189  17.335 -0.4597 -0.1463 -0.4933
  426TMC3    C2 6351   3.019   3.155  17.213 -0.5508 -0.2454 -0.0919
  426TMC3    C3 6352   2.984   3.027  17.190 -0.7827 -0.4706  0.3966
  426TMC3    C4 6353   3.050   3.095  17.439 -0.5068  0.2299 -0.3015
  426TMC3    C5 6354   3.006   2.963  17.409 -0.0573 -0.4787 -0.3503
  426TMC3    C6 6355   2.974   2.934  17.281 -0.7144 -0.3887 -0.3479
  426TMC3     C 6356   3.038   3.324  17.364  0.1956 -0.2562 -0.6171
  426TMC3     O 6357   3.026   3.407  17.273 -0.1848 -0.3846  0.2513
  426TMC3     H 6358   3.031   3.229  17.134  0.0796 -1.0315 -0.7292
  426TMC3    H1 6359   3.086   3.108  17.540  1.3152 -0.1437 -0.8856
  426TMC3    H2 6360   2.953   2.830  17.257  0.8806 -0.3741 -1.7849
  426TMC3    C7 6361   3.038   2.845  17.490  0.3831 -0.8168 -0.9661
  426TMC3    C8 6362   2.942   2.990  17.056  0.7063 -0.0301  0.4391
  426TMC3    O1 6363   3.012   2.734  17.444  0.1956 -0.2107  0.3678
  426TMC3    O2 6364   2.964   2.872  17.025 -0.3101 -0.0498 -0.5694
  427MPD2     C 6365   1.362   0.784  14.595 -0.8309 -0.1592  0.5120
  427MPD2    C1 6366   1.341   0.779  14.735  0.1397 -0.2462  0.0867
  427MPD2    C2 6367   1.222   0.831  14.785  0.6783  0.0034  0.5281
  427MPD2    C3 6368   1.118   0.871  14.707 -0.4119  0.4054 -0.1029
  427MPD2    C4 6369   1.135   0.874  14.573 -0.3729 -0.4401  0.2792
  427MPD2    C5 6370   1.253   0.831  14.522  0.1486  0.0349 -0.4852
  427MPD2     H 6371   1.221   0.849  14.891 -3.9000 -1.4877  0.7434
  427MPD2    H1 6372   1.062   0.917  14.506  0.5139 -1.6293 -1.4628
  427MPD2    H2 6373   1.449   0.741  14.546  0.0410  1.3919  0.6851
  427MPD2    H3 6374   1.273   0.843  14.417 -2.2044  1.5579 -0.7558
  427MPD2     N 6375   0.998   0.929  14.753  0.1452  0.2880 -0.3383
  427MPD2    H5 6376   0.931   0.950  14.680  1.4664  2.0473 -1.0584
  427MPD2    N1 6377   1.439   0.734  14.830  0.2730  0.4382 -0.0213
  427MPD2    H7 6378   1.408   0.713  14.924  0.7773 -2.2487 -0.4758
  428TMC3    C1 6379   1.639   0.633  14.888 -0.2548  0.5064  1.1437
  428TMC3    C2 6380   1.573   0.524  14.935  0.1998  0.1994  0.9508
  428TMC3    C3 6381   1.618   0.468  15.042 -0.1798  0.2265  0.3392
  428TMC3    C4 6382   1.748   0.686  14.950 -0.0626 -0.1443  0.1888
  428TMC3    C5 6383   1.798   0.621  15.066  0.8108 -0.3671  0.3858
  428TMC3    C6 6384   1.732   0.508  15.113  0.6099  0.4274 -1.0526
  428TMC3     C 6385   1.570   0.714  14.795  0.7649  0.3833  0.0028
  428TMC3     O 6386   1.632   0.773  14.707 -0.3473 -0.6249 -0.0426
  428TMC3     H 6387   1.500   0.478  14.870 -0.5607 -0.4319  2.2494
  428TMC3    H1 6388   1.780   0.788  14.930  1.8293 -0.7031  0.3549
  428TMC3    H2 6389   1.767   0.443  15.192 -1.1393 -1.4362 -1.8051
  428TMC3    C7 6390   1.894   0.683  15.153 -0.5461 -0.1180  0.2733
  428TMC3    C8 6391   1.567   0.335  15.073  0.5831  0.0654  0.0680
  428TMC3    O1 6392   1.884   0.671  15.277 -0.0517 -0.1820  0.0975
  428TMC3    O2 6393   1.525   0.281  14.972  0.6096  0.1523  0.2610
  429MPD2     C 6394   2.169   0.576  17.373  0.6906 -0.0969 -0.0089
  429MPD2    C1 6395   2.297   0.540  17.363 -0.5840 -0.1244 -0.3557
  429MPD2    C2 6396   2.384   0.631  17.301 -0.1333 -0.5899  0.0942
  429MPD2    C3 6397   2.346   0.752  17.248  0.6451 -0.0686 -0.1587
  429MPD2    C4 6398   2.215   0.781  17.257 -0.6424  0.0956  0.4875
  429MPD2    C5 6399   2.129   0.702  17.332 -0.1358  0.6203  0.0870
  429MPD2     H 6400   2.487   0.598  17.286  0.0922 -0.5849  1.6586
  429MPD2    H1 6401   2.177   0.871  17.209  2.2531 -0.0221 -2.0615
  429MPD2    H2 6402   2.093   0.512  17.416  0.1096  1.2966  1.0392
  429MPD2    H3 6403   2.027   0.731  17.354 -0.0870 -0.3077  1.5617
  429MPD2     N 6404   2.447   0.835  17.192 -0.6251 -0.7085 -0.7116
  429MPD2    H5 6405   2.541   0.796  17.191  0.2282  1.2738  1.6150
  429MPD2    N1 6406   2.354   0.429  17.426  0.1987  0.2457  0.9143
  429MPD2    H7 6407   2.455   0.423  17.413 -0.2249 -2.2456 -1.4476
  430TMC3    C1 6408   2.545   1.030  17.103 -0.0535 -0.3284 -0.5414
  430TMC3    C2 6409   2.540   1.165  17.071 -0.3457 -0.3765 -0.0253
  430TMC3    C3 6410   2.652   1.225  17.040  0.0625  0.5007 -0.3582
  430TMC3    C4 6411   2.668   0.970  17.124 -0.3420  0.1276 -0.2772
  430TMC3    C5 6412   2.783   1.042  17.087 -0.7571 -0.2914 -0.1593
  430TMC3    C6 6413   2.775   1.168  17.053  0.8256 -0.0591  0.2331
  430TMC3     C 6414   2.427   0.958  17.131 -0.0016 -0.2896  0.0908
  430TMC3     O 6415   2.320   1.019  17.117  0.1017  0.4734  0.2772
  430TMC3     H 6416   2.446   1.204  17.033  0.0198  0.3651 -0.1564
  430TMC3    H1 6417   2.679   0.862  17.125 -0.8998  0.0805  0.9634
  430TMC3    H2 6418   2.864   1.220  17.019  1.7618 -1.6328  0.3010
  430TMC3    C7 6419   2.861   0.968  16.990  0.0159 -0.1485  0.3587
  430TMC3    C8 6420   2.642   1.312  16.926 -0.2204  0.2714  0.0243
  430TMC3    O1 6421   2.893   0.856  17.017 -0.0498  0.1034  0.4960
  430TMC3    O2 6422   2.707   1.279  16.830 -0.0454 -0.1285 -0.5694
  431MPD2     C 6423   3.439   1.845  12.175  0.6866  0.0226  0.8682
  431MPD2    C1 6424   3.523   1.798  12.269  0.2345 -0.0904 -0.4441
  431MPD2    C2 6425   3.519   1.660  12.295 -0.0442  0.2206 -0.3612
  431MPD2    C3 6426   3.433   1.569  12.230 -0.6676  0.7981 -0.3996
  431MPD2    C4 6427   3.336   1.621  12.143  0.2074 -0.1561  0.6515
  431MPD2    C5 6428   3.352   1.755  12.112 -0.7840 -0.2705  0.3608
  431MPD2     H 6429   3.580   1.612  12.370 -0.8879 -0.3171 -0.0167
  431MPD2    H1 6430   3.255   1.570  12.093 -0.2868 -1.3905  2.7302
  431MPD2    H2 6431   3.433   1.949  12.145 -2.7649  0.0440  1.5852
  431MPD2    H3 6432   3.278   1.791  12.041 -1.0513 -0.1728  0.6883
  431MPD2     N 6433   3.460   1.426  12.235 -0.0059  0.1446  0.1626
  431MPD2    H5 6434   3.526   1.386  12.301  0.8013 -1.9471 -1.9114
  431MPD2    N1 6435   3.619   1.888  12.324 -0.2099  0.2591  0.2911
  431MPD2    H7 6436   3.624   1.981  12.283  1.7749  1.1397  2.5394
  432TMC3    C1 6437   3.450   1.205  12.143  0.5450  0.0863 -0.7866
  432TMC3    C2 6438   3.486   1.153  12.019 -0.0255 -0.3356 -0.6779
  432TMC3    C3 6439   3.583   1.062  12.026 -0.3753 -0.0639  0.4529
  432TMC3    C4 6440   3.498   1.154  12.265  0.6105 -0.1746 -0.3319
  432TMC3    C5 6441   3.594   1.058  12.263  0.2965  0.2229 -0.0176
  432TMC3    C6 6442   3.635   1.009  12.144 -0.3622  0.1693 -0.2884
  432TMC3     C 6443   3.405   1.343  12.142  0.5098  0.2912  0.1857
  432TMC3     O 6444   3.350   1.371  12.036  0.2312  0.4252 -0.1586
  432TMC3     H 6445   3.452   1.194  11.925 -0.1577  0.5360 -0.2531
  432TMC3    H1 6446   3.492   1.204  12.360 -4.6225 -2.5554  0.5708
  432TMC3    H2 6447   3.707   0.927  12.149  0.1820  0.6618 -0.1046
  432TMC3    C7 6448   3.618   0.973  12.379  0.6917  0.2972  0.0756
  432TMC3    C8 6449   3.665   1.070  11.911  0.1951 -0.7337 -0.4109
  432TMC3    O1 6450   3.713   0.899  12.368 -0.0424 -0.3626 -0.3817
  432TMC3    O2 6451   3.675   1.186  11.861 -0.2450 -0.1352 -0.1447
  433MPD2     C 6452   2.733   4.466  10.523 -0.0601 -0.0792  0.4012
  433MPD2    C1 6453   2.679   4.354  10.579  0.8450 -0.6149 -0.4242
  433MPD2    C2 6454   2.662   4.354  10.715  0.6166 -0.5304  0.6961
  433MPD2    C3 6455   2.707   4.454  10.797  0.2229  0.2176  0.3422
  433MPD2    C4 6456   2.759   4.567  10.736 -0.3651 -0.6440 -0.5841
  433MPD2    C5 6457   2.769   4.568  10.602 -0.2099  0.3477 -0.0707
  433MPD2     H 6458   2.623   4.262  10.757 -0.8969 -0.0554  0.3531
  433MPD2    H1 6459   2.793   4.658  10.784 -0.9684 -0.2909 -0.8400
  433MPD2    H2 6460   2.746   4.474  10.416 -1.7322  0.7685  0.2648
  433MPD2    H3 6461   2.807   4.658  10.555  2.6704 -1.1182 -0.5877
  433MPD2     N 6462   2.702   4.431  10.932  0.5796 -0.4364 -0.3473
  433MPD2    H5 6463   2.676   4.336  10.955  1.2905 -0.6299 -0.3433
  433MPD2    N1 6464   2.669   4.247  10.488 -0.6374 -0.2326 -0.4847
  433MPD2    H7 6465   2.685   4.264  10.390 -1.5524 -2.4826 -1.0432
  434TMC3    C1 6466   2.682   4.022  10.410 -0.4327  0.1873 -0.7170
  434TMC3    C2 6467   2.781   3.935  10.441 -1.4569  0.2423 -0.5469
  434TMC3    C3 6468   2.887   3.913  10.350  0.2171  0.3717  0.4658
  434TMC3    C4 6469   2.688   4.091  10.291 -0.3955  0.8394 -0.3965
  434TMC3    C5 6470   2.788   4.066  10.199 -0.6730  0.0548  0.4368
  434TMC3    C6 6471   2.898   3.990  10.237 -0.2473 -0.2282 -0.0482
  434TMC3     C 6472   2.648   4.111  10.525 -0.0272 -0.5468 -0.4472
  434TMC3     O 6473   2.637   4.059  10.635 -0.2682  0.3844  0.1811
  434TMC3     H 6474   2.778   3.881  10.535 -1.2887  1.2333  0.0294
  434TMC3    H1 6475   2.610   4.158  10.256  0.8385  1.9812 -0.9112
  434TMC3    H2 6476   2.980   3.969  10.168  0.6574  2.7618  0.1336
  434TMC3    C7 6477   2.781   4.122  10.063  0.4926 -0.3778  0.3955
  434TMC3    C8 6478   3.009   3.869  10.416 -0.2407 -0.9525 -0.2201
  434TMC3    O1 6479   2.828   4.234  10.049 -0.4646 -0.3452 -0.0701
  434TMC3    O2 6480   3.014   3.758  10.463  0.2143 -0.2313 -0.2692
  435MPD2     C 6481   4.409   4.121  15.579 -0.1161  0.4296 -0.5094
  435MPD2    C1 6482   4.342   4.182  15.683 -0.4005 -0.0908 -0.4959
  435MPD2    C2 6483   4.412   4.206  15.798 -0.0046  0.0002 -0.0801
  435MPD2    C3 6484   4.535   4.162  15.813  0.3914  0.5185  0.5289
  435MPD2    C4 6485   4.597   4.096  15.713 -0.0598 -0.3075  0.3187
  435MPD2    C5 6486   4.535   4.073  15.598  0.2259 -0.1130 -0.4390
  435MPD2     H 6487   4.373   4.248  15.890  1.3114 -2.2182  1.4818
  435MPD2    H1 6488   4.703   4.073  15.719  0.3800  0.7835 -2.9270
  435MPD2    H2 6489   4.360   4.102  15.484 -1.2065 -0.2248  0.1698
  435MPD2    H3 6490   4.584   4.023  15.515  1.4806  1.9791 -0.9455
  435MPD2     N 6491   4.603   4.183  15.941  0.4074 -0.4314 -0.0409
  435MPD2    H5 6492   4.557   4.229  16.018  1.3478  0.4036  0.0219
  435MPD2    N1 6493   4.206   4.204  15.680 -0.4346 -0.8555  0.0404
  435MPD2    H7 6494   4.165   4.236  15.767 -2.8093 -1.3936 -0.8671
  436TMC3    C1 6495   3.823   4.120  15.761  0.3530  0.0068  0.5477
  436TMC3    C2 6496   3.956   4.141  15.741  0.5545 -0.0683 -0.1417
  436TMC3    C3 6497   3.989   4.166  15.606  0.2442 -0.1225  0.1952
  436TMC3    C4 6498   3.725   4.128  15.663  0.4002  1.1202  0.0916
  436TMC3    C5 6499   3.767   4.161  15.536  0.1646  0.4494  0.1643
  436TMC3    C6 6500   3.897   4.180  15.507  0.0063  0.4027 -1.0875
  436TMC3     C 6501   3.784   4.086  15.898 -1.1070 -0.0268 -0.5143
  436TMC3     O 6502   3.865   4.036  15.968  0.1885  0.5221 -0.0595
  436TMC3     H 6503   4.032   4.127  15.817 -1.8332  0.5800  2.3520
  436TMC3    H1 6504   3.625   4.097  15.692  0.5082  1.8126  1.2129
  436TMC3    H2 6505   3.923   4.200  15.404  3.3159  1.5157 -0.0076
  436TMC3    C7 6506   3.673   4.173  15.422  1.2682  0.0902 -0.0464
  436TMC3    C8 6507   4.127   4.196  15.569 -0.5252  0.2057  0.5051
  436TMC3    O1 6508   3.705   4.185  15.305 -0.4695 -0.3154 -0.7871
  436TMC3    O2 6509   4.147   4.193  15.447 -0.1474  0.0492 -0.1602
  437TMC3    C1 6510   2.998   1.829  12.486 -0.1303 -0.0130 -0.2805
  437TMC3    C2 6511   2.867   1.876  12.504  0.9201 -0.2739  0.6345
  437TMC3    C3 6512   2.820   1.968  12.415 -0.0538 -0.1894 -0.1104
  437TMC3    C4 6513   3.083   1.895  12.398  0.1199 -0.6417  1.3281
  437TMC3    C5 6514   3.035   2.001  12.326 -0.5609 -0.4449 -0.0010
  437TMC3    C6 6515   2.902   2.028  12.328  0.1772  0.5715  0.1226
  437TMC3     C 6516   3.046   1.744  12.586  0.3360 -0.0213 -0.8260
  437TMC3     O 6517   2.965   1.728  12.675 -0.0261  0.0545 -0.4090
  437TMC3     H 6518   2.792   1.816  12.556  1.1933  0.3268  1.7340
  437TMC3    H1 6519   3.190   1.882  12.395  0.3842  1.4999  1.9320
  437TMC3    H2 6520   2.862   2.110  12.270 -1.6793 -0.2959  0.1793
  437TMC3    C7 6521   3.112   2.063  12.223 -0.1477 -0.1365 -0.6181
  437TMC3    C8 6522   2.676   1.972  12.399  0.4230 -0.4434 -0.3711
  437TMC3    O1 6523   3.048   2.106  12.131 -0.1545 -0.2962  0.0280
  437TMC3    O2 6524   2.609   1.878  12.427 -0.1104  0.1626 -0.3575
  438MPD2     C 6525   0.700   2.248  16.526 -1.1336  0.4727 -0.5768
  438MPD2    C1 6526   0.679   2.118  16.496 -0.2689  0.1703 -0.5857
  438MPD2    C2 6527   0.579   2.049  16.559  0.1915 -0.1673  0.1427
  438MPD2    C3 6528   0.487   2.114  16.641  0.0038 -0.5615  0.3800
  438MPD2    C4 6529   0.495   2.253  16.651 -0.0340 -0.4024 -0.2625
  438MPD2    C5 6530   0.609   2.317  16.602  0.8146  0.5719  0.1035
  438MPD2     H 6531   0.556   1.947  16.528  1.2889 -1.1614  2.6707
  438MPD2    H1 6532   0.429   2.303  16.721 -1.6898 -0.5445 -1.7139
  438MPD2    H2 6533   0.779   2.310  16.486  0.4982 -0.5481  1.1133
  438MPD2    H3 6534   0.634   2.418  16.633  0.2264 -0.1062  2.7219
  438MPD2     N 6535   0.385   2.052  16.708  0.6865 -0.7920  0.1149
  438MPD2    H5 6536   0.333   2.109  16.774  0.4029 -0.2989 -0.5323
  438MPD2    N1 6537   0.767   2.044  16.417 -0.0663 -0.2788 -0.6030
  438MPD2    H7 6538   0.746   1.945  16.401  1.4537 -0.5888 -0.6480
  439TMC3    C1 6539   0.955   2.002  16.281 -0.1907  0.5412 -0.0254
  439TMC3    C2 6540   1.004   2.022  16.155 -0.2258  0.3349  0.2671
  439TMC3    C3 6541   1.094   1.920  16.119  0.5711  0.0293 -0.5213
  439TMC3    C4 6542   0.981   1.895  16.359 -0.7956 -0.3301 -0.4268
  439TMC3    C5 6543   1.075   1.803  16.324 -0.0880 -0.6684  0.4712
  439TMC3    C6 6544   1.121   1.811  16.198  0.4072 -0.8779  0.4313
  439TMC3     C 6545   0.857   2.098  16.330  0.5068 -0.2470  0.1021
  439TMC3     O 6546   0.886   2.211  16.294 -0.6878 -0.5122 -0.1577
  439TMC3     H 6547   0.981   2.106  16.091 -0.1006  1.3317  1.5460
  439TMC3    H1 6548   0.948   1.887  16.462 -0.7584  1.9355 -0.2399
  439TMC3    H2 6549   1.199   1.740  16.173  0.7478 -0.3424 -0.0306
  439TMC3    C7 6550   1.167   1.766  16.430  0.2676  0.5724 -0.2702
  439TMC3    C8 6551   1.147   1.915  15.984  0.6181 -0.4643  0.2586
  439TMC3    O1 6552   1.158   1.830  16.533  0.0487  0.4646 -0.1097
  439TMC3    O2 6553   1.214   1.815  15.971 -0.4048 -0.4769  0.2637
  440MPD2     C 6554   4.015   2.672  14.137  0.3394  0.8807 -0.0746
  440MPD2    C1 6555   4.004   2.664  14.274 -0.9019  0.8606  0.2327
  440MPD2    C2 6556   4.103   2.614  14.348  0.2239 -0.9580 -0.2369
  440MPD2    C3 6557   4.218   2.554  14.287 -0.4748  0.2100 -0.1935
  440MPD2    C4 6558   4.234   2.569  14.149  0.0310 -0.0694  0.1034
  440MPD2    C5 6559   4.128   2.620  14.076 -0.9302  0.1752  0.0484
  440MPD2     H 6560   4.093   2.610  14.456 -0.2195  0.5553 -0.2203
  440MPD2    H1 6561   4.322   2.535  14.096  1.6486  2.0769  1.4152
  440MPD2    H2 6562   3.950   2.719  14.064  0.0760  0.8719  0.1564
  440MPD2    H3 6563   4.150   2.647  13.974 -1.9880  2.0644  0.3098
  440MPD2     N 6564   4.331   2.512  14.362  0.1106 -0.0205  0.0365
  440MPD2    H5 6565   4.415   2.497  14.308 -0.2653 -1.4256 -0.1571
  440MPD2    N1 6566   3.895   2.720  14.340 -0.0039  0.7514 -0.1005
  440MPD2    H7 6567   3.893   2.710  14.441 -0.2330 -0.7997 -0.2659
  441TMC3    C1 6568   4.449   2.426  14.548 -0.0853  0.0426  0.2968
  441TMC3    C2 6569   4.554   2.510  14.534 -0.6884 -0.1610  0.1404
  441TMC3    C3 6570   4.659   2.506  14.624  0.0330  0.2276  0.0656
  441TMC3    C4 6571   4.452   2.341  14.656  0.0190 -0.6517  0.4747
  441TMC3    C5 6572   4.561   2.332  14.735  0.5515 -0.3062 -0.7324
  441TMC3    C6 6573   4.667   2.415  14.723 -1.1607  0.3473  0.3208
  441TMC3     C 6574   4.323   2.467  14.488  0.4209 -0.4269 -0.3563
  441TMC3     O 6575   4.231   2.449  14.566  0.2616  0.1058  0.4912
  441TMC3     H 6576   4.552   2.595  14.467  1.2881  0.3311  0.7029
  441TMC3    H1 6577   4.362   2.287  14.682  0.2514 -0.4138  1.7839
  441TMC3    H2 6578   0.020   2.428  14.800  0.9500  1.1604 -1.8766
  441TMC3    C7 6579   4.533   2.285  14.873 -0.6049 -0.1254  0.0618
  441TMC3    C8 6580   0.021   2.619  14.636 -0.0192  0.7474 -0.0023
  441TMC3    O1 6581   4.417   2.267  14.903 -0.1166  0.4272 -0.4282
  441TMC3    O2 6582   0.136   2.603  14.676  0.3359 -0.1045 -0.2986
  442MPD2     C 6583   2.305   3.424  16.185 -0.0785 -0.5043 -0.3524
  442MPD2    C1 6584   2.232   3.341  16.265  0.1961  0.1507 -0.6803
  442MPD2    C2 6585   2.229   3.202  16.239 -0.0477 -0.3893  0.1651
  442MPD2    C3 6586   2.297   3.158  16.122  0.3425 -0.9361  0.8264
  442MPD2    C4 6587   2.359   3.249  16.034  0.2313  0.5688 -0.0384
  442MPD2    C5 6588   2.359   3.385  16.071 -0.6705  0.1073  0.2030
  442MPD2     H 6589   2.183   3.134  16.309  0.2895 -0.9720 -0.1838
  442MPD2    H1 6590   2.401   3.226  15.936 -0.2229  0.6428 -0.2530
  442MPD2    H2 6591   2.307   3.531  16.200 -0.0724 -0.6101  0.3751
  442MPD2    H3 6592   2.403   3.459  16.005  1.6365  0.4122  2.0623
  442MPD2     N 6593   2.314   3.021  16.096 -0.5571  0.3544  0.2471
  442MPD2    H5 6594   2.373   3.007  16.015 -0.5724 -0.3586  0.3660
  442MPD2    N1 6595   2.164   3.385  16.377 -0.3840  0.3740  0.5746
  442MPD2    H7 6596   2.110   3.314  16.425  2.9545 -2.8264 -0.3823
  443TMC3    C1 6597   2.046   3.515  16.522 -0.0566  0.1449 -0.3715
  443TMC3    C2 6598   1.943   3.605  16.495  0.6392 -0.2408 -0.0411
  443TMC3    C3 6599   1.816   3.579  16.531  0.1493 -0.6041  0.0205
  443TMC3    C4 6600   2.024   3.413  16.617 -0.0471 -0.2265  0.0502
  443TMC3    C5 6601   1.902   3.413  16.677 -0.8398  0.6852  0.0023
  443TMC3    C6 6602   1.792   3.493  16.631  0.2873  0.1234 -0.3878
  443TMC3     C 6603   2.161   3.511  16.432  0.2737  0.3258  0.0335
  443TMC3     O 6604   2.202   3.615  16.385 -0.1421  0.5956 -0.4792
  443TMC3     H 6605   1.974   3.674  16.417 -0.6957 -0.8715 -1.1400
  443TMC3    H1 6606   2.103   3.349  16.655  1.1914  2.8729  2.7084
  443TMC3    H2 6607   1.695   3.483  16.679  1.1368 -0.3339  1.2494
  443TMC3    C7 6608   1.879   3.312  16.779  0.0459  0.0076  0.8705
  443TMC3    C8 6609   1.734   3.531  16.425  0.8095 -0.4493  0.1135
  443TMC3    O1 6610   1.928   3.204  16.781  1.3542  0.1023 -1.0286
  443TMC3    O2 6611   1.677   3.425  16.435  0.0199  0.0683  0.0421
  444MPD2     C 6612   2.433   2.825  16.715  0.0452  0.0309 -0.1204
  444MPD2    C1 6613   2.406   2.732  16.813  0.3754 -0.3038 -0.0883
  444MPD2    C2 6614   2.477   2.612  16.805 -1.1076 -0.1314 -0.2904
  444MPD2    C3 6615   2.565   2.576  16.702 -0.1712  0.2047 -0.0041
  444MPD2    C4 6616   2.585   2.675  16.607 -0.5932  0.4174  0.4040
  444MPD2    C5 6617   2.516   2.794  16.616 -0.0099 -0.0457  0.6379
  444MPD2     H 6618   2.470   2.545  16.890  1.6140 -0.6762 -0.4661
  444MPD2    H1 6619   2.656   2.654  16.529 -0.1558  2.3761  0.2811
  444MPD2    H2 6620   2.367   2.911  16.710 -1.6723 -1.2484  0.4338
  444MPD2    H3 6621   2.521   2.864  16.534 -1.0711 -0.8501 -0.1171
  444MPD2     N 6622   2.635   2.448  16.700  0.0089 -0.6983 -0.1068
  444MPD2    H5 6623   2.610   2.391  16.780  2.2869  0.9766  1.7959
  444MPD2    N1 6624   2.300   2.737  16.908  0.8107 -0.0925 -0.6414
  444MPD2    H7 6625   2.278   2.655  16.964 -2.6191  1.7872  0.8146
  445TMC3    C1 6626   2.801   2.278  16.634  0.9214 -1.0892  0.4568
  445TMC3    C2 6627   2.764   2.190  16.732  0.8949  0.1724 -0.3034
  445TMC3    C3 6628   2.808   2.063  16.733 -0.2174 -0.0784  0.0613
  445TMC3    C4 6629   2.875   2.231  16.527  0.1075 -0.1689  0.6113
  445TMC3    C5 6630   2.927   2.105  16.529 -0.3203 -0.3181  0.7693
  445TMC3    C6 6631   2.894   2.020  16.636  0.0841 -0.0121  0.2108
  445TMC3     C 6632   2.733   2.408  16.609 -0.2751  0.1782  0.3741
  445TMC3     O 6633   2.754   2.461  16.501 -0.0665 -0.3867 -0.2387
  445TMC3     H 6634   2.696   2.226  16.808  1.9570 -1.0038  1.1750
  445TMC3    H1 6635   2.903   2.287  16.438  0.6026 -0.9586  0.2691
  445TMC3    H2 6636   2.932   1.919  16.644  0.4931  0.0497 -0.8456
  445TMC3    C7 6637   3.026   2.064  16.433  0.3889  0.1064 -0.2235
  445TMC3    C8 6638   2.789   1.983  16.850  0.4080  0.0193 -0.1833
  445TMC3    O1 6639   3.043   2.141  16.337  0.4316  0.1598  0.2954
  445TMC3    O2 6640   2.732   2.037  16.943  0.2600  0.8589 -0.1646
  446MPD2     C 6641   2.631   3.533  10.879  0.5201 -0.0387  0.0869
  446MPD2    C1 6642   2.565   3.638  10.815 -0.4836  0.1286  0.4296
  446MPD2    C2 6643   2.642   3.749  10.783  0.3509 -0.1367 -0.0527
  446MPD2    C3 6644   2.772   3.763  10.825 -0.4596  0.5251 -0.5816
  446MPD2    C4 6645   2.831   3.666  10.901 -0.2957 -0.3926  0.9369
  446MPD2    C5 6646   2.762   3.547  10.918  0.0390 -0.4310  0.1682
  446MPD2     H 6647   2.597   3.828  10.725  1.1717  1.7815  1.8967
  446MPD2    H1 6648   2.932   3.663  10.938  0.4676 -2.7142 -1.3906
  446MPD2    H2 6649   2.589   3.434  10.891  1.4669 -0.4528  0.0516
  446MPD2    H3 6650   2.812   3.459  10.956  1.9543  0.5237 -0.1597
  446MPD2     N 6651   2.833   3.886  10.804  0.0740 -0.6204  0.0413
  446MPD2    H5 6652   2.784   3.958  10.751  1.5237 -0.3317 -0.9157
  446MPD2    N1 6653   2.429   3.638  10.764  0.3541 -0.0768  0.2806
  446MPD2    H7 6654   2.389   3.706  10.701 -1.0814 -1.0666  0.1267
  447TMC3    C1 6655   2.981   4.065  10.831 -0.2432 -0.0847  0.2915
  447TMC3    C2 6656   2.955   4.126  10.707 -0.5006  0.2290 -0.1248
  447TMC3    C3 6657   3.024   4.238  10.668  0.7456  0.4730  0.4369
  447TMC3    C4 6658   3.077   4.108  10.913  0.3650 -0.1073  0.5079
  447TMC3    C5 6659   3.142   4.228  10.880  0.2265 -0.3498  0.0385
  447TMC3    C6 6660   3.128   4.283  10.755 -0.3914 -0.1095 -0.1466
  447TMC3     C 6661   2.967   3.923  10.844  0.4134 -0.1657 -0.5542
  447TMC3     O 6662   3.054   3.854  10.896 -0.1295  0.1078  0.2881
  447TMC3     H 6663   2.889   4.069  10.642  1.3879 -0.6605 -1.2501
  447TMC3    H1 6664   3.103   4.051  11.002 -0.5364  0.6999  1.2823
  447TMC3    H2 6665   3.191   4.368  10.730 -0.3229 -0.3153 -0.6734
  447TMC3    C7 6666   3.247   4.274  10.966  1.0729  0.7289  0.3042
  447TMC3    C8 6667   3.020   4.283  10.535  0.5321  0.0111 -0.5457
  447TMC3    O1 6668   3.337   4.339  10.910  0.2848  0.7505  0.5159
  447TMC3    O2 6669   2.970   4.203  10.457 -0.4114 -0.0889  0.1458
  448TMC3    C1 6670   0.779   3.606  16.988 -0.0767  0.0459 -0.3258
  448TMC3    C2 6671   0.810   3.509  16.898 -0.4933 -0.0066  0.3073
  448TMC3    C3 6672   0.821   3.380  16.940  0.4858 -0.9032 -0.1342
  448TMC3    C4 6673   0.760   3.574  17.123 -0.5271  0.4048  0.0187
  448TMC3    C5 6674   0.750   3.442  17.157 -0.3796 -0.7020  0.2782
  448TMC3    C6 6675   0.783   3.345  17.065 -0.4303  0.3182  0.5345
  448TMC3     C 6676   0.784   3.746  16.946  0.5438  0.2314  0.0393
  448TMC3     O 6677   0.817   3.765  16.833  0.1829  0.4531  0.2752
  448TMC3     H 6678   0.827   3.536  16.795  0.5958  1.3679  0.8300
  448TMC3    H1 6679   0.737   3.649  17.197 -1.4094 -1.8214  1.9979
  448TMC3    H2 6680   0.798   3.245  17.102  0.7174 -0.0520 -0.9168
  448TMC3    C7 6681   0.734   3.411  17.303 -0.0405 -0.0053  0.0842
  448TMC3    C8 6682   0.894   3.285  16.860  0.1276 -0.8530 -0.1403
  448TMC3    O1 6683   0.769   3.502  17.376 -0.1868  1.4610 -0.1790
  448TMC3    O2 6684   0.898   3.171  16.910 -0.2114 -0.3604  0.4898
  449MPD2     C 6685   2.248   2.480  13.262 -0.4247  0.1200  0.1176
  449MPD2    C1 6686   2.133   2.416  13.223  0.3173 -0.4265 -0.2825
  449MPD2    C2 6687   2.070   2.329  13.311  0.6799  0.2141 -0.1867
  449MPD2    C3 6688   2.115   2.307  13.438 -0.4177 -0.0142 -0.4555
  449MPD2    C4 6689   2.228   2.375  13.478  0.1873 -0.2808 -0.4139
  449MPD2    C5 6690   2.292   2.459  13.388  0.5612 -0.1070 -0.3078
  449MPD2     H 6691   1.973   2.289  13.284 -0.0587  1.7972  0.1396
  449MPD2    H1 6692   2.278   2.345  13.570 -0.6481 -1.1665 -0.2457
  449MPD2    H2 6693   2.306   2.544  13.197  1.6079 -1.5671  0.2715
  449MPD2    H3 6694   2.387   2.502  13.418  1.4080 -0.0080 -3.1709
  449MPD2     N 6695   2.049   2.213  13.512 -0.0062 -0.2396  1.1337
  449MPD2    H5 6696   1.976   2.160  13.466  0.2732 -0.3674  0.8400
  449MPD2    N1 6697   2.082   2.421  13.093 -0.1219  0.6172 -0.3439
  449MPD2    H7 6698   1.987   2.386  13.083  1.3323 -3.0260 -1.4890
  450TMC3    C1 6699   2.052   2.463  12.866 -0.1293 -0.5510 -1.0268
  450TMC3    C2 6700   2.083   2.371  12.773 -0.5486  0.1462 -0.7545
  450TMC3    C3 6701   1.999   2.260  12.746  0.3061  0.6216 -0.1760
  450TMC3    C4 6702   1.925   2.459  12.913 -0.4624 -0.1915 -0.3663
  450TMC3    C5 6703   1.829   2.368  12.868 -0.0204 -0.0013  0.0593
  450TMC3    C6 6704   1.868   2.267  12.778  0.3500 -0.2553  0.2097
  450TMC3     C 6705   2.140   2.471  12.975 -0.6276  0.6633  0.0540
  450TMC3     O 6706   2.260   2.487  12.960  0.5014 -0.6103  0.0815
  450TMC3     H 6707   2.180   2.379  12.726  0.9428 -1.7398  2.0379
  450TMC3    H1 6708   1.889   2.538  12.978 -0.9085  0.6939 -1.6863
  450TMC3    H2 6709   1.806   2.179  12.777 -2.6359  1.8378 -0.7839
  450TMC3    C7 6710   1.768   2.315  12.989 -0.6307  0.5521  0.3662
  450TMC3    C8 6711   2.049   2.124  12.719  0.3298  0.4169 -0.6733
  450TMC3    O1 6712   1.817   2.349  13.096 -0.1881 -0.1159 -0.7668
  450TMC3    O2 6713   1.971   2.029  12.713  0.8428  0.0663  0.7271
  451MPD2     C 6714   3.689   1.043   1.398 -0.0870  0.3871 -0.1877
  451MPD2    C1 6715   3.566   1.010   1.452  0.2639 -0.1022  0.2377
  451MPD2    C2 6716   3.554   0.900   1.534 -0.2405 -0.0511 -0.6666
  451MPD2    C3 6717   3.668   0.824   1.563 -0.6756  0.1401  0.1124
  451MPD2    C4 6718   3.794   0.857   1.506 -0.4199 -0.4359 -0.6755
  451MPD2    C5 6719   3.804   0.959   1.415 -0.1351  0.4306  0.6024
  451MPD2     H 6720   3.459   0.874   1.579  0.2865 -1.7712 -0.5423
  451MPD2    H1 6721   3.877   0.792   1.529 -0.7756 -0.8311 -0.5136
  451MPD2    H2 6722   3.703   1.130   1.335 -0.7904  1.1455  0.6892
  451MPD2    H3 6723   3.893   0.988   1.361 -2.6283  0.6842 -3.4008
  451MPD2     N 6724   3.667   0.707   1.642 -0.2789 -0.1461 -0.1366
  451MPD2    H5 6725   3.754   0.655   1.637  0.0568  0.5502 -1.4009
  451MPD2    N1 6726   3.456   1.089   1.415 -0.5322 -0.0758  0.2422
  451MPD2    H7 6727   3.466   1.162   1.345 -1.6687 -0.0608  0.1049
  452TMC3    C1 6728   3.588   0.522   1.759 -0.2588 -0.1233  0.3288
  452TMC3    C2 6729   3.536   0.479   1.876 -1.1085  0.1875 -0.5946
  452TMC3    C3 6730   3.553   0.343   1.899 -0.1719  0.5854 -0.5609
  452TMC3    C4 6731   3.664   0.441   1.673  0.4837 -0.2029 -0.1814
  452TMC3    C5 6732   3.691   0.309   1.710 -0.5083 -0.0887  0.5698
  452TMC3    C6 6733   3.634   0.262   1.819  0.4218  0.0759  0.0291
  452TMC3     C 6734   3.565   0.662   1.724 -0.0908  1.1573 -0.1208
  452TMC3     O 6735   3.454   0.705   1.761 -0.2678 -0.0649  0.1424
  452TMC3     H 6736   3.475   0.545   1.936  3.2279  0.5148  3.4217
  452TMC3    H1 6737   3.681   0.469   1.570 -1.4076  3.4852  0.4803
  452TMC3    H2 6738   3.646   0.160   1.853  0.4379 -0.0367 -0.3161
  452TMC3    C7 6739   3.741   0.236   1.594  0.3558  0.9399 -0.2075
  452TMC3    C8 6740   3.469   0.273   1.995 -0.4678  0.1886 -0.3309
  452TMC3    O1 6741   3.796   0.293   1.504 -0.4170  0.4513 -0.2785
  452TMC3    O2 6742   3.463   0.151   1.978  0.3596 -0.0505 -0.4679
  453TMC3    C1 6743   0.106   2.945  11.180 -0.2928  0.9513 -0.0818
  453TMC3    C2 6744   0.021   2.883  11.265 -0.8155  0.4016 -0.1817
  453TMC3    C3 6745   4.662   2.782  11.210 -0.2287  0.2372  0.2338
  453TMC3    C4 6746   0.120   2.912  11.049  0.1410  0.3020 -0.1791
  453TMC3    C5 6747   0.023   2.829  10.994  0.6706  0.2852  0.3175
  453TMC3    C6 6748   4.663   2.754  11.076  0.6020  0.0142  0.5349
  453TMC3     C 6749   0.214   3.002  11.250 -0.5428  0.4453  0.1224
  453TMC3     O 6750   0.223   2.965  11.368  0.1762  0.2564 -0.2230
  453TMC3     H 6751   0.008   2.901  11.371 -2.1627 -2.3106  0.1222
  453TMC3    H1 6752   0.179   2.972  10.981  0.6648  2.1384  1.9088
  453TMC3    H2 6753   4.607   2.673  11.033  1.7232 -1.0346  1.0600
  453TMC3    C7 6754   0.012   2.801  10.851  0.6352  0.0241 -0.8209
  453TMC3    C8 6755   4.604   2.684  11.300 -0.0141 -0.1539 -0.8570
  453TMC3    O1 6756   4.627   2.763  10.809 -0.4961  0.0813 -0.5519
  453TMC3    O2 6757   4.571   2.716  11.412  0.3941 -0.0184  0.3424
  454MPD2     C 6758   3.374   2.278  16.218  0.7258 -0.1499 -0.5009
  454MPD2    C1 6759   3.357   2.379  16.127  0.2987  0.2651 -0.4287
  454MPD2    C2 6760   3.373   2.508  16.170 -0.6585 -0.4870  0.4266
  454MPD2    C3 6761   3.375   2.544  16.306  0.2735 -0.0218  0.5932
  454MPD2    C4 6762   3.387   2.437  16.393 -1.0720  0.1468  0.0419
  454MPD2    C5 6763   3.393   2.303  16.349 -0.5242 -0.2254  0.7997
  454MPD2     H 6764   3.371   2.582  16.091 -1.0468 -1.1800 -0.2140
  454MPD2    H1 6765   3.386   2.458  16.499  1.1275  0.0555  0.0842
  454MPD2    H2 6766   3.364   2.173  16.194  4.1898 -0.9389  1.6452
  454MPD2    H3 6767   3.412   2.224  16.421 -0.7125  0.8436  2.0185
  454MPD2     N 6768   3.375   2.677  16.352  0.6123  0.4436  1.0316
  454MPD2    H5 6769   3.355   2.685  16.451 -1.3194 -0.2180  0.6851
  454MPD2    N1 6770   3.326   2.361  15.989 -0.2818  0.2604  0.0655
  454MPD2    H7 6771   3.323   2.445  15.932  1.9591  0.0538 -0.3594
  455TMC3    C1 6772   3.182   2.766  16.289  0.8234  0.5503 -0.8052
  455TMC3    C2 6773   3.146   2.753  16.416 -0.4637 -0.5960  0.2252
  455TMC3    C3 6774   3.018   2.726  16.449 -0.5685  0.0559  0.7858
  455TMC3    C4 6775   3.100   2.716  16.189 -0.2384  0.9051 -0.4366
  455TMC3    C5 6776   2.976   2.666  16.227  0.5317  0.4478 -0.2834
  455TMC3    C6 6777   2.929   2.689  16.352 -0.0222 -0.2203 -0.3314
  455TMC3     C 6778   3.326   2.773  16.273 -0.3056 -0.2737  0.5018
  455TMC3     O 6779   3.372   2.817  16.169 -0.1418 -0.4351  0.4233
  455TMC3     H 6780   3.202   2.782  16.505  1.7541  1.9803 -2.0100
  455TMC3    H1 6781   3.142   2.690  16.093 -1.1237 -0.5525 -0.4341
  455TMC3    H2 6782   2.827   2.663  16.379  0.9171 -3.8194 -0.2953
  455TMC3    C7 6783   2.915   2.563  16.142 -0.1785  0.0641  0.6933
  455TMC3    C8 6784   2.985   2.788  16.572  0.3568  0.0305 -0.0895
  455TMC3    O1 6785   2.986   2.516  16.049 -0.1958  0.3520 -0.4015
  455TMC3    O2 6786   3.028   2.748  16.676 -0.0016  0.2553  0.1863
  456MPD2     C 6787   1.377   2.237  15.983  0.2218  0.6747 -0.6320
  456MPD2    C1 6788   1.382   2.159  16.096 -0.8313 -0.0547 -0.1061
  456MPD2    C2 6789   1.315   2.197  16.204 -0.5662 -1.0690 -0.6165
  456MPD2    C3 6790   1.240   2.315  16.203  0.8887  1.2857  0.2821
  456MPD2    C4 6791   1.227   2.383  16.083 -0.6132  0.1245 -0.0097
  456MPD2    C5 6792   1.302   2.345  15.971  0.6010 -0.6957  0.4104
  456MPD2     H 6793   1.325   2.128  16.287 -0.4932  1.1657  1.2156
  456MPD2    H1 6794   1.189   2.483  16.072  0.2710  0.6427  1.6759
  456MPD2    H2 6795   1.440   2.209  15.900 -2.2585  0.3591 -2.4081
  456MPD2    H3 6796   1.317   2.417  15.891 -1.3433 -1.1464 -0.3810
  456MPD2     N 6797   1.175   2.365  16.320 -0.1917  0.8001  0.4427
  456MPD2    H5 6798   1.200   2.316  16.405  2.0873  0.9622 -0.1469
  456MPD2    N1 6799   1.453   2.035  16.085 -0.7580  0.0183  0.0958
  456MPD2    H7 6800   1.496   2.018  15.994  1.3927 -0.9354  1.2726
  457TMC3    C1 6801   1.026   2.501  16.455  1.2971 -0.3091  0.3537
  457TMC3    C2 6802   1.021   2.637  16.482 -0.0336  0.6818  0.3917
  457TMC3    C3 6803   1.026   2.675  16.612 -0.4129  0.5339  0.1097
  457TMC3    C4 6804   1.036   2.408  16.551 -0.1246 -0.1941  0.6223
  457TMC3    C5 6805   1.031   2.447  16.683 -0.3127  0.7192  0.2482
  457TMC3    C6 6806   1.023   2.579  16.716  0.1547  0.4637  0.1538
  457TMC3     C 6807   1.091   2.474  16.323  0.3918  0.5078 -1.1383
  457TMC3     O 6808   1.071   2.562  16.243  0.7165 -0.1870  0.3830
  457TMC3     H 6809   1.016   2.709  16.402  1.3312 -1.0331 -1.2378
  457TMC3    H1 6810   1.041   2.302  16.533 -0.2471 -0.2306  0.8037
  457TMC3    H2 6811   1.026   2.616  16.817  1.1000  0.4573  0.1285
  457TMC3    C7 6812   1.027   2.356  16.798 -0.9112 -0.7533 -0.0805
  457TMC3    C8 6813   1.038   2.818  16.646  0.1468  0.0977  0.1131
  457TMC3    O1 6814   0.985   2.386  16.906 -0.0758  0.1476  0.0968
  457TMC3    O2 6815   1.044   2.833  16.771  0.1067  0.3124 -0.3496
  458MPD2     C 6816   3.543   2.313  12.090  0.5469 -0.6084 -0.1809
  458MPD2    C1 6817   3.543   2.280  12.222  0.4125  0.7983 -0.5367
  458MPD2    C2 6818   3.436   2.216  12.281 -0.0588  0.4847  0.1313
  458MPD2    C3 6819   3.328   2.167  12.209 -0.4504  0.5010  0.4589
  458MPD2    C4 6820   3.331   2.194  12.077  0.2413  0.0418 -0.1762
  458MPD2    C5 6821   3.440   2.260  12.019 -0.1655 -0.2578 -0.1107
  458MPD2     H 6822   3.442   2.186  12.385 -0.9474 -3.0203 -0.8297
  458MPD2    H1 6823   3.251   2.168  12.010  0.9914  0.7150 -1.3523
  458MPD2    H2 6824   3.626   2.364  12.042  0.1404  0.5611  0.3391
  458MPD2    H3 6825   3.447   2.268  11.911 -1.7981 -0.0731 -0.1973
  458MPD2     N 6826   3.231   2.092  12.278 -0.3358  0.2981 -0.6620
  458MPD2    H5 6827   3.244   2.072  12.377 -2.1349 -2.5462 -1.0085
  458MPD2    N1 6828   3.659   2.320  12.293  0.0210  0.0057  0.6668
  458MPD2    H7 6829   3.730   2.379  12.250 -1.2909  0.9046 -0.2475
  459TMC3    C1 6830   3.814   2.337  12.467 -0.2852 -0.1361 -0.1477
  459TMC3    C2 6831   3.917   2.353  12.377  0.0979  0.4698  0.6363
  459TMC3    C3 6832   4.049   2.350  12.420 -0.3454 -0.4902  0.0938
  459TMC3    C4 6833   3.837   2.310  12.599 -0.8705 -0.4752 -0.5231
  459TMC3    C5 6834   3.971   2.312  12.636  0.0225 -0.1417  0.3149
  459TMC3    C6 6835   4.078   2.336  12.556 -0.1696 -0.0508 -0.0273
  459TMC3     C 6836   3.696   2.279  12.418 -0.2019 -0.5655 -0.1252
  459TMC3     O 6837   3.649   2.187  12.482 -0.3715 -0.4064 -0.0404
  459TMC3     H 6838   3.897   2.350  12.271 -2.2175 -3.0450  1.1517
  459TMC3    H1 6839   3.757   2.285  12.667 -0.0601 -1.4803  0.0647
  459TMC3    H2 6840   4.177   2.331  12.600 -0.1020  1.3595 -0.0129
  459TMC3    C7 6841   3.990   2.245  12.765 -0.2878 -0.6639 -0.8085
  459TMC3    C8 6842   4.149   2.389  12.321 -0.3300 -0.3568 -0.2309
  459TMC3    O1 6843   3.900   2.171  12.806 -0.1498 -0.1991  0.0863
  459TMC3    O2 6844   4.267   2.368  12.352  0.8729 -0.0968  0.1360
  460MPD2     C 6845   3.114   4.617  10.390  0.0209  0.6582 -0.1969
  460MPD2    C1 6846   3.054   4.492  10.391  0.7521 -0.0531 -0.0611
  460MPD2    C2 6847   2.976   4.448  10.286 -0.0410 -0.1345 -0.5103
  460MPD2    C3 6848   2.954   4.531  10.179 -0.5252  0.4158  0.1789
  460MPD2    C4 6849   3.009   4.658  10.181 -0.0613  0.5369  0.8798
  460MPD2    C5 6850   3.089   4.701  10.286 -0.6486 -0.0646  0.3862
  460MPD2     H 6851   2.925   4.352  10.288  0.2841 -0.2917  0.6798
  460MPD2    H1 6852   2.995   4.722  10.095  0.4722  0.2576  0.5823
  460MPD2    H2 6853   3.181   4.651  10.469  0.0538  0.2140 -0.0314
  460MPD2    H3 6854   3.131   0.078  10.288  0.2468 -0.4426  0.0625
  460MPD2     N 6855   2.859   4.495  10.080 -0.1801  0.1419  0.3378
  460MPD2    H5 6856   2.828   4.399  10.087  1.9440 -0.5422  0.4288
  460MPD2    N1 6857   3.068   4.412  10.510  0.1341  0.9233  0.8337
  460MPD2    H7 6858   3.118   4.463  10.582 -1.7221  1.5410  1.6652
  461TMC3    C1 6859   2.680   4.521   9.935 -0.1494 -0.2997  0.3060
  461TMC3    C2 6860   2.724   4.424   9.852  0.0314  0.0020  0.4577
  461TMC3    C3 6861   2.681   4.418   9.722  0.3189 -0.2013  0.7720
  461TMC3    C4 6862   2.587   4.609   9.886 -0.6524 -0.3041 -0.0658
  461TMC3    C5 6863   2.540   4.592   9.755  0.8056 -0.5937 -0.1430
  461TMC3    C6 6864   2.579   4.492   9.672  0.2321  0.9272  0.1875
  461TMC3     C 6865   2.783   4.588  10.014 -0.5971 -0.2272  0.1860
  461TMC3     O 6866   2.790   4.712  10.015  0.1300  0.3352  0.0507
  461TMC3     H 6867   2.806   4.354   9.865  1.2298  1.2978 -0.1581
  461TMC3    H1 6868   2.557   4.689   9.953  1.0987  0.1153  0.2117
  461TMC3    H2 6869   2.544   4.492   9.570 -1.1343  1.8586  0.6545
  461TMC3    C7 6870   2.464   4.706   9.701  0.5377 -0.0081 -0.3914
  461TMC3    C8 6871   2.714   4.293   9.650  0.8855 -0.0234  0.3440
  461TMC3    O1 6872   2.470   0.084   9.774 -0.4788 -0.2565  0.6554
  461TMC3    O2 6873   2.662   4.189   9.692 -0.1360 -0.1736  0.1923
  462TMC3    C1 6874   2.806   0.840   0.058  0.2355  0.7057 -0.7558
  462TMC3    C2 6875   2.927   0.793   0.093  0.8179 -0.4475 -0.2851
  462TMC3    C3 6876   2.949   0.662   0.077 -0.6023  0.3715  0.5122
  462TMC3    C4 6877   2.707   0.756   0.006 -0.4500  0.2019  0.4349
  462TMC3    C5 6878   2.735   0.621   0.001 -0.5410 -0.6511 -0.2720
  462TMC3    C6 6879   2.860   0.578   0.025 -0.3806 -0.1160  0.7757
  462TMC3     C 6880   2.797   0.978   0.022 -0.6162 -0.0633 -0.3428
  462TMC3     O 6881   2.895   1.039   0.059 -0.2586 -0.5548  0.3673
  462TMC3     H 6882   3.009   0.850   0.135  1.7257  0.2573 -3.0832
  462TMC3    H1 6883   2.608   0.799  17.688  0.1769  2.2987  3.1255
  462TMC3    H2 6884   2.884   0.473   0.028  1.5025  0.2562 -0.7223
  462TMC3    C7 6885   2.631   0.542   0.058 -0.2752  0.4601 -0.0291
  462TMC3    C8 6886   3.086   0.607   0.111  0.0342  0.1652 -0.0561
  462TMC3    O1 6887   2.671   0.428   0.075  0.0947 -0.0878 -0.0633
  462TMC3    O2 6888   3.147   0.652   0.207  0.3222  0.0779  0.0669
  463MPD2     C 6889   3.252   3.685   2.601  0.1255 -0.1865  0.6034
  463MPD2    C1 6890   3.345   3.595   2.558  0.4195 -1.1430 -0.0122
  463MPD2    C2 6891   3.470   3.631   2.525 -0.0727 -0.2481  0.3711
  463MPD2    C3 6892   3.512   3.761   2.535  0.0385  0.0520  0.7249
  463MPD2    C4 6893   3.428   3.853   2.587  0.8010 -0.0597  0.8060
  463MPD2    C5 6894   3.299   3.816   2.612 -0.0907 -0.2019 -0.6722
  463MPD2     H 6895   3.543   3.559   2.490 -1.9382 -1.7919 -0.3347
  463MPD2    H1 6896   3.453   3.959   2.584 -0.5425  0.1991 -1.2796
  463MPD2    H2 6897   3.146   3.668   2.617 -0.2019  1.2963  0.0009
  463MPD2    H3 6898   3.231   3.896   2.642 -1.2572 -1.7002  0.6700
  463MPD2     N 6899   3.639   3.807   2.488  0.2715 -0.6117  0.5052
  463MPD2    H5 6900   3.658   3.906   2.504  0.9026 -0.2635 -2.3490
  463MPD2    N1 6901   3.305   3.462   2.505  0.5578  0.5853 -0.3568
  463MPD2    H7 6902   3.377   3.413   2.451  0.0613 -1.9010  1.2328
  464TMC3    C1 6903   3.155   3.285   2.442 -0.0471  1.0338  0.2825
  464TMC3    C2 6904   3.239   3.244   2.341 -0.2792 -0.2604 -0.1483
  464TMC3    C3 6905   3.194   3.164   2.237  0.7100  0.1525 -0.4726
  464TMC3    C4 6906   3.025   3.244   2.432 -0.0021  0.3835 -0.1136
  464TMC3    C5 6907   2.980   3.166   2.328  0.5042 -0.7236  0.5104
  464TMC3    C6 6908   3.063   3.121   2.231 -1.0950  1.0823  0.4620
  464TMC3     C 6909   3.185   3.402   2.523 -0.4485 -0.8440  0.2963
  464TMC3     O 6910   3.092   3.442   2.593 -0.4246  0.1429 -0.0191
  464TMC3     H 6911   3.344   3.267   2.347 -0.7392  2.3447 -2.1169
  464TMC3    H1 6912   2.956   3.283   2.507 -0.2797 -0.0672 -0.1362
  464TMC3    H2 6913   3.026   3.072   2.141  0.8704 -0.1785  0.3349
  464TMC3    C7 6914   2.847   3.106   2.345  0.5053  0.2212  0.1356
  464TMC3    C8 6915   3.289   3.132   2.136  0.0236 -0.1501 -0.0445
  464TMC3    O1 6916   2.776   3.162   2.432  0.1206  0.5581 -0.4089
  464TMC3    O2 6917   3.376   3.217   2.125 -0.5638 -0.4776 -0.4928
  465MPD2     C 6918   0.176   2.350  16.534 -0.4476  0.0573 -0.2179
  465MPD2    C1 6919   0.048   2.324  16.566  0.5603 -0.6610  0.5078
  465MPD2    C2 6920   4.675   2.323  16.468 -0.1888  0.2441  0.0098
  465MPD2    C3 6921   4.705   2.377  16.343 -0.3200 -0.2281  0.0843
  465MPD2    C4 6922   0.114   2.400  16.309 -0.0325  0.1033 -0.0264
  465MPD2    C5 6923   0.211   2.377  16.402 -0.0803 -0.5173  0.2114
  465MPD2     H 6924   4.574   2.315  16.506  0.7929  0.0387  2.5950
  465MPD2    H1 6925   0.142   2.436  16.211  0.1191 -0.0251 -0.0288
  465MPD2    H2 6926   0.256   2.337  16.606  0.6939 -0.5949 -1.6116
  465MPD2    H3 6927   0.312   2.401  16.371 -1.5012  0.3171 -3.7640
  465MPD2     N 6928   4.596   2.406  16.260 -0.5064  0.1102  0.1086
  465MPD2    H5 6929   4.503   2.397  16.300 -0.3969 -1.2919  0.0360
  465MPD2    N1 6930   0.005   2.293  16.698 -0.6626  0.1636  0.1762
  465MPD2    H7 6931   4.628   2.282  16.715 -0.6666 -0.9886 -0.5581
  466TMC3    C1 6932   4.235   2.544  16.162  0.4599 -0.1015  0.1427
  466TMC3    C2 6933   4.242   2.682  16.158  0.4758  0.3824  0.9201
  466TMC3    C3 6934   4.363   2.735  16.122 -0.5629  0.2382 -0.0697
  466TMC3    C4 6935   4.343   2.462  16.144  0.2988  0.5177 -0.8708
  466TMC3    C5 6936   4.468   2.523  16.110 -0.3120 -0.0787 -0.3228
  466TMC3    C6 6937   4.475   2.659  16.098  0.4608  0.6812 -0.6346
  466TMC3     C 6938   4.115   2.485  16.223 -0.1248  0.3776  0.1766
  466TMC3     O 6939   4.050   2.563  16.290 -0.1083 -0.2404 -0.0728
  466TMC3     H 6940   4.158   2.746  16.183 -0.6037 -0.9008  0.6001
  466TMC3    H1 6941   4.335   2.355  16.133  0.3682  0.6235 -1.9246
  466TMC3    H2 6942   4.575   2.698  16.080  0.3037  0.9455 -0.9332
  466TMC3    C7 6943   4.596   2.462  16.133 -0.1826  0.1244 -0.1479
  466TMC3    C8 6944   4.389   2.876  16.129 -0.1086 -0.1333 -0.0425
  466TMC3    O1 6945   4.694   2.500  16.072 -0.3193 -0.4240 -0.2634
  466TMC3    O2 6946   4.486   2.914  16.065  0.1904 -0.2125  0.0381
  467TMC3    C1 6947   0.945   1.501  13.611 -0.6335  0.0248  0.4107
  467TMC3    C2 6948   0.877   1.614  13.584  0.2452  0.3559 -0.3084
  467TMC3    C3 6949   0.747   1.623  13.608  0.2785 -0.4328  0.4566
  467TMC3    C4 6950   0.886   1.402  13.679 -0.1157  0.9456 -0.5177
  467TMC3    C5 6951   0.752   1.407  13.695  0.0480  0.1879  0.2684
  467TMC3    C6 6952   0.678   1.508  13.641  0.0365 -0.3969  0.2853
  467TMC3     C 6953   1.087   1.512  13.599 -0.3842 -0.3915 -0.1757
  467TMC3     O 6954   1.136   1.622  13.586  0.1208  0.2778  0.6319
  467TMC3     H 6955   0.926   1.700  13.540 -2.3458  1.1495 -1.6336
  467TMC3    H1 6956   0.942   1.325  13.731  0.5520  0.6432 -1.7020
  467TMC3    H2 6957   0.569   1.505  13.645 -0.0343  0.3016 -1.1172
  467TMC3    C7 6958   0.691   1.294  13.757 -0.1966  0.1167 -0.3653
  467TMC3    C8 6959   0.681   1.726  13.533 -0.0622 -0.2345 -0.0107
  467TMC3    O1 6960   0.761   1.191  13.760  0.7008  0.6700  0.0162
  467TMC3    O2 6961   0.759   1.818  13.499  0.3572 -0.3169  0.2161
  468MPD2     C 6962   0.267   4.072  10.924 -0.4947 -0.0037  0.0520
  468MPD2    C1 6963   0.378   4.044  10.859 -0.3282  0.7801 -1.0813
  468MPD2    C2 6964   0.401   3.913  10.824 -0.3803 -0.0411 -0.8564
  468MPD2    C3 6965   0.312   3.812  10.858  0.6761 -0.0728 -1.0673
  468MPD2    C4 6966   0.188   3.845  10.913 -0.2376 -0.4391 -0.6963
  468MPD2    C5 6967   0.173   3.974  10.955 -0.3254 -0.4092  0.1007
  468MPD2     H 6968   0.490   3.895  10.766  0.9757  1.4558  0.7542
  468MPD2    H1 6969   0.104   3.779  10.935 -0.1209 -0.8211 -1.4036
  468MPD2    H2 6970   0.237   4.170  10.960  1.0150  0.1828  0.7899
  468MPD2    H3 6971   0.084   3.994  11.014  0.4129  1.9979  0.3812
  468MPD2     N 6972   0.331   3.680  10.825 -0.0687 -0.0926 -0.1003
  468MPD2    H5 6973   0.246   3.626  10.841  0.1738 -0.3007  0.4762
  468MPD2    N1 6974   0.466   4.153  10.827  0.7149  0.4229 -0.2741
  468MPD2    H7 6975   0.439   4.248  10.852 -2.1814 -0.8427  1.4553
  469TMC3    C1 6976   0.662   4.266  10.797 -0.7056 -0.0176 -0.4283
  469TMC3    C2 6977   0.782   4.268  10.857  0.0144 -0.1956  1.0170
  469TMC3    C3 6978   0.854   4.384  10.840  0.1274  0.5526  0.0878
  469TMC3    C4 6979   0.616   4.367  10.722  0.6931  0.1586 -0.9419
  469TMC3    C5 6980   0.691   4.485  10.709 -0.1534 -0.0802 -0.6433
  469TMC3    C6 6981   0.814   4.493  10.767 -0.3906 -0.2088 -0.1896
  469TMC3     C 6982   0.594   4.139  10.797 -0.2713 -0.3295 -0.0501
  469TMC3     O 6983   0.663   4.037  10.792  0.1357 -0.6814  0.3949
  469TMC3     H 6984   0.821   4.193  10.925  0.9863 -2.3703 -1.9358
  469TMC3    H1 6985   0.527   4.347  10.662 -0.0660 -0.4324  0.3881
  469TMC3    H2 6986   0.860   4.589  10.753 -2.2155  0.3745 -2.1653
  469TMC3    C7 6987   0.658   4.572  10.600  0.0962  0.6315  0.4100
  469TMC3    C8 6988   0.986   4.393  10.908  0.4846 -0.0828  0.5657
  469TMC3    O1 6989   0.746   4.607  10.528 -0.5198 -0.2234  0.2148
  469TMC3    O2 6990   1.089   4.379  10.847 -0.0294  0.1995  0.1422
  470TMC3    C1 6991   2.311   0.152   0.906 -0.4821  0.3033  0.1721
  470TMC3    C2 6992   2.337   0.273   0.848  0.4233  0.6302  0.0195
  470TMC3    C3 6993   2.431   0.357   0.904  0.5022 -0.4953  0.5704
  470TMC3    C4 6994   2.370   0.105   1.022  0.0541  0.0544  0.1862
  470TMC3    C5 6995   2.452   0.196   1.084  0.0483  0.1261 -0.5749
  470TMC3    C6 6996   2.488   0.314   1.022  0.0073  0.1518 -0.1815
  470TMC3     C 6997   2.226   0.067   0.828 -0.3134 -0.1458  0.1159
  470TMC3     O 6998   2.179   0.119   0.724  0.4090 -0.8295  0.1303
  470TMC3     H 6999   2.283   0.299   0.758 -1.6494 -0.8466  0.8427
  470TMC3    H1 7000   2.377   0.003   1.058  0.7133  0.3779  0.9718
  470TMC3    H2 7001   2.555   0.387   1.067  0.0159 -1.6336  2.6980
  470TMC3    C7 7002   2.508   0.171   1.216 -0.1557  0.3613 -0.0575
  470TMC3    C8 7003   2.391   0.497   0.887  0.4058  0.1775 -0.0189
  470TMC3    O1 7004   2.618   0.227   1.243  0.5855  0.0290  0.2970
  470TMC3    O2 7005   2.391   0.580   0.983 -0.5359 -0.0048  0.0366
  471MPD2     C 7006   2.375   1.604  16.602 -0.4857  0.2223  0.1899
  471MPD2    C1 7007   2.476   1.511  16.579  0.3089  0.1947  0.2234
  471MPD2    C2 7008   2.536   1.449  16.682  0.4889 -0.6981 -1.4007
  471MPD2    C3 7009   2.496   1.477  16.813 -0.5007  0.2584  0.7535
  471MPD2    C4 7010   2.404   1.576  16.832 -0.9674 -0.0594 -0.0021
  471MPD2    C5 7011   2.356   1.643  16.731 -0.1536  0.1676 -0.3816
  471MPD2     H 7012   2.607   1.373  16.652  1.7245 -0.4133  0.7464
  471MPD2    H1 7013   2.379   1.601  16.935  1.3057  0.3840  0.4432
  471MPD2    H2 7014   2.316   1.639  16.519 -1.9460 -1.0772  0.6959
  471MPD2    H3 7015   2.273   1.708  16.754 -1.6699 -1.3765 -1.4864
  471MPD2     N 7016   2.537   1.402  16.927  0.1425  0.0711 -0.7833
  471MPD2    H5 7017   2.502   1.439  17.015  1.3872 -3.5714  1.2759
  471MPD2    N1 7018   2.504   1.473  16.446 -0.2479 -0.3202  0.1239
  471MPD2    H7 7019   2.582   1.408  16.439  0.1613  0.0721  1.0562
  472TMC3    C1 7020   2.500   1.435  16.217 -0.8831 -0.5221 -0.6480
  472TMC3    C2 7021   2.442   1.458  16.100 -0.7098  0.0671  0.8315
  472TMC3    C3 7022   2.462   1.378  15.994  0.3618  0.8092  0.0703
  472TMC3    C4 7023   2.576   1.326  16.240  0.5390 -0.2948 -0.2724
  472TMC3    C5 7024   2.572   1.233  16.134  0.2966  0.5902 -0.2561
  472TMC3    C6 7025   2.537   1.264  16.009  0.5168 -0.0626 -0.3061
  472TMC3     C 7026   2.450   1.509  16.328 -0.9523  0.2077 -0.0444
  472TMC3     O 7027   2.365   1.597  16.309  0.0073  0.4598  0.1759
  472TMC3     H 7028   2.367   1.534  16.082  0.4578  0.9366 -0.3948
  472TMC3    H1 7029   2.611   1.287  16.335 -1.2611 -0.5706  0.2906
  472TMC3    H2 7030   2.554   1.194  15.928  1.7744  3.2234 -2.9242
  472TMC3    C7 7031   2.539   1.102  16.181  0.0936 -0.0939 -0.0456
  472TMC3    C8 7032   2.340   1.361  15.924 -0.4271  0.2877  0.2066
  472TMC3    O1 7033   2.573   1.064  16.295  0.5899  0.4579 -0.3103
  472TMC3    O2 7034   2.357   1.371  15.801 -0.3736  0.2547 -0.0835
  473MPD2     C 7035   2.354   3.593  13.885 -0.5901  0.0949  0.6658
  473MPD2    C1 7036   2.428   3.708  13.877  0.2076 -0.0015 -0.1101
  473MPD2    C2 7037   2.464   3.777  13.994  0.3557  0.1732  0.5249
  473MPD2    C3 7038   2.431   3.725  14.121  0.1792  0.3044  0.6190
  473MPD2    C4 7039   2.352   3.612  14.129  0.8834  0.5768  0.3415
  473MPD2    C5 7040   2.323   3.546  14.009  0.0019  0.6293 -0.5904
  473MPD2     H 7041   2.520   3.869  13.978  1.0756 -0.4291 -0.4634
  473MPD2    H1 7042   2.323   3.560  14.220 -1.0728 -1.0293 -1.1981
  473MPD2    H2 7043   2.316   3.538  13.800 -1.9890  0.4792  1.0329
  473MPD2    H3 7044   2.270   3.452  14.020  1.6042 -0.2698 -0.4876
  473MPD2     N 7045   2.473   3.788  14.236 -0.0890  0.6271  0.6059
  473MPD2    H5 7046   2.429   3.756  14.322  0.0137  1.4714  0.9681
  473MPD2    N1 7047   2.468   3.766  13.751 -0.0170 -0.4019 -0.5188
  473MPD2    H7 7048   2.528   3.847  13.746 -0.7092  0.1685  0.4678
  474TMC3    C1 7049   2.546   3.939  14.394  0.0344  0.3709 -0.7566
  474TMC3    C2 7050   2.421   3.930  14.458 -0.1771  0.1066  0.1143
  474TMC3    C3 7051   2.407   4.003  14.575  1.0345  0.3621 -0.2611
  474TMC3    C4 7052   2.653   4.001  14.449  0.1785 -0.1261 -0.2811
  474TMC3    C5 7053   2.637   4.072  14.560  0.2785 -0.3664  0.7259
  474TMC3    C6 7054   2.518   4.074  14.623 -0.5042  0.1666  0.3950
  474TMC3     C 7055   2.557   3.896  14.258  0.7503  0.4964 -0.5237
  474TMC3     O 7056   2.638   3.953  14.189  0.1113 -0.5360  0.2015
  474TMC3     H 7057   2.334   3.884  14.412  1.2138 -2.1907 -0.1918
  474TMC3    H1 7058   2.743   4.018  14.390  0.0418  1.7350  0.0577
  474TMC3    H2 7059   2.494   4.136  14.709 -0.5102  1.5650 -0.6239
  474TMC3    C7 7060   2.742   4.172  14.597 -0.0739 -0.0367  0.7815
  474TMC3    C8 7061   2.287   4.077  14.578  0.4632 -0.0722  0.2813
  474TMC3    O1 7062   2.810   4.210  14.500 -0.2608 -0.0869  0.1925
  474TMC3    O2 7063   2.184   4.015  14.554 -0.5688 -0.3969  0.4430
  475MPD2     C 7064   0.922   1.382  10.111 -0.2749 -0.5684 -0.6478
  475MPD2    C1 7065   0.948   1.519  10.107  0.2154  0.5172 -0.3005
  475MPD2    C2 7066   0.845   1.603  10.117 -1.0686  0.1143  0.6476
  475MPD2    C3 7067   0.719   1.559  10.120  0.4341 -0.0194 -0.1780
  475MPD2    C4 7068   0.689   1.421  10.113  0.2977 -0.1072  0.3470
  475MPD2    C5 7069   0.792   1.333  10.110  0.1209  0.0508  0.4181
  475MPD2     H 7070   0.853   1.711  10.122 -0.5771  0.1890 -1.8135
  475MPD2    H1 7071   0.588   1.381  10.122 -0.3070  0.8156 -2.2897
  475MPD2    H2 7072   1.009   1.319  10.123  0.2869  0.1742 -0.8112
  475MPD2    H3 7073   0.774   1.226  10.117 -0.4206 -0.0549 -2.7641
  475MPD2     N 7074   0.615   1.653  10.126  0.6186 -0.3556  0.0093
  475MPD2    H5 7075   0.638   1.750  10.107  0.3025 -0.6160 -1.7635
  475MPD2    N1 7076   1.082   1.559  10.089 -0.2082  0.0225 -0.0284
  475MPD2    H7 7077   1.149   1.488  10.062 -0.4371 -0.5454  0.8997
  476TMC3    C1 7078   1.249   1.707  10.039 -0.3871  0.1331 -0.2324
  476TMC3    C2 7079   1.307   1.627   9.943  0.2012  0.0910 -0.2023
  476TMC3    C3 7080   1.415   1.671   9.874  0.6001  0.1248  0.0333
  476TMC3    C4 7081   1.304   1.825  10.066  0.2901 -0.1065  0.4035
  476TMC3    C5 7082   1.418   1.865  10.007 -0.2065  0.0730  0.5479
  476TMC3    C6 7083   1.472   1.792   9.902 -0.4155 -0.3496 -0.0539
  476TMC3     C 7084   1.118   1.690  10.084 -0.5884  0.2361 -0.1751
  476TMC3     O 7085   1.059   1.789  10.124  0.2679 -0.1784 -0.4654
  476TMC3     H 7086   1.263   1.535   9.907 -1.0523 -0.3578  2.4836
  476TMC3    H1 7087   1.275   1.860  10.164 -0.8032 -1.6253  0.6317
  476TMC3    H2 7088   1.568   1.825   9.863 -0.2510 -1.3528 -0.4920
  476TMC3    C7 7089   1.509   1.963  10.071  0.5397 -0.1950 -1.5100
  476TMC3    C8 7090   1.480   1.582   9.778 -0.5528  0.2352 -0.2453
  476TMC3    O1 7091   1.621   1.967  10.023  0.2090 -0.4514  0.0417
  476TMC3    O2 7092   1.589   1.617   9.732 -0.2693 -0.1089  0.2216
  477MPD2     C 7093   3.710   3.599  11.552  0.7298  0.8022 -0.2851
  477MPD2    C1 7094   3.673   3.497  11.467  0.1173  0.1426 -0.4952
  477MPD2    C2 7095   3.669   3.363  11.523  0.2001 -0.0956  0.5089
  477MPD2    C3 7096   3.706   3.340  11.659  0.8432  0.6690 -0.1572
  477MPD2    C4 7097   3.730   3.448  11.733 -0.3043 -0.0561  0.4490
  477MPD2    C5 7098   3.739   3.574  11.684  0.2463 -0.6138 -0.2605
  477MPD2     H 7099   3.649   3.281  11.455  1.7708 -0.1654  0.1201
  477MPD2    H1 7100   3.755   3.435  11.838 -3.2821  3.3808  1.5822
  477MPD2    H2 7101   3.702   3.705  11.528  1.3040  1.3924  2.1587
  477MPD2    H3 7102   3.751   3.667  11.739  1.8500 -1.2108  0.3625
  477MPD2     N 7103   3.709   3.211  11.719  0.2472 -0.2841 -0.6783
  477MPD2    H5 7104   3.718   3.209  11.821  5.6050  1.8040 -1.0787
  477MPD2    N1 7105   3.623   3.506  11.332  0.1333 -0.1049 -0.2603
  477MPD2    H7 7106   3.576   3.428  11.288 -1.0715  0.9533 -0.8322
  478TMC3    C1 7107   3.516   3.628  11.161  0.0551  0.1177  0.3430
  478TMC3    C2 7108   3.402   3.552  11.165  0.0490  0.7882  0.2799
  478TMC3    C3 7109   3.305   3.568  11.072  0.6210  0.6114 -0.0051
  478TMC3    C4 7110   3.537   3.713  11.064 -0.2981 -0.8590  0.2998
  478TMC3    C5 7111   3.435   3.734  10.974  0.3903 -0.3371 -0.0089
  478TMC3    C6 7112   3.306   3.675  10.990  0.4799 -0.0156 -0.5526
  478TMC3     C 7113   3.620   3.622  11.269 -0.5401  0.9341 -0.7694
  478TMC3     O 7114   3.689   3.722  11.289 -0.2407 -0.0897  0.1201
  478TMC3     H 7115   3.386   3.477  11.242  0.8349 -0.5814 -0.8959
  478TMC3    H1 7116   3.623   3.778  11.060  0.4672 -1.8359  0.8501
  478TMC3    H2 7117   3.222   3.696  10.924  0.2521  3.1706  0.7593
  478TMC3    C7 7118   3.455   3.842  10.883 -0.1704  0.3689 -0.2135
  478TMC3    C8 7119   3.179   3.552  11.133 -0.4968  0.0118  0.4722
  478TMC3    O1 7120   3.555   3.915  10.884  0.6052 -0.6115  0.3666
  478TMC3    O2 7121   3.141   3.441  11.169  0.1018 -0.3199 -0.4907
  479MPD2     C 7122   2.142   0.925  15.015  0.4370 -0.0297  0.3151
  479MPD2    C1 7123   2.088   0.838  15.108 -0.0628  0.0748 -0.4183
  479MPD2    C2 7124   2.117   0.858  15.239 -0.8154 -0.1842  0.5910
  479MPD2    C3 7125   2.195   0.968  15.280 -0.1314  0.1345  0.5521
  479MPD2    C4 7126   2.241   1.057  15.180  0.1303 -0.0478 -0.6480
  479MPD2    C5 7127   2.217   1.029  15.052  0.3630  0.0617 -0.6332
  479MPD2     H 7128   2.095   0.781  15.312 -0.3130  1.4084  2.3937
  479MPD2    H1 7129   2.301   1.146  15.194  0.4607 -0.6230  1.6674
  479MPD2    H2 7130   2.111   0.914  14.911 -0.4550  0.9074  0.4764
  479MPD2    H3 7131   2.267   1.096  14.982 -1.1250  1.2003 -0.6102
  479MPD2     N 7132   2.227   1.009  15.411  0.2027 -0.3751  0.6985
  479MPD2    H5 7133   2.296   1.083  15.412 -0.4024  0.2691 -2.8911
  479MPD2    N1 7134   1.980   0.754  15.068  0.0014  0.2861 -0.1970
  479MPD2    H7 7135   1.957   0.746  14.970 -1.1931  2.2877 -0.0722
  480TMC3    C1 7136   1.900   0.752  15.652 -0.4930  0.1721 -0.4607
  480TMC3    C2 7137   1.797   0.803  15.574  0.2285 -0.0655  0.8705
  480TMC3    C3 7138   1.825   0.908  15.491 -0.8091 -0.4622 -0.6950
  480TMC3    C4 7139   2.032   0.795  15.629 -0.4548  0.1275 -0.0330
  480TMC3    C5 7140   2.053   0.882  15.527  0.3109 -0.1401  0.2309
  480TMC3    C6 7141   1.952   0.949  15.467  0.9451  0.3442 -0.0500
  480TMC3     C 7142   1.889   0.644  15.750 -0.0674 -0.2454 -1.0446
  480TMC3     O 7143   1.991   0.578  15.772  0.0150 -0.1096  0.1331
  480TMC3     H 7144   1.695   0.769  15.586  0.3065  0.0364  1.8314
  480TMC3    H1 7145   2.115   0.743  15.676 -1.3339 -1.2449  0.0141
  480TMC3    H2 7146   1.972   1.029  15.397 -0.0234 -1.4436 -2.4081
  480TMC3    C7 7147   2.182   0.950  15.525 -0.4661 -0.6241  0.3842
  480TMC3    C8 7148   1.728   0.940  15.387  0.0663 -0.1152 -0.0983
  480TMC3    O1 7149   2.225   0.973  15.638 -0.3149 -0.2667 -0.3274
  480TMC3    O2 7150   1.611   0.917  15.417 -0.3077  0.0599  0.0219
  481MPD2     C 7151   3.708   1.002  14.715  0.7315  0.1177  0.0623
  481MPD2    C1 7152   3.664   0.889  14.649 -0.5601  0.8222  0.2749
  481MPD2    C2 7153   3.620   0.784  14.734 -1.1230 -0.1809 -0.4777
  481MPD2    C3 7154   3.640   0.785  14.873 -0.2680  0.4710 -0.1814
  481MPD2    C4 7155   3.669   0.902  14.933  0.2930 -0.1741  1.0580
  481MPD2    C5 7156   3.695   1.013  14.851  0.7866  0.2978 -0.2550
  481MPD2     H 7157   3.611   0.684  14.693 -0.6228  0.9693 -3.4126
  481MPD2    H1 7158   3.678   0.905  15.041 -1.3937 -2.9810  1.2993
  481MPD2    H2 7159   3.743   1.093  14.666 -2.0856  0.8173 -0.6353
  481MPD2    H3 7160   3.715   1.109  14.898 -0.0062 -0.0999  0.9052
  481MPD2     N 7161   3.634   0.664  14.951 -0.1785  0.1677 -0.7252
  481MPD2    H5 7162   3.672   0.669  15.044  0.2906 -0.1264 -0.9022
  481MPD2    N1 7163   3.680   0.877  14.509  0.0553  0.3348  0.3948
  481MPD2    H7 7164   3.728   0.950  14.459  0.5245 -1.8771 -2.3554
  482TMC3    C1 7165   3.655   0.785  14.288 -0.1453 -0.3160  0.2658
  482TMC3    C2 7166   3.688   0.683  14.208 -0.1198  0.1123 -0.3860
  482TMC3    C3 7167   3.730   0.709  14.082 -0.1108 -0.0001 -0.3425
  482TMC3    C4 7168   3.669   0.914  14.241 -0.0350  0.6788 -0.2978
  482TMC3    C5 7169   3.704   0.938  14.118 -0.2059 -0.3554 -0.4708
  482TMC3    C6 7170   3.746   0.839  14.034 -0.5092 -0.6145 -0.0611
  482TMC3     C 7171   3.643   0.769  14.435  0.0414  0.7736 -0.3040
  482TMC3     O 7172   3.583   0.666  14.457 -0.1954  0.6417  0.3294
  482TMC3     H 7173   3.689   0.585  14.255  0.2946 -0.0258 -0.6742
  482TMC3    H1 7174   3.629   0.993  14.303 -1.2004 -0.0585 -0.1220
  482TMC3    H2 7175   3.766   0.858  13.929  2.9683  0.2404  0.7597
  482TMC3    C7 7176   3.680   1.069  14.067 -0.1233  0.2456  0.0178
  482TMC3    C8 7177   3.739   0.593  13.991 -0.3736  0.5662 -0.7489
  482TMC3    O1 7178   3.655   1.161  14.145 -0.5367 -0.1265 -0.5049
  482TMC3    O2 7179   3.688   0.487  14.031 -0.0513  0.0396  0.4000
  483TMC3    C1 7180   2.531   4.308   1.560  0.1040 -0.0415 -0.2966
  483TMC3    C2 7181   2.495   4.351   1.429 -0.8894 -0.9679  0.0634
  483TMC3    C3 7182   2.605   4.369   1.347  0.4473  0.1796  0.1598
  483TMC3    C4 7183   2.661   4.293   1.600  0.0705 -0.2377  0.3281
  483TMC3    C5 7184   2.760   4.302   1.507  0.1720 -0.5165 -0.3507
  483TMC3    C6 7185   2.735   4.342   1.379 -0.2976 -0.2086 -0.6454
  483TMC3     C 7186   2.430   4.272   1.657  0.1058  0.4725 -0.9971
  483TMC3     O 7187   2.475   4.286   1.772 -0.5758 -0.1258  0.0936
  483TMC3     H 7188   2.396   4.368   1.389 -0.6525  0.8191  0.1980
  483TMC3    H1 7189   2.686   4.246   1.694 -1.2692 -0.5106  0.5504
  483TMC3    H2 7190   2.815   4.335   1.307  1.2904  0.4907  1.0529
  483TMC3    C7 7191   2.889   4.240   1.527  0.2834  0.9055 -0.2544
  483TMC3    C8 7192   2.579   4.444   1.223  0.1451 -0.0112  0.5231
  483TMC3    O1 7193   2.949   4.194   1.432  0.1534  0.4455  0.4057
  483TMC3    O2 7194   2.472   4.426   1.168  0.5635 -0.2475  0.4550
  484MPD2     C 7195   4.108   2.578  12.017 -0.6609 -0.1153  1.0867
  484MPD2    C1 7196   4.177   2.488  12.095 -0.5553  0.0473 -0.3629
  484MPD2    C2 7197   4.313   2.457  12.074 -0.9025 -0.1041  0.7728
  484MPD2    C3 7198   4.378   2.506  11.963  0.0339  1.1193  0.2666
  484MPD2    C4 7199   4.313   2.597  11.879 -0.9397  0.7377  0.4822
  484MPD2    C5 7200   4.182   2.627  11.913  0.3020 -0.6469 -0.0966
  484MPD2     H 7201   4.358   2.381  12.137  1.5389 -0.1974 -1.0718
  484MPD2    H1 7202   4.360   2.645  11.794 -0.2125  0.2397  0.5962
  484MPD2    H2 7203   4.005   2.610  12.029 -0.6041  1.1980 -1.9129
  484MPD2    H3 7204   4.137   2.694  11.841 -0.4046 -1.1430 -0.1136
  484MPD2     N 7205   4.511   2.472  11.932 -0.2019 -0.3956 -0.0034
  484MPD2    H5 7206   4.545   2.525  11.853 -1.1117 -1.9440 -1.4263
  484MPD2    N1 7207   4.099   2.443  12.205  0.0232  0.3069 -0.2040
  484MPD2    H7 7208   4.001   2.468  12.197 -0.1260 -0.3720 -0.5608
  485TMC3    C1 7209   4.721   2.381  11.963  0.0643  0.2104 -0.1204
  485TMC3    C2 7210   0.087   2.370  12.068  0.3755 -0.2937  0.3632
  485TMC3    C3 7211   0.221   2.395  12.033 -0.5657 -0.6737  0.1956
  485TMC3    C4 7212   0.033   2.403  11.829  0.6764 -0.4040  0.7558
  485TMC3    C5 7213   0.165   2.435  11.799 -0.2575  0.3375  0.6649
  485TMC3    C6 7214   0.258   2.435  11.904  0.3842 -0.4643 -0.1937
  485TMC3     C 7215   4.587   2.383  12.002 -0.1941 -0.4865 -0.1007
  485TMC3     O 7216   4.566   2.316  12.106  0.2711 -0.2095  0.8353
  485TMC3     H 7217   0.066   2.317  12.160 -1.9137  0.7211  0.4104
  485TMC3    H1 7218   4.696   2.376  11.742  0.5269  0.2926  0.6425
  485TMC3    H2 7219   0.359   2.455  11.869 -0.7315  0.7111 -2.7543
  485TMC3    C7 7220   0.226   2.366  11.690  0.9884  0.3504  0.2220
  485TMC3    C8 7221   0.316   2.309  12.093 -0.2164  0.0619  0.2159
  485TMC3    O1 7222   0.203   2.402  11.576 -0.3488 -0.4233 -0.1728
  485TMC3    O2 7223   0.412   2.278  12.024 -0.2841  0.3189 -0.4536
  486MPD2     C 7224   1.290   1.065  12.673 -0.1321  0.4045 -0.1653
  486MPD2    C1 7225   1.368   1.066  12.558  0.1169  0.2270 -0.0491
  486MPD2    C2 7226   1.361   1.187  12.487 -0.2572 -0.0057  0.6838
  486MPD2    C3 7227   1.294   1.299  12.531  0.0472 -0.6114  0.1014
  486MPD2    C4 7228   1.235   1.296  12.658  0.0911 -0.1836  0.4420
  486MPD2    C5 7229   1.230   1.178  12.721 -0.2697  0.3181 -0.7949
  486MPD2     H 7230   1.423   1.192  12.398 -1.0397  0.5756  0.1770
  486MPD2    H1 7231   1.174   1.374  12.701  0.6322  1.3300 -1.5530
  486MPD2    H2 7232   1.276   0.975  12.731  0.3358  0.0053 -0.6643
  486MPD2    H3 7233   1.182   1.181  12.818  1.0026  1.9985 -0.1997
  486MPD2     N 7234   1.303   1.420  12.456  0.0474 -0.1432 -0.3981
  486MPD2    H5 7235   1.349   1.401  12.368  2.4528 -1.1598  1.0545
  486MPD2    N1 7236   1.445   0.950  12.522  0.0679  0.3828  0.4462
  486MPD2    H7 7237   1.433   0.872  12.586  0.1369 -0.5235 -0.6496
  487TMC3    C1 7238   1.604   0.806  12.443 -0.0518 -0.2577 -0.6927
  487TMC3    C2 7239   1.537   0.703  12.507 -0.1647 -1.2173 -0.3723
  487TMC3    C3 7240   1.611   0.599  12.560  0.1659 -0.2430 -0.7525
  487TMC3    C4 7241   1.738   0.799  12.422 -0.3233  0.6563 -0.4572
  487TMC3    C5 7242   1.800   0.688  12.472 -0.1435 -0.3333  0.2774
  487TMC3    C6 7243   1.745   0.594  12.548 -0.0977 -0.3651 -0.5134
  487TMC3     C 7244   1.539   0.940  12.427  0.3065 -0.5797 -0.7874
  487TMC3     O 7245   1.582   1.020  12.343 -0.3643  0.1612  0.1195
  487TMC3     H 7246   1.432   0.716  12.528  0.1226  0.3554  0.0700
  487TMC3    H1 7247   1.797   0.876  12.373 -0.4074  0.4962 -0.8110
  487TMC3    H2 7248   1.805   0.508  12.575 -0.0269 -0.4855 -1.0568
  487TMC3    C7 7249   1.914   0.724  12.546  0.3597  0.9975 -0.4030
  487TMC3    C8 7250   1.551   0.540  12.678 -0.2087  1.2647 -0.1806
  487TMC3    O1 7251   1.920   0.690  12.665  0.8260  0.4979  0.6710
  487TMC3    O2 7252   1.435   0.566  12.699  0.3514 -0.4815 -0.4230
  488MPD2     C 7253   1.938   2.428  16.284 -0.2632 -0.2230 -0.3288
  488MPD2    C1 7254   1.908   2.558  16.314 -0.0107 -0.1589 -0.1676
  488MPD2    C2 7255   1.852   2.587  16.433 -0.0276  0.1822  0.2840
  488MPD2    C3 7256   1.827   2.490  16.530 -0.9489  0.1642  0.6653
  488MPD2    C4 7257   1.869   2.356  16.508 -0.9545 -0.3418  0.0702
  488MPD2    C5 7258   1.911   2.327  16.376  0.2088 -0.5604 -0.2747
  488MPD2     H 7259   1.824   2.690  16.452 -3.1225 -0.5250 -0.4769
  488MPD2    H1 7260   1.855   2.274  16.578 -0.4846 -1.2442 -0.8926
  488MPD2    H2 7261   1.991   2.406  16.192  1.3084 -0.7789  0.7096
  488MPD2    H3 7262   1.930   2.223  16.350  1.2094 -0.7776  1.3736
  488MPD2     N 7263   1.774   2.528  16.656 -0.1695 -0.4482 -0.0259
  488MPD2    H5 7264   1.789   2.623  16.687  0.5944 -0.6081  0.0924
  488MPD2    N1 7265   1.913   2.661  16.219  0.1510 -0.3383 -0.5118
  488MPD2    H7 7266   1.870   2.750  16.243 -0.7443 -0.8786 -0.0911
  489TMC3    C1 7267   1.666   2.522  16.849 -1.2644  0.0426  0.2657
  489TMC3    C2 7268   1.671   2.664  16.843  0.5342  0.2415 -0.1358
  489TMC3    C3 7269   1.644   2.726  16.960  0.3387 -0.1013 -0.1453
  489TMC3    C4 7270   1.635   2.448  16.958 -0.5956  0.1326 -0.2222
  489TMC3    C5 7271   1.603   2.521  17.071  0.0811 -0.7687 -0.3792
  489TMC3    C6 7272   1.609   2.659  17.074 -1.0547  0.6722 -0.2073
  489TMC3     C 7273   1.694   2.450  16.734  0.5315 -0.0019 -0.1545
  489TMC3     O 7274   1.660   2.334  16.729 -0.2458  0.2892 -0.1616
  489TMC3     H 7275   1.688   2.722  16.753  2.7658 -0.1764  0.0144
  489TMC3    H1 7276   1.657   2.342  16.960 -2.7572 -0.2938  1.1025
  489TMC3    H2 7277   1.594   2.717  17.165  0.1482 -1.3131  1.2443
  489TMC3    C7 7278   1.541   2.450  17.182 -0.1643 -0.1960  0.1125
  489TMC3    C8 7279   1.684   2.866  16.958  0.0875 -0.3233  0.4497
  489TMC3    O1 7280   1.521   2.519  17.281 -0.0769 -0.2353  0.6298
  489TMC3    O2 7281   1.764   2.899  16.867  0.4677 -0.0912 -0.1196
  490MPD2     C 7282   2.451   2.609  17.209 -0.7455  0.0804 -0.1882
  490MPD2    C1 7283   2.443   2.515  17.314  0.3930  0.2213 -0.1191
  490MPD2    C2 7284   2.538   2.518  17.413 -0.5625  0.1477  0.2849
  490MPD2    C3 7285   2.652   2.597  17.406  0.0082  0.3817 -0.6404
  490MPD2    C4 7286   2.666   2.675  17.292  0.2434  0.2627  0.1767
  490MPD2    C5 7287   2.567   2.681  17.201  0.1540 -0.2535  0.5824
  490MPD2     H 7288   2.534   2.449  17.497 -1.1370 -0.8789 -0.5969
  490MPD2    H1 7289   2.754   2.728  17.258  0.0496  1.4413  1.5171
  490MPD2    H2 7290   2.372   2.631  17.138 -0.5229  0.3881 -0.3375
  490MPD2    H3 7291   2.582   2.742  17.112  0.8476 -1.0726  0.1384
  490MPD2     N 7292   2.758   2.582  17.495 -0.2678  0.2889 -0.0068
  490MPD2    H5 7293   2.844   2.630  17.473 -1.2329  2.0426  0.0269
  490MPD2    N1 7294   2.339   2.428  17.325 -0.8513 -0.0649  0.2735
  490MPD2    H7 7295   2.346   2.381  17.415  3.3031 -0.6917 -0.3983
  491TMC3    C1 7296   2.179   2.268  17.253 -0.4699 -0.4134 -0.6798
  491TMC3    C2 7297   2.181   2.219  17.387  0.4675  0.5690 -0.7089
  491TMC3    C3 7298   2.148   2.090  17.412 -0.2354  0.2612  0.1791
  491TMC3    C4 7299   2.140   2.185  17.154  0.3721  0.2159 -0.2371
  491TMC3    C5 7300   2.091   2.065  17.182 -0.3825 -0.3086  0.0718
  491TMC3    C6 7301   2.093   2.016  17.310  0.3167 -0.7323  0.0147
  491TMC3     C 7302   2.256   2.387  17.223 -0.1325 -0.3610 -1.1213
  491TMC3     O 7303   2.260   2.413  17.100 -0.2331  0.1743  0.1407
  491TMC3     H 7304   2.197   2.292  17.466 -1.5251  0.1013  0.1265
  491TMC3    H1 7305   2.162   2.210  17.050  0.5902 -0.2444 -0.3011
  491TMC3    H2 7306   2.063   1.913  17.329  0.7090 -0.3366  2.8872
  491TMC3    C7 7307   2.056   1.974  17.073 -0.2138  0.2784  0.3055
  491TMC3    C8 7308   2.115   2.058  17.552  0.4547  0.0949 -0.0405
  491TMC3    O1 7309   2.074   1.856  17.096  0.1231 -0.5401  0.0552
  491TMC3    O2 7310   2.068   1.949  17.568 -0.1253  0.0804 -0.3311
  492MPD2     C 7311   3.147   2.205  11.237  0.2988  0.1852  0.1794
  492MPD2    C1 7312   3.072   2.117  11.158 -0.6859 -0.7802 -0.4512
  492MPD2    C2 7313   2.971   2.042  11.213  0.1186  0.5253 -1.4894
  492MPD2    C3 7314   2.951   2.034  11.348  0.1522 -0.4491  0.7032
  492MPD2    C4 7315   3.035   2.113  11.423  0.1115  0.0652  0.6036
  492MPD2    C5 7316   3.125   2.196  11.370 -0.0419  0.0811 -0.0865
  492MPD2     H 7317   2.904   1.992  11.144  1.9023  0.8984 -3.4865
  492MPD2    H1 7318   3.027   2.119  11.531 -1.6217 -0.5479  0.5039
  492MPD2    H2 7319   3.219   2.273  11.194  0.0075  0.3001 -0.1301
  492MPD2    H3 7320   3.181   2.264  11.434  0.3122 -0.6565  0.3896
  492MPD2     N 7321   2.867   1.943  11.415 -0.3302 -0.5013  0.0323
  492MPD2    H5 7322   2.871   1.946  11.517  0.2720 -0.6263  0.0122
  492MPD2    N1 7323   3.089   2.133  11.021  0.5198  0.3823 -0.0134
  492MPD2    H7 7324   3.142   2.214  10.991  1.0895  0.5548  1.4215
  493TMC3    C1 7325   3.091   2.075  10.800 -0.0216 -0.2114 -0.2592
  493TMC3    C2 7326   3.204   2.151  10.768  1.1389  0.2092  0.2030
  493TMC3    C3 7327   3.223   2.197  10.640 -0.5491  0.3278 -0.1265
  493TMC3    C4 7328   3.010   2.034  10.689 -0.9831  0.4531 -0.1437
  493TMC3    C5 7329   3.034   2.086  10.565  0.3378 -0.7121  0.4629
  493TMC3    C6 7330   3.147   2.158  10.535  0.3515  0.3577  0.2334
  493TMC3     C 7331   3.061   2.029  10.935 -0.1326  0.9447  0.7256
  493TMC3     O 7332   3.005   1.922  10.951  0.3507 -0.3628 -0.6805
  493TMC3     H 7333   3.280   2.188  10.835  1.0841 -0.3111  0.5476
  493TMC3    H1 7334   2.913   1.995  10.718 -0.9520  1.8978  1.9427
  493TMC3    H2 7335   3.167   2.189  10.433  1.0334  0.1953  0.3189
  493TMC3    C7 7336   2.970   2.021  10.454  0.1606 -0.2194  0.7738
  493TMC3    C8 7337   3.338   2.279  10.621  0.1026  0.0740  0.2517
  493TMC3    O1 7338   2.945   2.091  10.352 -0.0980 -0.4841 -0.1713
  493TMC3    O2 7339   3.444   2.237  10.663  0.0392  0.5072  0.2859
  494TMC3    C1 7340   3.706   3.171   0.562  0.1396  0.0010 -0.3384
  494TMC3    C2 7341   3.694   3.038   0.536  0.6131 -0.4030  1.0611
  494TMC3    C3 7342   3.633   2.997   0.420  0.3224  0.5119 -0.9278
  494TMC3    C4 7343   3.641   3.259   0.480  0.1021 -0.0187  0.6812
  494TMC3    C5 7344   3.592   3.214   0.362  0.0722  0.3508 -1.0415
  494TMC3    C6 7345   3.582   3.080   0.328  0.6860 -0.2044  0.7397
  494TMC3     C 7346   3.747   3.212   0.693 -0.0588  0.7785  0.1426
  494TMC3     O 7347   3.778   3.139   0.785 -0.2453 -0.1976  0.2763
  494TMC3     H 7348   3.720   2.964   0.611 -0.1942 -1.0299  0.7226
  494TMC3    H1 7349   3.620   3.359   0.516 -1.4829 -0.2991  0.5377
  494TMC3    H2 7350   3.528   3.044   0.242  1.4323 -0.7337  0.4867
  494TMC3    C7 7351   3.535   3.304   0.260  0.3113 -0.0065 -0.8352
  494TMC3    C8 7352   3.653   2.853   0.375  0.2877 -0.1560 -0.7543
  494TMC3    O1 7353   3.444   3.267   0.180 -0.1447  0.4252 -0.2473
  494TMC3    O2 7354   3.581   2.813   0.283  0.0856  0.0374  0.3520
  495TMC3    C1 7355   2.004   1.075  14.430  0.2079  0.1486  0.5532
  495TMC3    C2 7356   1.940   1.183  14.372 -0.2072 -0.1215 -0.1744
  495TMC3    C3 7357   1.856   1.261  14.439  0.4144  0.6463  1.5204
  495TMC3    C4 7358   2.003   1.063  14.564  0.1891  0.5208  0.6749
  495TMC3    C5 7359   1.907   1.139  14.622  0.2839 -0.5500  0.5711
  495TMC3    C6 7360   1.824   1.233  14.566 -0.0221 -0.9932  0.3600
  495TMC3     C 7361   2.026   0.956  14.349  0.1306 -0.0073 -0.1143
  495TMC3     O 7362   2.025   0.973  14.229  0.1525 -0.4496  0.2232
  495TMC3     H 7363   1.959   1.197  14.266  1.2821  0.5741  0.1751
  495TMC3    H1 7364   2.041   0.976  14.617  1.3147  0.2408 -0.5864
  495TMC3    H2 7365   1.760   1.297  14.626  2.7577  0.5330  1.6557
  495TMC3    C7 7366   1.893   1.122  14.764  0.0837 -0.0783 -1.1427
  495TMC3    C8 7367   1.765   1.342  14.361  0.0818 -0.6783 -0.3916
  495TMC3    O1 7368   1.986   1.082  14.826 -0.2398 -0.3224  0.3206
  495TMC3    O2 7369   1.646   1.351  14.394 -0.2916  0.0181 -0.4851
  496MPD2     C 7370   3.838   1.179  15.121  0.2262 -0.1144  0.3872
  496MPD2    C1 7371   3.898   1.111  15.226 -0.4741  0.3299 -0.6293
  496MPD2    C2 7372   3.834   1.123  15.349 -0.6522  0.1829 -0.6916
  496MPD2    C3 7373   3.711   1.189  15.356  0.8413  0.0443  0.6673
  496MPD2    C4 7374   3.647   1.239  15.247 -0.1373 -0.0499 -0.0755
  496MPD2    C5 7375   3.714   1.237  15.133  0.6235  0.4663 -0.0995
  496MPD2     H 7376   3.876   1.081  15.441 -1.6097 -1.2158 -0.8968
  496MPD2    H1 7377   3.550   1.286  15.262  1.3424  2.4174  1.8283
  496MPD2    H2 7378   3.891   1.189  15.027  1.0437  0.0568  0.8719
  496MPD2    H3 7379   3.670   1.275  15.042 -0.5706  1.7221  1.0013
  496MPD2     N 7380   3.638   1.207  15.478  0.0385 -0.4111  0.2915
  496MPD2    H5 7381   3.541   1.237  15.472  0.6867  1.1216 -2.3918
  496MPD2    N1 7382   4.008   1.029  15.203  0.4000  0.0445  0.1861
  496MPD2    H7 7383   4.052   1.044  15.113 -0.9232  1.1652 -0.2887
  497TMC3    C1 7384   3.586   1.187  15.694  0.0977 -0.6541 -0.2072
  497TMC3    C2 7385   3.459   1.143  15.666  0.4447  0.4884  0.6126
  497TMC3    C3 7386   3.384   1.107  15.771 -0.0563  0.5696  0.3065
  497TMC3    C4 7387   3.628   1.197  15.819 -0.7585 -0.8286  0.1485
  497TMC3    C5 7388   3.558   1.155  15.927 -0.3280  0.3591 -0.2008
  497TMC3    C6 7389   3.432   1.109  15.902  0.0318  0.2080 -0.0787
  497TMC3     C 7390   3.687   1.178  15.598 -0.0049 -0.5871 -0.1996
  497TMC3     O 7391   3.803   1.153  15.626 -0.1645  0.2897 -0.7625
  497TMC3     H 7392   3.422   1.123  15.566 -0.2502  1.7554  0.6006
  497TMC3    H1 7393   3.733   1.221  15.832 -0.6370 -0.9557 -0.6251
  497TMC3    H2 7394   3.373   1.082  15.988 -1.0275  0.7794 -0.6233
  497TMC3    C7 7395   3.628   1.096  16.033  0.4952  0.6513 -0.5386
  497TMC3    C8 7396   3.236   1.110  15.769 -0.3607 -0.3494 -0.2538
  497TMC3    O1 7397   3.581   0.991  16.075 -0.8039 -0.1195  0.4285
  497TMC3    O2 7398   3.188   1.163  15.866 -0.4062 -0.2005  0.3432
  498MPD2     C 7399   0.481   1.610   9.725  0.8332 -0.2347  0.0008
  498MPD2    C1 7400   0.570   1.548   9.646  0.1056  0.2214 -0.2054
  498MPD2    C2 7401   0.604   1.420   9.676 -0.4401 -0.0968  0.3588
  498MPD2    C3 7402   0.552   1.354   9.786 -0.1034 -0.7210  0.2261
  498MPD2    C4 7403   0.450   1.415   9.861 -0.4354 -0.2153 -0.9100
  498MPD2    C5 7404   0.413   1.536   9.820 -0.1850  0.1659 -0.1061
  498MPD2     H 7405   0.677   1.383   9.605 -0.3068 -0.6370  0.7733
  498MPD2    H1 7406   0.407   1.368   9.949  2.6662  1.7273  1.6538
  498MPD2    H2 7407   0.448   1.711   9.702  0.4204 -0.3188  0.2148
  498MPD2    H3 7408   0.342   1.587   9.883 -2.7621 -1.7960 -1.4089
  498MPD2     N 7409   0.601   1.226   9.826 -0.1401 -0.4881 -0.1631
  498MPD2    H5 7410   0.665   1.186   9.757  0.5060  1.9932 -0.9940
  498MPD2    N1 7411   0.607   1.602   9.520  0.2385  0.4929  0.3568
  498MPD2    H7 7412   0.665   1.537   9.467  1.4040  2.7984 -1.2545
  499TMC3    C1 7413   0.636   1.753   9.336  0.1728 -0.5989  0.0488
  499TMC3    C2 7414   0.639   1.648   9.251  0.0521 -0.9323 -0.3139
  499TMC3    C3 7415   0.728   1.660   9.153 -0.2687 -0.6440  0.1158
  499TMC3    C4 7416   0.707   1.870   9.311 -0.3722  0.0597 -0.2034
  499TMC3    C5 7417   0.795   1.865   9.215 -0.5033  0.2963 -0.1399
  499TMC3    C6 7418   0.809   1.762   9.131  0.5344 -0.5475 -0.0941
  499TMC3     C 7419   0.594   1.734   9.479  0.0765  0.5250  0.6061
  499TMC3     O 7420   0.570   1.827   9.555  0.0433  0.8886 -0.2635
  499TMC3     H 7421   0.584   1.555   9.261 -0.5492 -0.3474  1.7584
  499TMC3    H1 7422   0.700   1.951   9.383  1.6652 -0.8056  0.9570
  499TMC3    H2 7423   0.870   1.776   9.042  1.5443  0.3741  0.7520
  499TMC3    C7 7424   0.903   1.961   9.216 -0.4743  0.4783  0.3561
  499TMC3    C8 7425   0.740   1.555   9.053  0.2218  0.3046 -0.4128
  499TMC3    O1 7426   0.996   1.947   9.131 -0.5234 -0.3113 -0.0184
  499TMC3    O2 7427   0.639   1.510   8.999 -0.7661 -0.4190 -0.1610
  500MPD2     C 7428   2.085   3.123  10.423 -0.2953 -0.2296 -0.1347
  500MPD2    C1 7429   2.129   3.229  10.347  0.1718 -0.0837 -0.6647
  500MPD2    C2 7430   2.053   3.273  10.242  0.7870 -0.7444 -0.6161
  500MPD2    C3 7431   1.924   3.230  10.216 -0.5233 -0.2323  0.5717
  500MPD2    C4 7432   1.877   3.129  10.297  0.1771  0.6289 -0.7312
  500MPD2    C5 7433   1.958   3.080  10.401  0.0828 -0.3183 -0.1605
  500MPD2     H 7434   2.079   3.362  10.187 -0.7940 -0.7484 -1.3556
  500MPD2    H1 7435   1.778   3.085  10.294  0.7381 -0.6247 -0.9121
  500MPD2    H2 7436   2.145   3.071  10.496 -1.9703 -0.7645  0.8644
  500MPD2    H3 7437   1.907   3.006  10.461 -0.2595  0.5967  0.6685
  500MPD2     N 7438   1.837   3.261  10.113  0.5536 -0.8414 -0.6245
  500MPD2    H5 7439   1.758   3.202  10.090 -1.2860  0.5688  2.0822
  500MPD2    N1 7440   2.254   3.294  10.371  0.2860 -0.2551 -0.2560
  500MPD2    H7 7441   2.285   3.359  10.300  2.8128  0.0432  1.1517
  501TMC3    C1 7442   2.457   3.366  10.473 -0.8593  0.3250  0.1286
  501TMC3    C2 7443   2.470   3.457  10.367 -0.7473 -0.4363 -0.0729
  501TMC3    C3 7444   2.598   3.516  10.367 -1.1044  0.2482 -0.1066
  501TMC3    C4 7445   2.556   3.333  10.571 -0.3408  0.3902  0.4227
  501TMC3    C5 7446   2.667   3.402  10.559 -0.0002 -0.5500 -0.0263
  501TMC3    C6 7447   2.695   3.490  10.458 -0.2563  0.4435  0.1374
  501TMC3     C 7448   2.343   3.274  10.474 -0.1025  0.0409  1.1522
  501TMC3     O 7449   2.340   3.195  10.565 -0.0074 -0.7929  0.2807
  501TMC3     H 7450   2.401   3.470  10.285 -0.6864  1.1144  0.1123
  501TMC3    H1 7451   2.551   3.253  10.644 -0.5125  2.2509  2.4327
  501TMC3    H2 7452   2.793   3.530  10.434  0.8266 -1.7401  0.9407
  501TMC3    C7 7453   2.785   3.346  10.630  0.1245  0.0502  0.2743
  501TMC3    C8 7454   2.629   3.608  10.263 -0.4041 -0.3452  0.1330
  501TMC3    O1 7455   2.775   3.241  10.689  0.0752  0.0640  0.0276
  501TMC3    O2 7456   2.735   3.666  10.268  0.1495  0.3976 -0.3890
  502TMC3    C1 7457   1.601   1.970  14.635 -0.1589 -0.2947 -0.4563
  502TMC3    C2 7458   1.573   2.107  14.627  0.6034 -0.6389  0.2121
  502TMC3    C3 7459   1.448   2.141  14.648  1.0230  0.4680  0.2939
  502TMC3    C4 7460   1.508   1.872  14.650 -0.1503 -0.1317 -0.0834
  502TMC3    C5 7461   1.379   1.918  14.677 -0.5289 -0.0100 -0.1708
  502TMC3    C6 7462   1.348   2.052  14.672  0.4366  0.7429 -0.2487
  502TMC3     C 7463   1.739   1.942  14.659  0.6175 -0.3108 -0.1167
  502TMC3     O 7464   1.820   2.022  14.616 -0.1189  0.5037  0.5819
  502TMC3     H 7465   1.651   2.182  14.621 -0.5602  0.6540  1.0912
  502TMC3    H1 7466   1.533   1.767  14.658  1.6718  0.1697 -1.9518
  502TMC3    H2 7467   1.247   2.079  14.703 -0.8153 -1.8898 -1.9972
  502TMC3    C7 7468   1.291   1.821  14.734 -0.1482 -0.5920 -0.5900
  502TMC3    C8 7469   1.437   2.278  14.661 -0.0805 -0.1905  0.0595
  502TMC3    O1 7470   1.329   1.704  14.765  0.4265  0.0982  0.3384
  502TMC3    O2 7471   1.508   2.355  14.594  0.2954  0.1473  0.4437
  503MPD2     C 7472   3.275   2.350  16.712 -0.3309  0.2583 -0.0602
  503MPD2    C1 7473   3.317   2.382  16.842 -0.2645 -0.3359 -1.1413
  503MPD2    C2 7474   3.376   2.288  16.929 -0.3654 -0.3591  0.1259
  503MPD2    C3 7475   3.396   2.159  16.877 -0.3730 -0.4901 -0.1652
  503MPD2    C4 7476   3.346   2.129  16.754 -0.1207  0.5260 -0.6116
  503MPD2    C5 7477   3.293   2.223  16.668  0.7185 -0.7502 -0.1436
  503MPD2     H 7478   3.409   2.303  17.031  0.4486  1.2400 -0.3780
  503MPD2    H1 7479   3.346   2.028  16.715 -0.0715  0.1200  0.4408
  503MPD2    H2 7480   3.228   2.420  16.643  0.1853  0.7438  0.0797
  503MPD2    H3 7481   3.248   2.191  16.574  0.1502 -1.9170  0.5293
  503MPD2     N 7482   3.475   2.067  16.955 -0.1691 -0.2367  0.1948
  503MPD2    H5 7483   3.500   2.097  17.048  0.3589  0.2882 -0.1201
  503MPD2    N1 7484   3.322   2.515  16.884 -0.1394  0.0229  0.2404
  503MPD2    H7 7485   3.334   2.523  16.985  1.8050  0.1911 -0.0036
  504TMC3    C1 7486   3.624   1.895  16.983 -0.0258  0.1086  0.2278
  504TMC3    C2 7487   3.614   1.889  17.121  0.1381  0.1849 -0.5633
  504TMC3    C3 7488   3.718   1.821  17.185  0.3000  0.1560 -0.3430
  504TMC3    C4 7489   3.735   1.848  16.915 -0.6772  0.1323  0.5845
  504TMC3    C5 7490   3.840   1.800  16.986  0.6233 -0.1832  0.0690
  504TMC3    C6 7491   3.837   1.780  17.126  0.8199 -0.9194 -0.8389
  504TMC3     C 7492   3.523   1.956  16.901  0.5774  0.6242  0.0851
  504TMC3     O 7493   3.521   1.906  16.787  0.3007 -0.5331  0.0111
  504TMC3     H 7494   3.525   1.915  17.178  0.5515  0.7662 -0.1839
  504TMC3    H1 7495   3.738   1.843  16.807 -0.6517  1.6700  0.5088
  504TMC3    H2 7496   3.916   1.722  17.173 -0.4773 -2.2880 -0.3435
  504TMC3    C7 7497   3.971   1.798  16.912 -0.3950  0.3595  0.7705
  504TMC3    C8 7498   3.681   1.742  17.307  0.1840  0.1825 -0.2598
  504TMC3    O1 7499   3.970   1.820  16.794 -0.2981 -0.6238 -0.1484
  504TMC3    O2 7500   3.566   1.743  17.344 -0.1234 -0.1465 -0.5064
  505MPD2     C 7501   1.028   4.659  10.002 -0.2948 -0.1776  0.1588
  505MPD2    C1 7502   0.996   4.635   9.870 -0.2031 -0.1090  0.2406
  505MPD2    C2 7503   1.077   4.685   9.762  0.3139  0.4228  0.0209
  505MPD2    C3 7504   1.193   0.032   9.797  0.3976 -0.2682  0.4187
  505MPD2    C4 7505   1.223   0.044   9.930  0.3363 -0.0188 -0.3839
  505MPD2    C5 7506   1.142   0.004  10.033 -0.1584  1.1843 -0.9442
  505MPD2     H 7507   1.055   4.677   9.656 -1.7236  1.7054  0.3474
  505MPD2    H1 7508   1.309   0.103   9.958  1.5800 -1.7254 -0.6066
  505MPD2    H2 7509   0.961   4.639  10.085 -0.2834  0.2553  0.2692
  505MPD2    H3 7510   1.162   0.036  10.134  1.2593 -0.6559 -0.6333
  505MPD2     N 7511   1.273   0.103   9.704  0.3350  0.2022  0.2590
  505MPD2    H5 7512   1.352   0.156   9.739  0.6637  0.0334 -0.2170
  505MPD2    N1 7513   0.870   4.578   9.848  0.0328  0.6553  0.6116
  505MPD2    H7 7514   0.809   4.566   9.929 -0.7296  1.8633  0.2142
  506TMC3    C1 7515   0.687   4.496   9.729  0.0730  1.3172 -0.4998
  506TMC3    C2 7516   0.603   4.590   9.778 -0.2195 -0.3716 -0.7234
  506TMC3    C3 7517   0.490   4.624   9.713  0.8947  0.5863  1.0283
  506TMC3    C4 7518   0.657   4.449   9.598 -0.0439  0.6240 -0.5662
  506TMC3    C5 7519   0.551   4.500   9.526  0.2423 -0.1333  0.1225
  506TMC3    C6 7520   0.456   4.581   9.586  0.8999  0.2831 -0.2261
  506TMC3     C 7521   0.829   4.535   9.726 -0.0975  0.8836 -0.2229
  506TMC3     O 7522   0.881   4.534   9.615  0.3353  0.2391  0.7427
  506TMC3     H 7523   0.614   4.627   9.880  0.3652  2.2766 -1.7346
  506TMC3    H1 7524   0.711   4.366   9.554  1.1335  0.5411  1.0370
  506TMC3    H2 7525   0.396   4.647   9.525 -0.5394 -1.0321 -0.2287
  506TMC3    C7 7526   0.588   4.534   9.389  0.0778  0.2402  0.5291
  506TMC3    C8 7527   0.417   0.024   9.761 -0.0700 -0.3846  0.7602
  506TMC3    O1 7528   0.499   4.570   9.314  0.2898 -0.0872  0.6091
  506TMC3    O2 7529   0.296   0.026   9.735 -0.5267 -0.2754 -0.2241
  507TMC3    C1 7530   0.196   2.306  14.194 -0.2393 -0.2298 -0.5504
  507TMC3    C2 7531   0.181   2.323  14.063  0.3748 -0.1689 -0.3198
  507TMC3    C3 7532   0.290   2.381  13.991  1.1344 -0.2580  0.1907
  507TMC3    C4 7533   0.303   2.345  14.263 -0.4429 -0.1604  0.0478
  507TMC3    C5 7534   0.403   2.419  14.194 -0.0945  0.0929 -0.6831
  507TMC3    C6 7535   0.396   2.428  14.054  0.0823 -0.4210  0.3445
  507TMC3     C 7536   0.094   2.238  14.264 -0.1262 -0.2536 -0.2313
  507TMC3     O 7537   0.130   2.161  14.350 -0.4245 -0.1004  0.0269
  507TMC3     H 7538   0.095   2.282  14.011  0.4068 -0.0755 -0.4480
  507TMC3    H1 7539   0.305   2.331  14.371 -1.0999  1.8593  0.3200
  507TMC3    H2 7540   0.477   2.470  13.994 -1.2522 -1.4427 -2.1868
  507TMC3    C7 7541   0.466   2.534  14.249 -0.2843 -0.2214  0.5580
  507TMC3    C8 7542   0.239   2.478  13.899 -0.1128 -0.2078  0.6101
  507TMC3    O1 7543   0.497   2.621  14.173  0.1662 -0.4245  0.3825
  507TMC3    O2 7544   0.147   2.443  13.826  1.1665  0.3522  0.0713
  508MPD2     C 7545   1.178   0.220  16.135  0.4298 -0.6483  1.2082
  508MPD2    C1 7546   1.058   0.176  16.189  0.1832 -0.6331 -0.5171
  508MPD2    C2 7547   0.944   0.232  16.130  0.4382  0.0860  0.0301
  508MPD2    C3 7548   0.943   0.312  16.017  0.5341  0.2888  0.1629
  508MPD2    C4 7549   1.063   0.337  15.952 -0.1416  0.4155  0.1577
  508MPD2    C5 7550   1.180   0.302  16.021 -0.4801  0.0286 -0.4328
  508MPD2     H 7551   0.845   0.209  16.166  0.7831 -1.1772  0.1635
  508MPD2    H1 7552   1.069   0.388  15.856 -0.0673 -2.4398 -1.3343
  508MPD2    H2 7553   1.270   0.177  16.172  1.9158  0.9012 -0.6287
  508MPD2    H3 7554   1.276   0.316  15.973 -0.2979 -1.7431 -0.6084
  508MPD2     N 7555   0.823   0.352  15.954 -0.1093  0.3158 -0.1258
  508MPD2    H5 7556   0.837   0.377  15.857  1.7267 -1.2088 -0.2612
  508MPD2    N1 7557   1.072   0.109  16.298 -0.5530 -0.3255  0.6649
  508MPD2    H7 7558   1.165   0.087  16.331 -0.4892 -1.7085 -0.4309
  509TMC3    C1 7559   0.454   0.525  15.798  0.6167 -0.0947  0.2354
  509TMC3    C2 7560   0.479   0.467  15.674 -0.0228  0.5480 -0.0273
  509TMC3    C3 7561   0.584   0.379  15.659 -0.2891 -0.3406 -0.6320
  509TMC3    C4 7562   0.519   0.478  15.906  0.4309 -0.2551  0.0794
  509TMC3    C5 7563   0.611   0.378  15.891 -0.0520  0.4151 -0.4767
  509TMC3    C6 7564   0.650   0.334  15.770  0.0057  0.3725  0.3623
  509TMC3     C 7565   0.431   0.669  15.777  0.3443 -0.3564 -0.4869
  509TMC3     O 7566   0.357   0.731  15.856 -0.1702 -0.1148  0.6499
  509TMC3     H 7567   0.424   0.500  15.586 -2.0271 -3.5410 -0.2813
  509TMC3    H1 7568   0.498   0.520  16.003  1.0934 -1.8279  0.9021
  509TMC3    H2 7569   0.699   0.238  15.757  2.7678  1.7183  1.0117
  509TMC3    C7 7570   0.692   0.344  15.998 -0.7801 -0.4441  0.2026
  509TMC3    C8 7571   0.675   0.432  15.558  0.8052  0.3873  0.3776
  509TMC3    O1 7572   0.650   0.304  16.105 -0.4473 -0.1623  0.0588
  509TMC3    O2 7573   0.644   0.540  15.516 -0.3445 -0.6006  0.3667
  510MPD2     C 7574   3.406   1.678  14.173 -1.1800 -0.3187 -0.6073
  510MPD2    C1 7575   3.454   1.703  14.296 -0.4432  1.1232 -0.6344
  510MPD2    C2 7576   3.584   1.734  14.308 -0.2491  1.0716  0.3039
  510MPD2    C3 7577   3.669   1.734  14.202  0.2624  0.0168  0.5773
  510MPD2    C4 7578   3.616   1.748  14.070  0.3085  0.5948 -0.4147
  510MPD2    C5 7579   3.482   1.716  14.064  0.1551  0.3745 -0.0121
  510MPD2     H 7580   3.622   1.735  14.410 -0.6479 -2.5978  0.5024
  510MPD2    H1 7581   3.672   1.752  13.977 -1.1854 -0.3637 -1.3659
  510MPD2    H2 7582   3.300   1.661  14.155 -1.4796 -1.5691  2.3590
  510MPD2    H3 7583   3.441   1.704  13.964 -0.1596 -1.4213  0.3443
  510MPD2     N 7584   3.804   1.739  14.230  0.0556  0.1973 -0.0526
  510MPD2    H5 7585   3.827   1.716  14.327  1.2714  1.3166 -0.0698
  510MPD2    N1 7586   3.373   1.665  14.404 -0.0632 -0.2989  0.2492
  510MPD2    H7 7587   3.290   1.611  14.382  1.1209 -1.0076 -2.4138
  511TMC3    C1 7588   3.298   1.592  14.609  0.1617 -0.3219 -0.3709
  511TMC3    C2 7589   3.229   1.634  14.720  0.2250  0.4754  0.2635
  511TMC3    C3 7590   3.120   1.559  14.768 -0.0226 -0.0748 -0.9184
  511TMC3    C4 7591   3.275   1.469  14.549 -0.9564 -0.8587  0.1979
  511TMC3    C5 7592   3.170   1.394  14.605  0.7804  0.1012  0.1295
  511TMC3    C6 7593   3.101   1.430  14.713 -0.1225  0.0054  0.0404
  511TMC3     C 7594   3.386   1.685  14.542  0.0537  0.7602  0.5843
  511TMC3     O 7595   3.460   1.760  14.601  0.2015  0.3164 -0.3160
  511TMC3     H 7596   3.254   1.731  14.760 -1.6592  1.3959 -0.7602
  511TMC3    H1 7597   3.326   1.428  14.462  1.0665 -0.8853  1.3940
  511TMC3    H2 7598   3.016   1.368  14.735 -0.3127  1.2313  2.7031
  511TMC3    C7 7599   3.127   1.276  14.527 -0.0549 -0.1488 -0.2385
  511TMC3    C8 7600   3.038   1.619  14.877 -0.4344 -0.1529  0.2352
  511TMC3    O1 7601   3.112   1.297  14.408 -0.3786  0.6115 -0.1857
  511TMC3    O2 7602   3.038   1.745  14.881  0.2163  0.2171  0.0341
  512TMC3    C1 7603   2.679   0.887  12.944  0.6516  0.0302 -0.2058
  512TMC3    C2 7604   2.753   0.888  13.060  0.3170  0.4818 -0.5013
  512TMC3    C3 7605   2.762   0.769  13.136  0.0633  0.1644 -0.2482
  512TMC3    C4 7606   2.630   0.763  12.895  0.1065  0.4880 -0.0148
  512TMC3    C5 7607   2.649   0.649  12.969  0.2051 -1.3290 -0.3976
  512TMC3    C6 7608   2.712   0.646  13.089 -0.4202  0.1958 -0.3984
  512TMC3     C 7609   2.722   0.979  12.839  0.1637  0.2215 -0.4822
  512TMC3     O 7610   2.814   1.050  12.871  0.2721 -0.2204  0.0494
  512TMC3     H 7611   2.793   0.984  13.093  0.8299  0.1456 -0.1440
  512TMC3    H1 7612   2.559   0.756  12.813 -1.8944  0.0646  1.7346
  512TMC3    H2 7613   2.737   0.557  13.146  2.0797  0.3055 -1.3307
  512TMC3    C7 7614   2.554   0.539  12.941  0.1669  0.4422  0.1774
  512TMC3    C8 7615   2.847   0.756  13.252 -0.1234  0.2528  0.5143
  512TMC3    O1 7616   2.450   0.583  12.891 -0.5214  0.4892 -0.3224
  512TMC3    O2 7617   2.926   0.666  13.256 -0.2152  0.0428  0.6939
  513MPD2     C 7618   3.795   1.124  13.148 -0.2010  0.5294 -0.9020
  513MPD2    C1 7619   3.902   1.202  13.119  0.0276  0.8999  0.0611
  513MPD2    C2 7620   3.975   1.262  13.223  0.3366 -0.2758 -0.4326
  513MPD2    C3 7621   3.938   1.240  13.355  0.3081 -0.2645  0.4057
  513MPD2    C4 7622   3.830   1.159  13.379  0.5227  0.1588 -0.4547
  513MPD2    C5 7623   3.751   1.110  13.277  0.5264  0.0001  0.7521
  513MPD2     H 7624   4.052   1.334  13.198 -1.1856  1.6674  0.5184
  513MPD2    H1 7625   3.794   1.152  13.480 -0.4030 -0.4692 -0.8295
  513MPD2    H2 7626   3.744   1.070  13.070  0.8063  1.1522 -2.0021
  513MPD2    H3 7627   3.658   1.060  13.301 -0.3587  1.9341  1.3592
  513MPD2     N 7628   4.020   1.298  13.454 -0.2470 -0.5232 -0.3936
  513MPD2    H5 7629   4.098   1.355  13.424  0.3111 -1.5701 -0.9431
  513MPD2    N1 7630   3.939   1.209  12.983  0.3354  0.0347 -0.0052
  513MPD2    H7 7631   3.889   1.150  12.916  1.2604 -2.5680  1.5850
  514TMC3    C1 7632   4.071   1.255  12.797  0.6573 -0.0528 -0.0322
  514TMC3    C2 7633   4.010   1.326  12.698  0.0380  0.3412  0.1512
  514TMC3    C3 7634   4.095   1.392  12.614 -0.2714 -0.2229 -0.5145
  514TMC3    C4 7635   4.205   1.240  12.794 -0.3911 -0.5701 -0.2415
  514TMC3    C5 7636   4.289   1.313  12.707  0.2979 -0.3378  0.8089
  514TMC3    C6 7637   4.232   1.383  12.607  0.4292 -0.0750  0.3025
  514TMC3     C 7638   4.044   1.284  12.939 -0.3573  0.7250 -0.3603
  514TMC3     O 7639   4.121   1.365  12.989  0.4450  0.9610 -0.4596
  514TMC3     H 7640   3.905   1.350  12.695  0.7310  3.4297  0.3058
  514TMC3    H1 7641   4.257   1.184  12.870 -0.7893 -0.2214  0.2872
  514TMC3    H2 7642   4.306   1.437  12.549  0.3128 -1.0674 -0.7472
  514TMC3    C7 7643   4.409   1.363  12.764  0.8458 -0.0264 -0.3451
  514TMC3    C8 7644   4.035   1.473  12.511  0.6892 -0.0231 -0.1271
  514TMC3    O1 7645   4.512   1.361  12.700  0.3965  0.0324  0.0413
  514TMC3    O2 7646   3.910   1.477  12.513 -0.7051 -0.4983  0.5420
  515MPD2     C 7647   2.277   2.513  14.863  0.2483  0.1528  1.1296
  515MPD2    C1 7648   2.361   2.540  14.758 -0.3002  0.0745  0.1452
  515MPD2    C2 7649   2.444   2.651  14.773  0.8263  0.2790 -0.0335
  515MPD2    C3 7650   2.445   2.731  14.887 -0.9015  0.8647  0.2386
  515MPD2    C4 7651   2.363   2.694  14.994  0.0919  0.2401 -0.1694
  515MPD2    C5 7652   2.281   2.588  14.980  0.4499 -0.3432 -0.2034
  515MPD2     H 7653   2.498   2.683  14.684  0.6434 -1.0373 -0.6123
  515MPD2    H1 7654   2.355   2.756  15.083 -0.8362  0.3796 -0.3499
  515MPD2    H2 7655   2.204   2.433  14.853  0.7591  0.1016 -2.1239
  515MPD2    H3 7656   2.205   2.567  15.054 -0.1350 -1.7292 -1.1926
  515MPD2     N 7657   2.526   2.845  14.902 -0.3473  0.4058  0.2612
  515MPD2    H5 7658   2.504   2.904  14.982  3.2148 -1.3279  2.5416
  515MPD2    N1 7659   2.359   2.467  14.637  0.0741  0.1757 -0.4623
  515MPD2    H7 7660   2.404   2.495  14.551  1.1976 -2.9953 -0.9389
  516TMC3    C1 7661   2.351   2.270  14.507  0.3397  0.3684  0.5548
  516TMC3    C2 7662   2.312   2.327  14.391 -0.0393  0.3813  0.0325
  516TMC3    C3 7663   2.254   2.252  14.282  0.4247 -0.0299  0.2673
  516TMC3    C4 7664   2.349   2.132  14.509  0.0929  0.2916 -0.3878
  516TMC3    C5 7665   2.289   2.059  14.409 -0.3306 -0.0647 -0.3948
  516TMC3    C6 7666   2.243   2.113  14.296 -0.2661  0.0896 -0.8733
  516TMC3     C 7667   2.318   2.334  14.631 -0.4273  0.2644 -0.7233
  516TMC3     O 7668   2.294   2.263  14.732 -0.7671  0.2744 -0.0853
  516TMC3     H 7669   2.305   2.435  14.390 -0.5748  0.3569  1.9523
  516TMC3    H1 7670   2.385   2.077  14.595  0.5276  3.1087  1.2190
  516TMC3    H2 7671   2.195   2.057  14.216  1.2103 -2.1214 -0.1870
  516TMC3    C7 7672   2.243   1.938  14.459  0.3045 -0.2220  0.5087
  516TMC3    C8 7673   2.209   2.322  14.162  1.0236  0.0669  0.4717
  516TMC3    O1 7674   2.310   1.883  14.548  0.0730 -0.1147 -0.2777
  516TMC3    O2 7675   2.160   2.248  14.079 -0.4035 -0.0800  0.2000
  517MPD2     C 7676   1.977   4.057   0.086  0.3870  0.4391  0.9464
  517MPD2    C1 7677   2.113   4.084   0.079  0.0832  0.7205  0.1104
  517MPD2    C2 7678   2.168   4.167   0.181 -0.1701  0.4965  0.0540
  517MPD2    C3 7679   2.082   4.230   0.278  0.5784 -0.2373  0.1208
  517MPD2    C4 7680   1.949   4.203   0.283 -0.3344 -0.4255  0.5007
  517MPD2    C5 7681   1.906   4.117   0.186  0.1402 -0.4619 -0.6500
  517MPD2     H 7682   2.270   4.202   0.176 -0.0109  0.0581  0.2084
  517MPD2    H1 7683   1.882   4.258   0.348  0.8619 -1.8161  2.9193
  517MPD2    H2 7684   1.922   4.004   0.009  1.5650  0.7057 -0.0847
  517MPD2    H3 7685   1.798   4.114   0.183  0.1425 -0.4010 -0.8392
  517MPD2     N 7686   2.119   4.335   0.361 -0.3670 -0.1025 -0.2331
  517MPD2    H5 7687   2.046   4.387   0.407  0.7711  0.9440  0.3794
  517MPD2    N1 7688   2.196   4.047  17.660 -0.0004 -0.2982  0.1685
  517MPD2    H7 7689   2.295   4.070  17.653 -0.0592 -0.3962 -0.9959
  518TMC3    C1 7690   2.269   3.911  17.481  0.7578 -0.2298  0.2864
  518TMC3    C2 7691   2.228   3.828  17.383  0.4575 -0.6602 -0.8256
  518TMC3    C3 7692   2.306   3.721  17.353 -0.0925  1.1772  0.3125
  518TMC3    C4 7693   2.383   3.896  17.549 -0.1921 -0.1390 -0.5982
  518TMC3    C5 7694   2.468   3.796  17.508 -0.7856 -0.2209 -1.0157
  518TMC3    C6 7695   2.429   3.699  17.414  0.1424  0.7226 -0.2163
  518TMC3     C 7696   2.155   3.973  17.552 -0.2561  0.8073 -0.1759
  518TMC3     O 7697   2.042   3.932  17.521 -0.4928  0.7430 -0.2600
  518TMC3     H 7698   2.140   3.852  17.324  0.6659  0.1275 -0.8142
  518TMC3    H1 7699   2.422   3.959  17.628  0.7899 -1.1755 -0.2547
  518TMC3    H2 7700   2.481   3.608  17.383  0.7543  0.3810  1.7586
  518TMC3    C7 7701   2.594   3.780  17.579  0.2790 -0.5587  0.3532
  518TMC3    C8 7702   2.241   3.601  17.303 -0.4433  0.5747 -0.0722
  518TMC3    O1 7703   2.597   3.825   0.002 -0.0766 -0.3110  0.2091
  518TMC3    O2 7704   2.313   3.511  17.249  0.1389 -0.0895 -0.2898
  519MPD2     C 7705   3.614   2.438  14.299  0.7339 -0.3693 -0.5971
  519MPD2    C1 7706   3.570   2.456  14.172  0.0142 -0.5761 -1.2405
  519MPD2    C2 7707   3.661   2.445  14.070  0.3088 -0.0011 -0.5813
  519MPD2    C3 7708   3.792   2.409  14.095  0.2548  0.8143  0.0502
  519MPD2    C4 7709   3.828   2.373  14.226 -0.0550  0.3237 -0.2248
  519MPD2    C5 7710   3.742   2.389  14.335 -0.4682  0.5412 -0.4976
  519MPD2     H 7711   3.634   2.472  13.968 -0.1374 -0.6390 -0.6314
  519MPD2    H1 7712   3.928   2.336  14.249 -0.7210 -1.1208  0.3415
  519MPD2    H2 7713   3.552   2.460  14.386  1.0138 -0.5688 -0.3473
  519MPD2    H3 7714   3.764   2.363  14.437 -2.2250 -0.7924 -0.4543
  519MPD2     N 7715   3.883   2.397  13.986 -0.5285  0.0925  1.0504
  519MPD2    H5 7716   3.973   2.355  14.009 -0.3917 -1.0537 -1.5987
  519MPD2    N1 7717   3.434   2.486  14.142 -0.3857 -0.7468  0.3203
  519MPD2    H7 7718   3.378   2.470  14.225  0.7364 -0.1477  1.1888
  520TMC3    C1 7719   3.972   2.370  13.776 -0.0982  0.0105 -0.5227
  520TMC3    C2 7720   3.957   2.388  13.641 -0.3412 -0.5290  0.1072
  520TMC3    C3 7721   4.061   2.340  13.565  0.4552 -0.5462  0.2460
  520TMC3    C4 7722   4.080   2.300  13.830 -0.8504  0.4399  0.7922
  520TMC3    C5 7723   4.185   2.257  13.747  0.5954 -0.4714 -0.9998
  520TMC3    C6 7724   4.172   2.265  13.609 -0.7535 -0.1669  0.2777
  520TMC3     C 7725   3.860   2.415  13.852 -0.7965 -0.3886  0.2268
  520TMC3     O 7726   3.757   2.442  13.793 -0.3290 -0.1926  0.0117
  520TMC3     H 7727   3.880   2.452  13.598 -0.3935 -0.8032 -0.2045
  520TMC3    H1 7728   4.083   2.288  13.937  0.3807  0.5969  0.7682
  520TMC3    H2 7729   4.234   2.216  13.534 -0.6159  2.2639 -1.2127
  520TMC3    C7 7730   4.306   2.207  13.802 -0.5053 -0.5861  0.3853
  520TMC3    C8 7731   4.030   2.340  13.425  0.2809  0.3992 -0.0515
  520TMC3    O1 7732   4.291   2.174  13.921  0.1764  0.2556 -0.1518
  520TMC3    O2 7733   4.117   2.347  13.338  0.4312  0.3929 -0.5801
  521MPD2     C 7734   4.327   4.607   0.106  0.2046  0.5884  0.3006
  521MPD2    C1 7735   4.284   4.614  17.669  0.0473 -0.4944 -0.1304
  521MPD2    C2 7736   4.374   4.649  17.574  0.2168  0.2227 -0.1845
  521MPD2    C3 7737   4.508   4.663  17.607 -0.8866 -0.7244 -0.7507
  521MPD2    C4 7738   4.553   4.650   0.044  0.0850 -0.4123  0.1082
  521MPD2    C5 7739   4.463   4.629   0.141 -0.0766  0.1836  0.3112
  521MPD2     H 7740   4.343   4.647  17.471 -0.9816  2.1748  0.1473
  521MPD2    H1 7741   4.659   4.656   0.067 -0.3853 -0.1271  2.1530
  521MPD2    H2 7742   4.259   4.599   0.190  1.4854  0.5465  1.3428
  521MPD2    H3 7743   4.478   4.619   0.248 -1.4327 -1.1450  0.3804
  521MPD2     N 7744   4.592   4.665  17.498  0.2395 -0.1856 -0.1888
  521MPD2    H5 7745   4.552   4.674  17.405  0.2948 -1.9029 -0.3711
  521MPD2    N1 7746   4.144   4.586  17.644 -0.8020 -0.0959 -0.2934
  521MPD2    H7 7747   4.092   4.576   0.038 -0.3649 -2.0263 -0.2534
  522TMC3    C1 7748   0.076   4.671  17.366  0.4961  0.5174 -0.3153
  522TMC3    C2 7749   0.199   4.613  17.356  0.2293 -0.3525 -0.0635
  522TMC3    C3 7750   0.290   4.655  17.261  0.0250  0.1444 -0.0565
  522TMC3    C4 7751   0.036   0.048  17.281  0.0176 -0.2627  0.1996
  522TMC3    C5 7752   0.135   0.093  17.189 -0.1906 -0.2965 -0.3923
  522TMC3    C6 7753   0.257   0.033  17.176 -0.0311  0.3939 -0.2506
  522TMC3     C 7754   0.008   4.669  17.499  0.1822  0.0837 -0.3883
  522TMC3     O 7755   0.083   4.645  17.595 -0.6094 -0.7932 -0.0146
  522TMC3     H 7756   0.223   4.542  17.434  2.6356  0.9299  0.3569
  522TMC3    H1 7757   4.660   0.093  17.282 -0.1172 -0.5220 -1.0598
  522TMC3    H2 7758   0.324   0.069  17.099  0.2929 -0.0017 -0.1532
  522TMC3    C7 7759   0.104   0.192  17.085  0.4485 -0.0115 -0.3658
  522TMC3    C8 7760   0.430   4.643  17.289 -0.7445 -0.2063 -0.8546
  522TMC3    O1 7761   0.195   0.264  17.052  0.3695 -0.3690  0.1348
  522TMC3    O2 7762   0.454   4.650  17.412  0.2870 -1.0055 -0.1461
  523MPD2     C 7763   2.204   4.706   9.441  0.6189  0.0486  0.2559
  523MPD2    C1 7764   2.290   0.037   9.537 -0.0798  0.2328 -0.4509
  523MPD2    C2 7765   2.270   0.169   9.575  0.0581 -0.3975  0.0175
  523MPD2    C3 7766   2.166   0.239   9.519  0.1626 -0.4815  0.2962
  523MPD2    C4 7767   2.085   0.185   9.426  0.1553  0.0608  0.0784
  523MPD2    C5 7768   2.105   0.058   9.383  0.3419 -0.4145  0.3939
  523MPD2     H 7769   2.338   0.220   9.643  1.5940 -0.0369 -1.7851
  523MPD2    H1 7770   1.997   0.235   9.389  0.3811  0.5571  0.2191
  523MPD2    H2 7771   2.216   4.606   9.401  1.2787 -0.1829  1.0298
  523MPD2    H3 7772   2.040   0.014   9.309  0.2283  1.4863 -0.6207
  523MPD2     N 7773   2.137   0.373   9.550 -0.1018 -0.1820 -0.3545
  523MPD2    H5 7774   2.068   0.420   9.493  0.6991 -1.6091 -2.5052
  523MPD2    N1 7775   2.381   4.672   9.592 -0.0666  0.9038  0.8482
  523MPD2    H7 7776   2.370   4.573   9.573 -1.3032  1.3771 -0.9173
  524TMC3    C1 7777   2.132   0.584   9.654  0.7032  0.5148 -0.1991
  524TMC3    C2 7778   2.150   0.648   9.774  0.8731  0.5167 -0.0911
  524TMC3    C3 7779   2.070   0.756   9.812 -0.6514 -0.2379  0.3392
  524TMC3    C4 7780   2.059   0.637   9.550 -0.2028 -0.4977 -0.3950
  524TMC3    C5 7781   1.995   0.755   9.578  0.5959  0.3692  0.3833
  524TMC3    C6 7782   1.988   0.809   9.707 -0.9442 -0.1187 -0.4367
  524TMC3     C 7783   2.200   0.455   9.641  0.4797 -0.6319  0.1692
  524TMC3     O 7784   2.266   0.414   9.736 -0.1463  0.6279  0.0449
  524TMC3     H 7785   2.198   0.589   9.852 -2.0013  1.0651  2.0973
  524TMC3    H1 7786   2.083   0.605   9.449 -0.4746 -0.6247 -0.4173
  524TMC3    H2 7787   1.927   0.898   9.716  0.4724  0.7578  0.4221
  524TMC3    C7 7788   1.881   0.788   9.497  0.6429 -0.4708 -0.5745
  524TMC3    C8 7789   2.017   0.745   9.941  0.0676  0.1883 -0.3560
  524TMC3    O1 7790   1.784   0.828   9.560  0.1593  0.6060 -0.2691
  524TMC3    O2 7791   2.022   0.645  10.008 -0.1599 -0.4581 -0.5087
  525MPD2     C 7792   0.444   1.942  14.323  0.0217 -0.3301 -0.2623
  525MPD2    C1 7793   0.547   1.934  14.421 -0.2386  0.2789  0.4973
  525MPD2    C2 7794   0.650   2.023  14.414 -0.1756  0.1528 -0.3029
  525MPD2    C3 7795   0.656   2.117  14.314 -0.9650  0.2929 -0.4371
  525MPD2    C4 7796   0.550   2.125  14.220 -0.0258  1.1575  0.7973
  525MPD2    C5 7797   0.456   2.027  14.218 -0.6417 -0.6382  0.5141
  525MPD2     H 7798   0.725   2.016  14.492 -0.0575  1.2452 -0.3116
  525MPD2    H1 7799   0.555   2.203  14.145 -3.0975  0.9742  0.3943
  525MPD2    H2 7800   0.365   1.868  14.335 -1.0641  1.0968  1.4403
  525MPD2    H3 7801   0.373   2.033  14.148  0.4855 -2.6184 -0.9906
  525MPD2     N 7802   0.762   2.211  14.324  0.4450  0.2501  0.0451
  525MPD2    H5 7803   0.820   2.199  14.406 -0.9274  1.1420  1.1428
  525MPD2    N1 7804   0.547   1.847  14.532  0.4047  0.2815 -0.3790
  525MPD2    H7 7805   0.635   1.840  14.582  0.6397 -0.5966 -0.9010
  526TMC3    C1 7806   0.489   1.693  14.691 -0.3256  0.0817  0.5850
  526TMC3    C2 7807   0.398   1.664  14.793 -0.1678  0.3860 -0.0629
  526TMC3    C3 7808   0.428   1.566  14.881 -0.4015  0.6109 -0.1462
  526TMC3    C4 7809   0.597   1.614  14.670 -0.1425 -0.5207 -0.4586
  526TMC3    C5 7810   0.624   1.520  14.766 -0.0538 -1.2163 -0.0695
  526TMC3    C6 7811   0.537   1.488  14.865 -0.5033 -0.3347  0.0300
  526TMC3     C 7812   0.445   1.784  14.589  0.2523 -0.5065  0.6599
  526TMC3     O 7813   0.324   1.808  14.570 -0.1595  0.9722  0.5666
  526TMC3     H 7814   0.312   1.729  14.806 -0.1287  0.2288  0.9260
  526TMC3    H1 7815   0.650   1.621  14.575  3.7531 -3.0409  1.5460
  526TMC3    H2 7816   0.555   1.412  14.941  1.7372 -0.7606 -0.9037
  526TMC3    C7 7817   0.720   1.416  14.735  0.3326 -0.2235  0.1989
  526TMC3    C8 7818   0.364   1.575  15.014 -0.6600 -0.4955  0.3126
  526TMC3    O1 7819   0.766   1.365  14.840 -0.3138 -0.1129  0.0607
  526TMC3    O2 7820   0.437   1.549  15.106  0.3420 -0.3383 -0.0720
  527MPD2     C 7821   4.159   3.616   1.649  0.2182 -0.4705  0.6242
  527MPD2    C1 7822   4.092   3.721   1.582 -0.1696 -0.0136 -0.2461
  527MPD2    C2 7823   4.102   3.721   1.446  0.3696  0.4559 -0.2628
  527MPD2    C3 7824   4.171   3.622   1.380 -0.4323  0.0367 -1.0323
  527MPD2    C4 7825   4.251   3.530   1.452 -0.8907 -0.3256 -0.0017
  527MPD2    C5 7826   4.236   3.525   1.582 -0.4258  0.3421 -0.0324
  527MPD2     H 7827   4.080   3.813   1.392 -0.7816  0.3176 -0.0381
  527MPD2    H1 7828   4.302   3.451   1.398  0.7546 -0.7553  2.2042
  527MPD2    H2 7829   4.171   3.602   1.756  3.5233 -2.1013  0.0442
  527MPD2    H3 7830   4.292   3.448   1.636 -1.2004 -0.3664 -0.2357
  527MPD2     N 7831   4.169   3.638   1.233  0.1262 -0.5524  0.9556
  527MPD2    H5 7832   4.124   3.719   1.190 -0.8008 -1.6096 -0.0730
  527MPD2    N1 7833   4.018   3.827   1.640 -0.1730  0.1632 -0.9443
  527MPD2    H7 7834   3.995   3.902   1.577 -3.0704  1.7024  1.9107
  528TMC3    C1 7835   3.937   3.962   1.802 -0.4753  0.0716 -0.4123
  528TMC3    C2 7836   3.847   3.975   1.901  0.3633  0.5710  0.4351
  528TMC3    C3 7837   3.796   4.096   1.925  0.1280  0.0829  0.3026
  528TMC3    C4 7838   3.973   4.075   1.731  0.0253  0.0853 -0.0623
  528TMC3    C5 7839   3.932   4.199   1.773 -0.1925  1.3377 -0.0255
  528TMC3    C6 7840   3.819   4.204   1.849  0.9346  0.1862  0.2579
  528TMC3     C 7841   3.993   3.832   1.776  0.1996 -0.5893 -0.4086
  528TMC3     O 7842   4.017   3.751   1.864 -0.1528  0.2741  0.2106
  528TMC3     H 7843   3.830   3.877   1.946 -0.0547  1.0329  1.2916
  528TMC3    H1 7844   4.057   4.063   1.663  0.6560  1.0704  0.5460
  528TMC3    H2 7845   3.770   4.296   1.880 -0.0017 -0.5385  0.9376
  528TMC3    C7 7846   3.992   4.328   1.736  0.4015 -0.8183  0.0375
  528TMC3    C8 7847   3.687   4.113   2.024  0.6011 -0.6574  0.6399
  528TMC3    O1 7848   3.938   4.433   1.773 -0.4257  0.2907 -0.3613
  528TMC3    O2 7849   3.645   4.224   2.044  0.2814 -0.1661  0.2646
  529MPD2     C 7850   0.134   2.000   0.398  0.9124 -0.5590  0.2046
  529MPD2    C1 7851   0.257   2.074   0.397  0.1873  0.7840 -0.6043
  529MPD2    C2 7852   0.273   2.182   0.310  0.1755 -0.3268  0.0494
  529MPD2    C3 7853   0.171   2.227   0.233  0.2491  0.2334  0.2798
  529MPD2    C4 7854   0.052   2.156   0.238  0.3433  0.0238  0.5198
  529MPD2    C5 7855   0.037   2.045   0.314 -0.5438  0.8580  0.0352
  529MPD2     H 7856   0.372   2.227   0.308 -0.3431  0.7612 -1.1787
  529MPD2    H1 7857   4.694   2.192   0.175  0.6982 -3.9665 -2.1963
  529MPD2    H2 7858   0.117   1.919   0.468 -1.2996 -0.3250 -0.0660
  529MPD2    H3 7859   4.662   1.997   0.313 -0.3408  0.4185  1.9893
  529MPD2     N 7860   0.182   2.343   0.148  0.0429 -0.1338 -0.2127
  529MPD2    H5 7861   0.099   2.376   0.099  0.8803  0.6964 -1.0682
  529MPD2    N1 7862   0.367   2.047   0.485 -0.0532 -0.1483  0.6706
  529MPD2    H7 7863   0.448   2.108   0.486  0.0659 -0.3538  4.8878
  530TMC3    C1 7864   0.483   1.974   0.676 -0.2900 -0.2314 -0.2469
  530TMC3    C2 7865   0.549   2.096   0.682  0.1849  0.7373 -0.2882
  530TMC3    C3 7866   0.653   2.105   0.770  0.3264 -0.2876  0.1983
  530TMC3    C4 7867   0.512   1.863   0.755 -0.6340 -0.0716 -0.3334
  530TMC3    C5 7868   0.617   1.884   0.844  0.5917 -0.1832  0.4788
  530TMC3    C6 7869   0.690   2.001   0.849 -0.0875 -0.8070  0.2393
  530TMC3     C 7870   0.366   1.957   0.591 -0.2075 -0.3210 -0.1394
  530TMC3     O 7871   0.298   1.856   0.615  0.4668 -0.4713  0.6470
  530TMC3     H 7872   0.505   2.185   0.640 -1.4700 -1.4821 -3.2419
  530TMC3    H1 7873   0.464   1.766   0.745  1.8033 -1.1284 -1.9214
  530TMC3    H2 7874   0.755   2.019   0.933  1.1904  1.3167 -1.2012
  530TMC3    C7 7875   0.652   1.776   0.936  0.3510  0.0380  0.5753
  530TMC3    C8 7876   0.714   2.238   0.780  0.0972 -0.5946 -0.6640
  530TMC3    O1 7877   0.556   1.702   0.959 -0.2441 -0.4182 -0.9109
  530TMC3    O2 7878   0.665   2.328   0.710  0.6126  0.0880 -0.0618
  531MPD2     C 7879   4.656   1.449  13.204  0.2308  0.2529 -0.5228
  531MPD2    C1 7880   4.519   1.451  13.227 -0.4254  0.0076  0.3477
  531MPD2    C2 7881   4.433   1.426  13.123  0.1033  0.5776  0.3665
  531MPD2    C3 7882   4.478   1.405  12.998 -0.5392  0.0772 -0.8219
  531MPD2    C4 7883   4.612   1.422  12.972 -0.2112 -0.2392 -0.4060
  531MPD2    C5 7884   4.698   1.441  13.072 -0.1376  0.0248 -0.5265
  531MPD2     H 7885   4.328   1.404  13.139  0.5558 -0.6176  1.7204
  531MPD2    H1 7886   4.648   1.418  12.870 -0.3618 -1.2069 -0.4235
  531MPD2    H2 7887   0.001   1.488  13.280  0.6397 -1.0568 -0.2033
  531MPD2    H3 7888   0.080   1.459  13.050  0.5688 -0.2316  2.6803
  531MPD2     N 7889   4.380   1.386  12.900 -0.3725 -0.1429  0.6682
  531MPD2    H5 7890   4.283   1.393  12.928  0.2768 -0.4110  3.0372
  531MPD2    N1 7891   4.481   1.462  13.367 -0.2114  0.1002 -0.1633
  531MPD2    H7 7892   4.554   1.479  13.436  0.1888  1.0600 -0.8203
  532TMC3    C1 7893   4.314   1.457  13.551  0.6241 -0.6758 -0.2746
  532TMC3    C2 7894   4.187   1.429  13.550 -1.0018 -0.6308 -0.3380
  532TMC3    C3 7895   4.143   1.339  13.639 -0.3526  1.0101 -0.3704
  532TMC3    C4 7896   4.408   1.383  13.620  0.0374 -0.4860  0.5639
  532TMC3    C5 7897   4.360   1.289  13.701  0.1115  0.1548 -0.5108
  532TMC3    C6 7898   4.225   1.269  13.718 -0.1665 -0.7394  1.0677
  532TMC3     C 7899   4.344   1.470  13.409  0.6867 -0.5055  0.6277
  532TMC3     O 7900   4.242   1.481  13.340  0.0450  0.3078  0.6429
  532TMC3     H 7901   4.113   1.502  13.519 -0.1221  0.3530 -0.1210
  532TMC3    H1 7902   4.513   1.410  13.615  0.2347 -1.1529  0.9802
  532TMC3    H2 7903   4.182   1.197  13.786 -0.9560 -0.2150  1.1225
  532TMC3    C7 7904   4.444   1.187  13.763  0.2915 -1.0648 -0.0740
  532TMC3    C8 7905   4.024   1.271  13.588 -0.1277  0.1022  0.3650
  532TMC3    O1 7906   4.392   1.105  13.840 -0.3377  0.4968  0.4316
  532TMC3    O2 7907   3.960   1.187  13.647  0.5374 -0.7462 -0.1138
  533TMC3    C1 7908   0.841   2.429  14.316  0.2000 -0.4948  0.1291
  533TMC3    C2 7909   0.801   2.550  14.269  1.1770 -0.2368 -0.1303
  533TMC3    C3 7910   0.790   2.653  14.359  0.7437  0.8599  0.5548
  533TMC3    C4 7911   0.875   2.412  14.450  0.5567 -0.3644  0.1229
  533TMC3    C5 7912   0.872   2.521  14.531 -0.6865  0.6226  0.5690
  533TMC3    C6 7913   0.817   2.639  14.493  1.0933 -0.6632  0.2934
  533TMC3     C 7914   0.779   2.322  14.243  0.0261  0.2272 -0.2811
  533TMC3     O 7915   0.723   2.359  14.140 -0.1083 -0.2873  0.0216
  533TMC3     H 7916   0.771   2.562  14.166  2.8425 -0.1627 -0.5956
  533TMC3    H1 7917   0.907   2.317  14.491  0.0799 -0.7107 -0.3158
  533TMC3    H2 7918   0.814   2.728  14.556  1.3549 -1.1456  0.9862
  533TMC3    C7 7919   0.865   2.493  14.675 -0.0901 -0.0227  0.0473
  533TMC3    C8 7920   0.822   2.785  14.312 -0.2242 -0.4264 -0.0624
  533TMC3    O1 7921   0.902   2.382  14.708  0.4219  0.2863 -0.4406
  533TMC3    O2 7922   0.811   2.878  14.393 -0.1061 -0.7714  0.3169
  534MPD2     C 7923   2.599   2.926   2.345  0.0390 -0.1829  0.0034
  534MPD2    C1 7924   2.697   2.926   2.248 -0.0518  0.1296  0.3539
  534MPD2    C2 7925   2.686   2.836   2.142 -0.7273  0.5520 -0.4990
  534MPD2    C3 7926   2.584   2.741   2.143  0.1159 -0.5589 -0.9388
  534MPD2    C4 7927   2.479   2.759   2.234  0.2874  0.3698  0.1993
  534MPD2    C5 7928   2.497   2.838   2.344 -0.5475  0.5821  0.7594
  534MPD2     H 7929   2.757   2.841   2.060 -2.0625  1.0523 -1.6152
  534MPD2    H1 7930   2.391   2.697   2.229  0.5136  0.0546  0.1465
  534MPD2    H2 7931   2.615   2.979   2.438 -0.1952  0.7692 -0.5002
  534MPD2    H3 7932   2.417   2.851   2.416  0.1202  1.5798  1.3066
  534MPD2     N 7933   2.575   2.644   2.041 -0.7104  0.3145 -0.4928
  534MPD2    H5 7934   2.486   2.596   2.033  0.0239 -1.0952 -0.0909
  534MPD2    N1 7935   2.812   3.007   2.248  0.5296 -0.2352  0.4722
  534MPD2    H7 7936   2.884   2.994   2.177  2.5369  0.4734  2.3660
  535TMC3    C1 7937   2.645   2.524   1.841 -0.1783  0.2529  0.7291
  535TMC3    C2 7938   2.539   2.581   1.772  0.1738 -0.3903  0.8433
  535TMC3    C3 7939   2.529   2.548   1.643 -0.7570  0.1923  0.3788
  535TMC3    C4 7940   2.739   2.447   1.783  0.1202 -0.4554  0.2042
  535TMC3    C5 7941   2.722   2.407   1.655  0.2919  0.1711  0.8742
  535TMC3    C6 7942   2.620   2.465   1.581  0.5232  0.4518 -0.4492
  535TMC3     C 7943   2.680   2.601   1.962 -0.7631  0.9122  0.0769
  535TMC3     O 7944   2.799   2.606   2.001  0.3652 -0.5257 -0.2417
  535TMC3     H 7945   2.450   2.618   1.822  0.4751 -0.5179  1.4829
  535TMC3    H1 7946   2.819   2.403   1.842  0.8956 -0.4395 -0.8365
  535TMC3    H2 7947   2.618   2.450   1.473 -0.6842  2.9864 -0.7761
  535TMC3    C7 7948   2.836   2.356   1.580  0.3055  0.6269  0.2165
  535TMC3    C8 7949   2.430   2.625   1.563 -0.2076  0.3013  0.1968
  535TMC3    O1 7950   2.817   2.383   1.460 -0.3714  0.6498  0.5227
  535TMC3    O2 7951   2.399   2.581   1.454  0.2613  0.4007  0.0528
  536MPD2     C 7952   2.212   1.733  16.017 -0.3400  0.0872  0.2874
  536MPD2    C1 7953   2.111   1.639  16.031  0.1655  0.2832  0.1677
  536MPD2    C2 7954   2.032   1.630  15.921  0.3069  0.3975 -0.0043
  536MPD2    C3 7955   2.058   1.676  15.797 -0.0535  0.4838 -0.0931
  536MPD2    C4 7956   2.168   1.764  15.782  0.8839  0.1457 -0.1555
  536MPD2    C5 7957   2.241   1.798  15.895 -0.1586  0.7460 -0.3345
  536MPD2     H 7958   1.946   1.567  15.942  1.0504 -0.9588 -1.0860
  536MPD2    H1 7959   2.200   1.800  15.685  0.2049  1.2075  0.0218
  536MPD2    H2 7960   2.275   1.758  16.102 -0.7676 -1.6432  1.1128
  536MPD2    H3 7961   2.335   1.850  15.887  1.6551 -2.7411 -1.7175
  536MPD2     N 7962   1.976   1.658  15.681  0.2835 -0.3392 -0.0318
  536MPD2    H5 7963   2.007   1.701  15.595  0.2810 -2.8748 -1.3175
  536MPD2    N1 7964   2.098   1.569  16.157 -0.4061 -0.8302 -0.5588
  536MPD2    H7 7965   2.162   1.589  16.232 -0.7348  0.7647 -0.7007
  537TMC3    C1 7966   2.004   1.437  16.331  0.4587  0.9479  0.2607
  537TMC3    C2 7967   2.047   1.520  16.430  0.3042  0.2942  0.2694
  537TMC3    C3 7968   2.050   1.474  16.558 -0.8362  0.0806  0.1346
  537TMC3    C4 7969   1.938   1.322  16.359  0.3547 -0.0898 -0.2538
  537TMC3    C5 7970   1.924   1.283  16.492 -0.3220  0.3662  0.2944
  537TMC3    C6 7971   1.978   1.358  16.590 -0.2652 -1.4772 -0.4642
  537TMC3     C 7972   1.996   1.483  16.190  0.3108 -0.4547 -0.5895
  537TMC3     O 7973   1.908   1.439  16.115 -0.9889 -0.0796  0.3822
  537TMC3     H 7974   2.083   1.614  16.391  0.6956 -0.2741 -0.7192
  537TMC3    H1 7975   1.894   1.271  16.274 -0.9255  0.6007 -0.0100
  537TMC3    H2 7976   1.973   1.339  16.697 -0.4183 -1.6013 -0.4927
  537TMC3    C7 7977   1.845   1.175  16.509 -0.6481  0.6412  0.9523
  537TMC3    C8 7978   2.056   1.585  16.654 -0.2564  0.1928  0.2762
  537TMC3    O1 7979   1.769   1.158  16.414 -0.3288 -0.2038  0.0444
  537TMC3    O2 7980   2.074   1.554  16.775 -0.1928 -0.0206 -0.2956
  538TMC3    C1 7981   3.436   0.583  10.612 -0.0400  0.0658  0.5687
  538TMC3    C2 7982   3.457   0.569  10.476  0.0840  0.3800 -0.2792
  538TMC3    C3 7983   3.362   0.536  10.392  0.1870 -0.9236 -0.1246
  538TMC3    C4 7984   3.307   0.583  10.656 -0.2152 -0.0389 -0.7675
  538TMC3    C5 7985   3.206   0.577  10.557 -0.0633 -0.5512  0.0725
  538TMC3    C6 7986   3.229   0.552  10.430 -0.3032  0.2111 -0.2826
  538TMC3     C 7987   3.541   0.564  10.708  0.0108  0.4820 -0.5501
  538TMC3     O 7988   3.653   0.561  10.659  0.1556 -0.8718 -0.2265
  538TMC3     H 7989   3.560   0.563  10.441  0.2493 -0.3764  0.3283
  538TMC3    H1 7990   3.275   0.588  10.759  0.6750  1.4330 -0.5726
  538TMC3    H2 7991   3.139   0.533  10.373 -0.3641  0.2619 -0.2028
  538TMC3    C7 7992   3.072   0.561  10.612 -0.4056  0.1908 -0.1560
  538TMC3    C8 7993   3.378   0.397  10.354 -0.2005  0.3816  0.2542
  538TMC3    O1 7994   2.989   0.502  10.543  0.5216  0.0592  0.2908
  538TMC3    O2 7995   3.296   0.357  10.269  0.1744  0.9633  0.0826
  539MPD2     C 7996   2.896   3.598  11.251 -0.2233  1.2039  0.6941
  539MPD2    C1 7997   2.981   3.694  11.200  0.3988 -0.5399  0.2238
  539MPD2    C2 7998   2.943   3.827  11.206 -0.4878  0.0223 -0.7869
  539MPD2    C3 7999   2.814   3.862  11.245  0.1933 -0.4184 -0.0557
  539MPD2    C4 8000   2.734   3.763  11.288 -0.0915  0.1737 -1.0146
  539MPD2    C5 8001   2.776   3.635  11.295  0.4764 -0.6440 -0.8491
  539MPD2     H 8002   3.013   3.903  11.174 -0.7497 -0.0438 -1.5292
  539MPD2    H1 8003   2.630   3.781  11.312 -0.6403  3.1255 -5.6001
  539MPD2    H2 8004   2.917   3.493  11.235 -0.4311  0.7630  3.2705
  539MPD2    H3 8005   2.706   3.559  11.325  0.6132 -1.5654 -2.8824
  539MPD2     N 8006   2.767   3.995  11.261  0.0334  0.0223  0.3022
  539MPD2    H5 8007   2.666   3.996  11.276 -0.0362  2.0528 -0.3349
  539MPD2    N1 8008   3.113   3.670  11.149 -0.1108 -0.2150  0.4204
  539MPD2    H7 8009   3.159   3.751  11.110  1.8226 -0.6928  1.6886
  540TMC3    C1 8010   2.755   4.225  11.226 -0.2426  0.3546  0.2257
  540TMC3    C2 8011   2.798   4.321  11.135  0.3985  0.6976 -0.1140
  540TMC3    C3 8012   2.750   4.444  11.150  0.3707 -0.7151 -0.9045
  540TMC3    C4 8013   2.691   4.264  11.342  0.0038  0.1464 -1.1242
  540TMC3    C5 8014   2.661   4.393  11.362  0.4508  0.5798 -0.0624
  540TMC3    C6 8015   2.685   4.485  11.267 -0.4032 -0.0672  0.4350
  540TMC3     C 8016   2.831   4.106  11.217  0.2378  0.5881 -0.1772
  540TMC3     O 8017   2.944   4.112  11.175  0.5845 -0.9487 -0.0006
  540TMC3     H 8018   2.851   4.288  11.047 -0.4006  0.5057 -0.5218
  540TMC3    H1 8019   2.669   4.190  11.418  0.5650  0.2282 -0.8780
  540TMC3    H2 8020   2.643   4.584  11.279  0.7805  0.6279 -1.0413
  540TMC3    C7 8021   2.666   4.434  11.499  0.0314  0.0867  0.6482
  540TMC3    C8 8022   2.735   4.518  11.027  0.1154 -0.0351  0.0847
  540TMC3    O1 8023   2.634   4.356  11.584  0.2571  0.3890  0.0120
  540TMC3    O2 8024   2.725   4.642  11.030 -0.0234 -0.1669  0.1150
  541MPD2     C 8025   0.723   0.906  13.210  0.2489 -0.0150  0.5220
  541MPD2    C1 8026   0.803   0.826  13.136 -0.0854 -0.0659 -0.1237
  541MPD2    C2 8027   0.832   0.867  13.006  0.2684 -0.3796  0.4120
  541MPD2    C3 8028   0.774   0.979  12.946 -0.1148  0.1157  0.3719
  541MPD2    C4 8029   0.692   1.060  13.028 -0.2550  0.5141  0.7328
  541MPD2    C5 8030   0.671   1.024  13.158 -0.1337 -0.3774 -0.6401
  541MPD2     H 8031   0.886   0.793  12.947 -0.4613 -0.5284 -0.0715
  541MPD2    H1 8032   0.661   1.158  12.995  1.6300  1.6616  2.3192
  541MPD2    H2 8033   0.708   0.889  13.316 -0.8532 -0.2411  0.3276
  541MPD2    H3 8034   0.606   1.088  13.219  2.6989  0.9785  0.9717
  541MPD2     N 8035   0.804   1.026  12.818  0.2522  0.0575  0.0358
  541MPD2    H5 8036   0.750   1.105  12.786  0.8779  0.4230 -0.1225
  541MPD2    N1 8037   0.855   0.710  13.190  0.1909 -0.0320 -0.1127
  541MPD2    H7 8038   0.836   0.700  13.289  0.2654 -0.4805 -0.1439
  542TMC3    C1 8039   0.934   1.070  12.629 -0.3906 -0.1401  0.5173
  542TMC3    C2 8040   0.989   1.009  12.518  0.4956 -0.0749 -0.3549
  542TMC3    C3 8041   1.017   1.088  12.407 -0.0793 -0.5223 -0.0866
  542TMC3    C4 8042   0.905   1.203  12.629  0.0848 -0.2908 -0.1062
  542TMC3    C5 8043   0.939   1.281  12.512 -0.4803 -0.3199  0.1498
  542TMC3    C6 8044   0.992   1.229  12.404  0.0961  0.5927  0.5343
  542TMC3     C 8045   0.913   0.983  12.740 -0.6663 -0.2127 -0.9464
  542TMC3     O 8046   0.975   0.882  12.745  0.0246  0.2216  0.6088
  542TMC3     H 8047   1.013   0.903  12.523 -0.6123 -0.3507 -0.8348
  542TMC3    H1 8048   0.873   1.254  12.720  1.6306  1.3795 -0.4875
  542TMC3    H2 8049   1.033   1.287  12.322 -1.9738  0.2838 -0.7317
  542TMC3    C7 8050   0.948   1.426  12.532  0.0193  0.2842 -0.5027
  542TMC3    C8 8051   1.093   1.037  12.296  0.5787  0.1992  0.9778
  542TMC3    O1 8052   0.921   1.460  12.645  0.2402 -0.6137  0.0818
  542TMC3    O2 8053   1.097   1.109  12.199  0.1129 -0.0656 -0.1923
  543TMC3    C1 8054   0.256   1.867  16.786  0.1662 -0.2601 -0.2003
  543TMC3    C2 8055   0.274   1.742  16.843  0.7801 -0.3909 -0.1298
  543TMC3    C3 8056   0.169   1.684  16.909  0.0170 -0.4819  0.6691
  543TMC3    C4 8057   0.139   1.931  16.790  0.4505  0.0603 -0.7447
  543TMC3    C5 8058   0.041   1.868  16.864 -0.3268 -0.7535 -0.4485
  543TMC3    C6 8059   0.055   1.750  16.933  0.5684 -0.1575  0.4803
  543TMC3     C 8060   0.357   1.916  16.700  0.3365 -0.1225  0.2639
  543TMC3     O 8061   0.412   1.830  16.632  0.5074  0.5431 -0.6365
  543TMC3     H 8062   0.363   1.688  16.815 -0.6377 -2.2230 -1.1097
  543TMC3    H1 8063   0.119   2.026  16.741 -1.0806 -1.4122 -2.9901
  543TMC3    H2 8064   4.691   1.701  16.974  1.9940 -2.4145  0.8084
  543TMC3    C7 8065   4.637   1.939  16.884 -0.2615  0.0150  0.4283
  543TMC3    C8 8066   0.189   1.553  16.949  0.1634 -0.1413  0.3909
  543TMC3    O1 8067   4.615   2.026  16.802 -0.3644 -0.5749  0.6788
  543TMC3    O2 8068   0.285   1.491  16.900  0.0376  0.0783 -0.2516
  544MPD2     C 8069   0.112   1.197  17.318  0.0759 -0.7519 -0.2977
  544MPD2    C1 8070   0.218   1.217  17.230  0.3236 -0.1863  0.9531
  544MPD2    C2 8071   0.222   1.326  17.141  0.4837 -0.9723 -0.8261
  544MPD2    C3 8072   0.119   1.415  17.136  0.7890  0.7462  0.1637
  544MPD2    C4 8073   0.015   1.401  17.229 -1.2013  0.3407 -0.5718
  544MPD2    C5 8074   0.018   1.289  17.313 -0.1840  0.0947  0.5444
  544MPD2     H 8075   0.306   1.347  17.076  0.7091  3.0428  0.7228
  544MPD2    H1 8076   4.654   1.470  17.229 -0.7506  0.8771 -0.5674
  544MPD2    H2 8077   0.103   1.119  17.393  0.6502 -0.8496 -0.3282
  544MPD2    H3 8078   4.652   1.268  17.373 -1.1132  1.1657 -0.4501
  544MPD2     N 8079   0.110   1.524  17.052  0.5604 -0.6598  0.6667
  544MPD2    H5 8080   0.038   1.593  17.072  1.1422  0.3427 -0.7322
  544MPD2    N1 8081   0.322   1.122  17.227  0.2744  0.2396  0.9292
  544MPD2    H7 8082   0.306   1.034  17.276 -0.0043 -0.4401 -0.3722
  545TMC3    C1 8083   0.513   1.011  17.157 -0.1170  0.9452  0.2966
  545TMC3    C2 8084   0.600   0.987  17.053  0.3783  0.4921 -0.2475
  545TMC3    C3 8085   0.663   0.866  17.048  0.4699 -0.0145 -0.2831
  545TMC3    C4 8086   0.496   0.922  17.260 -0.2518 -0.6508  0.0856
  545TMC3    C5 8087   0.552   0.800  17.252  0.9071  0.3438  0.2884
  545TMC3    C6 8088   0.636   0.769  17.145 -0.4128  0.1622  1.1498
  545TMC3     C 8089   0.432   1.119  17.140  0.1300 -0.1391 -0.0712
  545TMC3     O 8090   0.473   1.203  17.062 -0.0472  0.5185 -0.4878
  545TMC3     H 8091   0.606   1.057  16.969 -1.7327  0.6506 -0.2715
  545TMC3    H1 8092   0.443   0.950  17.350  1.7555  0.3423  0.9530
  545TMC3    H2 8093   0.673   0.667  17.138  1.5000  0.9142  0.3496
  545TMC3    C7 8094   0.551   0.719  17.378 -0.4538  0.6322 -0.0515
  545TMC3    C8 8095   0.755   0.843  16.936 -0.0077  0.1151 -0.1611
  545TMC3    O1 8096   0.450   0.719  17.445  0.0243  0.3319 -0.4841
  545TMC3    O2 8097   0.733   0.905  16.831  0.6352 -0.1503 -0.0212
  546MPD2     C 8098   1.761   2.171  17.494  0.3636 -0.1532  0.0268
  546MPD2    C1 8099   1.769   2.186  17.358  0.0035 -0.5867  0.5899
  546MPD2    C2 8100   1.820   2.302  17.299 -0.1598 -0.2811  0.8450
  546MPD2    C3 8101   1.852   2.409  17.381 -0.0815  0.2521  0.6114
  546MPD2    C4 8102   1.841   2.394  17.516  0.3472 -0.1243 -0.7081
  546MPD2    C5 8103   1.795   2.278  17.577 -0.8182  0.4156 -0.0780
  546MPD2     H 8104   1.828   2.308  17.191  0.8679 -0.2507  0.9244
  546MPD2    H1 8105   1.884   2.468  17.583  2.2474 -1.1513 -0.8022
  546MPD2    H2 8106   1.706   2.096  17.549 -0.7486 -0.0616 -0.9548
  546MPD2    H3 8107   1.759   2.286  17.678 -0.4723  0.9379  0.0040
  546MPD2     N 8108   1.907   2.533  17.327  0.5255  0.2379 -0.3383
  546MPD2    H5 8109   1.938   2.606  17.391 -1.3827  1.3137 -0.6443
  546MPD2    N1 8110   1.720   2.075  17.285 -0.6230 -0.3407  0.8017
  546MPD2    H7 8111   1.684   1.999  17.341 -0.5708 -2.3468 -1.8835
  547TMC3    C1 8112   1.687   1.918  17.111  0.0048 -0.0005  0.2558
  547TMC3    C2 8113   1.652   1.906  16.977  0.1105 -0.3701 -0.5891
  547TMC3    C3 8114   1.587   1.785  16.949 -0.1021 -0.0176 -0.0596
  547TMC3    C4 8115   1.656   1.823  17.210  1.1191 -0.6246 -0.3173
  547TMC3    C5 8116   1.582   1.715  17.170  0.6317  0.4905  0.1471
  547TMC3    C6 8117   1.553   1.686  17.037  0.9138  0.1375 -0.3450
  547TMC3     C 8118   1.717   2.054  17.146  0.2880  0.6522  0.6940
  547TMC3     O 8119   1.719   2.142  17.061 -0.3929 -0.1217  0.2553
  547TMC3     H 8120   1.673   1.980  16.901  0.8727  1.0952  1.0410
  547TMC3    H1 8121   1.683   1.840  17.314 -0.8316 -2.1722  0.4222
  547TMC3    H2 8122   1.500   1.595  17.012  1.0636  0.1313 -0.6367
  547TMC3    C7 8123   1.585   1.600  17.268 -0.0114  0.6708 -0.0372
  547TMC3    C8 8124   1.550   1.771  16.806  0.5720  0.4344  0.9122
  547TMC3    O1 8125   1.564   1.625  17.383  0.2225  0.4846 -0.7961
  547TMC3    O2 8126   1.514   1.879  16.753  0.7648  0.0143  0.4078
  548MPD2     C 8127   1.761   3.057  12.148 -0.3735 -0.2191  0.7498
  548MPD2    C1 8128   1.725   2.930  12.176  0.4291 -0.4807  0.6458
  548MPD2    C2 8129   1.816   2.828  12.137 -0.2261 -0.8144 -0.3721
  548MPD2    C3 8130   1.928   2.857  12.063 -0.0164  0.3040  0.2183
  548MPD2    C4 8131   1.960   2.990  12.053  0.2621 -0.1690 -0.1095
  548MPD2    C5 8132   1.881   3.089  12.101  0.6979  0.0074  0.9864
  548MPD2     H 8133   1.792   2.724  12.153 -0.4083 -0.6510  0.4466
  548MPD2    H1 8134   2.044   3.018  11.991 -0.5497 -0.8521 -1.5293
  548MPD2    H2 8135   1.699   3.136  12.190 -1.8052 -1.5965  1.2033
  548MPD2    H3 8136   1.909   3.192  12.081  0.5004  0.1474  1.4258
  548MPD2     N 8137   2.005   2.746  12.019  0.0681  0.2307 -0.2819
  548MPD2    H5 8138   1.980   2.652  12.049  2.4023 -0.1290  0.5134
  548MPD2    N1 8139   1.596   2.915  12.233 -0.0347  0.0893 -0.3094
  548MPD2    H7 8140   1.543   3.001  12.242  0.4498  0.5344 -1.7987
  549TMC3    C1 8141   1.414   2.788  12.315 -0.1464 -0.3748  0.4917
  549TMC3    C2 8142   1.342   2.897  12.289  0.2967  0.3168  0.1077
  549TMC3    C3 8143   1.206   2.889  12.319 -0.5059  0.6791  0.0696
  549TMC3    C4 8144   1.360   2.670  12.363 -0.1322 -0.6279  0.2567
  549TMC3    C5 8145   1.219   2.663  12.368 -0.3051  0.1962 -0.5442
  549TMC3    C6 8146   1.143   2.774  12.356  0.1581 -0.0232  0.3322
  549TMC3     C 8147   1.545   2.792  12.268 -0.2502 -0.0210  0.0540
  549TMC3     O 8148   1.606   2.690  12.296 -0.0575 -0.2719 -0.4349
  549TMC3     H 8149   1.376   2.980  12.228 -1.3583  0.0426 -1.2038
  549TMC3    H1 8150   1.422   2.586  12.394  0.5387 -0.5924 -0.9819
  549TMC3    H2 8151   1.038   2.768  12.384  0.6045  0.3591  2.0934
  549TMC3    C7 8152   1.159   2.565  12.451  0.0698 -0.1781  0.1403
  549TMC3    C8 8153   1.118   2.994  12.278  0.1864 -0.4997 -0.3695
  549TMC3    O1 8154   1.050   2.576  12.513  0.1328  0.6535 -0.2611
  549TMC3    O2 8155   1.003   2.970  12.259 -0.3584  0.1285 -0.1186
  550TMC3    C1 8156   0.037   0.836  12.690 -0.0166 -0.4159 -0.1709
  550TMC3    C2 8157   0.018   0.935  12.779 -0.2886  0.3225  0.0868
  550TMC3    C3 8158   4.714   1.066  12.748  0.1743  0.1996  0.2645
  550TMC3    C4 8159   0.033   0.865  12.559 -0.1365 -0.7536  0.0564
  550TMC3    C5 8160   0.010   0.999  12.520 -0.5257 -0.8231  0.6154
  550TMC3    C6 8161   4.698   1.091  12.617 -0.0022  0.2944  0.8492
  550TMC3     C 8162   0.060   0.706  12.749  0.7110  1.0860 -0.0653
  550TMC3     O 8163   0.014   0.690  12.861 -0.0272 -0.4334 -0.2175
  550TMC3     H 8164   0.041   0.904  12.880  1.0029  0.8748 -0.0351
  550TMC3    H1 8165   0.048   0.788  12.483  1.5399  0.0385 -0.4364
  550TMC3    H2 8166   4.661   1.189  12.587 -0.1388 -0.0593 -0.1340
  550TMC3    C7 8167   4.721   1.033  12.379  0.3285  0.7061  0.2506
  550TMC3    C8 8168   0.071   1.157  12.816 -0.4416 -0.1696  0.2924
  550TMC3    O1 8169   4.626   1.100  12.356 -0.3762  0.2149 -0.6430
  550TMC3    O2 8170   0.111   1.121  12.925 -0.4708 -0.3930  0.4014
  551TMC3    C1 8171   2.631   3.146  13.060 -0.3732 -0.3399  0.1173
  551TMC3    C2 8172   2.744   3.161  12.979  0.0326  0.8205  0.0990
  551TMC3    C3 8173   2.828   3.266  13.000  0.5514  0.0285  0.0371
  551TMC3    C4 8174   2.595   3.245  13.155 -0.5043 -0.1786 -0.6082
  551TMC3    C5 8175   2.688   3.342  13.173 -0.1084  0.6033  0.4313
  551TMC3    C6 8176   2.803   3.353  13.100 -0.0735 -0.3214 -0.3378
  551TMC3     C 8177   2.523   3.096  12.983  0.5082 -0.2679  0.5239
  551TMC3     O 8178   2.525   3.116  12.860  0.1849 -0.6154 -0.1447
  551TMC3     H 8179   2.754   3.092  12.897  0.2117  1.1106 -0.1209
  551TMC3    H1 8180   2.498   3.256  13.202 -0.9080  1.4904 -1.8025
  551TMC3    H2 8181   2.880   3.422  13.132  0.8517 -2.0233  1.1440
  551TMC3    C7 8182   2.674   3.437  13.280 -0.0443  0.2865  0.0324
  551TMC3    C8 8183   2.919   3.288  12.893  0.5772  0.0186  0.5956
  551TMC3    O1 8184   2.594   3.417  13.364  0.3408  0.1876 -0.6810
  551TMC3    O2 8185   2.965   3.185  12.842 -0.0464  0.8373 -0.4157
  552MPD2     C 8186   4.386   0.923  14.071 -0.1099  0.2433 -0.5501
  552MPD2    C1 8187   4.449   0.814  14.007  0.8615  0.3454  0.1402
  552MPD2    C2 8188   4.569   0.770  14.062  0.0106 -0.7603  0.1736
  552MPD2    C3 8189   4.638   0.856  14.141  0.5971  0.1482  0.1141
  552MPD2    C4 8190   4.581   0.970  14.193 -0.0875 -0.6915 -0.2844
  552MPD2    C5 8191   4.455   0.999  14.154  0.3225  0.2487  0.6178
  552MPD2     H 8192   4.613   0.680  14.020 -1.0294 -1.3064  0.2639
  552MPD2    H1 8193   4.634   1.032  14.265 -1.1767 -1.6793  1.3574
  552MPD2    H2 8194   4.290   0.967  14.047  0.2014  2.1105  1.6396
  552MPD2    H3 8195   4.402   1.086  14.191  1.3575  1.2022 -0.1455
  552MPD2     N 8196   0.037   0.822  14.196 -0.1173  0.2318 -0.0923
  552MPD2    H5 8197   0.079   0.889  14.260 -1.3463  0.8618  0.0547
  552MPD2    N1 8198   4.385   0.728  13.913 -0.0613  0.0925  0.4135
  552MPD2    H7 8199   4.424   0.635  13.903 -1.1343 -0.4685  1.4851
  553TMC3    C1 8200   4.225   0.670  13.760  0.6488 -0.5058  0.0550
  553TMC3    C2 8201   4.215   0.719  13.628  0.1193  0.3151 -0.2468
  553TMC3    C3 8202   4.210   0.630  13.523 -0.6803 -0.0862 -0.4758
  553TMC3    C4 8203   4.261   0.532  13.780 -0.7342  0.1677 -0.2821
  553TMC3    C5 8204   4.248   0.455  13.667 -0.6412 -0.7514  0.9249
  553TMC3    C6 8205   4.211   0.494  13.543  0.0688 -0.3052 -0.5394
  553TMC3     C 8206   4.259   0.762  13.861 -0.4523  0.2707  0.3244
  553TMC3     O 8207   4.197   0.865  13.864 -0.2634  0.4296 -0.3042
  553TMC3     H 8208   4.196   0.825  13.615  0.3434  0.2995 -0.7027
  553TMC3    H1 8209   4.273   0.487  13.878 -1.6726 -0.0833 -0.2836
  553TMC3    H2 8210   4.212   0.425  13.460  2.0076 -0.0652 -0.7231
  553TMC3    C7 8211   4.300   0.325  13.682  0.0256 -0.0218  0.2748
  553TMC3    C8 8212   4.262   0.677  13.402 -0.5204 -0.8819 -0.2485
  553TMC3    O1 8213   4.219   0.234  13.659 -0.2848 -0.2251 -0.1559
  553TMC3    O2 8214   4.330   0.603  13.330 -0.1378  0.4155 -0.3862
  554TMC3    C1 8215   1.800   4.087  11.328 -0.1482  0.4854  0.5597
  554TMC3    C2 8216   1.763   4.034  11.209 -0.3395  0.1188  0.3570
  554TMC3    C3 8217   1.862   4.022  11.115  0.6487 -0.1346  0.4519
  554TMC3    C4 8218   1.935   4.121  11.363 -0.9162 -1.4025 -0.3055
  554TMC3    C5 8219   2.023   4.105  11.261 -0.2395 -0.6379 -0.6094
  554TMC3    C6 8220   1.987   4.056  11.136 -0.3140  0.3544  0.1480
  554TMC3     C 8221   1.707   4.054  11.435 -0.1577 -0.8347  0.3529
  554TMC3     O 8222   1.590   4.024  11.413 -0.2896 -0.2639  0.1329
  554TMC3     H 8223   1.663   3.996  11.193 -0.5284  1.3336 -1.2800
  554TMC3    H1 8224   1.946   4.186  11.449 -2.2546 -2.8669  0.9888
  554TMC3    H2 8225   2.061   4.030  11.061  0.6787 -0.7650  1.5170
  554TMC3    C7 8226   2.138   4.193  11.254 -0.4686 -0.5794 -0.4915
  554TMC3    C8 8227   1.837   4.025  10.974 -0.5180  0.3273 -0.0730
  554TMC3    O1 8228   2.185   4.193  11.144 -0.2319  0.3061  0.0697
  554TMC3    O2 8229   1.926   4.065  10.897  0.4301 -0.0606 -0.1878
  555TMC3    C1 8230   0.963   3.937  14.838 -0.2108 -0.2539  0.0507
  555TMC3    C2 8231   0.963   4.035  14.941  0.3815  0.0495 -0.4696
  555TMC3    C3 8232   0.951   3.979  15.065 -0.0063 -1.1279  0.1466
  555TMC3    C4 8233   0.962   3.797  14.849 -0.0962 -0.7202 -0.0114
  555TMC3    C5 8234   0.931   3.764  14.971 -0.1340 -0.9542  0.0325
  555TMC3    C6 8235   0.932   3.843  15.083 -0.4865 -0.1813 -0.2981
  555TMC3     C 8236   0.996   3.983  14.700  0.2989 -0.0524 -0.5066
  555TMC3     O 8237   1.093   3.934  14.645  0.6565 -0.2374  0.0501
  555TMC3     H 8238   0.986   4.136  14.910 -0.2866  0.2137 -0.4306
  555TMC3    H1 8239   0.947   3.734  14.762 -1.1196 -0.4076 -0.0608
  555TMC3    H2 8240   0.901   3.801  15.178  0.1601  0.0446  0.0157
  555TMC3    C7 8241   0.947   3.624  15.005  0.2512  0.0040  0.3484
  555TMC3    C8 8242   0.967   4.055  15.183 -0.6457  0.7471  0.2837
  555TMC3    O1 8243   0.900   3.590  15.114  0.4470 -0.1896 -0.2002
  555TMC3    O2 8244   0.929   4.171  15.178  0.1336  0.0352 -0.1093
  556MPD2     C 8245   4.285   0.477  11.095  0.9053 -0.2669  0.0385
  556MPD2    C1 8246   4.162   0.445  11.153  0.2361 -0.7103  0.0539
  556MPD2    C2 8247   4.113   0.316  11.139  0.2237  0.0141  0.2247
  556MPD2    C3 8248   4.182   0.219  11.067 -0.3269 -0.0471  0.3160
  556MPD2    C4 8249   4.307   0.254  11.019 -0.1150 -0.4840 -0.3969
  556MPD2    C5 8250   4.354   0.383  11.028 -0.0337  0.5077 -0.6736
  556MPD2     H 8251   4.011   0.294  11.169 -0.3695  1.4391 -0.7887
  556MPD2    H1 8252   4.363   0.182  10.961  0.6049 -0.8260  0.7321
  556MPD2    H2 8253   4.324   0.578  11.102 -0.2493  0.1722  0.1916
  556MPD2    H3 8254   4.442   0.420  10.975 -0.2945 -2.6324 -3.3250
  556MPD2     N 8255   4.114   0.097  11.049  0.8116  0.1552 -0.3053
  556MPD2    H5 8256   4.025   0.086  11.097 -0.2082 -1.2917 -2.4975
  556MPD2    N1 8257   4.085   0.546  11.218 -0.5711 -0.4343  0.0141
  556MPD2    H7 8258   4.107   0.645  11.208  0.3654 -0.7770 -1.4532
  557TMC3    C1 8259   4.049   4.629  10.932  0.0694 -0.1519  0.2961
  557TMC3    C2 8260   4.084   4.513  10.858  0.1106 -0.0741  0.5622
  557TMC3    C3 8261   4.016   4.487  10.740  0.2769 -0.6841  0.3675
  557TMC3    C4 8262   3.946   4.700  10.883  0.2148  0.1957 -0.0030
  557TMC3    C5 8263   3.878   4.663  10.765 -1.1209 -0.4302  0.3645
  557TMC3    C6 8264   3.914   4.560  10.689 -1.0076 -0.7674 -0.0973
  557TMC3     C 8265   4.163   4.715  10.978 -0.4078 -0.6602 -0.1673
  557TMC3     O 8266   4.273   4.695  10.933 -0.4171 -0.2160 -0.0020
  557TMC3     H 8267   4.175   4.458  10.879  0.4546  0.0765 -0.5476
  557TMC3    H1 8268   3.923   0.077  10.918  0.4331 -0.4191  1.8933
  557TMC3    H2 8269   3.872   4.532  10.594  0.7948 -0.9416 -0.8363
  557TMC3    C7 8270   3.756   0.013  10.727 -1.1240 -0.5435 -0.6773
  557TMC3    C8 8271   4.055   4.374  10.660  0.5765 -0.3408 -0.2982
  557TMC3    O1 8272   3.731   0.119  10.785  0.1790  0.6443  0.6327
  557TMC3    O2 8273   4.061   4.408  10.545  0.4567 -0.2311  0.0345
  558TMC3    C1 8274   1.795   3.322   9.892 -0.9937 -0.0244  1.0006
  558TMC3    C2 8275   1.668   3.274   9.917 -0.1413  0.4340  1.2237
  558TMC3    C3 8276   1.599   3.224   9.812 -0.2028  0.3128 -0.1202
  558TMC3    C4 8277   1.861   3.300   9.779 -0.0893  0.2537 -0.8478
  558TMC3    C5 8278   1.788   3.240   9.679  0.7792 -0.0844  0.2407
  558TMC3    C6 8279   1.656   3.203   9.692 -0.1196 -0.5312  0.1243
  558TMC3     C 8280   1.882   3.324  10.007  0.2242  0.9864 -0.0797
  558TMC3     O 8281   1.988   3.381   9.984 -0.5294 -0.0633  0.4522
  558TMC3     H 8282   1.625   3.312  10.009  0.3413 -0.4862  1.8318
  558TMC3    H1 8283   1.961   3.336   9.762 -0.0676 -0.5138 -2.3232
  558TMC3    H2 8284   1.599   3.157   9.613  0.5582  2.7038 -2.2417
  558TMC3    C7 8285   1.867   3.194   9.569  0.1193  0.0918 -0.1092
  558TMC3    C8 8286   1.460   3.177   9.841 -0.1891  0.0328  0.1643
  558TMC3    O1 8287   1.975   3.249   9.547  0.4731 -0.1357 -0.0283
  558TMC3    O2 8288   1.387   3.151   9.747 -0.1481 -0.2622 -0.1415
  559MPD2     C 8289   1.836   3.891  10.012 -0.0057  0.5640  0.5392
  559MPD2    C1 8290   1.751   3.803  10.075  0.2853 -0.7419  0.4073
  559MPD2    C2 8291   1.801   3.706  10.163  0.1555  0.3523 -0.2689
  559MPD2    C3 8292   1.926   3.717  10.216  0.4453 -0.0230 -0.2804
  559MPD2    C4 8293   2.011   3.808  10.151 -0.3791 -0.2717  0.1389
  559MPD2    C5 8294   1.969   3.900  10.053  0.5709  0.1357  0.3642
  559MPD2     H 8295   1.738   3.638  10.219  0.4513  0.7014  0.4904
  559MPD2    H1 8296   2.112   3.822  10.189 -0.9876 -1.5460  2.2247
  559MPD2    H2 8297   1.804   3.963   9.937 -0.6257 -1.6132 -1.2764
  559MPD2    H3 8298   2.041   3.966  10.006 -0.2759 -0.1728 -1.3430
  559MPD2     N 8299   1.965   3.647  10.336 -0.8671 -0.7159  0.1725
  559MPD2    H5 8300   1.895   3.591  10.382 -1.6538 -1.2502 -1.6801
  559MPD2    N1 8301   1.616   3.805  10.034  0.2480 -0.4151 -0.4311
  559MPD2    H7 8302   1.582   3.880   9.975  1.2287 -1.3752 -2.2332
  560TMC3    C1 8303   2.095   3.565  10.513  0.0645  0.5650 -0.6642
  560TMC3    C2 8304   1.999   3.470  10.545 -0.3872 -0.5004 -0.6031
  560TMC3    C3 8305   2.023   3.407  10.662 -0.5021  0.1205 -0.0078
  560TMC3    C4 8306   2.205   3.591  10.598  0.3128  0.7117  0.0257
  560TMC3    C5 8307   2.220   3.527  10.712  0.3940  0.3139 -0.0916
  560TMC3    C6 8308   2.118   3.442  10.753 -0.5362 -0.5879  0.5833
  560TMC3     C 8309   2.094   3.643  10.392 -0.2573 -0.0785 -0.4939
  560TMC3     O 8310   2.199   3.685  10.345  0.0909  0.1233  0.0445
  560TMC3     H 8311   1.929   3.434  10.470  2.5470  0.0178 -3.5661
  560TMC3    H1 8312   2.276   3.661  10.556  1.4917  0.6809  1.9621
  560TMC3    H2 8313   2.108   3.417  10.858  0.8552  1.4375  1.2274
  560TMC3    C7 8314   2.344   3.529  10.788  0.3760 -0.5201 -0.4575
  560TMC3    C8 8315   1.937   3.295  10.688  0.3718  0.0979  0.3224
  560TMC3    O1 8316   2.357   3.431  10.858  0.6242  0.3803 -0.1196
  560TMC3    O2 8317   1.834   3.284  10.622  0.0224 -0.1880 -0.1001
  561TMC3    C1 8318   4.396   2.551  10.790  0.1526  0.6814 -0.4172
  561TMC3    C2 8319   4.349   2.485  10.897 -0.7532 -0.0664  0.1017
  561TMC3    C3 8320   4.278   2.552  10.996 -0.0030 -0.4972  0.6957
  561TMC3    C4 8321   4.369   2.682  10.771  0.1180 -0.0936  0.7673
  561TMC3    C5 8322   4.299   2.745  10.866  0.1668 -0.2147 -0.2740
  561TMC3    C6 8323   4.245   2.684  10.980 -0.3176 -0.4673  0.2249
  561TMC3     C 8324   4.443   2.476  10.672 -0.2355 -0.0211 -0.9427
  561TMC3     O 8325   4.484   2.537  10.574  0.5161  0.0516  0.5435
  561TMC3     H 8326   4.375   2.384  10.925 -2.6839 -0.7109 -0.4431
  561TMC3    H1 8327   4.409   2.738  10.688  0.6534 -1.1445  0.3212
  561TMC3    H2 8328   4.177   2.742  11.041 -0.0376  2.2998 -2.0973
  561TMC3    C7 8329   4.304   2.889  10.865 -0.9795 -0.3934 -0.5785
  561TMC3    C8 8330   4.251   2.476  11.120 -0.3047 -0.1450  0.7282
  561TMC3    O1 8331   4.201   2.945  10.902  0.1799  0.0621  0.0879
  561TMC3    O2 8332   4.275   2.360  11.126  0.1290  0.3842  0.0608
  562TMC3    C1 8333   0.562   4.203  16.075 -0.1447 -0.1805  0.4593
  562TMC3    C2 8334   0.477   4.305  16.057  0.2063  0.3648  0.2190
  562TMC3    C3 8335   0.429   4.325  15.933  0.0884  1.4148 -0.3639
  562TMC3    C4 8336   0.609   4.125  15.971  0.5009  0.9761  0.5207
  562TMC3    C5 8337   0.557   4.153  15.850  0.0661 -0.1560  0.2672
  562TMC3    C6 8338   0.462   4.246  15.828  0.0436  0.1563  0.1515
  562TMC3     C 8339   0.594   4.166  16.214  0.8866 -0.2831 -0.5937
  562TMC3     O 8340   0.681   4.077  16.226 -0.6537  0.0285  0.1412
  562TMC3     H 8341   0.466   4.383  16.132  1.1751  0.4976  0.2304
  562TMC3    H1 8342   0.671   4.039  15.994 -1.2821 -0.2305  0.8116
  562TMC3    H2 8343   0.437   4.271  15.726 -2.3497  1.0028  0.9508
  562TMC3    C7 8344   0.615   4.106  15.721  0.6189 -0.2872 -0.6389
  562TMC3    C8 8345   0.307   4.407  15.921  0.0541  0.2343 -0.6128
  562TMC3    O1 8346   0.590   4.168  15.615  0.5365 -0.4103  0.2254
  562TMC3    O2 8347   0.246   4.437  16.024  0.0687 -0.7286 -0.0154
  563MPD2     C 8348   2.831   0.604  15.496  0.0032 -0.6116 -0.5402
  563MPD2    C1 8349   2.811   0.655  15.624  0.9017  0.7010  0.1655
  563MPD2    C2 8350   2.894   0.604  15.722 -0.1832 -0.2470  0.0173
  563MPD2    C3 8351   3.005   0.524  15.698 -0.0396  0.4448 -0.6417
  563MPD2    C4 8352   3.037   0.493  15.567 -0.4455 -0.0105 -0.4197
  563MPD2    C5 8353   2.937   0.523  15.474  0.1358 -0.0299 -0.4594
  563MPD2     H 8354   2.863   0.619  15.825  0.5845  0.8467  0.0971
  563MPD2    H1 8355   3.105   0.415  15.534 -2.3384 -3.0239  2.8318
  563MPD2    H2 8356   2.766   0.622  15.412  1.9924 -1.4580 -2.2471
  563MPD2    H3 8357   2.950   0.487  15.372 -2.0861  2.1647 -1.5165
  563MPD2     N 8358   3.070   0.478  15.816  0.3996 -0.3731  0.1584
  563MPD2    H5 8359   3.050   0.524  15.904 -1.5114  0.9997 -1.0243
  563MPD2    N1 8360   2.691   0.726  15.659 -0.2032 -0.1647 -0.6985
  563MPD2    H7 8361   2.613   0.724  15.595 -0.1403  2.4202 -0.8359
  564TMC3    C1 8362   2.565   0.738  15.862  0.7603 -0.4621  0.2841
  564TMC3    C2 8363   2.463   0.687  15.782 -0.1922 -0.2386  0.0557
  564TMC3    C3 8364   2.418   0.558  15.806 -0.0089 -0.5632  0.8632
  564TMC3    C4 8365   2.621   0.662  15.961 -0.0190 -0.0210  0.3816
  564TMC3    C5 8366   2.577   0.530  15.964  0.2823  0.0112  0.3404
  564TMC3    C6 8367   2.473   0.480  15.895 -0.5927 -0.4940  0.2697
  564TMC3     C 8368   2.678   0.785  15.787  0.5915  0.6997 -0.5539
  564TMC3     O 8369   2.771   0.837  15.855 -0.2672 -0.0342 -0.2889
  564TMC3     H 8370   2.412   0.752  15.712  0.8663  0.5709  0.0423
  564TMC3    H1 8371   2.714   0.690  16.008 -0.0497 -0.7907  0.9084
  564TMC3    H2 8372   2.448   0.376  15.913  1.0628 -0.4655  2.7059
  564TMC3    C7 8373   2.689   0.433  15.985  0.1326  0.3892 -0.6961
  564TMC3    C8 8374   2.362   0.474  15.699  0.2647  0.4753 -0.6807
  564TMC3    O1 8375   2.786   0.466  16.056  0.2914 -0.7402 -0.6574
  564TMC3    O2 8376   2.283   0.391  15.733  0.0342  0.2930  0.2172
  565TMC3    C1 8377   3.504   1.904   9.866 -0.4082  0.1194  0.1892
  565TMC3    C2 8378   3.561   1.872   9.986  0.0065  0.1395  0.6098
  565TMC3    C3 8379   3.571   1.738  10.013 -0.6882 -0.7834  0.2447
  565TMC3    C4 8380   3.457   1.809   9.775 -0.0758  0.3256  0.8982
  565TMC3    C5 8381   3.460   1.678   9.806 -0.0859  0.0294  0.5964
  565TMC3    C6 8382   3.522   1.638   9.928 -0.9386 -0.3942 -0.4291
  565TMC3     C 8383   3.480   2.042   9.840 -0.2084 -0.8338 -0.7973
  565TMC3     O 8384   3.384   2.063   9.771 -0.2688 -0.2356 -0.5276
  565TMC3     H 8385   3.572   1.944  10.066  1.2783  1.5515 -0.8574
  565TMC3    H1 8386   3.404   1.838   9.685 -0.8392 -0.0794  1.2208
  565TMC3    H2 8387   3.499   1.537   9.961  0.1321 -0.2781  0.6572
  565TMC3    C7 8388   3.351   1.604   9.751  0.0035  0.4056 -0.0224
  565TMC3    C8 8389   3.633   1.699  10.137  0.5333  0.2032  0.6512
  565TMC3    O1 8390   3.276   1.547   9.835  0.1662  0.3052  0.0202
  565TMC3    O2 8391   3.644   1.785  10.226 -0.3809 -0.4221  0.3281
  566MPD2     C 8392   4.479   3.961  14.466  0.9251 -0.1835 -0.2162
  566MPD2    C1 8393   4.565   3.931  14.363 -0.3708 -0.0516  0.3348
  566MPD2    C2 8394   4.504   3.874  14.249  0.0106 -0.2204  0.4468
  566MPD2    C3 8395   4.369   3.869  14.229  0.4648  0.1944 -0.3113
  566MPD2    C4 8396   4.288   3.915  14.329  0.5028  0.4195  0.2042
  566MPD2    C5 8397   4.344   3.964  14.445 -0.2509 -0.0023 -0.0625
  566MPD2     H 8398   4.576   3.846  14.173  0.5572 -0.3866  1.0223
  566MPD2    H1 8399   4.181   3.928  14.318  0.1582 -2.8437 -0.2806
  566MPD2    H2 8400   4.514   4.011  14.556 -0.2637 -1.8434  1.1835
  566MPD2    H3 8401   4.278   3.991  14.526 -1.1169 -1.5917 -0.2510
  566MPD2     N 8402   4.313   3.838  14.104 -0.0506  1.3298  0.3651
  566MPD2    H5 8403   4.217   3.863  14.082 -0.3971 -0.4841 -0.2092
  566MPD2    N1 8404   4.705   3.948  14.371  0.0001  0.3264 -0.5174
  566MPD2    H7 8405   0.016   3.991  14.457 -0.7716 -1.6742  0.7864
  567TMC3    C1 8406   0.196   4.020  14.295  0.6326  0.1676 -0.7175
  567TMC3    C2 8407   0.242   4.103  14.197 -0.6121  0.0406 -0.5825
  567TMC3    C3 8408   0.376   4.128  14.183  0.1074  0.5230  0.7350
  567TMC3    C4 8409   0.288   3.963  14.378 -0.6677 -0.0243 -0.0279
  567TMC3    C5 8410   0.423   3.982  14.355  0.8479 -0.8099  0.1246
  567TMC3    C6 8411   0.470   4.063  14.255 -0.8095 -0.2672 -0.6353
  567TMC3     C 8412   0.070   3.955  14.269  0.0346  1.2142  0.5901
  567TMC3     O 8413   0.059   3.911  14.153 -0.0231  0.6288 -0.1467
  567TMC3     H 8414   0.161   4.153  14.145 -1.1400 -0.4960 -0.2723
  567TMC3    H1 8415   0.252   3.878  14.436 -0.1815  0.8621  1.5856
  567TMC3    H2 8416   0.578   4.060  14.240 -0.9096 -0.6783 -1.2434
  567TMC3    C7 8417   0.515   3.920  14.447  0.1386 -0.8004 -0.8750
  567TMC3    C8 8418   0.401   4.195  14.066  0.6986 -0.4114 -0.2583
  567TMC3    O1 8419   0.631   3.900  14.410 -0.4887 -0.7556 -0.3380
  567TMC3    O2 8420   0.303   4.255  14.022  0.3270 -0.5726  0.2588
  568MPD2     C 8421   2.518   3.628  15.840 -0.4902  0.4387 -0.2264
  568MPD2    C1 8422   2.522   3.722  15.941 -0.8710 -0.5629 -0.2217
  568MPD2    C2 8423   2.508   3.863  15.914 -0.7657 -0.0443  0.0594
  568MPD2    C3 8424   2.500   3.905  15.784  0.2261  0.0022  0.5989
  568MPD2    C4 8425   2.503   3.813  15.677 -0.4437  0.2993  0.2223
  568MPD2    C5 8426   2.510   3.676  15.710  0.4417  0.4421  0.2808
  568MPD2     H 8427   2.507   3.935  15.995 -0.3529  2.4951 -2.2239
  568MPD2    H1 8428   2.502   3.828  15.570 -1.7405 -1.7447 -0.0457
  568MPD2    H2 8429   2.530   3.521  15.856  0.8416  0.3788 -1.6626
  568MPD2    H3 8430   2.526   3.598  15.636  1.3942 -1.2894  2.3258
  568MPD2     N 8431   2.508   4.046  15.772  0.6717  0.5224  0.0643
  568MPD2    H5 8432   2.530   4.096  15.858  0.8558 -2.1898  1.5819
  568MPD2    N1 8433   2.546   3.670  16.073  0.7656  0.2589 -0.5036
  568MPD2    H7 8434   2.586   3.577  16.074 -0.2090 -0.1306  2.1663
  569TMC3    C1 8435   2.472   4.266  15.689  0.3014  0.2769 -0.1103
  569TMC3    C2 8436   2.417   4.286  15.817  0.4119  0.0591  0.0557
  569TMC3    C3 8437   2.411   4.418  15.852  0.2463  0.5932  0.7871
  569TMC3    C4 8438   2.536   4.363  15.619 -0.5046  0.8817  0.2339
  569TMC3    C5 8439   2.530   4.494  15.667 -0.3996 -0.1612 -0.3816
  569TMC3    C6 8440   2.474   4.523  15.788  0.1450 -0.0637 -0.0602
  569TMC3     C 8441   2.498   4.125  15.664 -0.2456 -0.2179 -0.4484
  569TMC3     O 8442   2.508   4.085  15.548  0.3907  0.3516  0.2986
  569TMC3     H 8443   2.358   4.210  15.867  0.7698  0.1810  0.6678
  569TMC3    H1 8444   2.564   4.343  15.516  1.0599 -0.5244  0.9324
  569TMC3    H2 8445   2.455   4.624  15.822 -2.1275 -0.0380 -1.4020
  569TMC3    C7 8446   2.572   4.596  15.582 -0.1437 -0.8939 -0.1745
  569TMC3    C8 8447   2.360   4.441  15.982 -0.9381  0.5886  0.1855
  569TMC3    O1 8448   2.651   4.570  15.494 -0.1762  0.0677 -0.7623
  569TMC3    O2 8449   2.273   4.368  16.023 -0.8314  0.4034 -0.2953
  570TMC3    C1 8450   1.924   2.783  16.010 -0.1071  0.7158  0.3747
  570TMC3    C2 8451   2.012   2.803  15.909 -0.9049 -0.3861  0.2837
  570TMC3    C3 8452   2.030   2.929  15.862 -0.2354 -0.1014  0.5529
  570TMC3    C4 8453   1.848   2.889  16.064 -0.0170  1.2548 -0.3073
  570TMC3    C5 8454   1.868   3.013  16.005 -0.6352 -0.0083 -0.5623
  570TMC3    C6 8455   1.974   3.038  15.913 -0.2036 -0.0401  0.6775
  570TMC3     C 8456   1.941   2.649  16.082  0.8036  0.1641  0.1721
  570TMC3     O 8457   2.015   2.568  16.030 -0.2478 -0.4588  0.5219
  570TMC3     H 8458   2.057   2.713  15.869  2.0065  1.9675 -1.6758
  570TMC3    H1 8459   1.787   2.876  16.152  1.9452  0.2550  0.9229
  570TMC3    H2 8460   1.982   3.137  15.869 -0.6412 -0.3332 -0.0749
  570TMC3    C7 8461   1.816   3.132  16.070 -0.4487 -0.6622 -0.2912
  570TMC3    C8 8462   2.142   2.962  15.775 -0.1178 -0.1203  0.1691
  570TMC3    O1 8463   1.806   3.124  16.195 -0.1139 -0.7053  0.2600
  570TMC3    O2 8464   2.170   3.080  15.767  0.5480 -0.0316  0.3882
  571MPD2     C 8465   4.361   3.745   0.262 -0.8455 -0.1082 -0.4703
  571MPD2    C1 8466   4.317   3.832   0.166 -0.4953 -0.2342 -0.1031
  571MPD2    C2 8467   4.263   3.957   0.208 -0.6935 -0.3983 -0.6508
  571MPD2    C3 8468   4.254   3.986   0.337 -0.7561  0.9093  0.3809
  571MPD2    C4 8469   4.303   3.898   0.430  0.3028 -0.7439  0.2080
  571MPD2    C5 8470   4.356   3.777   0.395 -0.4565  0.3557 -0.5581
  571MPD2     H 8471   4.227   4.024   0.131 -1.0987  0.2328  0.0926
  571MPD2    H1 8472   4.310   3.915   0.537  0.4286 -1.2834  0.2901
  571MPD2    H2 8473   4.417   3.655   0.238 -1.5335 -1.1109  1.6318
  571MPD2    H3 8474   4.399   3.707   0.466  0.2751  0.5483 -0.8054
  571MPD2     N 8475   4.197   4.108   0.386 -1.5070  0.0191  0.5464
  571MPD2    H5 8476   4.210   4.131   0.484 -1.9201  2.0154  0.1171
  571MPD2    N1 8477   4.340   3.791   0.027  0.0504 -0.1323  0.6798
  571MPD2    H7 8478   4.389   3.702   0.020 -0.6665 -0.3329 -1.6168
  572TMC3    C1 8479   4.072   4.317   0.399  0.3302 -0.4043 -0.5158
  572TMC3    C2 8480   4.031   4.293   0.526 -0.8508 -0.0380  0.2736
  572TMC3    C3 8481   3.944   4.383   0.580  0.5092  0.3246 -0.0633
  572TMC3    C4 8482   4.038   4.432   0.331  0.0778 -0.6440  0.3006
  572TMC3    C5 8483   3.964   4.523   0.393  0.1584  0.3626  0.1445
  572TMC3    C6 8484   3.923   4.508   0.526 -0.3236  0.0535 -0.0315
  572TMC3     C 8485   4.129   4.208   0.322  0.3097 -0.5008 -0.0343
  572TMC3     O 8486   4.109   4.226   0.204 -0.0465  0.0007 -0.7578
  572TMC3     H 8487   4.037   4.194   0.571  2.5680  0.3376  0.6838
  572TMC3    H1 8488   4.078   4.446   0.232 -1.1384 -1.5259 -0.3155
  572TMC3    H2 8489   3.882   4.585   0.591  2.4419 -0.1434  1.9447
  572TMC3    C7 8490   3.925   4.636   0.315  0.2297 -0.5715  0.2526
  572TMC3    C8 8491   3.900   4.368   0.720 -0.1803  0.2773  0.1493
  572TMC3    O1 8492   3.977   4.651   0.204  0.0642  0.1840 -0.0854
  572TMC3    O2 8493   3.791   4.427   0.743 -0.3800  0.8545  0.5466
  573MPD2     C 8494   1.334   0.150   0.746  0.4585 -0.8595 -0.0254
  573MPD2    C1 8495   1.425   0.243   0.696  0.2294 -0.1704 -0.2090
  573MPD2    C2 8496   1.455   0.239   0.563  0.2089 -0.6150  0.2269
  573MPD2    C3 8497   1.374   0.161   0.474 -0.7076  0.1775 -1.2005
  573MPD2    C4 8498   1.297   0.062   0.530  0.7697  0.4141  0.0363
  573MPD2    C5 8499   1.266   0.065   0.660  0.7459 -0.0464  0.3385
  573MPD2     H 8500   1.533   0.299   0.517 -0.6143  0.5647  0.3612
  573MPD2    H1 8501   1.233   0.004   0.465  2.3786  0.0812 -1.2684
  573MPD2    H2 8502   1.316   0.143   0.853 -0.8538  0.3566 -0.1535
  573MPD2    H3 8503   1.200   4.713   0.704 -1.0179 -0.0824 -2.3669
  573MPD2     N 8504   1.371   0.162   0.330 -0.4581  0.0606  0.3745
  573MPD2    H5 8505   1.319   0.088   0.283 -0.7404  1.4453 -1.5181
  573MPD2    N1 8506   1.482   0.334   0.790  0.3187 -0.1478  0.4417
  573MPD2    H7 8507   1.454   0.341   0.887 -0.9662 -2.7849  0.2713
  574TMC3    C1 8508   1.375   0.266   0.121  0.7124  0.1528 -1.0365
  574TMC3    C2 8509   1.242   0.229   0.109 -0.3796 -0.2852  0.1300
  574TMC3    C3 8510   1.192   0.262  17.679 -0.0047 -0.1575  0.6307
  574TMC3    C4 8511   1.452   0.329   0.027 -0.1348 -0.2599  0.2047
  574TMC3    C5 8512   1.385   0.362  17.600  0.0409  0.4905  0.0322
  574TMC3    C6 8513   1.254   0.331  17.581  1.0448 -0.0631  0.3673
  574TMC3     C 8514   1.425   0.266   0.256  0.5603  0.0237  0.0208
  574TMC3     O 8515   1.516   0.340   0.287 -0.4297  0.9932 -0.0260
  574TMC3     H 8516   1.176   0.205   0.191  1.2692  2.2293  2.1745
  574TMC3    H1 8517   1.553   0.363   0.044 -0.0833 -0.0951 -0.4113
  574TMC3    H2 8518   1.211   0.372  17.490 -0.3727 -0.8543  0.6866
  574TMC3    C7 8519   1.432   0.461  17.499  0.1293 -0.3413  0.6896
  574TMC3    C8 8520   1.045   0.280  17.680 -0.3081  0.4660  0.3478
  574TMC3    O1 8521   1.383   0.468  17.388  0.0422  0.2837 -0.7215
  574TMC3    O2 8522   0.983   0.214   0.071  0.0139  0.2987 -0.7282
  575TMC3    C1 8523   3.652   1.410  11.016  0.1314  0.1583 -0.9152
  575TMC3    C2 8524   3.575   1.499  11.085 -0.5012 -0.7319 -0.2401
  575TMC3    C3 8525   3.551   1.625  11.030 -0.5543  0.1219 -0.2843
  575TMC3    C4 8526   3.698   1.436  10.891  0.0856 -0.2447  0.1918
  575TMC3    C5 8527   3.676   1.561  10.836 -0.0293 -0.3023 -0.0514
  575TMC3    C6 8528   3.607   1.654  10.908  0.0197  0.3899  0.5349
  575TMC3     C 8529   3.677   1.270  11.063  0.1962  0.0493 -0.9429
  575TMC3     O 8530   3.783   1.225  11.019  0.0041  0.4135  0.1648
  575TMC3     H 8531   3.552   1.483  11.189 -2.2318 -0.3674 -0.5583
  575TMC3    H1 8532   3.744   1.362  10.827 -0.1656 -0.7992  0.6456
  575TMC3    H2 8533   3.596   1.753  10.866  0.3496  0.1736 -0.0502
  575TMC3    C7 8534   3.677   1.578  10.692  0.0581 -0.0068 -0.1411
  575TMC3    C8 8535   3.532   1.740  11.126  0.8267 -0.1815 -0.3989
  575TMC3    O1 8536   3.630   1.684  10.645  0.2117  0.3655  0.5344
  575TMC3    O2 8537   3.527   1.711  11.247 -0.5462 -0.4656  0.0657
  576MPD2     C 8538   3.514   2.900  12.354  0.2319 -0.2209  0.1600
  576MPD2    C1 8539   3.467   2.965  12.239  0.3716  0.5064  0.4528
  576MPD2    C2 8540   3.333   3.015  12.245 -0.8665  0.6017  0.4275
  576MPD2    C3 8541   3.257   3.011  12.358  0.2791 -0.3727  0.3084
  576MPD2    C4 8542   3.313   2.953  12.470 -0.2375  0.4442  0.7476
  576MPD2    C5 8543   3.441   2.904  12.462  0.3746 -0.2409  0.2725
  576MPD2     H 8544   3.284   3.043  12.153 -3.1091  1.5554  1.9247
  576MPD2    H1 8545   3.262   2.950  12.565 -0.0855 -1.3950  0.7847
  576MPD2    H2 8546   3.615   2.860  12.354 -0.3061 -1.5374  3.2236
  576MPD2    H3 8547   3.481   2.864  12.555 -0.7566  0.5858  1.1056
  576MPD2     N 8548   3.122   3.059  12.370 -0.3902  0.5687 -0.4659
  576MPD2    H5 8549   3.095   3.130  12.303  0.8632 -0.5913 -2.2267
  576MPD2    N1 8550   3.523   2.969  12.107  0.4687  0.7150 -0.4256
  576MPD2    H7 8551   3.477   3.016  12.030  0.0343  0.4881 -0.3049
  577TMC3    C1 8552   3.690   2.883  11.946 -0.4193 -0.4789 -0.0317
  577TMC3    C2 8553   3.771   2.771  11.910  0.2241 -0.2332  0.3457
  577TMC3    C3 8554   3.813   2.768  11.774  0.3561  1.2040 -0.7080
  577TMC3    C4 8555   3.675   2.993  11.865  0.7897 -0.2500  0.2373
  577TMC3    C5 8556   3.721   2.988  11.736 -0.1113 -0.0546  0.1571
  577TMC3    C6 8557   3.800   2.882  11.689  0.0461  0.1342  0.2832
  577TMC3     C 8558   3.629   2.885  12.079  0.5238  0.1734 -0.2466
  577TMC3     O 8559   3.687   2.805  12.156  0.4144  0.3565 -0.6707
  577TMC3     H 8560   3.794   2.689  11.977  0.4203  0.2876  0.9064
  577TMC3    H1 8561   3.616   3.076  11.901 -0.0314 -1.4340  1.6549
  577TMC3    H2 8562   3.832   2.893  11.587 -0.0838  0.5560  0.2886
  577TMC3    C7 8563   3.699   3.096  11.650 -0.1417 -0.0439  0.1030
  577TMC3    C8 8564   3.876   2.650  11.721 -0.5568  0.2346 -0.1440
  577TMC3    O1 8565   3.712   3.075  11.529 -0.4035 -0.3375 -0.0465
  577TMC3    O2 8566   3.884   2.552  11.795 -0.1706  0.7004  0.2645
  578MPD2     C 8567   1.246   3.483   1.272  0.0908  0.5736  0.8191
  578MPD2    C1 8568   1.360   3.484   1.347  0.3527  0.5432 -0.3666
  578MPD2    C2 8569   1.459   3.388   1.326  0.0544 -0.2861 -0.6274
  578MPD2    C3 8570   1.443   3.289   1.233 -0.0857  0.2469 -0.7441
  578MPD2    C4 8571   1.332   3.289   1.152  0.1287  0.3725 -0.1400
  578MPD2    C5 8572   1.235   3.385   1.178  0.2921 -0.7377 -0.1079
  578MPD2     H 8573   1.548   3.380   1.387  0.4603 -0.7165 -1.2805
  578MPD2    H1 8574   1.314   3.219   1.071 -0.1395  1.5467 -1.0976
  578MPD2    H2 8575   1.180   3.569   1.277 -0.2070  0.3010  1.6570
  578MPD2    H3 8576   1.148   3.391   1.115 -0.4533 -3.6137  0.6565
  578MPD2     N 8577   1.545   3.194   1.213 -0.7411  0.2448 -0.5858
  578MPD2    H5 8578   1.624   3.211   1.274  0.0712 -0.9548 -1.3035
  578MPD2    N1 8579   1.368   3.596   1.438 -0.1690 -0.7330  0.9855
  578MPD2    H7 8580   1.293   3.664   1.434  2.9306  2.4556 -2.5717
  579TMC3    C1 8581   1.668   3.011   1.120  0.0081  0.3329 -0.1224
  579TMC3    C2 8582   1.754   3.032   1.226 -0.5565 -0.5916  0.3842
  579TMC3    C3 8583   1.854   2.940   1.235 -0.1258 -0.5308  0.9770
  579TMC3    C4 8584   1.690   2.907   1.035 -0.6259  0.9541 -0.1479
  579TMC3    C5 8585   1.795   2.824   1.057 -0.3010  0.7546  0.2981
  579TMC3    C6 8586   1.878   2.834   1.160  0.1293 -0.0634  1.0139
  579TMC3     C 8587   1.554   3.100   1.112  0.1368 -0.3691  1.1410
  579TMC3     O 8588   1.465   3.070   1.032 -0.2291  0.0010 -0.0037
  579TMC3     H 8589   1.740   3.109   1.301  0.3471  0.9043 -0.9837
  579TMC3    H1 8590   1.617   2.886   0.957 -1.6069 -3.0930  1.8403
  579TMC3    H2 8591   1.970   2.777   1.160  1.0651  1.4410 -1.1646
  579TMC3    C7 8592   1.787   2.694   0.991  0.7087 -0.3039  0.2922
  579TMC3    C8 8593   1.967   2.986   1.304  0.5652 -0.8694  0.4503
  579TMC3    O1 8594   1.883   2.616   1.012  0.6416 -0.1100 -0.0461
  579TMC3    O2 8595   1.965   3.109   1.324 -0.0489  0.2491 -0.2702
  580TMC3    C1 8596   1.069   2.700  11.951  0.5861  0.2016 -0.2668
  580TMC3    C2 8597   1.180   2.787  11.949 -0.0637 -0.0472 -0.3530
  580TMC3    C3 8598   1.304   2.737  11.961  0.3808 -0.7245  0.2158
  580TMC3    C4 8599   1.080   2.562  11.939 -0.6028 -0.2405  0.1966
  580TMC3    C5 8600   1.209   2.516  11.948 -0.1203  0.3012 -0.2573
  580TMC3    C6 8601   1.316   2.599  11.961 -0.7346 -0.7824  0.3836
  580TMC3     C 8602   0.976   2.748  11.850  0.1209  0.3942 -1.1312
  580TMC3     O 8603   0.880   2.675  11.835  0.1379  0.4738 -0.1356
  580TMC3     H 8604   1.165   2.893  11.962 -2.7119 -0.2670 -1.7562
  580TMC3    H1 8605   0.995   2.497  11.924 -0.3007 -0.6293  0.1751
  580TMC3    H2 8606   1.412   2.558  11.987  0.6371  0.9503 -1.9029
  580TMC3    C7 8607   1.238   2.372  11.940 -0.0144 -0.4773 -0.1009
  580TMC3    C8 8608   1.420   2.817  11.935 -0.0357 -0.0502 -0.0966
  580TMC3    O1 8609   1.348   2.327  11.965  0.6787  0.1344 -0.1295
  580TMC3    O2 8610   1.402   2.939  11.940 -0.1868  0.1996 -0.4304
  581MPD2     C 8611   3.622   2.057  14.310 -0.0023  0.1186  0.2421
  581MPD2    C1 8612   3.598   2.084  14.441 -0.1818  0.1008 -0.4538
  581MPD2    C2 8613   3.485   2.141  14.488 -1.1358  0.1287 -0.4756
  581MPD2    C3 8614   3.382   2.163  14.404 -0.6196 -0.8956  0.3435
  581MPD2    C4 8615   3.392   2.134  14.268  0.3117 -0.5090  0.5925
  581MPD2    C5 8616   3.515   2.076  14.225 -0.6977  0.1826 -0.0202
  581MPD2     H 8617   3.466   2.179  14.588  0.3289  1.7289 -0.7971
  581MPD2    H1 8618   3.312   2.159  14.199  0.1674 -2.1253  0.1756
  581MPD2    H2 8619   3.706   2.000  14.271  0.8484  2.5492 -1.4597
  581MPD2    H3 8620   3.510   2.041  14.123  0.2394  1.3568 -0.4703
  581MPD2     N 8621   3.260   2.209  14.452 -0.3469 -0.2428 -0.1480
  581MPD2    H5 8622   3.260   2.241  14.548  4.1801 -2.6035  0.6524
  581MPD2    N1 8623   3.706   2.047  14.528  0.0874  0.4138 -0.2849
  581MPD2    H7 8624   3.790   2.012  14.483  1.1885 -1.4445  3.2789
  582TMC3    C1 8625   3.787   1.980  14.732  0.6981 -0.0097  0.5628
  582TMC3    C2 8626   3.852   2.019  14.844 -0.1546 -0.1456  0.0741
  582TMC3    C3 8627   3.935   1.931  14.904 -0.3028  0.0149  0.0263
  582TMC3    C4 8628   3.781   1.850  14.689  0.0440 -0.2596 -0.0575
  582TMC3    C5 8629   3.859   1.761  14.755  0.3402  0.0862 -0.0445
  582TMC3    C6 8630   3.947   1.808  14.852 -0.0427  0.2366  0.3732
  582TMC3     C 8631   3.706   2.080  14.661  0.5034  0.0273  0.2764
  582TMC3     O 8632   3.642   2.158  14.732  0.1453  0.3702 -0.8980
  582TMC3     H 8633   3.828   2.115  14.888  2.2608 -0.0662  1.2208
  582TMC3    H1 8634   3.720   1.820  14.605 -0.0747 -3.1852  1.0961
  582TMC3    H2 8635   4.014   1.737  14.899 -1.9034 -1.1678  0.8802
  582TMC3    C7 8636   3.787   1.646  14.807  0.2584 -0.3990 -0.6732
  582TMC3    C8 8637   3.935   1.939  15.046 -0.7900  0.5958  0.1431
  582TMC3    O1 8638   3.854   1.580  14.882  0.7038  0.2983 -0.0644
  582TMC3    O2 8639   3.844   2.005  15.097  0.2221 -1.2835 -0.3582
  583MPD2     C 8640   3.675   3.132  16.663  0.1826  0.3844 -0.2936
  583MPD2    C1 8641   3.692   3.269  16.641  0.5720 -0.2357  0.6778
  583MPD2    C2 8642   3.619   3.353  16.723  0.0564  0.0777 -0.2568
  583MPD2    C3 8643   3.558   3.305  16.832 -0.0475 -0.0145  0.1750
  583MPD2    C4 8644   3.555   3.168  16.854 -0.2278  0.3666  1.2214
  583MPD2    C5 8645   3.603   3.083  16.764 -0.2403  0.9437  0.1698
  583MPD2     H 8646   3.634   3.460  16.709  0.0519 -0.0461 -1.1829
  583MPD2    H1 8647   3.526   3.123  16.949 -2.1926  0.2050  0.5449
  583MPD2    H2 8648   3.720   3.056  16.599 -1.4815 -1.2413  0.4381
  583MPD2    H3 8649   3.589   2.976  16.780 -3.5595  1.3097 -0.2699
  583MPD2     N 8650   3.496   3.404  16.924 -0.0809 -0.0907  0.1585
  583MPD2    H5 8651   3.503   3.503  16.905 -0.7223  0.0295  0.5443
  583MPD2    N1 8652   3.749   3.323  16.526 -0.5256 -0.2501 -0.1580
  583MPD2    H7 8653   3.728   3.421  16.509 -1.2388 -0.5966 -1.3118
  584TMC3    C1 8654   3.386   3.476  17.123 -0.0222  0.4770  0.3901
  584TMC3    C2 8655   3.387   3.602  17.069  0.1175 -0.6778 -0.9946
  584TMC3    C3 8656   3.370   3.707  17.153 -0.2173  0.4887  0.3557
  584TMC3    C4 8657   3.363   3.457  17.262  0.0866  0.4870  0.6742
  584TMC3    C5 8658   3.349   3.566  17.341 -0.4209  0.1793 -0.6600
  584TMC3    C6 8659   3.356   3.695  17.291 -0.0700  0.0011  0.8975
  584TMC3     C 8660   3.449   3.370  17.054  0.2286  0.0847  0.3834
  584TMC3     O 8661   3.460   3.267  17.115  0.4460  0.1813 -0.2271
  584TMC3     H 8662   3.382   3.620  16.963  1.9056  1.9251 -0.6274
  584TMC3    H1 8663   3.373   3.361  17.311  2.0259  0.0703 -0.5533
  584TMC3    H2 8664   3.329   3.781  17.351  0.5657  0.9508 -0.1708
  584TMC3    C7 8665   3.353   3.533  17.484  0.4157  0.2444  0.1380
  584TMC3    C8 8666   3.368   3.843  17.096 -0.5176  0.4950 -0.7118
  584TMC3    O1 8667   3.331   3.426  17.525 -0.2884 -0.3004 -0.1415
  584TMC3    O2 8668   3.334   3.848  16.978  0.0709  0.1534  0.0900
  585MPD2     C 8669   2.795   2.127   0.679  0.1319  0.4090 -0.5139
  585MPD2    C1 8670   2.925   2.132   0.631  0.6084 -0.3476  0.5756
  585MPD2    C2 8671   2.948   2.170   0.507  0.0990 -0.3043  0.7402
  585MPD2    C3 8672   2.842   2.187   0.421 -0.6324  0.1727 -0.2498
  585MPD2    C4 8673   2.712   2.170   0.460 -0.4828  0.0134 -0.6354
  585MPD2    C5 8674   2.690   2.142   0.589 -0.8589  0.3187 -0.1584
  585MPD2     H 8675   3.048   2.179   0.468 -0.4029  1.2161 -0.1628
  585MPD2    H1 8676   2.631   2.169   0.388 -0.4226  0.0280 -0.7038
  585MPD2    H2 8677   2.774   2.092   0.779  1.2136 -1.2617 -0.8759
  585MPD2    H3 8678   2.588   2.128   0.622 -0.3851  2.9240  2.3820
  585MPD2     N 8679   2.860   2.232   0.287  0.0312 -0.1777  0.0864
  585MPD2    H5 8680   2.779   2.257   0.232 -1.0367  0.0401  1.7517
  585MPD2    N1 8681   3.036   2.101   0.713 -0.2458 -0.0065 -0.4186
  585MPD2    H7 8682   3.129   2.118   0.678  1.1576 -0.7498  2.9123
  586TMC3    C1 8683   2.970   2.285   0.089 -0.6170  0.4082  0.4779
  586TMC3    C2 8684   3.065   2.248  17.686 -0.4847 -0.0303  0.2705
  586TMC3    C3 8685   3.062   2.329  17.575 -0.0879 -0.0305  0.3703
  586TMC3    C4 8686   2.879   2.384   0.067  0.4606  0.5996 -0.4256
  586TMC3    C5 8687   2.877   2.454  17.646  0.2039 -0.4776  0.3422
  586TMC3    C6 8688   2.964   2.427  17.545  0.6539  0.3991  0.4022
  586TMC3     C 8689   2.981   2.224   0.221  0.2777  0.5657  0.0622
  586TMC3     O 8690   3.085   2.172   0.249  0.1619 -0.7569  0.0572
  586TMC3     H 8691   3.141   2.174   0.013 -0.4152  0.2944  1.2435
  586TMC3    H1 8692   2.819   2.427   0.146  0.2746 -0.5290  0.0432
  586TMC3    H2 8693   2.962   2.478  17.449 -1.6870 -0.3121  0.0661
  586TMC3    C7 8694   2.746   2.514  17.610 -0.0842  0.0986 -0.1482
  586TMC3    C8 8695   3.090   2.243  17.460 -0.4910  0.1831  0.4636
  586TMC3    O1 8696   2.651   2.483  17.681  0.0449  0.1092  0.3373
  586TMC3    O2 8697   3.080   2.121  17.482 -0.4148 -0.4883  0.3646
  587TMC3    C1 8698   0.772   1.463  16.092 -0.5529 -0.2725  0.5236
  587TMC3    C2 8699   0.725   1.588  16.123 -0.0784 -0.9928 -0.7223
  587TMC3    C3 8700   0.782   1.697  16.059  0.0262  0.0887 -0.5166
  587TMC3    C4 8701   0.872   1.443  16.002  0.6705 -0.5971  0.2869
  587TMC3    C5 8702   0.917   1.556  15.939  0.0493 -0.6293 -0.0958
  587TMC3    C6 8703   0.878   1.682  15.969  0.4979  0.2865 -0.3630
  587TMC3     C 8704   0.707   1.349  16.138  0.1986 -0.4053  0.0368
  587TMC3     O 8705   0.761   1.241  16.129 -0.0956  0.5080  0.5654
  587TMC3     H 8706   0.650   1.597  16.201  0.2636  2.0785 -0.7359
  587TMC3    H1 8707   0.899   1.342  15.976 -0.3770 -0.9970  0.7614
  587TMC3    H2 8708   0.926   1.767  15.922  2.4239 -0.5985 -0.0074
  587TMC3    C7 8709   1.015   1.539  15.829 -0.1349  0.4099  0.3694
  587TMC3    C8 8710   0.722   1.833  16.058  0.0182  0.9853  0.5472
  587TMC3    O1 8711   1.081   1.435  15.820  0.1740  0.3612  0.7206
  587TMC3    O2 8712   0.780   1.918  15.994 -0.2313 -0.2586 -0.8871
  588TMC3    C1 8713   3.254   4.100   9.645  0.4976  0.1710  0.5687
  588TMC3    C2 8714   3.172   3.993   9.606  0.1964  0.4433  0.1168
  588TMC3    C3 8715   3.237   3.875   9.597 -0.7459 -0.1199  0.0636
  588TMC3    C4 8716   3.381   4.080   9.702 -0.7135 -0.7212  0.0857
  588TMC3    C5 8717   3.439   3.951   9.680 -0.3464  0.1910  0.2579
  588TMC3    C6 8718   3.362   3.847   9.635  0.1928 -0.5473 -0.5534
  588TMC3     C 8719   3.194   4.225   9.658  0.5055  0.3183 -0.1316
  588TMC3     O 8720   3.079   4.238   9.685  0.0614  0.9170 -0.8553
  588TMC3     H 8721   3.072   4.009   9.565 -0.9753 -1.4243  2.2899
  588TMC3    H1 8722   3.419   4.139   9.785 -1.9681  1.0674 -0.6169
  588TMC3    H2 8723   3.415   3.752   9.635 -0.9971 -1.2055 -0.1384
  588TMC3    C7 8724   3.555   3.933   9.756  0.8103 -0.1337 -0.0197
  588TMC3    C8 8725   3.146   3.763   9.604  0.7148  0.4047  0.1087
  588TMC3    O1 8726   3.570   3.825   9.808  0.1926  0.0400  0.0117
  588TMC3    O2 8727   3.025   3.770   9.571  0.2700 -0.5596  0.6341
  589TMC3    C1 8728   1.983   1.285   1.031 -0.1134 -0.0414 -0.2596
  589TMC3    C2 8729   2.043   1.338   1.143  0.2472 -0.7288 -0.3611
  589TMC3    C3 8730   2.162   1.279   1.177 -0.4938  0.4592  0.2294
  589TMC3    C4 8731   2.037   1.179   0.961  0.2777  0.4921 -0.1933
  589TMC3    C5 8732   2.159   1.127   0.994  0.8226  0.4457 -0.6800
  589TMC3    C6 8733   2.223   1.181   1.101 -0.2693 -0.5229  0.5993
  589TMC3     C 8734   1.841   1.300   1.018  1.0593  0.4435  0.0466
  589TMC3     O 8735   1.815   1.266   0.906  0.1586 -0.1466 -0.1904
  589TMC3     H 8736   2.003   1.414   1.208 -0.5954 -0.8382 -0.7506
  589TMC3    H1 8737   1.985   1.130   0.879 -1.0818 -1.9698  2.1101
  589TMC3    H2 8738   2.313   1.129   1.135  0.4308  0.9040  0.9257
  589TMC3    C7 8739   2.215   1.012   0.927  0.1898  0.2561  0.2393
  589TMC3    C8 8740   2.220   1.319   1.303  0.0929 -0.2592 -0.3623
  589TMC3    O1 8741   2.295   0.948   0.992 -0.7327  0.0672  0.9785
  589TMC3    O2 8742   2.142   1.348   1.393  0.4653  0.1410 -1.0165
  590MPD2     C 8743   1.549   4.352  16.722  0.0495  0.5310  0.2210
  590MPD2    C1 8744   1.511   4.467  16.667 -0.0839  0.2018 -0.2944
  590MPD2    C2 8745   1.604   4.531  16.585 -0.1729  0.4655 -0.3621
  590MPD2    C3 8746   1.730   4.486  16.559 -0.3692 -0.6294 -0.3890
  590MPD2    C4 8747   1.772   4.378  16.627  0.3687  0.1223  0.4318
  590MPD2    C5 8748   1.681   4.314  16.710  0.0326  0.2287  0.1844
  590MPD2     H 8749   1.581   4.624  16.534  1.3535  0.4611 -1.0518
  590MPD2    H1 8750   1.865   4.324  16.614  1.2056  2.3987 -3.0885
  590MPD2    H2 8751   1.489   4.285  16.782  0.3193 -1.0473 -1.2806
  590MPD2    H3 8752   1.716   4.222  16.754  1.5424  0.7808  0.1535
  590MPD2     N 8753   1.819   4.573  16.487  0.6244  0.2163  0.0708
  590MPD2    H5 8754   1.772   4.663  16.477 -1.0260 -0.2337  3.5553
  590MPD2    N1 8755   1.372   4.511  16.683  0.3001 -0.2874 -0.3961
  590MPD2    H7 8756   1.309   4.449  16.732  2.0149  0.8856  3.2359
  591TMC3    C1 8757   1.984   4.635  16.339  0.1970  0.3997  1.1881
  591TMC3    C2 8758   2.030   4.588  16.220  0.1704  0.1290 -0.3730
  591TMC3    C3 8759   2.029   4.672  16.114  0.7092 -0.2831  0.8388
  591TMC3    C4 8760   1.928   0.035  16.357  0.4461 -0.3183 -0.2413
  591TMC3    C5 8761   1.933   0.119  16.251 -0.1531 -1.1054  0.6548
  591TMC3    C6 8762   1.988   0.079  16.129 -0.3428  0.4306 -0.0456
  591TMC3     C 8763   1.936   4.530  16.427 -0.5578  0.3796 -0.4713
  591TMC3     O 8764   2.002   4.432  16.449 -1.2671  0.0486 -0.9161
  591TMC3     H 8765   2.060   4.483  16.215  0.4264  0.1962 -0.2703
  591TMC3    H1 8766   1.904   0.076  16.454 -0.0203 -1.2350  0.0347
  591TMC3    H2 8767   1.977   0.132  16.035 -2.2111  2.2187  1.1896
  591TMC3    C7 8768   1.821   0.207  16.233 -0.2200  0.0302  0.3096
  591TMC3    C8 8769   2.054   4.614  15.977 -0.3592  0.4790 -0.0440
  591TMC3    O1 8770   1.749   0.209  16.327 -0.1402  0.4063  0.3145
  591TMC3    O2 8771   2.041   4.493  15.969 -0.4008  0.7233 -0.2248
  592MPD2     C 8772   2.228   1.816  11.035  0.8824 -0.4437 -0.4191
  592MPD2    C1 8773   2.215   1.891  11.153 -0.5010 -0.7984  0.5711
  592MPD2    C2 8774   2.116   1.855  11.245  0.8563  0.9871 -0.3723
  592MPD2    C3 8775   2.031   1.750  11.217 -0.3890 -0.1095  0.1547
  592MPD2    C4 8776   2.036   1.680  11.100 -0.2360  0.1573 -0.2246
  592MPD2    C5 8777   2.144   1.702  11.014  0.1238  0.2569 -0.2748
  592MPD2     H 8778   2.096   1.918  11.331 -2.0514  0.9216 -0.9850
  592MPD2    H1 8779   1.962   1.607  11.067  0.8289 -0.7199 -0.6733
  592MPD2    H2 8780   2.303   1.850  10.964  1.7207 -0.8618  0.2588
  592MPD2    H3 8781   2.152   1.640  10.925 -0.9086  0.6233 -0.6192
  592MPD2     N 8782   1.933   1.723  11.321  0.4172  0.1747  0.3876
  592MPD2    H5 8783   1.921   1.782  11.403 -0.4283 -1.0569  1.1499
  592MPD2    N1 8784   2.308   1.999  11.170 -0.0154 -0.5734  0.6504
  592MPD2    H7 8785   2.375   2.013  11.095  0.1621 -0.2166  0.8723
  593TMC3    C1 8786   2.445   2.164  11.292 -0.0589  1.1545 -0.4243
  593TMC3    C2 8787   2.461   2.244  11.410  0.0265  0.5311  0.0652
  593TMC3    C3 8788   2.577   2.299  11.451 -0.2963  0.0011 -0.2276
  593TMC3    C4 8789   2.547   2.154  11.207  0.3003 -0.3758  0.3284
  593TMC3    C5 8790   2.664   2.218  11.248  0.3183  0.0320 -0.3534
  593TMC3    C6 8791   2.686   2.284  11.370 -0.5930  0.0842  0.0353
  593TMC3     C 8792   2.330   2.069  11.290  0.6819 -0.1710  0.6329
  593TMC3     O 8793   2.271   2.052  11.396  0.3866  0.2311  0.1483
  593TMC3     H 8794   2.371   2.267  11.465  0.8002 -0.2485  1.6687
  593TMC3    H1 8795   2.548   2.085  11.124  2.4845 -0.5318  0.4853
  593TMC3    H2 8796   2.784   2.325  11.391 -0.4530 -1.0669  1.5460
  593TMC3    C7 8797   2.746   2.272  11.140 -0.4359 -0.2821 -0.7398
  593TMC3    C8 8798   2.568   2.432  11.512  0.1059  0.4026  0.5340
  593TMC3    O1 8799   2.834   2.344  11.174 -0.4657  0.1943  0.3646
  593TMC3    O2 8800   2.467   2.500  11.487 -0.4733 -0.0421 -0.3272
  594MPD2     C 8801   0.614   0.612  13.774 -0.3851  0.3013  0.3727
  594MPD2    C1 8802   0.633   0.666  13.902  1.5015 -0.0127  0.9593
  594MPD2    C2 8803   0.744   0.746  13.926  0.9685  0.0914 -0.0209
  594MPD2    C3 8804   0.830   0.788  13.825  0.3758 -0.2071  0.1165
  594MPD2    C4 8805   0.815   0.723  13.700  0.1524 -0.1581 -0.1864
  594MPD2    C5 8806   0.714   0.629  13.680  0.1857 -0.0690  0.1069
  594MPD2     H 8807   0.762   0.785  14.026 -1.2483  0.4029  0.2540
  594MPD2    H1 8808   0.883   0.729  13.616  0.1235 -2.7371 -0.3793
  594MPD2    H2 8809   0.540   0.533  13.765  1.7600 -1.4766 -1.5428
  594MPD2    H3 8810   0.708   0.573  13.588  2.0144  1.3011 -0.8556
  594MPD2     N 8811   0.923   0.887  13.865 -0.4686  0.1789  0.1143
  594MPD2    H5 8812   0.926   0.901  13.966  0.1975 -0.1704  0.1443
  594MPD2    N1 8813   0.537   0.637  14.009  0.0080 -0.0588 -0.1686
  594MPD2    H7 8814   0.448   0.591  13.992 -0.3464 -0.0957  1.8275
  595TMC3    C1 8815   1.238   1.213  13.889 -0.7901 -0.5243 -0.1825
  595TMC3    C2 8816   1.170   1.117  13.808 -0.3679  0.4805  0.3604
  595TMC3    C3 8817   1.050   1.081  13.852 -0.0242 -0.4067  0.3531
  595TMC3    C4 8818   1.171   1.263  13.999  0.6972 -0.6071  0.3002
  595TMC3    C5 8819   1.048   1.215  14.043  0.2577 -0.2889  0.4778
  595TMC3    C6 8820   0.989   1.116  13.973 -0.0047 -0.6183  0.5134
  595TMC3     C 8821   1.370   1.259  13.854  0.6222 -0.3550  0.2226
  595TMC3     O 8822   1.429   1.201  13.764  0.3226 -0.3938  0.0990
  595TMC3     H 8823   1.206   1.069  13.718  0.4890  0.1602  0.8709
  595TMC3    H1 8824   1.224   1.338  14.057 -0.6820 -0.0699  0.8532
  595TMC3    H2 8825   0.896   1.067  14.002 -0.1944 -1.1704 -1.0400
  595TMC3    C7 8826   0.981   1.250  14.160 -0.1633  0.0108  0.7773
  595TMC3    C8 8827   0.997   0.965  13.788  0.3179  0.4183 -0.1378
  595TMC3    O1 8828   0.861   1.280  14.144  0.5433  0.2426  0.1413
  595TMC3    O2 8829   1.022   0.941  13.671 -0.0444  0.1027  0.0212
  596MPD2     C 8830   4.712   3.501  16.665 -0.6338  0.0285 -0.2993
  596MPD2    C1 8831   4.680   3.620  16.616  0.2180 -0.3139  0.0790
  596MPD2    C2 8832   4.694   3.648  16.481  0.0385  0.7193 -0.4088
  596MPD2    C3 8833   0.031   3.545  16.395  0.2113 -0.5661  0.7617
  596MPD2    C4 8834   0.057   3.421  16.455  0.0894  0.8373  0.0345
  596MPD2    C5 8835   0.022   3.393  16.583 -0.4246  0.3326 -0.0616
  596MPD2     H 8836   4.662   3.749  16.456 -0.5634  0.5272 -0.4224
  596MPD2    H1 8837   0.108   3.352  16.389 -2.8710 -1.4453  0.1282
  596MPD2    H2 8838   4.707   3.471  16.769 -0.2029 -0.0663 -0.3064
  596MPD2    H3 8839   0.031   3.294  16.626 -0.9482  0.5040  0.4434
  596MPD2     N 8840   0.050   3.560  16.255 -0.2104 -0.9057  0.1967
  596MPD2    H5 8841   0.078   3.479  16.202  2.3801 -0.2642  0.5724
  596MPD2    N1 8842   4.631   3.722  16.701  0.1543 -0.3418  0.4575
  596MPD2    H7 8843   4.590   3.805  16.659 -0.3227 -0.6470  0.3123
  597TMC3    C1 8844   4.537   3.836  16.879  0.6332  0.3505 -0.4007
  597TMC3    C2 8845   4.575   3.956  16.836 -0.5648 -0.1217 -0.0905
  597TMC3    C3 8846   4.514   4.065  16.893  0.7284 -0.5937  0.0784
  597TMC3    C4 8847   4.429   3.818  16.965  0.7401 -0.1236 -0.4639
  597TMC3    C5 8848   4.367   3.931  17.011 -0.5938  0.2023  0.3160
  597TMC3    C6 8849   4.411   4.057  16.982  0.4968  0.0261  0.9468
  597TMC3     C 8850   4.608   3.714  16.836  0.1997 -0.1633  0.5096
  597TMC3     O 8851   4.602   3.616  16.909 -0.2873  0.0505 -0.0580
  597TMC3     H 8852   4.670   3.957  16.784 -0.4318 -0.6681  0.1420
  597TMC3    H1 8853   4.390   3.720  16.991 -0.6028 -0.0151 -2.0580
  597TMC3    H2 8854   4.368   4.148  17.021  1.1774  0.3372  0.9847
  597TMC3    C7 8855   4.253   3.907  17.094 -0.1207  0.1564  0.2080
  597TMC3    C8 8856   4.576   4.195  16.884  0.3756  0.4944 -0.4564
  597TMC3    O1 8857   4.262   3.813  17.169 -0.7311  0.7012 -0.0692
  597TMC3    O2 8858   4.537   4.280  16.963  0.5847 -0.5780  0.1926
  598TMC3    C1 8859   2.896   0.437  14.973 -0.0026  0.0837 -0.6074
  598TMC3    C2 8860   2.789   0.351  14.978  0.0429 -0.2296  0.2090
  598TMC3    C3 8861   2.686   0.381  14.892 -0.3009  0.3865 -0.4747
  598TMC3    C4 8862   2.889   0.548  14.899 -0.5549  0.0940  1.0384
  598TMC3    C5 8863   2.791   0.567  14.807  0.1835 -0.8563 -0.4881
  598TMC3    C6 8864   2.689   0.483  14.800 -0.1431  0.0318 -0.2822
  598TMC3     C 8865   2.999   0.419  15.073 -0.0606 -0.2197  0.0529
  598TMC3     O 8866   2.993   0.316  15.142  0.4239 -0.1826  0.0670
  598TMC3     H 8867   2.781   0.285  15.063 -1.2754 -0.6013 -0.1955
  598TMC3    H1 8868   2.962   0.628  14.909 -0.9595  0.5412  0.3924
  598TMC3    H2 8869   2.612   0.503  14.726 -0.1932  0.8225 -0.0149
  598TMC3    C7 8870   2.802   0.654  14.689 -0.6154  0.6804  0.2392
  598TMC3    C8 8871   2.557   0.306  14.915  0.5772  0.2818  0.1520
  598TMC3    O1 8872   2.717   0.655  14.601 -0.2527  0.1324 -0.1652
  598TMC3    O2 8873   2.568   0.210  14.990 -0.3645 -0.3507  0.0695
  599MPD2     C 8874   3.012   2.771  15.814  0.2974  0.1789  0.5294
  599MPD2    C1 8875   2.942   2.665  15.766 -0.1517 -0.5609  0.2903
  599MPD2    C2 8876   2.804   2.657  15.776 -0.9494  0.4763  0.5329
  599MPD2    C3 8877   2.733   2.752  15.851 -0.4124 -0.2218 -0.1555
  599MPD2    C4 8878   2.808   2.849  15.913  0.0022 -0.1080  0.0302
  599MPD2    C5 8879   2.941   2.863  15.888 -0.0512  0.0535  0.1055
  599MPD2     H 8880   2.750   2.572  15.734  0.1838 -0.2782  0.6149
  599MPD2    H1 8881   2.767   2.915  15.989  2.2352  2.0106 -0.6005
  599MPD2    H2 8882   3.117   2.791  15.799  0.4275 -0.5003  0.5113
  599MPD2    H3 8883   2.999   2.926  15.953 -1.1880  1.8960 -0.6537
  599MPD2     N 8884   2.595   2.748  15.877 -0.3431  0.3724 -0.6143
  599MPD2    H5 8885   2.562   2.825  15.934  1.2762  0.0338  0.7463
  599MPD2    N1 8886   3.017   2.560  15.715  0.3302 -0.3497 -0.5127
  599MPD2    H7 8887   3.116   2.582  15.722  0.5639 -2.3132  2.3638
  600TMC3    C1 8888   2.392   2.650  15.941  0.4784  0.2228  0.0986
  600TMC3    C2 8889   2.381   2.533  16.009 -0.1038  0.6407  0.1522
  600TMC3    C3 8890   2.333   2.550  16.139 -0.1302 -0.5265 -0.0530
  600TMC3    C4 8891   2.357   2.774  15.983 -0.5994 -0.6341  0.3499
  600TMC3    C5 8892   2.304   2.783  16.107 -0.2390 -0.1384 -0.2074
  600TMC3    C6 8893   2.289   2.673  16.190 -0.6258 -0.0629  0.2850
  600TMC3     C 8894   2.501   2.649  15.847 -0.1626  0.4098  0.8126
  600TMC3     O 8895   2.524   2.544  15.786 -0.1562 -0.5852 -0.0650
  600TMC3     H 8896   2.423   2.438  15.978 -3.2761 -0.5084 -0.5424
  600TMC3    H1 8897   2.368   2.867  15.927  0.3080 -1.1952 -0.3946
  600TMC3    H2 8898   2.273   2.700  16.294  0.1911  3.9768 -0.6489
  600TMC3    C7 8899   2.268   2.912  16.166 -0.0675  0.4327  0.6074
  600TMC3    C8 8900   2.335   2.442  16.233 -0.2890  0.3075  0.3342
  600TMC3    O1 8901   2.199   2.911  16.265  0.1353 -0.3383 -0.7583
  600TMC3    O2 8902   2.388   2.460  16.341 -0.2533  0.2280  0.8665
  601MPD2     C 8903   3.679   0.361   0.269  0.4448 -0.2023 -0.1127
  601MPD2    C1 8904   3.772   0.307   0.181 -0.1801 -0.2868 -0.8409
  601MPD2    C2 8905   3.819   0.182   0.222  0.4730 -0.3411 -0.8825
  601MPD2    C3 8906   3.787   0.119   0.340 -0.0499  0.1641 -0.0622
  601MPD2    C4 8907   3.694   0.179   0.418 -0.8493 -0.2194  0.8688
  601MPD2    C5 8908   3.639   0.296   0.382 -0.7332  0.1344 -0.6452
  601MPD2     H 8909   3.889   0.134   0.155  0.7076 -0.4388 -0.5731
  601MPD2    H1 8910   3.658   0.129   0.507  1.4352 -0.6896  1.5322
  601MPD2    H2 8911   3.628   0.452   0.242 -0.0472 -0.5402 -0.3216
  601MPD2    H3 8912   3.566   0.350   0.441  0.0014 -0.5496  0.8815
  601MPD2     N 8913   3.832   4.709   0.384  0.4139  0.3961 -0.0456
  601MPD2    H5 8914   3.804   4.690   0.480 -1.3518  0.2724 -0.5981
  601MPD2    N1 8915   3.814   0.370   0.062 -0.4294  0.3031  0.1114
  601MPD2    H7 8916   3.880   0.319   0.005  1.3079  0.9337  1.5447
  602TMC3    C1 8917   3.806   0.520  17.572  0.5039  0.2087 -0.2738
  602TMC3    C2 8918   3.944   0.519  17.535 -1.2422 -0.4899  0.3411
  602TMC3    C3 8919   3.970   0.584  17.414 -0.2958  0.3897  0.3711
  602TMC3    C4 8920   3.713   0.585  17.491 -0.1431  0.3286 -0.4400
  602TMC3    C5 8921   3.750   0.640  17.378  0.0277 -0.5408  0.0169
  602TMC3    C6 8922   3.883   0.643  17.334 -0.2946  0.4461 -0.2596
  602TMC3     C 8923   3.765   0.487   0.013 -0.8201  0.8022  0.9524
  602TMC3     O 8924   3.680   0.566   0.054  0.1464 -0.0378  0.3341
  602TMC3     H 8925   4.016   0.470  17.599 -1.2287 -1.7360 -0.6417
  602TMC3    H1 8926   3.610   0.582  17.526 -0.7284  1.0326 -2.0837
  602TMC3    H2 8927   3.903   0.654  17.228  0.9976  0.6202 -0.0089
  602TMC3    C7 8928   3.656   0.745  17.334  0.9562  0.3935  0.5129
  602TMC3    C8 8929   4.104   0.629  17.400 -0.6216 -0.0658 -0.0388
  602TMC3    O1 8930   3.538   0.739  17.358  0.2014  0.5957  0.2882
  602TMC3    O2 8931   4.183   0.608  17.493  0.0715 -0.1007  0.3964
  603TMC3    C1 8932   3.449   1.199  10.637  0.4899 -0.5800 -0.5311
  603TMC3    C2 8933   3.405   1.227  10.762  0.4348 -0.1071  0.3438
  603TMC3    C3 8934   3.317   1.334  10.779 -0.4260 -0.1835 -0.2793
  603TMC3    C4 8935   3.427   1.283  10.532 -0.0120  0.0830 -0.7008
  603TMC3    C5 8936   3.357   1.399  10.561 -0.8036 -0.5464  0.3167
  603TMC3    C6 8937   3.293   1.429  10.684 -0.9745 -0.3697  0.1382
  603TMC3     C 8938   3.530   1.078  10.620  0.2903 -0.2163  0.0212
  603TMC3     O 8939   3.597   1.049  10.723 -0.0083  0.5795 -0.0013
  603TMC3     H 8940   3.428   1.161  10.845  2.5831 -1.8332 -1.6339
  603TMC3    H1 8941   3.481   1.279  10.438  1.4047 -1.3834  0.1734
  603TMC3    H2 8942   3.217   1.506  10.685 -1.4138 -0.7653 -2.3895
  603TMC3    C7 8943   3.326   1.470  10.433 -0.8371  0.1086  0.1282
  603TMC3    C8 8944   3.289   1.354  10.918 -0.0107 -0.6537  0.4100
  603TMC3    O1 8945   3.313   1.409  10.331  0.2450  0.6175  0.4654
  603TMC3    O2 8946   3.303   1.261  10.995 -0.1865  0.0634 -0.1394
  604MPD2     C 8947   3.490   4.095  16.316  0.0823  0.0008 -0.1226
  604MPD2    C1 8948   3.438   4.184  16.227 -0.3975  0.3150  0.4614
  604MPD2    C2 8949   3.489   4.194  16.100 -0.5068  0.6487  0.1557
  604MPD2    C3 8950   3.600   4.112  16.062 -0.6318 -0.6767 -1.0204
  604MPD2    C4 8951   3.640   4.018  16.146  0.1340 -0.2826 -0.1644
  604MPD2    C5 8952   3.585   4.011  16.276  0.8267  0.1919 -0.0477
  604MPD2     H 8953   3.450   4.269  16.033 -0.1898 -0.4209 -1.2358
  604MPD2    H1 8954   3.712   3.940  16.121 -0.2205 -0.5129 -0.4595
  604MPD2    H2 8955   3.450   4.084  16.416  0.4235 -1.4587 -0.1339
  604MPD2    H3 8956   3.618   3.932  16.342  0.0466 -0.5695 -0.5851
  604MPD2     N 8957   3.658   4.128  15.928 -0.7082  0.8410 -0.9322
  604MPD2    H5 8958   3.616   4.186  15.857 -2.9859  1.0433  0.5826
  604MPD2    N1 8959   3.322   4.256  16.274  0.0152 -0.3803 -0.4741
  604MPD2    H7 8960   3.307   4.262  16.374 -2.0517 -0.1936 -0.7900
  605TMC3    C1 8961   3.200   4.456  16.254  0.0449 -0.7767 -0.4727
  605TMC3    C2 8962   3.271   4.493  16.374 -0.3197  0.5689 -0.1657
  605TMC3    C3 8963   3.257   4.622  16.423  0.3716 -0.6388  0.1616
  605TMC3    C4 8964   3.124   4.548  16.183 -0.0192  0.1071 -0.1096
  605TMC3    C5 8965   3.121   4.672  16.244  0.9250 -0.7081 -0.2217
  605TMC3    C6 8966   3.188   4.716  16.354 -0.0359 -0.4104 -0.7228
  605TMC3     C 8967   3.248   4.339  16.189 -0.1900  0.7654 -0.0060
  605TMC3     O 8968   3.229   4.327  16.072 -0.4506  0.5870  0.5712
  605TMC3     H 8969   3.342   4.430  16.426  1.1006  2.4257  0.1440
  605TMC3    H1 8970   3.058   4.529  16.098 -1.7834  2.7796  0.6569
  605TMC3    H2 8971   3.181   0.095  16.389  0.0546 -0.0409 -1.7797
  605TMC3    C7 8972   3.044   0.046  16.170  0.5789  0.4714 -0.4388
  605TMC3    C8 8973   3.388   4.664  16.473 -0.8938 -0.9449 -0.0711
  605TMC3    O1 8974   2.988   0.137  16.231 -0.2519 -0.3390 -0.1348
  605TMC3    O2 8975   3.462   4.717  16.392 -0.0947 -0.5075  0.6825
  606TMC3    C1 8976   0.000   2.695  16.575 -0.3584  0.2208 -0.0471
  606TMC3    C2 8977   0.029   2.680  16.707 -0.3813  0.5086 -0.6620
  606TMC3    C3 8978   4.645   2.661  16.791  0.1219 -0.0089  0.1559
  606TMC3    C4 8979   4.594   2.694  16.523  0.0131 -0.8290 -0.6241
  606TMC3    C5 8980   4.490   2.664  16.605  0.1625  0.3891 -0.9165
  606TMC3    C6 8981   4.520   2.666  16.736  0.0172 -0.8963 -0.0989
  606TMC3     C 8982   0.109   2.721  16.482 -0.8314 -0.5159 -1.3068
  606TMC3     O 8983   0.222   2.694  16.524 -0.4248 -0.0669  0.0739
  606TMC3     H 8984   0.129   2.708  16.740 -0.1807 -0.0451 -0.8070
  606TMC3    H1 8985   4.576   2.695  16.416  2.1084  0.8714 -0.9603
  606TMC3    H2 8986   4.436   2.662  16.804 -0.3939 -3.9914 -0.7789
  606TMC3    C7 8987   4.416   2.548  16.558 -0.1344  0.2460  0.2368
  606TMC3    C8 8988   4.669   2.676  16.931 -0.3224 -0.0167 -0.1929
  606TMC3    O1 8989   4.409   2.537  16.433 -0.1577  0.7276 -0.4538
  606TMC3    O2 8990   0.067   2.674  16.961  0.2769  0.2953 -0.1692
  607MPD2     C 8991   2.252   1.299  11.310  0.3258  0.2800 -0.1380
  607MPD2    C1 8992   2.241   1.405  11.400  0.0407  0.3969  0.0233
  607MPD2    C2 8993   2.140   1.399  11.494  0.5683 -0.2067  0.6138
  607MPD2    C3 8994   2.061   1.284  11.510  0.5385  0.3249 -0.0470
  607MPD2    C4 8995   2.076   1.178  11.421  0.0195 -0.8682  0.3880
  607MPD2    C5 8996   2.165   1.191  11.318 -0.8445 -0.1403 -0.4869
  607MPD2     H 8997   2.137   1.470  11.575  1.5505 -0.6715  1.0520
  607MPD2    H1 8998   2.013   1.091  11.410  0.7586 -1.1947 -1.3136
  607MPD2    H2 8999   2.321   1.301  11.227  0.5813  0.4257  0.0799
  607MPD2    H3 9000   2.178   1.112  11.245  2.5917 -0.8353  0.8869
  607MPD2     N 9001   1.969   1.278  11.615  0.7788 -0.0162  0.5549
  607MPD2    H5 9002   1.967   1.367  11.663  1.9506  0.1434  0.2977
  607MPD2    N1 9003   2.323   1.519  11.408  0.1210 -0.6820 -0.3986
  607MPD2    H7 9004   2.304   1.573  11.492  0.5086  1.1679 -1.5026
  608TMC3    C1 9005   2.490   1.672  11.385  0.6379  0.8768  0.1114
  608TMC3    C2 9006   2.418   1.750  11.466  0.0723  0.3308  0.1304
  608TMC3    C3 9007   2.483   1.850  11.532 -0.0661  0.3941  0.4340
  608TMC3    C4 9008   2.623   1.682  11.372  0.0165 -0.6892 -0.0989
  608TMC3    C5 9009   2.686   1.789  11.436  0.6554 -0.4567 -0.7959
  608TMC3    C6 9010   2.617   1.871  11.525  0.0002 -0.0854 -0.9165
  608TMC3     C 9011   2.429   1.550  11.325  0.8317  0.7750  0.5067
  608TMC3     O 9012   2.499   1.484  11.244  0.3563  0.0561 -0.0642
  608TMC3     H 9013   2.314   1.763  11.439 -0.0085  0.3068  0.4324
  608TMC3    H1 9014   2.677   1.625  11.296 -1.0347  0.8223 -1.9875
  608TMC3    H2 9015   2.665   1.950  11.582 -0.7311 -0.0839 -0.3020
  608TMC3    C7 9016   2.797   1.839  11.352 -0.0043 -0.1605 -0.0967
  608TMC3    C8 9017   2.415   1.902  11.649  0.0351  0.1042 -0.2507
  608TMC3    O1 9018   2.786   1.808  11.236  0.0592 -0.1378  0.3210
  608TMC3    O2 9019   2.475   1.980  11.715  0.4480 -0.8030 -0.6561
  609TMC3    C1 9020   1.175   3.991   8.642  1.1156  0.5115 -0.1214
  609TMC3    C2 9021   1.177   3.856   8.656 -0.6514  0.1225 -0.1221
  609TMC3    C3 9022   1.289   3.791   8.626 -0.3445  0.1673 -0.7388
  609TMC3    C4 9023   1.288   4.064   8.610  0.1228 -0.8741 -0.3999
  609TMC3    C5 9024   1.404   3.997   8.595  0.0391  0.2542  0.5034
  609TMC3    C6 9025   1.407   3.857   8.607 -0.6743  0.1009  0.6871
  609TMC3     C 9026   1.055   4.042   8.703  0.4586 -0.1856 -0.5913
  609TMC3     O 9027   0.956   3.974   8.684 -0.2078 -0.5380 -0.2360
  609TMC3     H 9028   1.089   3.797   8.682 -0.3502 -0.6593 -0.8638
  609TMC3    H1 9029   1.285   4.172   8.603 -0.3915 -0.8923 -0.4142
  609TMC3    H2 9030   1.504   3.808   8.612  1.0828  3.7582  3.1466
  609TMC3    C7 9031   1.529   4.072   8.593  0.3797  0.3619  0.0872
  609TMC3    C8 9032   1.289   3.645   8.625 -0.0493 -0.3500 -0.2050
  609TMC3    O1 9033   1.514   4.187   8.628 -0.6709  0.0368 -0.1019
  609TMC3    O2 9034   1.201   3.586   8.686 -0.0805  0.5071  0.0979
  610TMC3    C1 9035   2.422   1.399  12.567 -0.1266  0.7160 -0.8454
  610TMC3    C2 9036   2.479   1.468  12.464  0.1466  0.6567  0.4077
  610TMC3    C3 9037   2.605   1.519  12.470  0.1434 -0.0188  0.1615
  610TMC3    C4 9038   2.494   1.373  12.682 -0.1389  0.5619 -0.3781
  610TMC3    C5 9039   2.618   1.433  12.693  0.4354 -0.5162  0.8352
  610TMC3    C6 9040   2.675   1.505  12.588  0.0004 -0.3112 -0.7567
  610TMC3     C 9041   2.284   1.356  12.558  0.5287 -0.3524 -0.6463
  610TMC3     O 9042   2.229   1.386  12.457  0.2182 -0.0902  0.1828
  610TMC3     H 9043   2.426   1.481  12.371  1.0118 -1.1730 -0.3412
  610TMC3    H1 9044   2.449   1.313  12.761  1.0673  1.4152  0.9570
  610TMC3    H2 9045   2.775   1.548  12.588 -0.7017  1.3349 -2.4054
  610TMC3    C7 9046   2.690   1.431  12.819  0.1223  0.4540 -0.2664
  610TMC3    C8 9047   2.674   1.561  12.351 -0.3341  0.7753 -0.4836
  610TMC3    O1 9048   2.810   1.447  12.814  0.1306 -0.6155  0.4731
  610TMC3    O2 9049   2.798   1.546  12.355  0.2868  0.0785 -0.3876
  611MPD2     C 9050   2.187   1.638   9.705 -0.3274 -0.7240 -0.2232
  611MPD2    C1 9051   2.251   1.586   9.815  0.4206 -0.2695  0.1781
  611MPD2    C2 9052   2.385   1.605   9.835 -0.3186 -0.3361  0.2044
  611MPD2    C3 9053   2.452   1.677   9.738  0.0125 -0.0156 -0.7787
  611MPD2    C4 9054   2.379   1.738   9.638 -0.1329  0.5687  0.0474
  611MPD2    C5 9055   2.251   1.720   9.627  0.7805 -0.4570 -0.3250
  611MPD2     H 9056   2.440   1.567   9.920 -0.6718 -2.0760 -0.3449
  611MPD2    H1 9057   2.436   1.783   9.558  1.4242 -0.9010  0.3309
  611MPD2    H2 9058   2.082   1.621   9.683 -0.0422 -0.4540 -1.7450
  611MPD2    H3 9059   2.197   1.770   9.547  1.3858  0.2240 -0.3055
  611MPD2     N 9060   2.590   1.696   9.740  0.0629  0.6754  0.2565
  611MPD2    H5 9061   2.619   1.773   9.680  0.2434 -1.9039 -2.9895
  611MPD2    N1 9062   2.178   1.504   9.901  0.5461 -0.0126 -0.3291
  611MPD2    H7 9063   2.078   1.497   9.885  0.2622  1.9713  0.5345
  612TMC3    C1 9064   2.814   1.672   9.764 -0.1465 -0.1973  0.2155
  612TMC3    C2 9065   2.901   1.689   9.866  1.1109  0.2486 -0.2102
  612TMC3    C3 9066   3.012   1.758   9.838  0.0295 -0.2702 -0.1381
  612TMC3    C4 9067   2.829   1.717   9.641  1.0505  0.5464 -0.0119
  612TMC3    C5 9068   2.936   1.796   9.616 -1.0219 -0.3568 -0.0805
  612TMC3    C6 9069   3.037   1.803   9.708 -0.4614  0.4105  0.0584
  612TMC3     C 9070   2.689   1.627   9.807  1.0325 -0.2658  0.3266
  612TMC3     O 9071   2.681   1.538   9.895 -0.1957 -0.5415 -0.0772
  612TMC3     H 9072   2.885   1.655   9.967 -0.8806  3.2908  0.5166
  612TMC3    H1 9073   2.754   1.693   9.566 -1.9911  1.6099  2.6474
  612TMC3    H2 9074   3.118   1.872   9.687  0.2750 -0.6024 -0.4736
  612TMC3    C7 9075   2.949   1.831   9.472  0.3139 -0.3509 -0.3239
  612TMC3    C8 9076   3.087   1.826   9.940  0.4135  0.4923  0.3190
  612TMC3    O1 9077   2.853   1.795   9.406  0.3572 -0.0506 -0.8762
  612TMC3    O2 9078   3.127   1.940   9.910 -0.1639 -0.2059  0.3622
  613MPD2     C 9079   1.471   3.230  16.246 -0.1155 -0.1472  0.3304
  613MPD2    C1 9080   1.396   3.347  16.205 -0.4316 -0.0723 -0.6244
  613MPD2    C2 9081   1.289   3.327  16.124 -0.0317  0.1764  0.6515
  613MPD2    C3 9082   1.254   3.200  16.078  0.3202 -0.1845  0.6475
  613MPD2    C4 9083   1.326   3.090  16.124 -0.2570  0.3459 -0.3410
  613MPD2    C5 9084   1.427   3.108  16.207  0.5935 -1.1440  0.2255
  613MPD2     H 9085   1.244   3.412  16.075 -2.7189 -1.2796  0.5690
  613MPD2    H1 9086   1.312   2.990  16.084 -1.2161 -0.3785  1.7772
  613MPD2    H2 9087   1.567   3.237  16.296 -0.2676 -1.4976  0.8018
  613MPD2    H3 9088   1.487   3.026  16.244  0.1500 -1.6049 -0.0740
  613MPD2     N 9089   1.157   3.178  15.981 -0.7195 -0.2500 -0.0237
  613MPD2    H5 9090   1.169   3.084  15.943  1.4573  0.2015 -0.4379
  613MPD2    N1 9091   1.455   3.471  16.240  0.3367 -0.0431  0.0474
  613MPD2    H7 9092   1.523   3.463  16.315 -1.7968 -1.0751  1.8668
  614TMC3    C1 9093   1.381   3.610  16.060 -0.4920  0.1759 -0.0222
  614TMC3    C2 9094   1.460   3.538  15.973  0.2801 -1.4528  0.6341
  614TMC3    C3 9095   1.456   3.576  15.839  1.1887  0.7146  0.1689
  614TMC3    C4 9096   1.304   3.714  16.015 -0.3179 -0.0240  0.2336
  614TMC3    C5 9097   1.297   3.740  15.883  1.0597  0.2424 -0.5707
  614TMC3    C6 9098   1.383   3.679  15.796 -1.0809 -0.2653  0.0146
  614TMC3     C 9099   1.409   3.594  16.200 -0.2723 -0.6377  0.3963
  614TMC3     O 9100   1.428   3.701  16.259 -0.1084  0.0163 -0.6217
  614TMC3     H 9101   1.522   3.451  15.991 -1.2256 -2.3583  1.4255
  614TMC3    H1 9102   1.231   3.759  16.082  0.1677 -1.3873  1.6649
  614TMC3    H2 9103   1.384   3.708  15.691 -1.1861 -0.9240 -0.1674
  614TMC3    C7 9104   1.214   3.853  15.836  1.2340 -0.7061  0.0021
  614TMC3    C8 9105   1.437   3.464  15.752 -0.2784  0.0250  0.5599
  614TMC3    O1 9106   1.168   3.926  15.920  0.0569 -0.3870 -0.2590
  614TMC3    O2 9107   1.389   3.362  15.801  0.0301 -0.2094 -0.0862
  615MPD2     C 9108   0.319   0.109  16.417  0.5587 -0.0479 -0.3921
  615MPD2    C1 9109   0.422   0.144  16.327  0.0112  0.7149  0.0323
  615MPD2    C2 9110   0.411   0.122  16.193 -0.1534 -0.5420 -0.5209
  615MPD2    C3 9111   0.303   0.052  16.144 -0.0924 -0.3125  0.0371
  615MPD2    C4 9112   0.210   0.004  16.231  0.0094 -0.0875 -0.1106
  615MPD2    C5 9113   0.219   0.028  16.370  0.0839  0.5730  0.5121
  615MPD2     H 9114   0.495   0.154  16.133 -0.8110 -0.3064 -1.3228
  615MPD2    H1 9115   0.131   4.661  16.199 -1.7232  3.0583 -2.1747
  615MPD2    H2 9116   0.330   0.137  16.521  2.2633  0.6167 -0.7413
  615MPD2    H3 9117   0.147   4.709  16.439 -0.3296  3.2043  1.6590
  615MPD2     N 9118   0.279   0.031  16.007 -0.2281  0.0764  0.4891
  615MPD2    H5 9119   0.189   4.713  15.985 -0.2425 -0.2854  1.2307
  615MPD2    N1 9120   0.533   0.224  16.363  0.3249 -0.0200  0.6466
  615MPD2    H7 9121   0.599   0.252  16.291  0.2258  0.1157  0.6065
  616TMC3    C1 9122   0.703   0.304  16.506 -0.5484  0.6769  0.0165
  616TMC3    C2 9123   0.774   0.361  16.402 -0.3217 -0.0772  0.5194
  616TMC3    C3 9124   0.896   0.403  16.430  0.6334 -0.7868 -0.0994
  616TMC3    C4 9125   0.756   0.277  16.630 -0.1898 -0.0161  0.3266
  616TMC3    C5 9126   0.886   0.311  16.643 -0.0998  0.0378  0.6881
  616TMC3    C6 9127   0.962   0.372  16.549 -0.2952  0.4927 -0.0329
  616TMC3     C 9128   0.562   0.253  16.494  0.3578 -0.4053  0.5490
  616TMC3     O 9129   0.497   0.236  16.595 -0.4888 -0.1692 -0.1695
  616TMC3     H 9130   0.724   0.383  16.309  0.0323  2.6128  0.9715
  616TMC3    H1 9131   0.699   0.225  16.706  0.2333 -0.4872  0.3210
  616TMC3    H2 9132   1.047   0.429  16.584 -1.0059  1.5145  0.0029
  616TMC3    C7 9133   0.951   0.283  16.773  0.9029 -0.5090 -0.0438
  616TMC3    C8 9134   0.949   0.507  16.342 -0.2849  0.2379 -0.3365
  616TMC3    O1 9135   1.071   0.253  16.774 -0.3693 -0.2170 -0.4916
  616TMC3    O2 9136   0.870   0.579  16.280 -0.4874  0.0442  0.0193
  617MPD2     C 9137   3.114   3.417  13.350  0.0318 -0.3509  0.0578
  617MPD2    C1 9138   3.090   3.470  13.472 -0.6244 -0.6412  0.2687
  617MPD2    C2 9139   2.982   3.411  13.542 -0.0404  0.0453 -0.5186
  617MPD2    C3 9140   2.916   3.299  13.490  0.4623  0.6143  0.0426
  617MPD2    C4 9141   2.959   3.243  13.376 -0.0951  0.5055 -0.0001
  617MPD2    C5 9142   3.056   3.301  13.304 -0.4435  0.3337  0.8147
  617MPD2     H 9143   2.935   3.459  13.627 -1.2370 -0.4450 -0.8994
  617MPD2    H1 9144   2.904   3.161  13.333  0.0892  0.4391 -0.1063
  617MPD2    H2 9145   3.188   3.462  13.284  0.0547 -0.5836 -0.0736
  617MPD2    H3 9146   3.075   3.271  13.202 -1.0821  2.1276  0.1813
  617MPD2     N 9147   2.810   3.245  13.559 -0.4488 -0.1798 -0.1057
  617MPD2    H5 9148   2.789   3.287  13.649  0.0965  0.2036 -0.1537
  617MPD2    N1 9149   3.165   3.576  13.514 -0.0794 -0.0371 -0.0875
  617MPD2    H7 9150   3.212   3.615  13.433  0.6251 -1.3653 -0.3205
  618TMC3    C1 9151   3.248   3.763  13.624  0.4438  0.0528  0.3155
  618TMC3    C2 9152   3.370   3.773  13.685 -0.9117  0.6332  0.0130
  618TMC3    C3 9153   3.474   3.825  13.615 -0.4441 -0.6060 -0.2157
  618TMC3    C4 9154   3.224   3.820  13.499 -0.0051  0.0891 -0.8060
  618TMC3    C5 9155   3.328   3.868  13.438 -0.0392 -0.6438 -1.0192
  618TMC3    C6 9156   3.452   3.880  13.493 -0.5307 -0.0636 -0.3543
  618TMC3     C 9157   3.178   3.631  13.637  0.0565  0.9006 -0.0843
  618TMC3     O 9158   3.166   3.577  13.746  0.3406  0.0485  0.3972
  618TMC3     H 9159   3.380   3.714  13.775 -0.0637 -0.3415 -0.7093
  618TMC3    H1 9160   3.127   3.804  13.453 -0.4430  0.4972 -0.0041
  618TMC3    H2 9161   3.531   3.934  13.442  0.1371 -0.2502  0.4960
  618TMC3    C7 9162   3.344   3.811  13.303  0.6284 -0.0545  0.5388
  618TMC3    C8 9163   3.601   3.773  13.653 -0.2539 -0.9015  0.0651
  618TMC3    O1 9164   3.272   3.713  13.278  0.2203  0.1250 -0.7503
  618TMC3    O2 9165   3.622   3.727  13.764  0.6806 -0.0292 -0.0699
  619MPD2     C 9166   0.383   0.453  13.515 -0.0881  0.2257  0.2194
  619MPD2    C1 9167   0.274   0.511  13.453 -0.3002  1.1163 -0.5120
  619MPD2    C2 9168   0.160   0.435  13.467  0.1231 -0.1382  0.3569
  619MPD2    C3 9169   0.160   0.318  13.542 -0.4002 -0.6521 -0.1653
  619MPD2    C4 9170   0.272   0.274  13.613  0.7303 -1.0902  0.2454
  619MPD2    C5 9171   0.382   0.347  13.598 -0.4797  0.6393 -0.4704
  619MPD2     H 9172   0.070   0.471  13.419  0.3666  0.7080  0.5362
  619MPD2    H1 9173   0.277   0.191  13.683 -1.7908 -0.3302  1.3472
  619MPD2    H2 9174   0.480   0.498  13.498  0.2491 -0.8383 -0.6780
  619MPD2    H3 9175   0.475   0.308  13.637 -0.5080  1.3012  0.2614
  619MPD2     N 9176   0.038   0.248  13.554 -0.0355  0.0725  0.3344
  619MPD2    H5 9177   4.692   0.304  13.505  0.8444  0.4499 -0.4717
  619MPD2    N1 9178   0.275   0.618  13.366 -0.1569 -0.7292  0.7325
  619MPD2    H7 9179   0.192   0.640  13.312  0.4613  1.4745  0.6952
  620TMC3    C1 9180   0.343   0.825  13.271  0.2431 -0.4830  0.2448
  620TMC3    C2 9181   0.228   0.809  13.198  0.1952  0.2711  0.5271
  620TMC3    C3 9182   0.145   0.915  13.177 -0.0314 -0.4732 -0.1674
  620TMC3    C4 9183   0.372   0.950  13.305 -0.2601 -0.9129  0.3177
  620TMC3    C5 9184   0.287   1.059  13.294  0.2306  0.6134  0.2263
  620TMC3    C6 9185   0.175   1.042  13.216  0.1979 -0.3053  0.0945
  620TMC3     C 9186   0.370   0.720  13.376  0.3418 -0.3715  0.4412
  620TMC3     O 9187   0.464   0.743  13.452 -0.7219  0.1025  0.3364
  620TMC3     H 9188   0.204   0.720  13.141  2.8006  0.2777 -0.5868
  620TMC3    H1 9189   0.457   0.952  13.372  0.6390 -1.0657 -0.8141
  620TMC3    H2 9190   0.114   1.131  13.206  0.5991 -0.1303 -0.7618
  620TMC3    C7 9191   0.258   1.115  13.426 -0.1492 -0.1098  0.2392
  620TMC3    C8 9192   0.007   0.878  13.203  0.6911  0.4717  0.5924
  620TMC3    O1 9193   0.209   1.229  13.418  0.4326  0.1640  0.6342
  620TMC3    O2 9194   4.712   0.782  13.278  1.0061  0.3172 -0.0005
  621MPD2     C 9195   1.521   4.595   9.308 -0.3859  0.5860  0.4909
  621MPD2    C1 9196   1.518   4.594   9.444  0.7668 -0.0881 -0.3943
  621MPD2    C2 9197   1.600   4.679   9.509  0.4874  1.0285 -0.6434
  621MPD2    C3 9198   1.659   0.063   9.453  0.1041  0.0550 -0.0143
  621MPD2    C4 9199   1.654   0.077   9.311 -0.5719 -0.5968  0.1510
  621MPD2    C5 9200   1.584   4.700   9.243 -0.2850 -0.2842 -1.1275
  621MPD2     H 9201   1.608   4.676   9.617  1.7646 -0.2778 -0.7754
  621MPD2    H1 9202   1.710   0.152   9.256  1.9899 -2.1216  0.7060
  621MPD2    H2 9203   1.472   4.521   9.246  0.7500 -0.0435  0.3455
  621MPD2    H3 9204   1.595   4.690   9.135 -1.2650  2.3930 -1.4720
  621MPD2     N 9205   1.724   0.147   9.543 -0.5916 -0.4448 -0.8230
  621MPD2    H5 9206   1.726   0.129   9.643  0.5587 -0.8933 -0.9284
  621MPD2    N1 9207   1.443   4.495   9.506  0.8251 -0.2486  0.0331
  621MPD2    H7 9208   1.397   4.431   9.442 -0.3229  0.5937  0.0064
  622TMC3    C1 9209   1.374   4.359   9.689 -0.2901  0.0705  0.3024
  622TMC3    C2 9210   1.322   4.371   9.811  0.1241  0.2207  0.2872
  622TMC3    C3 9211   1.315   4.258   9.886  0.4183 -0.0180  0.1593
  622TMC3    C4 9212   1.413   4.238   9.638  0.0131  0.3026 -0.3302
  622TMC3    C5 9213   1.396   4.131   9.715  0.0527 -0.3414  0.1254
  622TMC3    C6 9214   1.329   4.126   9.835 -0.0799  0.4193 -0.4131
  622TMC3     C 9215   1.437   4.477   9.643  0.9238  0.2135  0.0719
  622TMC3     O 9216   1.485   4.538   9.740 -0.1776  0.2338 -0.0823
  622TMC3     H 9217   1.303   4.469   9.854 -0.3090 -0.7729  2.3373
  622TMC3    H1 9218   1.473   4.232   9.548 -0.3273  0.6218 -0.5812
  622TMC3    H2 9219   1.314   4.036   9.892  1.6473  1.2847  1.4024
  622TMC3    C7 9220   1.452   4.008   9.657 -0.6897  0.1183  0.5019
  622TMC3    C8 9221   1.276   4.276  10.028  0.2909  0.6287  0.8769
  622TMC3    O1 9222   1.547   4.005   9.579 -0.2458  0.2607  0.3977
  622TMC3    O2 9223   1.355   4.239  10.112 -0.2913 -0.0040 -0.6282
  623MPD2     C 9224   3.804   0.465  15.921  0.0252  0.0491 -0.5371
  623MPD2    C1 9225   3.749   0.368  16.008 -0.6705  0.4558 -0.1436
  623MPD2    C2 9226   3.833   0.307  16.094 -0.0595 -0.4459 -0.0547
  623MPD2    C3 9227   3.966   0.325  16.094 -0.0078  0.1496 -0.0590
  623MPD2    C4 9228   4.017   0.425  16.013 -0.0633  0.0369 -0.5227
  623MPD2    C5 9229   3.939   0.497  15.928 -0.4983  0.3430  0.2742
  623MPD2     H 9230   3.800   0.230  16.162 -2.2540  0.3466 -0.2339
  623MPD2    H1 9231   4.120   0.453  16.030 -1.0113  0.2026  4.8225
  623MPD2    H2 9232   3.747   0.519  15.847 -0.5288  2.6645  1.8166
  623MPD2    H3 9233   3.981   0.569  15.859 -1.1958 -2.6243 -3.2219
  623MPD2     N 9234   4.052   0.250  16.182  0.1555  0.2228 -0.7158
  623MPD2    H5 9235   3.996   0.181  16.232 -0.7309  1.1947 -0.3455
  623MPD2    N1 9236   3.610   0.335  15.995  0.4088  0.0957 -0.0977
  623MPD2    H7 9237   3.548   0.400  15.947 -0.0060 -0.2972 -0.0955
  624TMC3    C1 9238   4.233   0.194  16.564  0.2595  0.4666 -0.2949
  624TMC3    C2 9239   4.137   0.095  16.580 -0.8530  0.6704 -0.4404
  624TMC3    C3 9240   4.074   0.041  16.473 -0.5320 -0.3291  0.1558
  624TMC3    C4 9241   4.280   0.228  16.442 -1.0890 -0.5018  0.1256
  624TMC3    C5 9242   4.210   0.179  16.338 -0.2637 -0.2094 -0.0065
  624TMC3    C6 9243   4.114   0.081  16.351 -0.7381  0.0732  0.0737
  624TMC3     C 9244   4.295   0.231  16.689  0.5149 -0.1187 -0.0377
  624TMC3     O 9245   4.263   0.178  16.796  0.3161 -0.0283 -0.0940
  624TMC3     H 9246   4.109   0.087  16.684 -2.0373  0.0371 -0.8001
  624TMC3    H1 9247   4.353   0.307  16.431 -2.6334  0.9812  0.4681
  624TMC3    H2 9248   4.060   0.035  16.269 -0.1369 -0.0756 -0.2411
  624TMC3    C7 9249   4.175   0.273  16.230  0.3710  0.4770 -0.2854
  624TMC3    C8 9250   3.937   4.716  16.487  0.1827 -0.3500 -0.5602
  624TMC3    O1 9251   4.230   0.380  16.225  0.0452 -1.2957 -0.0284
  624TMC3    O2 9252   3.857   4.712  16.395 -0.3517 -0.3218  0.0293
  625MPD2     C 9253   4.346   0.815   0.403 -0.1690 -0.0482 -0.2880
  625MPD2    C1 9254   4.399   0.942   0.404  0.0502 -0.0784 -0.1128
  625MPD2    C2 9255   4.535   0.958   0.440 -0.4696  0.3434 -0.4503
  625MPD2    C3 9256   4.613   0.846   0.471 -0.4345  0.3936  0.3762
  625MPD2    C4 9257   4.559   0.718   0.474  0.0053 -0.0196  0.0688
  625MPD2    C5 9258   4.430   0.713   0.442  0.3480  0.0138 -0.3075
  625MPD2     H 9259   4.573   1.059   0.444  1.0200 -0.1321 -3.2334
  625MPD2    H1 9260   4.610   0.625   0.495  1.3715  0.3341 -1.6944
  625MPD2    H2 9261   4.242   0.804   0.374  0.3179 -0.8619 -1.7214
  625MPD2    H3 9262   4.389   0.613   0.437  0.1107  0.0667  0.5785
  625MPD2     N 9263   0.018   0.881   0.488  0.3384 -0.5355 -0.0755
  625MPD2    H5 9264   0.044   0.979   0.480  0.7835 -0.3898  3.0965
  625MPD2    N1 9265   4.334   1.065   0.380  0.2085  0.0923 -0.3619
  625MPD2    H7 9266   4.384   1.153   0.392  2.8570 -1.3676 -0.5753
  626TMC3    C1 9267   4.167   1.204   0.311 -0.1958  0.3669  0.1939
  626TMC3    C2 9268   4.130   1.250   0.183 -0.8961 -0.2933  1.0103
  626TMC3    C3 9269   4.139   1.387   0.161 -0.0906  0.3029  0.3870
  626TMC3    C4 9270   4.212   1.282   0.412  0.4438 -0.6087  0.3582
  626TMC3    C5 9271   4.212   1.414   0.380 -0.1280 -0.2885 -0.6872
  626TMC3    C6 9272   4.201   1.463   0.258  0.1486 -0.2877 -0.5233
  626TMC3     C 9273   4.208   1.070   0.330  0.5228  0.2631 -0.3404
  626TMC3     O 9274   4.143   0.983   0.274 -0.6577 -0.7961 -0.0141
  626TMC3     H 9275   4.088   1.183   0.109 -0.2605 -1.4488  1.7050
  626TMC3    H1 9276   4.238   1.237   0.507 -0.5534  0.9856  1.3854
  626TMC3    H2 9277   4.205   1.569   0.236  2.1437  0.0183  1.2794
  626TMC3    C7 9278   4.214   1.500   0.494  0.4605  0.2249  0.2513
  626TMC3    C8 9279   4.071   1.445   0.048 -0.1203  0.6738 -0.4689
  626TMC3    O1 9280   4.243   1.619   0.476  0.0194  0.3773 -0.3047
  626TMC3    O2 9281   4.113   1.550  17.690 -0.2574 -0.1132  0.1470
  627MPD2     C 9282   2.534   2.037  14.140 -0.0518 -0.1592  0.4911
  627MPD2    C1 9283   2.588   2.000  14.255  0.8673  0.6197  0.1305
  627MPD2    C2 9284   2.569   1.865  14.296  0.0264  0.8231 -0.4093
  627MPD2    C3 9285   2.509   1.774  14.207  0.1581 -0.1027  0.3264
  627MPD2    C4 9286   2.456   1.811  14.089 -0.0987 -0.3006 -0.0829
  627MPD2    C5 9287   2.478   1.947  14.055 -0.0350  0.2871 -0.0816
  627MPD2     H 9288   2.593   1.830  14.396 -1.7655  1.0970  0.1362
  627MPD2    H1 9289   2.402   1.746  14.021 -0.3648 -0.3109  0.1376
  627MPD2    H2 9290   2.535   2.138  14.099 -3.5866 -1.0338 -1.7181
  627MPD2    H3 9291   2.435   1.981  13.962  0.7046 -0.1384 -0.5722
  627MPD2     N 9292   2.493   1.649  14.264  0.1534  0.6834 -0.2924
  627MPD2    H5 9293   2.500   1.641  14.365 -3.0476  0.6793 -0.0720
  627MPD2    N1 9294   2.673   2.089  14.325  0.0201 -0.5003  0.1214
  627MPD2    H7 9295   2.695   2.063  14.421 -1.7204 -0.9954  0.3906
  628TMC3    C1 9296   2.816   2.266  14.368 -0.1669 -0.2186  0.0408
  628TMC3    C2 9297   2.922   2.185  14.415 -0.5677  0.2224  0.1626
  628TMC3    C3 9298   3.027   2.249  14.463 -0.6626 -0.4627 -1.0030
  628TMC3    C4 9299   2.833   2.402  14.368  0.0654 -0.2678  0.1798
  628TMC3    C5 9300   2.948   2.453  14.422  0.5773 -0.1451 -0.1338
  628TMC3    C6 9301   3.039   2.379  14.496  0.5850 -0.9096 -0.6177
  628TMC3     C 9302   2.718   2.213  14.285 -1.1091 -0.0521  0.2114
  628TMC3     O 9303   2.701   2.269  14.177  0.4276 -0.4181  0.0794
  628TMC3     H 9304   2.919   2.078  14.401  0.2197 -0.0476  2.1596
  628TMC3    H1 9305   2.754   2.467  14.331 -0.4394  0.6450  2.8787
  628TMC3    H2 9306   3.132   2.422  14.529 -0.0753  1.0056 -1.2545
  628TMC3    C7 9307   2.970   2.594  14.412  0.1246 -0.0455 -0.0282
  628TMC3    C8 9308   3.140   2.194  14.395 -0.3085 -0.3195  0.8914
  628TMC3    O1 9309   3.072   2.632  14.459 -0.4747 -1.0363  0.2162
  628TMC3    O2 9310   3.119   2.126  14.296  0.3462 -0.2578  0.1129
  629MPD2     C 9311   1.307   0.832  16.237 -0.0946 -0.0196  0.2084
  629MPD2    C1 9312   1.372   0.716  16.285  0.8579 -0.5035 -0.0456
  629MPD2    C2 9313   1.300   0.600  16.304  0.1444  0.0931 -0.3619
  629MPD2    C3 9314   1.164   0.616  16.294  0.2954  0.2517  0.5585
  629MPD2    C4 9315   1.107   0.722  16.222  0.2560 -0.2106 -0.4611
  629MPD2    C5 9316   1.181   0.832  16.199  0.8163 -0.5920 -0.5981
  629MPD2     H 9317   1.336   0.508  16.350  0.9730  0.1970 -0.8155
  629MPD2    H1 9318   1.000   0.735  16.217  0.1597 -1.0360 -0.5909
  629MPD2    H2 9319   1.346   0.932  16.220  0.8632 -0.6190 -1.1099
  629MPD2    H3 9320   1.143   0.927  16.162 -1.1255 -1.2627 -0.3589
  629MPD2     N 9321   1.089   0.515  16.349 -0.0317 -0.4073 -0.1155
  629MPD2    H5 9322   1.135   0.437  16.396 -0.9734 -0.0883  1.3557
  629MPD2    N1 9323   1.508   0.727  16.313 -0.6315  0.4023  0.0479
  629MPD2    H7 9324   1.552   0.817  16.297  1.5620 -0.3964  1.4817
  630TMC3    C1 9325   1.731   0.661  16.370  0.0932  0.0941  0.2527
  630TMC3    C2 9326   1.771   0.753  16.272 -0.4589 -0.2357  0.4228
  630TMC3    C3 9327   1.909   0.787  16.295  0.0035  0.3202  0.4738
  630TMC3    C4 9328   1.803   0.588  16.461 -0.6957 -0.7398 -0.3808
  630TMC3    C5 9329   1.928   0.627  16.472 -0.0713 -0.1573  0.3377
  630TMC3    C6 9330   1.988   0.723  16.392 -0.3182  0.7272 -0.7798
  630TMC3     C 9331   1.587   0.624  16.369  0.5516 -0.5014 -0.0087
  630TMC3     O 9332   1.555   0.525  16.426  0.1883  0.1935 -0.2512
  630TMC3     H 9333   1.705   0.796  16.198  0.0259  0.1696  0.2187
  630TMC3    H1 9334   1.756   0.528  16.539  1.2987  0.8576  2.0588
  630TMC3    H2 9335   2.096   0.722  16.392 -0.3369 -1.4133 -0.9875
  630TMC3    C7 9336   2.010   0.563  16.581 -0.5646 -0.2748 -0.0896
  630TMC3    C8 9337   1.966   0.906  16.232  0.0332 -0.4383 -0.5898
  630TMC3    O1 9338   1.993   0.443  16.600 -0.1371  0.4253  0.3465
  630TMC3    O2 9339   2.067   0.949  16.289  0.2189 -0.3480  0.2998
  631MPD2     C 9340   4.324   0.496  15.659 -0.8671 -0.6057 -0.0630
  631MPD2    C1 9341   4.372   0.480  15.529  0.4675  0.7821 -0.0265
  631MPD2    C2 9342   4.471   0.378  15.511  0.0260  0.4510  0.5739
  631MPD2    C3 9343   4.505   0.286  15.608 -0.2636  0.0768  0.4292
  631MPD2    C4 9344   4.452   0.313  15.729  0.1853 -0.1255  0.0300
  631MPD2    C5 9345   4.364   0.415  15.760 -0.1080  0.1009  0.3217
  631MPD2     H 9346   4.531   0.372  15.421 -1.1997 -1.4199 -0.1176
  631MPD2    H1 9347   4.486   0.256  15.814  3.9267  0.4124 -1.1108
  631MPD2    H2 9348   4.249   0.573  15.670 -1.8391 -1.6210  0.3856
  631MPD2    H3 9349   4.328   0.422  15.862  1.0597  0.0178  0.7372
  631MPD2     N 9350   4.616   0.196  15.589  0.7399  0.3332  0.8474
  631MPD2    H5 9351   4.670   0.207  15.504  1.7247  1.1274  1.5763
  631MPD2    N1 9352   4.346   0.584  15.434  0.2425 -0.4973 -0.3137
  631MPD2    H7 9353   4.290   0.663  15.466 -1.2765 -2.7211  2.5432
  632TMC3    C1 9354   4.353   0.719  15.255  0.9556 -0.1908 -0.0085
  632TMC3    C2 9355   4.239   0.787  15.308 -0.2849 -0.2690 -0.5149
  632TMC3    C3 9356   4.193   0.898  15.246 -0.2764  0.0061 -0.1876
  632TMC3    C4 9357   4.427   0.777  15.148  0.1749 -1.0401  0.2605
  632TMC3    C5 9358   4.381   0.897  15.103 -0.2967 -0.7076 -0.0594
  632TMC3    C6 9359   4.261   0.957  15.144  0.0981 -0.0447  0.4579
  632TMC3     C 9360   4.391   0.590  15.309 -0.1543 -0.6658 -0.8295
  632TMC3     O 9361   4.441   0.503  15.243  0.5899 -0.0389 -0.0477
  632TMC3     H 9362   4.175   0.737  15.380  0.2253 -1.6069 -0.9967
  632TMC3    H1 9363   4.516   0.734  15.104 -0.2182 -0.7333 -0.8368
  632TMC3    H2 9364   4.232   1.055  15.109  0.2558  0.6727  2.3971
  632TMC3    C7 9365   4.431   0.956  14.981 -0.4581 -0.5870 -0.3185
  632TMC3    C8 9366   4.064   0.946  15.290  0.9207  0.3845  1.0713
  632TMC3    O1 9367   4.351   0.982  14.890 -0.0096  0.5659  0.4417
  632TMC3    O2 9368   4.024   0.905  15.398 -0.5660 -0.5142 -0.0218
  633MPD2     C 9369   3.764   2.955  17.213  0.7688  0.5024 -0.2774
  633MPD2    C1 9370   3.785   2.945  17.077  0.3723 -0.3626  0.0497
  633MPD2    C2 9371   3.732   2.834  17.012 -0.1600 -0.1685  0.4620
  633MPD2    C3 9372   3.681   2.728  17.087 -0.4567  0.4816 -0.4366
  633MPD2    C4 9373   3.667   2.736  17.227  0.0577 -0.6561 -0.1919
  633MPD2    C5 9374   3.707   2.852  17.288  0.0772 -0.6213  0.0793
  633MPD2     H 9375   3.750   2.837  16.905  1.4272  0.7086  0.7576
  633MPD2    H1 9376   3.623   2.669  17.300 -0.5810 -0.0896 -0.0457
  633MPD2    H2 9377   3.788   3.046  17.267 -1.5574  1.5250 -0.9416
  633MPD2    H3 9378   3.698   2.881  17.392  2.2320 -0.9229  0.3381
  633MPD2     N 9379   3.643   2.605  17.019  0.3486  0.4662  0.1664
  633MPD2    H5 9380   3.605   2.529  17.074 -1.1775  2.6386  2.1104
  633MPD2    N1 9381   3.846   3.049  17.001 -0.7843 -0.1720 -0.2363
  633MPD2    H7 9382   3.860   3.021  16.905  2.0020 -2.0931  0.7184
  634TMC3    C1 9383   3.949   3.252  16.946 -0.3815  0.4938  0.4676
  634TMC3    C2 9384   4.050   3.189  16.883  0.9788 -0.3596 -0.9345
  634TMC3    C3 9385   4.109   3.254  16.782  0.2307 -1.1682 -0.8520
  634TMC3    C4 9386   3.914   3.380  16.923 -0.0485 -0.0679 -0.2476
  634TMC3    C5 9387   3.986   3.447  16.827  0.2353 -0.5871  0.3431
  634TMC3    C6 9388   4.074   3.382  16.747  0.4543  0.1612 -0.1712
  634TMC3     C 9389   3.867   3.176  17.041  0.6025  0.2550 -0.9421
  634TMC3     O 9390   3.817   3.233  17.138  0.1760 -0.3700 -0.1038
  634TMC3     H 9391   4.075   3.087  16.911  0.4869 -0.6587 -1.5977
  634TMC3    H1 9392   3.828   3.412  16.981 -1.5513 -2.0189 -1.3961
  634TMC3    H2 9393   4.121   3.428  16.661 -0.1917  0.7538 -0.2099
  634TMC3    C7 9394   3.930   3.565  16.765 -0.9529  0.6356  0.4191
  634TMC3    C8 9395   4.169   3.181  16.668 -0.3881  0.8862  0.0214
  634TMC3    O1 9396   3.950   3.588  16.646  0.2328 -0.5718 -0.1136
  634TMC3    O2 9397   4.148   3.063  16.665  0.3990  0.0775  0.3655
  635TMC3    C1 9398   4.346   3.808  17.487  0.1851 -0.4778 -0.3893
  635TMC3    C2 9399   4.436   3.892  17.434 -0.3656 -0.0667  0.5202
  635TMC3    C3 9400   4.527   3.846  17.349 -0.8291  0.2989  0.2882
  635TMC3    C4 9401   4.344   3.676  17.475  0.0943 -0.0057  0.1252
  635TMC3    C5 9402   4.431   3.629  17.381 -0.6594 -0.7038  0.1042
  635TMC3    C6 9403   4.522   3.709  17.309 -0.0174 -0.2789 -1.2832
  635TMC3     C 9404   4.301   3.867  17.611 -0.4198 -0.5843  0.4152
  635TMC3     O 9405   4.243   3.973  17.603  0.6022 -0.1584 -0.4764
  635TMC3     H 9406   4.438   3.991  17.477 -1.1597  0.4137 -0.5294
  635TMC3    H1 9407   4.268   3.610  17.514  0.8253  0.1278  1.7742
  635TMC3    H2 9408   4.568   3.677  17.216  0.5357 -1.3034 -0.6623
  635TMC3    C7 9409   4.415   3.494  17.351  0.0589 -0.0452  0.2771
  635TMC3    C8 9410   4.608   3.940  17.271 -0.0540  0.4345 -0.8730
  635TMC3    O1 9411   4.311   3.439  17.391  0.3569  0.0885 -0.0361
  635TMC3    O2 9412   4.572   4.055  17.281 -0.5163  0.2353  0.1018
  636MPD2     C 9413   0.704   3.927  15.495 -0.4263 -1.3521 -0.4554
  636MPD2    C1 9414   0.726   3.903  15.628  0.2572 -0.5003 -0.3714
  636MPD2    C2 9415   0.792   3.782  15.661 -0.1926  0.8221 -0.3115
  636MPD2    C3 9416   0.821   3.688  15.570 -0.0628  0.1578  0.1428
  636MPD2    C4 9417   0.786   3.714  15.436 -0.0423  1.2917 -0.2724
  636MPD2    C5 9418   0.739   3.836  15.400 -0.7167 -0.1010 -0.3799
  636MPD2     H 9419   0.814   3.760  15.765 -0.9770 -2.4252 -0.8383
  636MPD2    H1 9420   0.815   3.657  15.349 -0.1225  0.2856  0.3543
  636MPD2    H2 9421   0.647   4.014  15.465  1.6224 -0.3013 -1.2160
  636MPD2    H3 9422   0.722   3.847  15.293  0.2919 -2.0932 -0.7508
  636MPD2     N 9423   0.897   3.573  15.610  0.4354 -0.2184 -0.4151
  636MPD2    H5 9424   0.903   3.570  15.711  0.4468  2.2061 -0.3233
  636MPD2    N1 9425   0.685   3.990  15.738 -0.7327  0.3175  0.4654
  636MPD2    H7 9426   0.711   3.958  15.831 -2.0056  2.7808  1.6575
  637TMC3    C1 9427   0.998   3.359  15.585 -0.0121 -0.4317 -0.8298
  637TMC3    C2 9428   0.974   3.334  15.716  0.0538  0.7798 -0.1653
  637TMC3    C3 9429   1.037   3.231  15.785 -0.1715 -0.8974 -0.2055
  637TMC3    C4 9430   1.086   3.286  15.509  0.5620 -0.1137  0.3837
  637TMC3    C5 9431   1.149   3.184  15.571  0.3629 -0.3740 -0.1574
  637TMC3    C6 9432   1.120   3.147  15.705 -0.4173  0.3874 -0.0029
  637TMC3     C 9433   0.945   3.474  15.519 -0.0078  0.2300 -0.3685
  637TMC3     O 9434   0.935   3.476  15.395 -0.1333 -0.3626  0.7487
  637TMC3     H 9435   0.892   3.387  15.764  0.8461  1.7115  0.1567
  637TMC3    H1 9436   1.092   3.295  15.401 -1.3393 -0.3487  0.2620
  637TMC3    H2 9437   1.166   3.062  15.754 -0.7243  0.6430  0.7271
  637TMC3    C7 9438   1.208   3.080  15.490  0.6650 -0.0872 -0.6152
  637TMC3    C8 9439   1.086   3.272  15.914 -0.9848 -0.1332  0.4117
  637TMC3    O1 9440   1.191   2.965  15.525  0.0220 -0.0208  0.2989
  637TMC3    O2 9441   1.073   3.387  15.957 -0.0827  0.2835  0.0009
  638MPD2     C 9442   0.736   2.696  14.961  0.3178  0.1979 -0.1361
  638MPD2    C1 9443   0.771   2.579  14.890 -0.3880 -0.5521 -1.4450
  638MPD2    C2 9444   0.745   2.458  14.948 -0.6115 -0.0042 -0.7901
  638MPD2    C3 9445   0.668   2.441  15.058 -0.3211 -0.4876 -1.2257
  638MPD2    C4 9446   0.628   2.554  15.127  0.6920 -0.7768 -0.8606
  638MPD2    C5 9447   0.676   2.676  15.083 -0.3668 -0.3220 -0.4841
  638MPD2     H 9448   0.773   2.366  14.897 -0.7085 -0.8173  0.6410
  638MPD2    H1 9449   0.580   2.559  15.224  0.6618 -0.4098 -0.8916
  638MPD2    H2 9450   0.750   2.796  14.922 -2.0356  0.4615 -0.2903
  638MPD2    H3 9451   0.643   2.760  15.144 -2.0604  1.0080 -3.2292
  638MPD2     N 9452   0.632   2.309  15.091  0.5666 -0.2864 -0.3950
  638MPD2    H5 9453   0.677   2.228  15.049  1.3602 -1.0831  1.9851
  638MPD2    N1 9454   0.825   2.599  14.760 -0.0901  0.5402  0.3170
  638MPD2    H7 9455   0.825   2.694  14.724 -3.0263 -0.5585 -2.4727
  639TMC3    C1 9456   0.504   2.145  15.192 -0.0108  0.4452  0.0604
  639TMC3    C2 9457   0.373   2.110  15.191 -0.4798 -0.5772 -0.1926
  639TMC3    C3 9458   0.348   1.978  15.165 -0.2049  0.1384  0.2519
  639TMC3    C4 9459   0.616   2.066  15.184  0.2009 -0.3348  0.3776
  639TMC3    C5 9460   0.578   1.938  15.167  0.7487 -0.3414  0.5376
  639TMC3    C6 9461   0.451   1.891  15.174  0.0161  0.3242  0.3356
  639TMC3     C 9462   0.524   2.290  15.176  0.1667  0.7969 -0.2636
  639TMC3     O 9463   0.432   2.367  15.199  0.1924 -0.2621  0.0348
  639TMC3     H 9464   0.295   2.186  15.197 -0.2871 -0.3348 -0.6941
  639TMC3    H1 9465   0.720   2.095  15.187 -0.4360  2.1688 -2.5506
  639TMC3    H2 9466   0.425   1.787  15.160  1.3001  0.0056  0.3331
  639TMC3    C7 9467   0.678   1.838  15.129  0.0675 -0.1938  0.3730
  639TMC3    C8 9468   0.283   1.970  15.036 -0.2956 -0.1799  0.1199
  639TMC3    O1 9469   0.664   1.728  15.181 -0.2285  0.1340 -0.0682
  639TMC3    O2 9470   0.353   1.930  14.943 -0.2843  0.5953 -0.0232
  640MPD2     C 9471   0.623   0.587   8.707  0.2072 -0.2529 -0.1563
  640MPD2    C1 9472   0.754   0.578   8.751  0.9213 -0.3409 -0.2666
  640MPD2    C2 9473   0.802   0.685   8.829  0.1480  0.5167 -0.0872
  640MPD2    C3 9474   0.716   0.796   8.861 -0.7389  0.1664 -0.2357
  640MPD2    C4 9475   0.583   0.792   8.813 -0.2340 -0.4535 -0.2465
  640MPD2    C5 9476   0.545   0.692   8.737  0.4932  0.1992  0.1040
  640MPD2     H 9477   0.899   0.682   8.878 -1.3870 -1.1639  2.7914
  640MPD2    H1 9478   0.514   0.876   8.823 -1.8960 -1.7911 -0.4929
  640MPD2    H2 9479   0.583   0.504   8.649 -0.0598  0.8252 -1.5172
  640MPD2    H3 9480   0.444   0.691   8.696  0.9818  2.0374 -1.1434
  640MPD2     N 9481   0.753   0.897   8.953 -0.2918 -0.0460 -0.0982
  640MPD2    H5 9482   0.685   0.970   8.974  1.9611  2.1312 -0.4068
  640MPD2    N1 9483   0.828   0.461   8.715 -0.4769  0.0765  0.1641
  640MPD2    H7 9484   0.771   0.389   8.672 -4.1670  2.9042  0.2755
  641TMC3    C1 9485   1.017   0.314   8.728  0.1265  0.5426 -0.0387
  641TMC3    C2 9486   1.146   0.303   8.773  0.0955 -0.6343 -0.3816
  641TMC3    C3 9487   1.192   0.178   8.784 -0.7954  0.4118  0.5960
  641TMC3    C4 9488   0.936   0.209   8.684  0.3232 -0.1122  0.2485
  641TMC3    C5 9489   0.987   0.085   8.697  0.3107  0.0595 -0.2991
  641TMC3    C6 9490   1.118   0.071   8.745  0.3710 -0.2412 -0.5339
  641TMC3     C 9491   0.955   0.441   8.765  0.5167 -0.7039  0.6963
  641TMC3     O 9492   1.030   0.515   8.831 -0.2571 -0.1812  0.2408
  641TMC3     H 9493   1.204   0.392   8.795  0.0260 -1.6487  4.0461
  641TMC3    H1 9494   0.830   0.209   8.661  0.6085 -2.3769 -1.0892
  641TMC3    H2 9495   1.161   4.695   8.737  0.4652 -0.2195 -0.2763
  641TMC3    C7 9496   0.926   4.683   8.640  0.2285 -0.2789 -0.2841
  641TMC3    C8 9497   1.328   0.148   8.828 -0.5025 -0.0423 -0.8579
  641TMC3    O1 9498   1.006   4.591   8.614  0.8119  0.0826 -0.7441
  641TMC3    O2 9499   1.371   0.038   8.835  0.3110 -0.0678  0.0695
  642TMC3    C1 9500   2.161   2.619  11.890 -0.3139  0.1093 -0.2444
  642TMC3    C2 9501   2.296   2.616  11.881 -0.5590 -0.1164  0.1045
  642TMC3    C3 9502   2.356   2.492  11.871  0.2355  0.5738 -0.3513
  642TMC3    C4 9503   2.083   2.512  11.898 -0.1447 -0.5673 -0.1907
  642TMC3    C5 9504   2.145   2.402  11.864 -0.4716 -0.9154 -0.0022
  642TMC3    C6 9505   2.280   2.383  11.843 -0.1446  0.2939 -0.4650
  642TMC3     C 9506   2.109   2.749  11.927  0.3955  0.0341 -0.2750
  642TMC3     O 9507   2.171   2.845  11.878  0.5239 -0.0093  0.6677
  642TMC3     H 9508   2.353   2.707  11.895 -0.9160  0.4728 -2.1976
  642TMC3    H1 9509   1.974   2.518  11.894 -0.0688  1.5921  1.0829
  642TMC3    H2 9510   2.320   2.283  11.851 -0.1098  0.4396  1.2111
  642TMC3    C7 9511   2.077   2.279  11.881  0.4980  0.4060 -0.6245
  642TMC3    C8 9512   2.484   2.470  11.934  0.6493  0.3604  0.1775
  642TMC3    O1 9513   2.108   2.199  11.795  0.5347 -0.2178 -0.2158
  642TMC3    O2 9514   2.540   2.363  11.927 -0.2478 -0.1606 -0.4167
  643TMC3    C1 9515   1.285   1.268   0.290  0.1654  0.7220  0.3542
  643TMC3    C2 9516   1.160   1.220   0.283 -0.2542 -0.2149  0.1266
  643TMC3    C3 9517   1.118   1.169   0.158  0.6867 -0.3997 -0.4128
  643TMC3    C4 9518   1.357   1.285   0.175  0.0054  0.4051  0.1965
  643TMC3    C5 9519   1.306   1.231   0.054  0.5767  0.5510 -0.0348
  643TMC3    C6 9520   1.184   1.179   0.039 -0.3497 -0.2195  0.3296
  643TMC3     C 9521   1.309   1.346   0.415  0.0334 -0.0271 -0.2390
  643TMC3     O 9522   1.212   1.396   0.468  0.0233 -0.4573  0.4194
  643TMC3     H 9523   1.095   1.230   0.370 -0.8658 -0.7785 -0.2660
  643TMC3    H1 9524   1.453   1.336   0.166 -0.1004  0.3028 -1.5937
  643TMC3    H2 9525   1.133   1.147  17.641  1.1055  0.2754 -0.6537
  643TMC3    C7 9526   1.366   1.279  17.624 -0.1608 -0.1090  0.5438
  643TMC3    C8 9527   0.976   1.155   0.154 -0.3051 -0.0324 -0.0837
  643TMC3    O1 9528   1.394   1.397  17.630 -0.1570  0.2230  0.0255
  643TMC3    O2 9529   0.918   1.105   0.253 -0.3439  0.2524 -0.6087
  644MPD2     C 9530   1.111   0.508   8.440 -0.2686 -0.0944  0.0375
  644MPD2    C1 9531   1.204   0.409   8.463  0.4071 -0.7583  0.0755
  644MPD2    C2 9532   1.167   0.284   8.427  0.2219  0.3571 -0.0622
  644MPD2    C3 9533   1.040   0.257   8.355 -0.1940 -0.1869 -0.7947
  644MPD2    C4 9534   0.951   0.365   8.347  0.5996  0.9755  0.3609
  644MPD2    C5 9535   0.986   0.491   8.388  0.9867 -0.2821 -0.1350
  644MPD2     H 9536   1.227   0.199   8.458 -0.5561  0.2844  1.2724
  644MPD2    H1 9537   0.854   0.347   8.303  0.4789 -1.6608  1.7362
  644MPD2    H2 9538   1.138   0.611   8.460 -1.4559  0.5259 -1.5181
  644MPD2    H3 9539   0.913   0.566   8.359 -0.2887 -1.1890  0.7121
  644MPD2     N 9540   1.010   0.121   8.321  0.1655  0.2521 -0.0617
  644MPD2    H5 9541   1.093   0.063   8.321 -0.4815 -0.6820 -0.8434
  644MPD2    N1 9542   1.342   0.440   8.501  0.9992  0.1153 -0.0492
  644MPD2    H7 9543   1.355   0.535   8.535 -1.5190  0.5414 -0.2838
  645TMC3    C1 9544   0.884   4.652   8.260  0.4352 -0.0391 -0.2549
  645TMC3    C2 9545   0.999   4.578   8.281 -0.1432 -0.7216 -1.2887
  645TMC3    C3 9546   0.993   4.452   8.236  0.0036  0.3139  0.3417
  645TMC3    C4 9547   0.776   4.613   8.185 -0.2216 -0.8780  0.1872
  645TMC3    C5 9548   0.779   4.484   8.143 -0.2656  0.0908  0.8534
  645TMC3    C6 9549   0.888   4.403   8.174 -0.0201  0.0497 -0.1540
  645TMC3     C 9550   0.891   0.069   8.272  0.7077 -0.6836  0.1246
  645TMC3     O 9551   0.784   0.132   8.265 -0.3816 -0.2730 -0.1270
  645TMC3     H 9552   1.070   4.609   8.357 -1.5207 -0.5442 -0.0777
  645TMC3    H1 9553   0.691   4.676   8.160 -0.7486 -0.5162  2.9323
  645TMC3    H2 9554   0.889   4.298   8.150  1.1289 -0.4955  2.2570
  645TMC3    C7 9555   0.655   4.427   8.086  0.4686  0.1768  0.2882
  645TMC3    C8 9556   1.112   4.366   8.254 -0.1700 -0.2554 -0.6829
  645TMC3    O1 9557   0.552   4.480   8.105  0.3217 -0.2065 -0.6621
  645TMC3    O2 9558   1.099   4.254   8.202 -0.0667  0.1748  0.7372
  646MPD2     C 9559   0.584   1.130  14.420  0.2354  0.1340  0.0849
  646MPD2    C1 9560   0.537   1.183  14.537 -0.2129 -0.0727  0.5335
  646MPD2    C2 9561   0.460   1.298  14.545  0.2682  0.0112 -0.6314
  646MPD2    C3 9562   0.428   1.361  14.425  0.0745  0.0554  0.3896
  646MPD2    C4 9563   0.483   1.305  14.307  1.0201 -0.2325  0.0352
  646MPD2    C5 9564   0.563   1.198  14.300 -0.6252  0.9382  0.0430
  646MPD2     H 9565   0.430   1.335  14.643  1.2267  1.8916 -1.0508
  646MPD2    H1 9566   0.441   1.331  14.210  2.0244 -2.0189 -0.8663
  646MPD2    H2 9567   0.634   1.034  14.410  1.5847  0.8223  0.1919
  646MPD2    H3 9568   0.584   1.146  14.207  0.3013  2.2426 -0.4682
  646MPD2     N 9569   0.336   1.471  14.415 -0.3199  0.5991  0.8548
  646MPD2    H5 9570   0.280   1.493  14.497  0.1570 -0.1897  1.3969
  646MPD2    N1 9571   0.563   1.108  14.653  0.3616 -0.0750  0.5485
  646MPD2    H7 9572   0.619   1.026  14.633  0.1827  0.0796 -0.5911
  647TMC3    C1 9573   0.624   1.068  14.873 -0.6627 -0.0213 -0.3586
  647TMC3    C2 9574   0.586   1.038  14.999  0.0146 -0.0441 -0.5816
  647TMC3    C3 9575   0.673   0.969  15.077 -0.2453 -0.1082 -0.6170
  647TMC3    C4 9576   0.740   1.028  14.820 -0.1997  0.5370 -0.1318
  647TMC3    C5 9577   0.830   0.980  14.914 -0.2428  0.0340 -1.3542
  647TMC3    C6 9578   0.794   0.937  15.040 -0.3900 -0.3146  0.2353
  647TMC3     C 9579   0.532   1.135  14.788 -0.5812  0.2030  0.0598
  647TMC3     O 9580   0.440   1.197  14.841 -0.0602 -0.2402 -0.4205
  647TMC3     H 9581   0.481   1.039  15.027  0.3238  1.7779  0.4652
  647TMC3    H1 9582   0.780   1.074  14.730 -0.5326  0.8531 -0.1203
  647TMC3    H2 9583   0.859   0.870  15.096 -1.1960 -2.0918 -0.9399
  647TMC3    C7 9584   0.964   0.947  14.887  0.6570 -0.7862  0.3168
  647TMC3    C8 9585   0.632   0.919  15.207  0.6143 -0.6306 -0.4529
  647TMC3    O1 9586   1.036   0.929  14.985  0.1622 -0.3533  0.6276
  647TMC3    O2 9587   0.706   0.839  15.259 -1.1192  0.2334  0.6055
  648TMC3    C1 9588   0.094   3.675  16.048  0.3520 -0.1767  0.3611
  648TMC3    C2 9589   0.179   3.578  16.006  0.0956  0.1042 -0.1951
  648TMC3    C3 9590   0.180   3.547  15.872  0.0135 -0.6419 -0.1617
  648TMC3    C4 9591   0.019   3.744  15.954  0.2689  0.5553 -0.1215
  648TMC3    C5 9592   0.023   3.715  15.823 -0.2345 -0.1013  0.4799
  648TMC3    C6 9593   0.099   3.611  15.776  0.6252 -0.3712  0.1304
  648TMC3     C 9594   0.043   3.679  16.187  0.6841  0.2110  0.0729
  648TMC3     O 9595   4.684   3.767  16.207  0.5300  0.6712  0.2849
  648TMC3     H 9596   0.239   3.519  16.074  2.6461  1.9144 -0.8698
  648TMC3    H1 9597   4.704   3.840  15.987 -1.5130 -0.2673  0.2428
  648TMC3    H2 9598   0.098   3.576  15.673  0.4244 -1.9918  0.6835
  648TMC3    C7 9599   4.617   3.735  15.755  0.0961  0.2841  0.2130
  648TMC3    C8 9600   0.260   3.436  15.816  0.4023  0.1944  0.2276
  648TMC3    O1 9601   4.601   3.712  15.636 -0.3646 -0.3769  0.1594
  648TMC3    O2 9602   0.227   3.387  15.711  0.0462 -0.0205  0.4897
  649TMC3    C1 9603   3.980   0.293  12.609 -0.3354 -0.1031 -0.0582
  649TMC3    C2 9604   4.109   0.296  12.569 -0.5762  0.1781  0.6616
  649TMC3    C3 9605   4.187   0.204  12.631 -0.4629 -0.1578  0.3906
  649TMC3    C4 9606   3.920   0.216  12.706 -1.0669 -0.5452  0.0468
  649TMC3    C5 9607   4.002   0.128  12.763  0.3636 -0.4829  0.6996
  649TMC3    C6 9608   4.137   0.122  12.728 -0.6523  1.1111  0.2547
  649TMC3     C 9609   3.882   0.372  12.528 -0.0702 -0.3196 -0.6976
  649TMC3     O 9610   3.764   0.383  12.559 -0.8363 -0.4517  0.0795
  649TMC3     H 9611   4.159   0.367  12.504  0.8431 -0.7342  0.7375
  649TMC3    H1 9612   3.815   0.224  12.729 -1.1464  0.0191 -0.5189
  649TMC3    H2 9613   4.194   0.045  12.779  0.4610 -0.0288 -2.7405
  649TMC3    C7 9614   3.939   0.026  12.846  0.7280  0.5503 -0.1076
  649TMC3    C8 9615   4.317   0.178  12.573  0.4256 -0.1445  0.0577
  649TMC3    O1 9616   4.010   4.696  12.933  0.3403  0.0822 -0.1423
  649TMC3    O2 9617   4.338   0.250  12.476  0.3563 -0.0766 -0.0966
  650TMC3    C1 9618   1.326   1.657  12.427  0.1321  0.7051  0.4809
  650TMC3    C2 9619   1.409   1.757  12.468 -0.1231  0.2266 -0.4320
  650TMC3    C3 9620   1.468   1.843  12.376 -0.5026  0.0649  0.5348
  650TMC3    C4 9621   1.302   1.639  12.293 -0.0824 -0.3232  0.2257
  650TMC3    C5 9622   1.371   1.721  12.204  0.1308 -0.4336 -0.2503
  650TMC3    C6 9623   1.461   1.820  12.242 -0.8724 -0.0726  0.3109
  650TMC3     C 9624   1.284   1.546  12.512 -0.8256 -0.1280 -0.3568
  650TMC3     O 9625   1.278   1.574  12.632 -0.0002 -0.1729  0.1639
  650TMC3     H 9626   1.422   1.772  12.574 -2.6005  0.0175 -0.0933
  650TMC3    H1 9627   1.218   1.580  12.258 -0.3372 -1.0061  2.0055
  650TMC3    H2 9628   1.511   1.889  12.175 -1.4162  1.4440  1.4720
  650TMC3    C7 9629   1.303   1.739  12.074  0.4709  0.0968 -0.3324
  650TMC3    C8 9630   1.423   1.975  12.395  0.4145 -0.1841 -0.3582
  650TMC3    O1 9631   1.244   1.644  12.030 -0.0734 -0.3327 -0.2805
  650TMC3    O2 9632   1.393   2.042  12.297  0.8985  0.2410  0.3565
  651MPD2     C 9633   0.877   3.169  10.425  0.3003 -0.2610 -0.0827
  651MPD2    C1 9634   0.801   3.282  10.406  0.2739  0.2539 -0.5271
  651MPD2    C2 9635   0.854   3.388  10.334  0.4196 -0.1341 -0.5275
  651MPD2    C3 9636   0.979   3.385  10.279  0.0712 -0.1552 -0.4036
  651MPD2    C4 9637   1.045   3.270  10.296  0.0438 -0.6313 -0.3010
  651MPD2    C5 9638   1.003   3.163  10.375  0.3977 -0.3858  0.1227
  651MPD2     H 9639   0.782   3.469  10.327  0.8584  0.0220 -3.0727
  651MPD2    H1 9640   1.139   3.252  10.245  0.0043 -1.1358 -0.2001
  651MPD2    H2 9641   0.828   3.082  10.467 -0.4028  0.4294  0.5145
  651MPD2    H3 9642   1.053   3.067  10.368 -0.0310 -0.3952 -2.8386
  651MPD2     N 9643   1.031   3.501  10.222  0.1671  0.0926  0.2461
  651MPD2    H5 9644   0.963   3.573  10.198 -0.1245 -0.5698 -0.8982
  651MPD2    N1 9645   0.676   3.300  10.465 -0.2651  0.6104  0.3022
  651MPD2    H7 9646   0.647   3.397  10.468 -2.9427 -0.0543 -3.3653
  652TMC3    C1 9647   1.392   3.746  10.063 -0.5538  0.1536  0.7544
  652TMC3    C2 9648   1.305   3.639  10.051 -0.5230  0.3752  0.8205
  652TMC3    C3 9649   1.188   3.651  10.122 -0.0800  0.1496  0.4008
  652TMC3    C4 9650   1.369   3.854  10.147 -0.2172 -0.3166 -0.0477
  652TMC3    C5 9651   1.249   3.851  10.213  0.3520 -0.1695  0.5553
  652TMC3    C6 9652   1.158   3.754  10.200 -0.1730 -0.0994  0.0417
  652TMC3     C 9653   1.530   3.699  10.053  0.0465 -0.6187  0.0580
  652TMC3     O 9654   1.557   3.585  10.084 -0.8568 -0.6707 -0.0305
  652TMC3     H 9655   1.338   3.562   9.983 -0.0104 -1.5869  3.3071
  652TMC3    H1 9656   1.444   3.932  10.156 -0.7840  0.1976  0.2584
  652TMC3    H2 9657   1.055   3.780  10.222 -1.1631 -2.8548 -1.3243
  652TMC3    C7 9658   1.242   3.921  10.335 -0.7162 -0.1182 -0.3005
  652TMC3    C8 9659   1.160   3.520  10.176 -0.1468  0.1355 -0.6587
  652TMC3    O1 9660   1.155   3.879  10.411  0.3967 -0.1666 -0.3727
  652TMC3    O2 9661   1.254   3.438  10.177 -0.5035  0.6597  0.0125
  653MPD2     C 9662   3.554   3.084  17.633 -0.1645 -0.1906 -0.3122
  653MPD2    C1 9663   3.572   3.171  17.530  0.1260  0.5367 -0.7564
  653MPD2    C2 9664   3.518   3.141  17.409  0.0952  0.1289 -0.1048
  653MPD2    C3 9665   3.449   3.027  17.381 -0.6265  0.2837  0.6297
  653MPD2    C4 9666   3.423   2.944  17.485  1.1089 -0.1224 -0.5330
  653MPD2    C5 9667   3.480   2.967  17.607  0.4122 -0.0267  0.4938
  653MPD2     H 9668   3.545   3.207  17.328  0.5956  0.3212  0.2192
  653MPD2    H1 9669   3.365   2.853  17.478  1.3666 -0.4682  2.0042
  653MPD2    H2 9670   3.587   3.093   0.043  1.4101  1.3451 -0.9573
  653MPD2    H3 9671   3.467   2.893  17.684  0.7518  0.1163  0.6876
  653MPD2     N 9672   3.417   3.008  17.247 -0.3494  0.9978  0.8899
  653MPD2    H5 9673   3.457   3.068  17.175  0.0555  0.7405  0.9033
  653MPD2    N1 9674   3.651   3.288  17.553 -0.6793 -0.1434  0.4684
  653MPD2    H7 9675   3.653   3.351  17.473  0.8466  1.3492  1.6995
  654TMC3    C1 9676   3.355   2.880  17.065 -0.1561  0.0882  0.7403
  654TMC3    C2 9677   3.301   2.995  17.005 -0.3062  0.0614  0.6950
  654TMC3    C3 9678   3.264   2.987  16.875  0.2753  0.6223  0.8405
  654TMC3    C4 9679   3.348   2.763  17.006 -0.8593 -0.4822  0.1833
  654TMC3    C5 9680   3.295   2.749  16.882  0.4411  0.3681  0.1494
  654TMC3    C6 9681   3.263   2.863  16.813 -0.0104  0.6063  0.3805
  654TMC3     C 9682   3.369   2.888  17.209  0.3259  0.8377  0.1238
  654TMC3     O 9683   3.348   2.783  17.268  0.6044  0.4490 -0.0779
  654TMC3     H 9684   3.286   3.092  17.052  0.2886  0.6794 -0.3730
  654TMC3    H1 9685   3.397   2.678  17.053  0.5945  2.1690  3.4094
  654TMC3    H2 9686   3.239   2.854  16.708  3.2583  2.4507 -0.5115
  654TMC3    C7 9687   3.316   2.627  16.806  0.1224 -0.6754  0.1024
  654TMC3    C8 9688   3.217   3.100  16.799 -0.1046  0.2812 -0.4160
  654TMC3    O1 9689   3.306   2.635  16.683 -0.2163  0.5515  0.3072
  654TMC3    O2 9690   3.185   3.205  16.853 -0.3088 -0.4658  0.5538
  655MPD2     C 9691   0.502   3.764  16.059  0.3715 -0.1135 -0.7087
  655MPD2    C1 9692   0.405   3.850  16.007 -0.3662 -0.3118 -0.7022
  655MPD2    C2 9693   0.373   3.853  15.873 -0.1215  0.8616  0.3384
  655MPD2    C3 9694   0.441   3.770  15.785  0.9886 -0.4342  0.6534
  655MPD2    C4 9695   0.540   3.688  15.834 -0.2797  0.7188 -0.2983
  655MPD2    C5 9696   0.572   3.684  15.972 -0.1126  0.0933  1.1230
  655MPD2     H 9697   0.302   3.922  15.828  1.0674  1.9889  0.1817
  655MPD2    H1 9698   0.600   3.624  15.772 -0.3085 -0.9810  1.4024
  655MPD2    H2 9699   0.524   3.759  16.165  0.7081  0.3336 -0.7565
  655MPD2    H3 9700   0.653   3.629  16.019 -1.6417 -2.1543  1.1084
  655MPD2     N 9701   0.399   3.747  15.652 -0.3871  0.7422 -0.2439
  655MPD2    H5 9702   0.441   3.673  15.597  2.1776  1.0729  1.2778
  655MPD2    N1 9703   0.329   3.948  16.081  0.2561 -0.4901 -0.3272
  655MPD2    H7 9704   0.260   4.004  16.032 -0.3383  1.2578  2.4971
  656TMC3    C1 9705   0.217   4.054  16.245  0.2016 -0.0130  0.4089
  656TMC3    C2 9706   0.136   4.013  16.348 -0.4791 -0.5860  0.2066
  656TMC3    C3 9707   0.006   4.056  16.328 -1.1208  0.4509  0.6891
  656TMC3    C4 9708   0.180   4.134  16.140 -0.7408  0.0587 -0.1029
  656TMC3    C5 9709   0.044   4.158  16.119 -0.1823 -0.1645 -0.1557
  656TMC3    C6 9710   4.679   4.120  16.214  0.1107  0.1806  0.0093
  656TMC3     C 9711   0.316   3.953  16.213  0.3014 -0.2990  0.2009
  656TMC3     O 9712   0.361   3.884  16.301  0.5055  0.1784 -0.5718
  656TMC3     H 9713   0.156   3.936  16.422  4.8236  0.7945  0.2302
  656TMC3    H1 9714   0.248   4.164  16.061  0.4169  0.0527  0.8805
  656TMC3    H2 9715   4.574   4.142  16.202 -0.4126 -3.1467 -1.7563
  656TMC3    C7 9716   0.012   4.146  15.974  0.5181  0.0342  0.1515
  656TMC3    C8 9717   4.632   4.015  16.426  0.0369  0.2172 -0.1937
  656TMC3    O1 9718   0.102   4.087  15.916 -0.2979  0.5407 -0.3735
  656TMC3    O2 9719   4.667   4.003  16.543 -0.3667 -0.1474  0.2910
  657TMC3    C1 9720   3.684   2.823  14.370 -0.1377 -0.8268 -0.0365
  657TMC3    C2 9721   3.679   2.775  14.502  0.0843 -0.2796 -0.2106
  657TMC3    C3 9722   3.571   2.820  14.579 -0.1135 -0.4686 -0.2951
  657TMC3    C4 9723   3.592   2.906  14.318  0.3119  0.7955 -0.4535
  657TMC3    C5 9724   3.488   2.945  14.400  0.0022 -0.6776  0.1199
  657TMC3    C6 9725   3.470   2.898  14.530 -0.5882 -0.1930  0.1956
  657TMC3     C 9726   3.794   2.784  14.277  0.2113  0.2594 -0.2090
  657TMC3     O 9727   3.775   2.808  14.159  0.0058 -0.0484 -0.9134
  657TMC3     H 9728   3.746   2.699  14.538  0.2044  0.4522  1.1319
  657TMC3    H1 9729   3.609   2.955  14.223 -1.2133 -2.2829 -2.2707
  657TMC3    H2 9730   3.386   2.926  14.593 -0.4756  2.5644 -0.8818
  657TMC3    C7 9731   3.416   3.066  14.360  0.1276 -0.1842  0.1952
  657TMC3    C8 9732   3.586   2.811  14.725  0.2690 -0.8381 -0.2602
  657TMC3    O1 9733   3.394   3.079  14.241 -0.0050  0.0717 -0.8992
  657TMC3    O2 9734   3.480   2.836  14.780  0.0928 -0.3694  0.0690
  658MPD2     C 9735   0.614   3.670  14.885  0.3394 -0.2562 -0.2698
  658MPD2    C1 9736   0.510   3.762  14.904  0.4904 -0.4667 -0.4269
  658MPD2    C2 9737   0.469   3.842  14.800 -0.6236  0.1632  0.3896
  658MPD2    C3 9738   0.522   3.825  14.675  0.1410 -0.1722  0.1496
  658MPD2    C4 9739   0.615   3.723  14.653 -0.0273 -0.4394  0.3768
  658MPD2    C5 9740   0.662   3.654  14.761 -0.9931  0.1914  0.8115
  658MPD2     H 9741   0.390   3.915  14.818  0.0644  1.3641 -1.5156
  658MPD2    H1 9742   0.645   3.715  14.549 -0.5312  0.0850  0.1915
  658MPD2    H2 9743   0.654   3.614  14.968  2.1383  1.6044  0.1189
  658MPD2    H3 9744   0.739   3.583  14.733  0.0697  1.2900  0.9178
  658MPD2     N 9745   0.462   3.902  14.570 -0.2233  0.1988 -0.1080
  658MPD2    H5 9746   0.373   3.948  14.584  0.2655  0.6164  1.5785
  658MPD2    N1 9747   0.429   3.779  15.022  0.3453 -0.4497 -0.1256
  658MPD2    H7 9748   0.352   3.840  14.998  0.0725 -1.3044 -1.3790
  659TMC3    C1 9749   0.347   3.772  15.240  0.5195 -0.2982  0.1365
  659TMC3    C2 9750   0.368   3.743  15.373 -0.0494 -0.9778 -0.2910
  659TMC3    C3 9751   0.270   3.760  15.461 -0.9496  0.0231  0.6386
  659TMC3    C4 9752   0.220   3.764  15.188 -0.1575  0.2868 -0.0810
  659TMC3    C5 9753   0.120   3.765  15.278  0.0450  0.6644 -0.4363
  659TMC3    C6 9754   0.141   3.769  15.416 -0.1359 -0.9331  0.7763
  659TMC3     C 9755   0.460   3.738  15.149  0.2481  0.8871  0.4018
  659TMC3     O 9756   0.568   3.692  15.189  0.3054 -0.6143  0.2041
  659TMC3     H 9757   0.470   3.715  15.393  0.0683  0.2343  0.7669
  659TMC3    H1 9758   0.210   3.771  15.080  0.7160 -0.0702 -0.1858
  659TMC3    H2 9759   0.054   3.768  15.481 -2.0294  0.3857 -1.7281
  659TMC3    C7 9760   4.711   3.751  15.214  0.0794  0.0210  0.2476
  659TMC3    C8 9761   0.293   3.811  15.593  0.4681 -0.3147  0.4731
  659TMC3    O1 9762   4.709   3.747  15.091 -0.0248  0.8121 -0.6034
  659TMC3    O2 9763   0.207   3.884  15.642  0.0154 -0.0850 -0.0263
  660MPD2     C 9764   3.520   2.556  12.552 -0.2282  0.6935  0.3833
  660MPD2    C1 9765   3.411   2.511  12.486  0.2992  0.1266 -0.6497
  660MPD2    C2 9766   3.323   2.427  12.548 -0.3536 -0.7064 -0.3729
  660MPD2    C3 9767   3.350   2.371  12.675 -1.0079  0.1365  0.1874
  660MPD2    C4 9768   3.466   2.409  12.740 -0.5148  0.5103 -0.3287
  660MPD2    C5 9769   3.548   2.497  12.671  0.3047 -0.2920  0.0001
  660MPD2     H 9770   3.227   2.415  12.500 -1.1887 -0.0647  1.1632
  660MPD2    H1 9771   3.509   2.367  12.830 -0.2907 -0.7122 -0.9933
  660MPD2    H2 9772   3.596   2.614  12.502  1.2754 -1.3367  0.3231
  660MPD2    H3 9773   3.640   2.522  12.723 -0.5503 -0.3464  1.5389
  660MPD2     N 9774   3.249   2.303  12.745  0.7092 -0.0146 -0.1278
  660MPD2    H5 9775   3.279   2.272  12.837 -0.0080  2.4474  0.9425
  660MPD2    N1 9776   3.396   2.584  12.365 -0.7191  0.2659  0.0247
  660MPD2    H7 9777   3.474   2.640  12.334  0.2513 -0.9566  0.2555
  661TMC3    C1 9778   3.288   2.665  12.161  0.1930 -0.0488  0.9738
  661TMC3    C2 9779   3.384   2.664  12.064  0.4267  0.5444 -0.0524
  661TMC3    C3 9780   3.353   2.692  11.936 -1.0134  0.6954 -0.4087
  661TMC3    C4 9781   3.165   2.713  12.135  0.1697  0.0920  0.1907
  661TMC3    C5 9782   3.140   2.752  12.003 -0.5094  0.1706 -0.0409
  661TMC3    C6 9783   3.223   2.727  11.901 -0.7430  0.3569  0.9260
  661TMC3     C 9784   3.283   2.585  12.286 -0.3927 -0.4581  0.0124
  661TMC3     O 9785   3.178   2.534  12.317  0.1945 -0.2563  0.0372
  661TMC3     H 9786   3.482   2.623  12.088 -0.0888 -0.4385  0.3565
  661TMC3    H1 9787   3.090   2.709  12.213  0.4475  4.1084  0.6385
  661TMC3    H2 9788   3.197   2.741  11.797 -1.4744 -0.9137  0.9300
  661TMC3    C7 9789   3.005   2.793  11.975  0.3611  0.5933  0.1642
  661TMC3    C8 9790   3.429   2.656  11.820  0.2193 -1.0571 -0.7575
  661TMC3    O1 9791   2.974   2.907  12.000 -0.0963 -0.1753  0.6920
  661TMC3    O2 9792   3.504   2.561  11.821 -0.2686  0.1219  0.0937
  662MPD2     C 9793   3.078   2.144  16.959 -0.0502 -0.0090  1.1085
  662MPD2    C1 9794   3.105   2.067  17.065  0.1600 -0.3756 -0.3306
  662MPD2    C2 9795   3.107   2.120  17.188  0.4817  0.4641 -0.1372
  662MPD2    C3 9796   3.083   2.257  17.209  0.0555 -0.7441  0.3400
  662MPD2    C4 9797   3.069   2.341  17.099 -0.0233  0.3522 -0.0457
  662MPD2    C5 9798   3.057   2.277  16.980 -0.4501 -0.0273 -0.3211
  662MPD2     H 9799   3.138   2.045  17.259 -1.2625 -1.2872 -1.2197
  662MPD2    H1 9800   3.051   2.447  17.106 -0.9939  0.1639  0.3014
  662MPD2    H2 9801   3.062   2.111  16.858  1.5040 -1.2802  1.2784
  662MPD2    H3 9802   3.034   2.341  16.895 -1.6327 -1.4988 -1.1032
  662MPD2     N 9803   3.085   2.313  17.337 -0.1187 -0.3888  0.1245
  662MPD2    H5 9804   3.091   2.414  17.346  0.7021 -0.2693 -1.8552
  662MPD2    N1 9805   3.131   1.929  17.059  0.3728  0.5931 -0.4787
  662MPD2    H7 9806   3.135   1.879  17.148  2.2524 -2.1994 -2.1327
  663TMC3    C1 9807   3.204   1.729  16.977 -0.2173 -0.5526 -0.5654
  663TMC3    C2 9808   3.211   1.692  17.108 -0.3350 -0.0759  0.2335
  663TMC3    C3 9809   3.326   1.634  17.160 -0.1338 -0.1271 -0.4484
  663TMC3    C4 9810   3.297   1.689  16.887 -0.2305 -0.1500  0.0388
  663TMC3    C5 9811   3.400   1.622  16.935 -0.0338  0.3753  0.0510
  663TMC3    C6 9812   3.411   1.591  17.064 -0.2347 -0.3062  0.0215
  663TMC3     C 9813   3.139   1.852  16.944 -0.0469 -0.6344 -0.4109
  663TMC3     O 9814   3.135   1.882  16.824  0.1311  0.6166 -0.3447
  663TMC3     H 9815   3.120   1.680  17.166  0.5502 -2.9367  1.0441
  663TMC3    H1 9816   3.299   1.722  16.784  0.3529  0.4026  0.2288
  663TMC3    H2 9817   3.507   1.555  17.099 -0.2607  0.1945  0.5974
  663TMC3    C7 9818   3.452   1.530  16.847  0.3147 -0.0800 -0.2544
  663TMC3    C8 9819   3.294   1.521  17.244 -0.1389 -0.6033  0.2660
  663TMC3    O1 9820   3.484   1.564  16.734  0.0431  0.1642 -0.4816
  663TMC3    O2 9821   3.320   1.414  17.194  0.3683 -0.1252 -0.5639
  664MPD2     C 9822   1.557   0.090  17.307 -0.4409 -0.1438 -0.1455
  664MPD2    C1 9823   1.680   0.146  17.326  0.4447 -0.1250 -0.3618
  664MPD2    C2 9824   1.724   0.151  17.453  0.0393  0.2595 -0.1257
  664MPD2    C3 9825   1.657   0.075  17.550  0.4742  0.3509  0.5357
  664MPD2    C4 9826   1.538   0.015  17.529 -0.0268 -0.3749 -0.4357
  664MPD2    C5 9827   1.483   0.032  17.403 -0.7944  0.3176  0.4191
  664MPD2     H 9828   1.813   0.203  17.484 -0.6376  0.8336  0.8400
  664MPD2    H1 9829   1.478   4.698  17.611  0.5894 -1.8601 -0.7080
  664MPD2    H2 9830   1.528   0.087  17.203  1.0074  2.6719 -0.6347
  664MPD2    H3 9831   1.391   4.702  17.383 -0.7737  0.5121 -0.1856
  664MPD2     N 9832   1.723   0.079  17.681 -0.0742 -0.2910  0.7234
  664MPD2    H5 9833   1.808   0.134  17.685  0.2567 -0.6849 -0.7426
  664MPD2    N1 9834   1.745   0.217  17.226 -0.6017 -0.0472  0.0004
  664MPD2    H7 9835   1.830   0.263  17.256 -0.2367  0.3154 -1.6236
  665TMC3    C1 9836   1.725   0.086   0.220  0.0282 -0.4607 -0.2729
  665TMC3    C2 9837   1.702   0.027   0.343  0.3070  0.6070 -0.0065
  665TMC3    C3 9838   1.737   0.099   0.459  0.0662  0.6616  0.0079
  665TMC3    C4 9839   1.765   0.216   0.207 -0.2190 -0.0857 -0.3040
  665TMC3    C5 9840   1.790   0.289   0.324 -0.2675  0.4004  0.3000
  665TMC3    C6 9841   1.780   0.229   0.449 -0.9807  0.2340 -0.6849
  665TMC3     C 9842   1.675   0.018   0.099 -0.4725 -1.1427 -0.3077
  665TMC3     O 9843   1.593   4.648   0.113  0.2263  0.1821  0.4558
  665TMC3     H 9844   1.668   4.647   0.350 -0.8117  0.9207 -0.8279
  665TMC3    H1 9845   1.784   0.280   0.121 -0.6135 -0.2385 -0.5046
  665TMC3    H2 9846   1.794   0.287   0.539  0.2153 -0.0049 -0.7260
  665TMC3    C7 9847   1.810   0.432   0.311  0.2756  0.2028 -0.2844
  665TMC3    C8 9848   1.694   0.049   0.585  0.3092  0.0375  0.2933
  665TMC3    O1 9849   1.792   0.479   0.199  0.0413 -0.0204 -0.2292
  665TMC3    O2 9850   1.636   4.666   0.579 -0.6071  0.1125 -0.0436
  666TMC3    C1 9851   1.790   0.364   9.627 -0.4741  0.3771 -0.5585
  666TMC3    C2 9852   1.838   0.302   9.737 -0.1509  0.2682 -0.1110
  666TMC3    C3 9853   1.837   0.375   9.853  0.2599 -0.7736 -0.4090
  666TMC3    C4 9854   1.723   0.484   9.635 -0.0637 -0.4473 -0.0230
  666TMC3    C5 9855   1.722   0.549   9.758  0.0827 -0.0407 -0.1083
  666TMC3    C6 9856   1.786   0.496   9.865  0.1471 -0.4354  0.0305
  666TMC3     C 9857   1.759   0.282   9.513  0.3313 -0.4547 -0.1747
  666TMC3     O 9858   1.763   0.339   9.405 -0.4787 -0.1901 -0.0372
  666TMC3     H 9859   1.892   0.208   9.733  0.1544  0.4222  0.3606
  666TMC3    H1 9860   1.672   0.535   9.554  0.7735 -0.6307 -0.6646
  666TMC3    H2 9861   1.775   0.544   9.962  0.7815 -0.2463  0.0085
  666TMC3    C7 9862   1.597   0.612   9.791 -0.3944 -0.5162 -0.5378
  666TMC3    C8 9863   1.886   0.307   9.973  0.0280 -0.2885 -0.9689
  666TMC3    O1 9864   1.537   0.572   9.893  0.1870 -0.1806 -0.1015
  666TMC3    O2 9865   1.901   0.190   9.944  0.1379 -0.1363 -0.5379
  667MPD2     C 9866   1.740   0.494  14.518  0.2350 -0.3076 -0.2084
  667MPD2    C1 9867   1.701   0.399  14.611 -0.3822 -0.3267  0.2428
  667MPD2    C2 9868   1.569   0.347  14.606 -0.4254 -0.2473 -0.1320
  667MPD2    C3 9869   1.483   0.400  14.508  0.3833  0.1156  0.1173
  667MPD2    C4 9870   1.527   0.502  14.421 -0.2887  0.5715  0.1506
  667MPD2    C5 9871   1.658   0.544  14.428 -0.2641 -0.6422  0.2533
  667MPD2     H 9872   1.546   0.273  14.682  0.3448 -0.1304  0.2226
  667MPD2    H1 9873   1.466   0.549  14.345  0.4369  1.3202  0.0251
  667MPD2    H2 9874   1.840   0.536  14.527  1.0051 -2.0253 -0.8832
  667MPD2    H3 9875   1.702   0.613  14.357  0.0314 -0.8249  0.2590
  667MPD2     N 9876   1.354   0.367  14.501  0.4338 -0.1044 -0.2951
  667MPD2    H5 9877   1.293   0.407  14.430  0.8942  0.5280 -0.3333
  667MPD2    N1 9878   1.790   0.357  14.709  0.0032 -0.5401  0.4699
  667MPD2    H7 9879   1.762   0.274  14.759 -1.7934 -0.3823 -0.2804
  668TMC3    C1 9880   1.963   0.359  14.871  0.1753  0.1665 -0.0558
  668TMC3    C2 9881   2.072   0.419  14.932 -0.3985  0.0190  0.7188
  668TMC3    C3 9882   2.120   0.370  15.052  0.0243  0.0792  0.2037
  668TMC3    C4 9883   1.907   0.247  14.928 -0.3756  0.9044 -1.0497
  668TMC3    C5 9884   1.954   0.197  15.045  0.1505 -0.5744 -0.2592
  668TMC3    C6 9885   2.068   0.257  15.108  0.5773  1.0900  0.7578
  668TMC3     C 9886   1.905   0.427  14.761 -0.3574  0.0781 -0.5019
  668TMC3     O 9887   1.954   0.532  14.718 -0.8243 -0.7004 -1.0115
  668TMC3     H 9888   2.109   0.508  14.883 -2.0455  0.6221  0.5393
  668TMC3    H1 9889   1.816   0.197  14.898 -0.1986  0.2893 -0.5394
  668TMC3    H2 9890   2.115   0.219  15.198 -0.9718 -3.1336 -0.1876
  668TMC3    C7 9891   1.922   0.056  15.067 -0.0022 -0.8767 -0.1490
  668TMC3    C8 9892   2.248   0.432  15.103 -0.0026  0.0461  0.4096
  668TMC3    O1 9893   1.885   4.721  14.964 -0.0078 -0.0387 -0.0259
  668TMC3    O2 9894   2.312   0.375  15.189  0.1872 -0.2548 -0.6833
  669TMC3    C1 9895   0.331   0.519  14.397 -0.1336  0.3912  0.4191
  669TMC3    C2 9896   0.213   0.565  14.347 -0.3221  0.3629  0.2440
  669TMC3    C3 9897   0.210   0.662  14.250 -0.3118 -0.4159 -0.0807
  669TMC3    C4 9898   0.450   0.565  14.339  0.2847  0.4004 -0.8161
  669TMC3    C5 9899   0.437   0.638  14.226  0.9743 -0.3149 -0.1712
  669TMC3    C6 9900   0.322   0.704  14.184  0.1002  0.6426  0.5536
  669TMC3     C 9901   0.326   0.458  14.532 -0.7894 -0.6703  0.1034
  669TMC3     O 9902   0.218   0.439  14.586  0.5882  0.1771 -0.2552
  669TMC3     H 9903   0.115   0.531  14.378  0.0798 -2.3831 -1.4202
  669TMC3    H1 9904   0.547   0.527  14.370  0.2078 -0.8481 -2.1343
  669TMC3    H2 9905   0.312   0.760  14.091 -0.2155  1.0280  0.8199
  669TMC3    C7 9906   0.557   0.652  14.142 -0.6104  0.0604  0.5107
  669TMC3    C8 9907   0.078   0.690  14.197 -0.2472  0.7873 -0.4695
  669TMC3    O1 9908   0.666   0.660  14.192 -0.0540 -0.1012 -0.6686
  669TMC3    O2 9909   0.004   0.591  14.190  0.1002 -0.3279 -0.0800
  670MPD2     C 9910   2.965   2.888  13.337 -0.3594 -0.9323  0.3617
  670MPD2    C1 9911   3.097   2.881  13.373  0.8694 -0.7038 -0.2477
  670MPD2    C2 9912   3.130   2.823  13.503  0.1394 -0.3417  1.0649
  670MPD2    C3 9913   3.033   2.765  13.575 -0.2589 -0.5263  0.2325
  670MPD2    C4 9914   2.904   2.781  13.532  0.1474 -0.2864  0.7490
  670MPD2    C5 9915   2.866   2.842  13.421 -0.3255  0.1240 -0.0511
  670MPD2     H 9916   3.232   2.815  13.540  0.5462 -1.8621 -0.3493
  670MPD2    H1 9917   2.820   2.763  13.597 -1.5792  1.3988 -1.0162
  670MPD2    H2 9918   2.933   2.937  13.246  0.0166 -3.8393 -1.3179
  670MPD2    H3 9919   2.763   2.859  13.393 -0.8882 -1.2966  1.1201
  670MPD2     N 9920   3.073   2.713  13.704  0.1325 -0.8690  0.8297
  670MPD2    H5 9921   3.173   2.703  13.718  0.5934 -0.1638 -1.7690
  670MPD2    N1 9922   3.207   2.932  13.294  0.1686 -0.2540  0.3469
  670MPD2    H7 9923   3.300   2.918  13.332 -0.5704 -3.8428  0.8867
  671TMC3    C1 9924   3.046   2.587  13.902  0.7216 -0.2640 -0.1795
  671TMC3    C2 9925   3.176   2.614  13.936  0.2880  0.9369 -0.1287
  671TMC3    C3 9926   3.238   2.532  14.026 -0.5384 -0.0895 -0.2943
  671TMC3    C4 9927   2.979   2.486  13.955  0.1956 -0.6165 -0.4237
  671TMC3    C5 9928   3.046   2.400  14.042 -0.1233  0.4106 -0.4298
  671TMC3    C6 9929   3.173   2.422  14.080 -0.0990 -0.3203  0.2891
  671TMC3     C 9930   2.980   2.658  13.791  0.0673 -0.6504 -0.3415
  671TMC3     O 9931   2.859   2.646  13.782  0.3245  0.4247 -0.1790
  671TMC3     H 9932   3.227   2.697  13.890  0.1465 -0.8011 -3.3805
  671TMC3    H1 9933   2.873   2.472  13.942  0.2459 -1.9027  0.5664
  671TMC3    H2 9934   3.238   2.358  14.139  2.9886 -1.4308 -4.3588
  671TMC3    C7 9935   3.025   2.257  14.007  0.6190  0.0455 -0.3910
  671TMC3    C8 9936   3.380   2.537  14.029 -0.1372 -0.6110  0.1012
  671TMC3    O1 9937   3.118   2.183  13.986  0.9031 -0.5071 -0.2246
  671TMC3    O2 9938   3.446   2.596  13.945  0.3886  0.2983 -0.5091
  672MPD2     C 9939   0.001   2.799   0.038  0.2525 -0.0944 -0.0774
  672MPD2    C1 9940   0.034   2.785   0.171 -0.3935  0.3723  0.0289
  672MPD2    C2 9941   0.130   2.866   0.223 -0.2142 -0.2743  0.0667
  672MPD2    C3 9942   0.169   2.981   0.150  0.4290  0.2572 -0.9384
  672MPD2    C4 9943   0.118   2.999   0.025  0.4005 -0.4915  0.6615
  672MPD2    C5 9944   0.040   2.905  17.659 -0.2351 -0.3824 -0.3323
  672MPD2     H 9945   0.149   2.855   0.329  0.7140  1.1956  0.0464
  672MPD2    H1 9946   0.153   3.078  17.651  2.0134 -2.6182 -1.0142
  672MPD2    H2 9947   4.663   2.726  17.678 -3.8345  1.1749  2.9052
  672MPD2    H3 9948   0.019   2.914  17.553  0.7615 -2.4273 -0.7086
  672MPD2     N 9949   0.258   3.084   0.197 -0.0805  0.1026  0.3525
  672MPD2    H5 9950   0.270   3.166   0.139  1.1058 -0.7521 -0.5992
  672MPD2    N1 9951   4.687   2.694   0.253 -0.4646 -0.1803 -0.2219
  672MPD2    H7 9952   4.702   2.697   0.353 -1.7598  1.3915 -0.0641
  673TMC3    C1 9953   4.535   2.531   0.319 -0.2727 -0.0119 -0.0449
  673TMC3    C2 9954   4.615   2.456   0.403 -0.5117 -0.2440 -0.2453
  673TMC3    C3 9955   4.550   2.355   0.468 -0.3530 -0.4918 -0.4254
  673TMC3    C4 9956   4.405   2.507   0.313  0.0670  0.4546  0.3773
  673TMC3    C5 9957   4.353   2.397   0.365 -0.2976  0.3676  0.6013
  673TMC3    C6 9958   4.423   2.314   0.449 -0.0185  0.0565 -0.5089
  673TMC3     C 9959   4.597   2.599   0.209  0.0197 -0.7296  0.0257
  673TMC3     O 9960   4.549   2.584   0.098 -0.1399 -0.8888 -0.0767
  673TMC3     H 9961   4.713   2.492   0.430 -0.8436  0.7244 -0.3129
  673TMC3    H1 9962   4.351   2.570   0.244 -0.1906  0.1281  0.2783
  673TMC3    H2 9963   4.375   2.229   0.497  2.7145 -0.9853  0.3588
  673TMC3    C7 9964   4.207   2.381   0.359  0.4518  0.2225 -0.5196
  673TMC3    C8 9965   4.626   2.275   0.566 -0.3982 -0.3204 -1.1651
  673TMC3    O1 9966   4.168   2.271   0.391  0.3067  0.0478 -0.2822
  673TMC3    O2 9967   4.563   2.175   0.601 -0.2141  0.4596 -0.4294
  674MPD2     C 9968   3.748   1.733   0.413 -0.8072  0.1547  0.2106
  674MPD2    C1 9969   3.620   1.778   0.374 -0.2220  0.8877 -0.5877
  674MPD2    C2 9970   3.541   1.835   0.473  0.4577  0.5270  0.5561
  674MPD2    C3 9971   3.576   1.863   0.601  0.8092 -0.3599 -0.3188
  674MPD2    C4 9972   3.696   1.813   0.642  0.1721 -0.2723  0.1416
  674MPD2    C5 9973   3.774   1.743   0.548 -0.3990  0.1682 -0.1043
  674MPD2     H 9974   3.446   1.871   0.435  2.1874  3.2102 -1.2804
  674MPD2    H1 9975   3.733   1.820   0.744 -0.8047 -0.2389  0.4956
  674MPD2    H2 9976   3.806   1.673   0.344 -1.2266  1.9162 -1.7172
  674MPD2    H3 9977   3.868   1.702   0.584 -0.0756  0.6055 -0.4510
  674MPD2     N 9978   3.486   1.928   0.684 -0.0854  0.0288 -0.1275
  674MPD2    H5 9979   3.402   1.972   0.649 -0.0332  1.2517  1.2425
  674MPD2    N1 9980   3.554   1.751   0.252  0.6370  0.1401 -0.6012
  674MPD2    H7 9981   3.463   1.796   0.244  0.2960 -0.2314  1.0609
  675TMC3    C1 9982   3.545   1.759   0.020 -0.2801 -0.6429  1.1243
  675TMC3    C2 9983   3.416   1.714   0.046 -0.7112 -0.3272  0.3064
  675TMC3    C3 9984   3.315   1.796   0.013  0.2289  0.1311  0.3310
  675TMC3    C4 9985   3.578   1.880  17.657 -0.0191 -0.2748 -0.6895
  675TMC3    C5 9986   3.469   1.947  17.604 -0.5508  0.5983  0.4302
  675TMC3    C6 9987   3.338   1.908  17.629 -0.5450  0.3658 -0.4220
  675TMC3     C 9988   3.626   1.730   0.138 -0.7444 -0.4615  0.4251
  675TMC3     O 9989   3.749   1.737   0.133 -0.1692  0.6113 -0.1949
  675TMC3     H 9990   3.400   1.608   0.058 -0.7482 -0.3719 -0.1280
  675TMC3    H1 9991   3.679   1.916  17.638 -0.7968  1.5338 -1.4082
  675TMC3    H2 9992   3.259   1.978  17.603 -0.3818  0.6054 -0.2696
  675TMC3    C7 9993   3.485   2.076  17.546 -0.1454  0.0493 -0.1711
  675TMC3    C8 9994   3.196   1.787   0.098  0.0732  0.3874  0.0439
  675TMC3    O1 9995   3.407   2.097  17.456 -0.0474  0.3061  0.0202
  675TMC3    O2 9996   3.113   1.874   0.076 -0.3387  0.0710  0.2488
  676MPD2     C 9997   1.508   1.455  10.675 -0.6959 -0.0115  0.3865
  676MPD2    C1 9998   1.454   1.412  10.791 -0.0286 -0.3787  0.0401
  676MPD2    C2 9999   1.486   1.281  10.834 -0.0763  0.0541  0.2148
  676MPD2    C310000   1.560   1.195  10.754  1.3819 -0.5629  0.3614
  676MPD2    C410001   1.615   1.245  10.639  0.1924  0.0962 -0.1171
  676MPD2    C510002   1.584   1.375  10.594 -0.4914  1.1439  0.3218
  676MPD2     H10003   1.456   1.245  10.932 -2.3475 -0.2487 -0.6080
  676MPD2    H110004   1.670   1.177  10.574  0.0144  1.2177 -1.4369
  676MPD2    H210005   1.467   1.548  10.638 -0.0881  0.2221  0.3167
  676MPD2    H310006   1.619   1.407  10.497  2.7063 -0.3482  0.9495
  676MPD2     N10007   1.590   1.060  10.786 -0.3888 -0.3582  0.1027
  676MPD2    H510008   1.630   1.006  10.710 -1.2097 -0.1077 -0.5062
  676MPD2    N110009   1.374   1.503  10.870  0.1949  0.0835 -0.1463
  676MPD2    H710010   1.321   1.468  10.949  2.0566 -1.7999  0.2491
  677TMC3    C110011   1.281   1.703  10.956 -0.4880 -0.1262  0.1394
  677TMC3    C210012   1.157   1.646  10.967  0.1889 -0.1820  0.1095
  677TMC3    C310013   1.073   1.685  11.066  0.0489 -0.5379 -0.5009
  677TMC3    C410014   1.323   1.811  11.035  0.5047 -0.0177  0.1309
  677TMC3    C510015   1.235   1.850  11.132  0.2412  0.5224  0.8616
  677TMC3    C610016   1.112   1.790  11.145 -0.2841  0.4241  0.5645
  677TMC3     C10017   1.375   1.645  10.864  0.3152 -0.4468  0.0058
  677TMC3     O10018   1.455   1.713  10.803  0.0707 -0.2303  0.0201
  677TMC3     H10019   1.127   1.568  10.899 -1.1118 -0.0294  0.5161
  677TMC3    H110020   1.427   1.839  11.032  1.2822 -2.8662 -0.1779
  677TMC3    H210021   1.041   1.818  11.222  0.1203 -0.6036  1.3128
  677TMC3    C710022   1.283   1.905  11.257 -0.3929  0.1552 -0.2894
  677TMC3    C810023   0.955   1.608  11.090  0.4197 -0.5014  0.2594
  677TMC3    O110024   1.201   1.937  11.343  0.0808 -0.2677 -0.3346
  677TMC3    O210025   0.894   1.576  10.989  0.4241  0.2956  0.2378
  678MPD2     C10026   2.632   1.378   1.608  0.1355  0.4151 -0.2607
  678MPD2    C110027   2.681   1.370   1.480 -0.4455 -0.3712  0.4880
  678MPD2    C210028   2.587   1.350   1.383 -0.8351  0.2666  0.1254
  678MPD2    C310029   2.446   1.336   1.407 -0.2098 -0.6998  0.5766
  678MPD2    C410030   2.407   1.338   1.535 -0.0015  0.2983 -0.3588
  678MPD2    C510031   2.498   1.364   1.631  0.4192  0.3440 -0.0991
  678MPD2     H10032   2.615   1.346   1.279 -0.2081  2.8753  0.2007
  678MPD2    H110033   2.310   1.296   1.562  0.9887 -0.0916  2.6140
  678MPD2    H210034   2.691   1.394   1.697 -1.9729  0.4060  1.1458
  678MPD2    H310035   2.468   1.356   1.735  2.0524 -1.0968  0.2596
  678MPD2     N10036   2.354   1.323   1.295 -0.1481  0.4096 -0.0547
  678MPD2    H510037   2.401   1.319   1.205  1.0056  0.6952  0.5250
  678MPD2    N110038   2.816   1.368   1.440  0.1164 -0.5775 -0.1697
  678MPD2    H710039   2.830   1.357   1.340  1.1399  0.2069 -0.1050
  679TMC3    C110040   3.234   1.194   1.410  0.1056 -0.2852 -0.6414
  679TMC3    C210041   3.145   1.251   1.496  0.1315 -0.4991 -0.0683
  679TMC3    C310042   3.057   1.347   1.450 -0.0062 -0.0858 -0.3102
  679TMC3    C410043   3.242   1.220   1.280 -0.7688  0.1769  0.4406
  679TMC3    C510044   3.153   1.310   1.233 -0.0605 -0.0893 -0.7863
  679TMC3    C610045   3.060   1.381   1.316  0.1855  0.1764  0.3980
  679TMC3     C10046   3.330   1.087   1.467  0.1427  0.1940 -0.1157
  679TMC3     O10047   3.285   1.030   1.567 -0.1125 -0.2321 -0.3303
  679TMC3     H10048   3.145   1.221   1.600  1.2542  1.3766  0.4728
  679TMC3    H110049   3.310   1.168   1.213 -0.6372  0.0808  0.6512
  679TMC3    H210050   3.008   1.469   1.281 -0.0471 -0.3182 -0.4943
  679TMC3    C710051   3.139   1.339   1.095 -0.0686 -0.2007  0.3423
  679TMC3    C810052   2.928   1.356   1.520 -0.8846 -0.5296 -0.2617
  679TMC3    O110053   3.044   1.412   1.064 -0.2272 -0.2250 -0.3500
  679TMC3    O210054   2.935   1.331   1.639  0.2449 -0.1676  0.1668
  680MPD2     C10055   3.818   0.396  13.524 -0.4531 -0.4845 -0.0500
  680MPD2    C110056   3.773   0.338  13.639  0.2739 -0.3907 -0.0729
  680MPD2    C210057   3.761   0.414  13.752 -0.0199  0.7382 -0.1988
  680MPD2    C310058   3.811   0.544  13.757  1.4035  1.1181 -0.3146
  680MPD2    C410059   3.865   0.598  13.645  0.1218  0.4764 -0.1247
  680MPD2    C510060   3.861   0.523  13.533 -0.0422 -0.0818 -0.4181
  680MPD2     H10061   3.726   0.370  13.844  2.0233  1.6377  1.0078
  680MPD2    H110062   3.901   0.700  13.645  0.2792  0.4392  3.1956
  680MPD2    H210063   3.809   0.340  13.431 -1.5885  0.2348 -0.3704
  680MPD2    H310064   3.883   0.565  13.436  0.7791 -0.1671 -0.2685
  680MPD2     N10065   3.811   0.620  13.878  0.0276  0.5382 -0.2873
  680MPD2    H510066   3.856   0.711  13.873 -1.4057  1.2616 -0.0580
  680MPD2    N110067   3.739   0.202  13.640 -0.6782  0.0474  0.0422
  680MPD2    H710068   3.705   0.167  13.729  0.6133 -1.1939  0.0521
  681TMC3    C110069   3.719   4.701  13.577  0.2294  0.5352 -0.7179
  681TMC3    C210070   3.621   4.677  13.674  0.7487 -0.6135 -0.4385
  681TMC3    C310071   3.545   4.568  13.653  0.0081 -0.1171 -0.5581
  681TMC3    C410072   3.747   4.609  13.479 -0.5148  0.1868  0.1484
  681TMC3    C510073   3.664   4.497  13.468  0.1199  0.0673  0.1665
  681TMC3    C610074   3.568   4.470  13.558  0.0803  0.0006  0.7298
  681TMC3     C10075   3.745   0.111  13.531  0.1794 -0.3306  0.2258
  681TMC3     O10076   3.778   0.125  13.415 -0.5530  0.4912 -0.3121
  681TMC3     H10077   3.581   0.045  13.719 -0.2541 -0.1140 -2.3022
  681TMC3    H110078   3.819   4.639  13.404 -1.0744 -2.3156 -1.4049
  681TMC3    H210079   3.505   4.383  13.543 -1.5561  1.7309 -2.5634
  681TMC3    C710080   3.621   4.474  13.337  0.8563 -0.1646 -0.2407
  681TMC3    C810081   3.429   4.540  13.739 -0.6450  0.0140 -0.3970
  681TMC3    O110082   3.538   4.388  13.318 -0.0419 -0.0359 -0.5475
  681TMC3    O210083   3.360   4.437  13.720  0.0932  0.3586  0.2460
  682MPD2     C10084   0.685   1.142  10.662  0.4461 -0.5664  0.3117
  682MPD2    C110085   0.774   1.036  10.678 -0.3277  0.1168 -0.2542
  682MPD2    C210086   0.787   0.978  10.801  0.2965 -0.1988  0.3414
  682MPD2    C310087   0.719   1.027  10.904 -0.3141 -0.3834  0.0463
  682MPD2    C410088   0.630   1.130  10.886 -0.3428 -0.1869 -0.4537
  682MPD2    C510089   0.615   1.189  10.768 -0.0476 -0.6003  0.3689
  682MPD2     H10090   0.866   0.907  10.820 -0.1143 -0.1723  2.1212
  682MPD2    H110091   0.582   1.183  10.967  1.3738 -2.1362  1.8052
  682MPD2    H210092   0.673   1.203  10.573  1.4630 -3.0878 -1.5366
  682MPD2    H310093   0.557   1.280  10.759 -1.7144 -1.7448 -0.5066
  682MPD2     N10094   0.720   0.980  11.036  0.3260  0.3008  0.4617
  682MPD2    H510095   0.642   1.016  11.090 -0.2553 -0.2556 -0.0044
  682MPD2    N110096   0.854   0.992  10.575  0.0503 -0.6406  0.5015
  682MPD2    H710097   0.911   0.911  10.598 -0.3091 -1.0850 -0.2068
  683TMC3    C110098   0.708   0.869  11.433  0.1743  0.1720  0.3193
  683TMC3    C210099   0.761   0.749  11.477  0.4454 -0.9430 -0.6961
  683TMC3    C310100   0.797   0.657  11.381  0.2657 -0.3181 -0.0487
  683TMC3    C410101   0.713   0.916  11.307  0.7899  0.5320 -0.0458
  683TMC3    C510102   0.760   0.825  11.212  0.3841 -0.1154 -1.0386
  683TMC3    C610103   0.805   0.693  11.245  0.3894 -0.2577 -0.3175
  683TMC3     C10104   0.653   0.965  11.530  0.6521  0.3694  0.5475
  683TMC3     O10105   0.630   1.075  11.487  0.0561 -0.0561 -0.6437
  683TMC3     H10106   0.771   0.730  11.583 -0.9003 -1.5752 -0.6871
  683TMC3    H110107   0.691   1.020  11.282  1.0716  0.4370 -0.6853
  683TMC3    H210108   0.844   0.628  11.167 -0.2351 -0.6871 -0.2695
  683TMC3    C710109   0.786   0.866  11.076 -0.0632 -0.0518  0.2421
  683TMC3    C810110   0.846   0.524  11.423 -0.1986 -0.2171 -0.0320
  683TMC3    O110111   0.865   0.797  11.013 -0.0436  0.3722 -0.5710
  683TMC3    O210112   0.908   0.458  11.337  0.3543 -0.6454  0.4616
  684MPD2     C10113   3.226   0.636  16.531 -0.1025 -0.1331  1.0675
  684MPD2    C110114   3.192   0.658  16.395  0.0523 -0.1572 -0.4847
  684MPD2    C210115   3.167   0.789  16.356  0.1641  0.0980  0.9443
  684MPD2    C310116   3.212   0.895  16.435  0.3909  0.8166 -0.2563
  684MPD2    C410117   3.254   0.875  16.565 -0.1522  0.1361 -0.4870
  684MPD2    C510118   3.249   0.746  16.610 -0.2800 -0.8786 -0.9466
  684MPD2     H10119   3.140   0.812  16.253  0.8574  0.4935  0.8493
  684MPD2    H110120   3.275   0.951  16.640  3.5468 -1.0608 -0.3347
  684MPD2    H210121   3.219   0.541  16.584 -2.6367 -1.5637 -1.8208
  684MPD2    H310122   3.275   0.727  16.713  2.0444  2.7717 -0.8869
  684MPD2     N10123   3.235   1.027  16.390  0.0888  1.1272 -0.3522
  684MPD2    H510124   3.280   1.090  16.455 -0.0056  0.9006 -0.0667
  684MPD2    N110125   3.194   0.565  16.293 -0.4483  0.5704 -0.4049
  684MPD2    H710126   3.157   0.609  16.210 -0.3703  1.6856  0.1474
  685TMC3    C110127   3.215   0.347  16.183 -0.1278  0.6351  0.2006
  685TMC3    C210128   3.153   0.383  16.067  0.4761  0.4524 -0.4862
  685TMC3    C310129   3.211   0.331  15.949  0.8080 -0.0102 -0.2969
  685TMC3    C410130   3.336   0.273  16.183  0.7069  0.5712  0.4276
  685TMC3    C510131   3.396   0.241  16.061  0.4813 -0.2166 -0.5135
  685TMC3    C610132   3.333   0.262  15.938 -0.5170 -0.0868  0.8295
  685TMC3     C10133   3.204   0.424  16.306 -0.3448 -0.0679  0.1455
  685TMC3     O10134   3.227   0.365  16.412 -0.0688  0.7435  0.0567
  685TMC3     H10135   3.057   0.433  16.061 -0.7099 -1.5822  1.6118
  685TMC3    H110136   3.400   0.282  16.269 -0.7786 -0.1323  1.6112
  685TMC3    H210137   3.387   0.242  15.846 -0.2024  1.6930  0.6301
  685TMC3    C710138   3.543   0.236  16.069 -0.4957 -0.6743  0.2003
  685TMC3    C810139   3.160   0.376  15.822 -0.7232  0.6611 -0.6135
  685TMC3    O110140   3.595   0.146  16.140 -0.2042 -0.2609 -0.2050
  685TMC3    O210141   3.214   0.333  15.726  0.4439 -0.0299 -0.3051
  686MPD2     C10142   0.033   0.615  15.586 -0.6354 -0.2134 -0.6628
  686MPD2    C110143   0.071   0.513  15.668 -0.9733  0.1520 -0.3414
  686MPD2    C210144   0.156   0.422  15.610  1.0032 -0.2034  0.5749
  686MPD2    C310145   0.201   0.436  15.477  0.2191  0.4618 -0.0002
  686MPD2    C410146   0.159   0.538  15.399  0.0178 -0.0339 -0.2323
  686MPD2    C510147   0.067   0.626  15.452 -0.6589 -0.0862  0.2037
  686MPD2     H10148   0.202   0.347  15.674  0.2714 -0.1124  1.2056
  686MPD2    H110149   0.197   0.554  15.298 -1.9286 -1.6345 -1.2171
  686MPD2    H210150   4.682   0.684  15.623 -0.6953 -0.3231 -0.5762
  686MPD2    H310151   0.027   0.705  15.389  0.0180  1.0092  1.1419
  686MPD2     N10152   0.299   0.347  15.415 -0.0885  0.2612  0.3188
  686MPD2    H510153   0.325   0.376  15.322  0.0315 -0.0312  0.2636
  686MPD2    N110154   0.019   0.515  15.798 -0.3888 -0.3801 -0.0678
  686MPD2    H710155   4.662   0.573  15.821 -0.9928 -0.3397 -2.2948
  687TMC3    C110156   0.281   0.160  15.560  0.5350 -0.4041  0.1480
  687TMC3    C210157   0.152   0.127  15.548  0.4779  0.3689 -0.0644
  687TMC3    C310158   0.082   0.073  15.649  0.6687 -0.3743  0.1228
  687TMC3    C410159   0.355   0.115  15.668  0.3144  0.2936  0.0623
  687TMC3    C510160   0.285   0.056  15.770  0.1787 -0.1661  0.5900
  687TMC3    C610161   0.151   0.040  15.762 -0.0529 -0.4374 -0.1946
  687TMC3     C10162   0.354   0.228  15.455 -0.0160  0.1662 -0.3320
  687TMC3     O10163   0.457   0.175  15.418 -0.3949 -0.4885  0.1115
  687TMC3     H10164   0.097   0.144  15.457 -1.1407 -1.9505  0.4685
  687TMC3    H110165   0.461   0.135  15.673  0.0611  1.3640  1.0346
  687TMC3    H210166   0.094   0.011  15.849  1.6630 -0.0899  1.0407
  687TMC3    C710167   0.354   0.072  15.898  0.6153 -0.8822  0.2200
  687TMC3    C810168   4.661   0.102  15.674 -0.9103 -0.0129 -0.0592
  687TMC3    O110169   0.466   0.121  15.894  0.5301  0.1169  0.0510
  687TMC3    O210170   4.613   0.062  15.782  0.2041  0.1001 -0.5644
  688MPD2     C10171   3.770   3.982  17.255 -0.2824  0.4346  0.2469
  688MPD2    C110172   3.876   3.904  17.307  0.1875  0.4017 -0.0712
  688MPD2    C210173   4.004   3.908  17.253 -0.0104  0.4847  0.6638
  688MPD2    C310174   4.022   3.981  17.139 -0.5266  0.0238 -0.3514
  688MPD2    C410175   3.918   4.058  17.091 -0.6729  0.4609  0.6532
  688MPD2    C510176   3.797   4.059  17.147  0.0158  0.2917  0.4274
  688MPD2     H10177   4.081   3.850  17.304 -0.6665 -1.7677 -0.8892
  688MPD2    H110178   3.923   4.121  17.004 -2.2602 -2.1757 -1.3634
  688MPD2    H210179   3.670   3.982  17.295 -0.7473  1.1976 -0.9150
  688MPD2    H310180   3.714   4.103  17.092  1.0086  0.7095 -0.7317
  688MPD2     N10181   4.144   3.988  17.066 -0.6611  0.3135 -0.3688
  688MPD2    H510182   4.145   4.050  16.986 -0.1981 -1.4831 -1.7684
  688MPD2    N110183   3.859   3.812  17.418 -0.2769  0.7086 -0.0643
  688MPD2    H710184   3.942   3.760  17.444 -2.1379 -2.1484  0.1646
  689TMC3    C110185   3.764   3.683  17.582 -0.2252  0.5395 -0.1154
  689TMC3    C210186   3.870   3.716  17.662  0.0917 -0.4491  0.3013
  689TMC3    C310187   3.918   3.623   0.060 -0.8681 -0.6806  1.1367
  689TMC3    C410188   3.710   3.557  17.578 -0.3530  0.5477  0.8715
  689TMC3    C510189   3.769   3.462  17.662  0.4404 -0.1522 -0.1157
  689TMC3    C610190   3.864   3.497   0.060 -0.4810 -0.5100  0.2709
  689TMC3     C10191   3.742   3.770  17.475  0.1750 -0.2335 -0.2155
  689TMC3     O10192   3.628   3.786  17.435 -0.0539 -0.1534  0.2397
  689TMC3     H10193   3.908   3.818  17.663 -1.7992  0.2570  0.3731
  689TMC3    H110194   3.635   3.538  17.502 -0.5829  0.3350  1.1494
  689TMC3    H210195   3.910   3.427   0.128  1.5963  0.4610 -0.1532
  689TMC3    C710196   3.713   3.328  17.667 -0.0547 -0.1432  0.1359
  689TMC3    C810197   3.951   3.675   0.191 -0.1169  0.2811 -0.4168
  689TMC3    O110198   3.738   3.256   0.070 -0.3687  0.2164  0.8647
  689TMC3    O210199   4.022   3.599   0.253  0.8027  0.4072 -0.1527
  690MPD2     C10200   1.556   1.248  15.536 -0.0499 -0.6996  0.2955
  690MPD2    C110201   1.528   1.266  15.399 -0.0613  0.0110  0.4283
  690MPD2    C210202   1.628   1.297  15.312  1.2010  0.7838 -0.1125
  690MPD2    C310203   1.756   1.290  15.354  0.1168  0.3127  0.4180
  690MPD2    C410204   1.785   1.270  15.488 -0.1118 -0.0324  0.0000
  690MPD2    C510205   1.686   1.255  15.572 -0.2498  0.5899  0.6727
  690MPD2     H10206   1.595   1.313  15.210  2.6226 -0.8096 -0.8073
  690MPD2    H110207   1.887   1.265  15.524 -1.2227 -0.7116  3.0091
  690MPD2    H210208   1.483   1.238  15.615  1.7208 -1.8030  1.7914
  690MPD2    H310209   1.711   1.245  15.677 -0.8031  0.1215  0.7600
  690MPD2     N10210   1.860   1.320  15.258 -0.5731 -0.3304 -0.1052
  690MPD2    H510211   1.828   1.339  15.164 -0.7922  1.9357  0.4142
  690MPD2    N110212   1.397   1.249  15.354 -0.6553 -0.3740  0.1154
  690MPD2    H710213   1.385   1.255  15.253  1.9924 -1.5565 -0.2682
  691TMC3    C110214   1.169   1.192  15.351  0.2428 -0.5302  0.4208
  691TMC3    C210215   1.047   1.226  15.409  0.6432 -0.9155  0.3243
  691TMC3    C310216   0.947   1.139  15.411  0.5321  0.2850 -0.4220
  691TMC3    C410217   1.182   1.065  15.293 -0.4538  0.0472  0.1837
  691TMC3    C510218   1.073   0.983  15.295  0.2935  0.2596  0.4507
  691TMC3    C610219   0.953   1.023  15.349  0.0175  0.2498 -0.1729
  691TMC3     C10220   1.289   1.222  15.429  0.1988  0.0254  0.0282
  691TMC3     O10221   1.273   1.216  15.548  0.0444  0.9253  0.9912
  691TMC3     H10222   1.036   1.320  15.463  0.3157 -1.3869  1.0703
  691TMC3    H110223   1.277   1.033  15.252 -0.2065  1.0857 -0.0691
  691TMC3    H210224   0.870   0.954  15.356 -0.4084  0.9198  1.3507
  691TMC3    C710225   1.103   0.836  15.299 -0.1136  0.6676 -0.5469
  691TMC3    C810226   0.845   1.155  15.523 -0.0628  0.2921  0.5229
  691TMC3    O110227   1.216   0.801  15.270  0.3016 -0.0010  0.0786
  691TMC3    O210228   0.814   1.054  15.581  0.0872 -0.7499  0.2210
  692TMC3    C110229   3.078   2.331  15.677 -0.2237  0.1603 -0.0314
  692TMC3    C210230   3.198   2.355  15.740  0.3756 -0.6890 -0.7407
  692TMC3    C310231   3.271   2.244  15.782 -0.3908  0.3537  0.4955
  692TMC3    C410232   3.056   2.212  15.613  0.5952 -0.4726  0.9616
  692TMC3    C510233   3.128   2.106  15.646 -0.0523  0.0236 -0.4334
  692TMC3    C610234   3.247   2.121  15.722 -0.3922  0.2382  0.2877
  692TMC3     C10235   2.976   2.430  15.680 -0.0099  0.8516  0.5524
  692TMC3     O10236   2.870   2.376  15.695 -0.3585  0.2799 -0.0145
  692TMC3     H10237   3.210   2.445  15.798 -2.1246 -0.3754 -0.7301
  692TMC3    H110238   2.965   2.202  15.555  0.4283 -0.4327  1.2191
  692TMC3    H210239   3.304   2.036  15.757  1.6150  1.8746  0.9846
  692TMC3    C710240   3.076   1.976  15.610  0.1988  0.5367 -0.2370
  692TMC3    C810241   3.307   2.240  15.929  0.2204 -0.0937  0.3502
  692TMC3    O110242   3.003   1.970  15.511 -0.0088  0.3527 -0.1007
  692TMC3    O210243   3.345   2.131  15.967 -0.2375  0.6747  0.1982
  693MPD2     C10244   2.685   0.624  10.926  0.1075 -0.2606  0.2722
  693MPD2    C110245   2.720   0.515  10.855 -0.8752 -0.6799 -0.1807
  693MPD2    C210246   2.844   0.525  10.794  0.2255 -0.0709  0.4619
  693MPD2    C310247   2.919   0.640  10.787  0.1344 -0.0774 -0.4031
  693MPD2    C410248   2.874   0.752  10.856  0.0379  0.1594  0.0552
  693MPD2    C510249   2.759   0.743  10.926 -0.3433  0.4570 -0.9624
  693MPD2     H10250   2.889   0.436  10.750  1.5460  2.4206 -3.2370
  693MPD2    H110251   2.931   0.844  10.860 -0.3777  0.4483 -0.6463
  693MPD2    H210252   2.590   0.625  10.978 -1.0247 -0.1820 -1.7956
  693MPD2    H310253   2.720   0.826  10.984 -0.4479 -0.2251 -0.0543
  693MPD2     N10254   3.044   0.650  10.724  0.8197 -0.1568 -0.3133
  693MPD2    H510255   3.117   0.715  10.752 -1.0826  1.9583 -0.3132
  693MPD2    N110256   2.647   0.398  10.864 -0.1589 -0.9218  0.4746
  693MPD2    H710257   2.562   0.412  10.918  0.1239 -0.3840  0.7769
  694TMC3    C110258   2.578   0.177  10.814  1.1015 -0.0593  0.0811
  694TMC3    C210259   2.538   0.100  10.711  0.4975 -0.1004 -0.4993
  694TMC3    C310260   2.453   4.718  10.737  0.5462  0.4532 -0.0351
  694TMC3    C410261   2.516   0.177  10.935 -0.2221  0.1701  0.2197
  694TMC3    C510262   2.447   0.062  10.967  0.1403  0.4116  0.4591
  694TMC3    C610263   2.412   4.692  10.859  0.8953  0.5353 -0.3470
  694TMC3     C10264   2.677   0.280  10.792  0.0575 -0.5733 -0.5941
  694TMC3     O10265   2.756   0.258  10.702  0.1965 -0.2068  0.1815
  694TMC3     H10266   2.591   0.111  10.617 -0.4333  2.1218 -0.7508
  694TMC3    H110267   2.543   0.253  11.008  1.0347 -0.4604  0.3988
  694TMC3    H210268   2.345   4.606  10.864  1.9829 -0.3123 -0.3555
  694TMC3    C710269   2.402   0.044  11.102 -0.7380 -0.4483 -0.1197
  694TMC3    C810270   2.382   4.659  10.618  0.1554  0.2423 -0.1214
  694TMC3    O110271   2.434   0.131  11.180  0.8078  0.2066 -0.1433
  694TMC3    O210272   2.316   4.558  10.641  0.0553 -0.5410  0.3092
  695MPD2     C10273   3.880   2.334  13.181  0.6292 -0.0959  0.9997
  695MPD2    C110274   3.825   2.294  13.301  0.0707  0.2877 -0.9483
  695MPD2    C210275   3.690   2.261  13.307  0.2505  0.2926  0.4293
  695MPD2    C310276   3.610   2.266  13.198 -0.2175 -0.0450  0.1650
  695MPD2    C410277   3.667   2.303  13.077 -0.4316 -0.0660  0.2281
  695MPD2    C510278   3.802   2.318  13.066  0.5515  0.0289 -0.2285
  695MPD2     H10279   3.653   2.243  13.407 -1.0473 -0.5405 -0.1903
  695MPD2    H110280   3.610   2.310  12.985 -0.3666  1.4041  0.2913
  695MPD2    H210281   3.987   2.348  13.165  0.3394 -1.8428 -2.5971
  695MPD2    H310282   3.854   2.340  12.974 -2.3589 -0.3896 -1.9683
  695MPD2     N10283   3.469   2.247  13.223  0.1296  0.7883 -0.5148
  695MPD2    H510284   3.446   2.239  13.322  0.2637  0.1469 -0.5343
  695MPD2    N110285   3.899   2.307  13.422  0.4408 -0.1164  0.5292
  695MPD2    H710286   3.859   2.279  13.511  1.5259 -2.4402  0.2959
  696TMC3    C110287   3.240   2.278  13.204 -0.0276  0.5440  0.2233
  696TMC3    C210288   3.221   2.201  13.316 -0.2902  0.2344 -2.0284
  696TMC3    C310289   3.084   2.187  13.348  0.2343  0.5929  0.3434
  696TMC3    C410290   3.143   2.333  13.124  0.6783  0.3415 -0.2952
  696TMC3    C510291   3.012   2.315  13.157 -0.5531 -0.2489 -0.5262
  696TMC3    C610292   2.979   2.248  13.275 -0.3068  0.0238 -0.7588
  696TMC3     C10293   3.367   2.270  13.140 -0.1190  0.5571  0.5283
  696TMC3     O10294   3.369   2.282  13.020  0.1485 -0.4539  0.0098
  696TMC3     H10295   3.296   2.142  13.367 -0.1674  0.6516 -1.7189
  696TMC3    H110296   3.180   2.398  13.045  2.9346 -1.3322 -0.6245
  696TMC3    H210297   2.874   2.236  13.297 -0.0661 -2.0320 -0.7126
  696TMC3    C710298   2.929   2.428  13.129 -0.4667 -0.5772  0.0974
  696TMC3    C810299   3.056   2.154  13.488 -0.0097 -0.4116 -0.2801
  696TMC3    O110300   2.938   2.472  13.015  0.1475 -0.2825  0.9882
  696TMC3    O210301   3.149   2.159  13.566 -0.0071  0.0106 -0.0984
  697MPD2     C10302   2.816   3.795  15.854  0.6237 -0.1413 -0.1769
  697MPD2    C110303   2.838   3.784  15.715 -0.6371 -0.5296  0.3993
  697MPD2    C210304   2.859   3.899  15.641  0.4822  0.4103  0.1855
  697MPD2    C310305   2.855   4.023  15.702 -0.4062 -0.1393 -0.1434
  697MPD2    C410306   2.826   4.035  15.838 -0.4533  0.5765  0.1072
  697MPD2    C510307   2.810   3.925  15.911  0.2510 -0.3044  0.7423
  697MPD2     H10308   2.862   3.894  15.533  3.8253  0.0130  0.2987
  697MPD2    H110309   2.818   4.131  15.890 -2.1007  0.0811  0.7554
  697MPD2    H210310   2.815   3.710  15.923  1.1960  0.6780  0.8389
  697MPD2    H310311   2.795   3.943  16.017 -2.0427  0.7467  0.2596
  697MPD2     N10312   2.875   4.142  15.627  0.8872 -0.4822 -0.4079
  697MPD2    H510313   2.892   4.127  15.528  0.3090 -1.2247 -0.3947
  697MPD2    N110314   2.851   3.663  15.644 -0.2132 -0.5523  0.3118
  697MPD2    H710315   2.840   3.661  15.543 -1.8481  2.3234  0.4347
  698TMC3    C110316   2.928   4.363  15.573 -0.4837  0.1285 -0.0593
  698TMC3    C210317   3.057   4.394  15.597  0.3481  0.1345  0.3926
  698TMC3    C310318   3.137   4.415  15.491 -0.3933 -0.7020 -0.5395
  698TMC3    C410319   2.887   4.337  15.446  0.4617 -0.4286  0.0095
  698TMC3    C510320   2.970   4.365  15.338 -0.3730  0.4800 -0.3391
  698TMC3    C610321   3.098   4.407  15.361 -1.1845 -0.2154 -0.4665
  698TMC3     C10322   2.871   4.273  15.673 -0.2595  0.5753  0.1807
  698TMC3     O10323   2.852   4.319  15.784 -0.3922  0.2411  0.0665
  698TMC3     H10324   3.089   4.407  15.700  0.2716  0.9530  0.3146
  698TMC3    H110325   2.792   4.289  15.425  0.6652 -0.2323 -1.3767
  698TMC3    H210326   3.173   4.407  15.283 -0.3211 -2.0737  0.3555
  698TMC3    C710327   2.906   4.356  15.211  0.0538  0.4121  0.7197
  698TMC3    C810328   3.278   4.435  15.524  0.4290 -0.4404 -0.5107
  698TMC3    O110329   2.795   4.300  15.203  0.4171  0.7901  0.2115
  698TMC3    O210330   3.309   4.430  15.642 -0.5354  0.4506  0.0932
  699TMC3    C110331   3.047   2.178  12.794 -0.1981  0.1628  0.7405
  699TMC3    C210332   3.101   2.089  12.890 -0.7382 -0.6429 -0.9103
  699TMC3    C310333   3.019   2.001  12.953  0.5986 -0.2042 -0.3661
  699TMC3    C410334   2.914   2.163  12.768  0.2276  0.2619 -1.1442
  699TMC3    C510335   2.836   2.087  12.842  0.5635 -0.4344 -0.3550
  699TMC3    C610336   2.883   1.993  12.932 -0.2996 -0.1061 -0.6996
  699TMC3     C10337   3.125   2.260  12.702  0.0275 -0.5404 -0.2003
  699TMC3     O10338   3.076   2.284  12.592 -0.1956  0.1819  0.2112
  699TMC3     H10339   3.204   2.107  12.920 -1.0777 -0.7888  0.3413
  699TMC3    H110340   2.866   2.233  12.700 -0.3115  1.6563  0.6903
  699TMC3    H210341   2.813   1.942  12.997 -1.8612  2.4511 -0.3504
  699TMC3    C710342   2.696   2.093  12.812  0.1563  0.3315  0.3354
  699TMC3    C810343   3.066   1.942  13.081  0.0700 -0.2611  0.6456
  699TMC3    O110344   2.652   2.202  12.776  0.0127 -0.3154 -0.1080
  699TMC3    O210345   2.970   1.914  13.158 -0.0326  0.1941 -0.6901
  700TMC3    C110346   1.926   4.323  17.042 -0.1633 -0.6221 -0.1110
  700TMC3    C210347   2.019   4.259  16.965  0.2726  0.0062  0.0897
  700TMC3    C310348   2.082   4.152  17.028  0.3458  0.5859 -0.3747
  700TMC3    C410349   1.907   4.294  17.173  0.1516 -0.0783  0.9456
  700TMC3    C510350   1.980   4.192  17.241 -0.6578  0.6200 -0.0025
  700TMC3    C610351   2.063   4.117  17.163  0.4551 -0.1759  0.2942
  700TMC3     C10352   1.864   4.436  16.988  0.9211 -0.7944  0.4077
  700TMC3     O10353   1.745   4.443  17.016 -0.1503  0.1929 -0.1522
  700TMC3     H10354   2.042   4.274  16.860  0.6612 -1.0564  0.0229
  700TMC3    H110355   1.830   4.350  17.223 -0.0790  0.7734 -0.3711
  700TMC3    H210356   2.126   4.039  17.204 -0.5361  0.3268  2.7765
  700TMC3    C710357   2.045   4.239  17.359  0.1661  0.3673 -0.7213
  700TMC3    C810358   2.135   4.051  16.932  1.0163  0.1773 -0.6691
  700TMC3    O110359   2.168   4.249  17.356  0.2136 -0.0282 -0.4500
  700TMC3    O210360   2.164   4.080  16.817  0.5560  0.2842 -0.5135
  701TMC3    C110361   2.017   3.048  15.410 -0.0067  0.4214  0.2464
  701TMC3    C210362   2.059   2.982  15.300  0.1787  0.1481 -0.7907
  701TMC3    C310363   2.183   3.015  15.257 -0.3444 -0.6211  0.1317
  701TMC3    C410364   2.081   3.149  15.473  0.3347  0.1461  0.6251
  701TMC3    C510365   2.208   3.176  15.424  0.3815  0.5888  0.7134
  701TMC3    C610366   2.261   3.112  15.320  0.2270  0.3377  0.6492
  701TMC3     C10367   1.909   2.984  15.480  0.8729 -0.1779  0.1122
  701TMC3     O10368   1.892   2.867  15.455  0.0954  0.3194 -0.1574
  701TMC3     H10369   2.002   2.903  15.252 -1.2408  0.7960 -0.1919
  701TMC3    H110370   2.031   3.208  15.548 -1.1099  2.1244 -1.9089
  701TMC3    H210371   2.354   3.135  15.269  0.8942 -2.8263  0.3978
  701TMC3    C710372   2.274   3.295  15.486  0.6801 -0.6453  0.4420
  701TMC3    C810373   2.203   3.019  15.111  0.6651 -0.0115 -0.1937
  701TMC3    O110374   2.353   3.365  15.426 -0.5212  0.0727  0.4402
  701TMC3    O210375   2.316   3.032  15.066 -0.1248  0.1947  0.5460
  702MPD2     C10376   2.109   0.700  10.527  0.1434 -0.1625 -0.4043
  702MPD2    C110377   1.993   0.781  10.537 -0.5242 -0.8076  0.3138
  702MPD2    C210378   1.977   0.879  10.440 -0.4814  0.4136  0.5998
  702MPD2    C310379   2.068   0.915  10.351  0.9774  0.0869  0.3038
  702MPD2    C410380   2.178   0.832  10.350 -0.0495  1.1236  0.3947
  702MPD2    C510381   2.198   0.717  10.428  0.4114 -0.2906  0.0594
  702MPD2     H10382   1.883   0.933  10.447 -1.0063 -0.4971  0.5998
  702MPD2    H110383   2.258   0.851  10.278  0.4556 -0.1280  0.6341
  702MPD2    H210384   2.121   0.619  10.598 -1.6211  0.0632  0.1551
  702MPD2    H310385   2.288   0.657  10.420  0.7192  0.2067 -0.1810
  702MPD2     N10386   2.059   1.037  10.281 -0.2279  0.1902  0.1124
  702MPD2    H510387   2.125   1.047  10.205 -1.1098  1.1232 -0.5347
  702MPD2    N110388   1.903   0.779  10.640 -0.4482  0.1111  0.1787
  702MPD2    H710389   1.835   0.854  10.627  0.0736  0.3456 -1.1888
  703TMC3    C110390   2.001   1.266  10.252  0.8112  0.1848 -0.3070
  703TMC3    C210391   1.889   1.347  10.251 -0.3431 -0.8804 -0.5211
  703TMC3    C310392   1.890   1.453  10.165  0.2242 -0.0318 -0.0016
  703TMC3    C410393   2.112   1.286  10.175 -0.1044 -0.3333  0.2705
  703TMC3    C510394   2.105   1.395  10.088 -0.4433  0.5966 -0.6055
  703TMC3    C610395   2.000   1.486  10.086  0.3637  0.2745  0.2223
  703TMC3     C10396   1.972   1.138  10.323 -0.3726  0.6478  0.1084
  703TMC3     O10397   1.898   1.136  10.419  0.3360  0.1399 -0.1903
  703TMC3     H10398   1.805   1.333  10.317  0.5871  0.7139  1.0014
  703TMC3    H110399   2.196   1.219  10.158  3.6952  4.0853  1.2894
  703TMC3    H210400   1.998   1.585  10.042  0.0848 -0.2256 -0.9068
  703TMC3    C710401   2.219   1.437  10.014  0.2800  0.0420 -0.3955
  703TMC3    C810402   1.796   1.558  10.195  0.5745 -1.1856 -0.1995
  703TMC3    O110403   2.332   1.412  10.053  0.1853 -0.5486  0.2531
  703TMC3    O210404   1.837   1.673  10.178  0.4034  0.1173  0.0855
  704TMC3    C110405   3.496   3.981  12.501  0.3802  0.3526  0.1796
  704TMC3    C210406   3.602   4.066  12.492 -0.5163 -0.4458 -0.2159
  704TMC3    C310407   3.709   4.036  12.567 -0.3621 -0.5192 -0.2775
  704TMC3    C410408   3.504   3.862  12.562  0.5117 -0.1044  0.1094
  704TMC3    C510409   3.623   3.828  12.622 -0.0186 -0.2414  0.1366
  704TMC3    C610410   3.726   3.916  12.627  0.0343  0.3532  0.4984
  704TMC3     C10411   3.382   4.002  12.414  0.8285  0.2452  0.0178
  704TMC3     O10412   3.278   3.939  12.437 -0.0712 -0.3454 -0.2517
  704TMC3     H10413   3.594   4.166  12.451 -1.7231 -0.6206 -0.4010
  704TMC3    H110414   3.417   3.797  12.563  0.6367 -0.2809 -0.6463
  704TMC3    H210415   3.824   3.885  12.663 -0.0792 -0.9190 -0.3092
  704TMC3    C710416   3.668   3.701  12.588  0.0222 -0.0523 -0.1012
  704TMC3    C810417   3.825   4.110  12.514  0.4734  0.2186  0.0431
  704TMC3    O110418   3.783   3.689  12.540 -0.3811 -0.2107  0.6745
  704TMC3    O210419   3.827   4.144  12.394 -0.2487 -0.1999 -0.0447
  705MPD2     C10420   3.432   1.760  16.321  0.4643 -0.7767 -0.5194
  705MPD2    C110421   3.386   1.873  16.255  0.0758  0.3323 -0.1097
  705MPD2    C210422   3.268   1.935  16.296  0.3507 -0.1084 -0.1279
  705MPD2    C310423   3.206   1.893  16.416  0.5369 -0.1238  0.0152
  705MPD2    C410424   3.259   1.787  16.486  0.0674  0.0622  0.1222
  705MPD2    C510425   3.367   1.724  16.434  0.0515 -0.0799  0.2259
  705MPD2     H10426   3.229   2.016  16.235  0.3173 -0.7036 -0.9024
  705MPD2    H110427   3.222   1.751  16.582  0.1818 -0.6324 -0.0898
  705MPD2    H210428   3.525   1.708  16.297  0.2982 -1.7343  0.9501
  705MPD2    H310429   3.413   1.642  16.488 -1.3338 -0.8539  0.2255
  705MPD2     N10430   3.099   1.960  16.477 -0.1506 -0.5646  0.2137
  705MPD2    H510431   3.068   1.925  16.567 -3.5494 -0.6775 -1.0120
  705MPD2    N110432   3.461   1.924  16.144  0.0412 -0.1050 -0.1891
  705MPD2    H710433   3.423   2.004  16.093 -3.5353 -1.7603 -0.1061
  706TMC3    C110434   3.744   1.919  15.776 -0.6177 -0.4268 -0.0824
  706TMC3    C210435   3.741   2.057  15.758  0.0539 -0.4686  0.1732
  706TMC3    C310436   3.697   2.130  15.869  0.2039  0.0975 -0.8176
  706TMC3    C410437   3.697   1.861  15.893 -0.7390  0.2494  0.1510
  706TMC3    C510438   3.642   1.935  15.990  0.4139  0.2437 -0.6226
  706TMC3    C610439   3.638   2.075  15.981  0.5215 -0.4437  0.3030
  706TMC3     C10440   3.817   1.832  15.681  0.2644 -0.1687 -0.5260
  706TMC3     O10441   3.852   1.722  15.718 -0.3475 -0.4382 -0.3427
  706TMC3     H10442   3.796   2.111  15.681 -0.4110  2.7795  2.1198
  706TMC3    H110443   3.697   1.752  15.897 -0.2565  0.2700  0.6269
  706TMC3    H210444   3.607   2.138  16.063  0.4448 -0.3192  0.1765
  706TMC3    C710445   3.579   1.865  16.094 -0.3829  0.1099  0.3040
  706TMC3    C810446   3.728   2.266  15.864  0.3996  0.0378 -0.4893
  706TMC3    O110447   3.643   1.762  16.109  0.2951 -0.3190  0.3032
  706TMC3    O210448   3.783   2.312  15.766 -0.2144  0.0934 -0.0342
  707TMC3    C110449   0.735   0.570   1.307 -0.0927 -0.4549  0.1301
  707TMC3    C210450   0.743   0.450   1.372  0.1819  0.1630  0.7690
  707TMC3    C310451   0.627   0.397   1.410  0.5578 -0.5302 -0.3899
  707TMC3    C410452   0.629   0.653   1.287  0.1821 -0.2658  0.0969
  707TMC3    C510453   0.513   0.606   1.343  0.0633  0.1807  0.0508
  707TMC3    C610454   0.507   0.476   1.389  0.4622  0.0508  0.3666
  707TMC3     C10455   0.858   0.605   1.239  0.2035  0.1274  0.6298
  707TMC3     O10456   0.959   0.552   1.278  0.3710  0.0039 -0.5175
  707TMC3     H10457   0.836   0.395   1.377  1.6999  2.6376 -0.3251
  707TMC3    H110458   0.650   0.754   1.256  0.1019 -0.5709 -0.9338
  707TMC3    H210459   0.412   0.435   1.423 -1.8807  5.4252  0.1913
  707TMC3    C710460   0.394   0.692   1.339  0.3782 -0.4662  0.6805
  707TMC3    C810461   0.617   0.260   1.455 -0.7414 -0.9785 -0.4986
  707TMC3    O110462   0.295   0.657   1.398  0.4007  0.1117 -0.2581
  707TMC3    O210463   0.502   0.223   1.488 -0.6059 -0.3658 -0.7631
  708MPD2     C10464   2.494   0.677  13.441 -0.1861 -0.1065 -0.4001
  708MPD2    C110465   2.372   0.739  13.425 -0.8932  0.5207 -0.1778
  708MPD2    C210466   2.254   0.674  13.467 -0.3208  0.0517  0.2867
  708MPD2    C310467   2.260   0.545  13.520  0.0505 -0.4538  0.0266
  708MPD2    C410468   2.384   0.487  13.547  1.0309 -0.2929 -0.5102
  708MPD2    C510469   2.501   0.551  13.504  0.2189  0.0342  0.1254
  708MPD2     H10470   2.157   0.722  13.459 -0.9250 -1.3566 -0.8792
  708MPD2    H110471   2.396   0.389  13.592  1.1332  0.5614  1.3357
  708MPD2    H210472   2.580   0.720  13.390  1.7856 -2.5949  0.7824
  708MPD2    H310473   2.594   0.495  13.501  0.2011  0.1626 -2.5341
  708MPD2     N10474   2.136   0.481  13.558 -0.0812  1.0108  0.2328
  708MPD2    H510475   2.052   0.526  13.525  0.6315  1.9464 -0.3148
  708MPD2    N110476   2.361   0.866  13.359  0.2475 -0.2926 -0.2108
  708MPD2    H710477   2.265   0.896  13.348  1.4447  3.0649 -1.2725
  709TMC3    C110478   2.385   1.070  13.262  0.0985 -0.1336  0.3126
  709TMC3    C210479   2.404   1.074  13.129 -0.4546  1.1482 -0.8027
  709TMC3    C310480   2.300   1.067  13.041 -0.2684 -0.1116  0.5304
  709TMC3    C410481   2.257   1.086  13.304 -0.1491  0.2177 -0.4832
  709TMC3    C510482   2.147   1.089  13.214  0.6288  0.5730  0.7816
  709TMC3    C610483   2.167   1.060  13.077  0.3282 -0.5050  0.3143
  709TMC3     C10484   2.454   0.956  13.322 -0.6062  0.0394  0.1279
  709TMC3     O10485   2.575   0.945  13.316  0.0276 -0.1680  0.1015
  709TMC3     H10486   2.507   1.063  13.098 -0.2627  0.1986  0.1855
  709TMC3    H110487   2.243   1.095  13.411  0.4965  1.1711 -0.4706
  709TMC3    H210488   2.092   1.061  12.999 -0.0297  0.6754  0.6698
  709TMC3    C710489   2.037   1.022  13.276  0.2027  0.0596  0.0525
  709TMC3    C810490   2.339   1.041  12.903 -0.2659  0.2607 -0.0995
  709TMC3    O110491   2.083   0.952  13.366 -0.1213  0.1549 -0.5946
  709TMC3    O210492   2.446   1.089  12.872  0.1916  0.0683  0.0516
  710TMC3    C110493   2.714   1.614   0.397 -0.3404 -0.1132  0.1547
  710TMC3    C210494   2.770   1.613   0.272  0.3618  0.6212  0.0335
  710TMC3    C310495   2.883   1.541   0.250 -0.3785  0.0213  0.0159
  710TMC3    C410496   2.774   1.550   0.501 -0.4209  0.3926 -0.1402
  710TMC3    C510497   2.886   1.471   0.478 -0.0205 -0.6962 -0.7567
  710TMC3    C610498   2.948   1.473   0.353  0.5945 -0.0805 -0.1120
  710TMC3     C10499   2.578   1.666   0.405  0.6151  0.7297  0.8283
  710TMC3     O10500   2.534   1.715   0.302 -0.5728 -0.4537  0.1852
  710TMC3     H10501   2.713   1.662   0.193  1.5017 -0.1781 -1.2723
  710TMC3    H110502   2.719   1.532   0.593 -0.9144 -0.3869 -0.5908
  710TMC3    H210503   3.033   1.414   0.323  0.0756 -0.7522 -0.2773
  710TMC3    C710504   2.941   1.405   0.589  0.2203  0.1510  0.0450
  710TMC3    C810505   2.940   1.535   0.116  0.0185 -0.4849  0.7564
  710TMC3    O110506   2.873   1.401   0.694  0.2750 -0.1898  0.0080
  710TMC3    O210507   2.907   1.624   0.038  1.0001 -0.1759 -0.4031
  711TMC3    C110508   2.716   2.976  14.867  0.4476 -0.1304  0.3329
  711TMC3    C210509   2.725   2.977  15.009  0.8410 -0.7463 -0.9646
  711TMC3    C310510   2.849   2.975  15.065 -0.1372 -0.3918 -0.2498
  711TMC3    C410511   2.825   2.958  14.796  0.5342 -0.5818  0.6726
  711TMC3    C510512   2.945   2.918  14.855  0.1758  0.9409 -0.0889
  711TMC3    C610513   2.956   2.933  14.988  0.9752  0.0930  0.2665
  711TMC3     C10514   2.609   2.902  14.804 -0.0426 -0.1163  0.2581
  711TMC3     O10515   2.624   2.856  14.691  0.7188  0.0282  0.0833
  711TMC3     H10516   2.634   2.991  15.066  1.5959 -1.0721  0.3188
  711TMC3    H110517   2.825   2.967  14.688 -1.0155  3.6575  1.0068
  711TMC3    H210518   3.055   2.918  15.031  0.1867 -1.6361  1.4908
  711TMC3    C710519   2.976   2.776  14.837 -0.1581  1.1443 -0.0808
  711TMC3    C810520   2.852   2.996  15.211 -0.0016 -0.6280 -0.2547
  711TMC3    O110521   3.080   2.728  14.877 -0.4684  0.4059  0.4050
  711TMC3    O210522   2.743   3.008  15.265 -0.6319  0.1910 -0.2252
  712MPD2     C10523   4.265   4.203  14.051  0.2581 -0.0878 -1.1305
  712MPD2    C110524   4.185   4.255  13.956  0.9251  0.0278 -0.0360
  712MPD2    C210525   4.235   4.353  13.866 -0.1242  0.1848  0.0117
  712MPD2    C310526   4.361   4.408  13.872 -0.9072 -0.2185  0.3026
  712MPD2    C410527   4.439   4.348  13.967 -0.4131  1.5963 -0.0453
  712MPD2    C510528   4.399   4.252  14.051  0.2499  0.1327 -1.2163
  712MPD2     H10529   4.175   4.381  13.780  1.3986  0.4030 -0.9861
  712MPD2    H110530   4.537   4.389  13.986  0.3300 -0.5606  0.6804
  712MPD2    H210531   4.214   4.140  14.122 -0.2212  0.0735 -1.3319
  712MPD2    H310532   4.469   4.227  14.130 -1.1346 -0.9969 -0.3347
  712MPD2     N10533   4.417   4.503  13.786 -0.0008 -0.7017 -0.2521
  712MPD2    H510534   4.516   4.525  13.788 -0.2491  0.4926 -0.8689
  712MPD2    N110535   4.055   4.196  13.926  0.7224 -0.6507  0.4327
  712MPD2    H710536   4.004   4.238  13.848  1.9412 -0.6301 -0.3593
  713TMC3    C110537   4.411   4.684  13.634  0.2107 -0.4284 -0.2568
  713TMC3    C210538   4.536   0.003  13.669  0.5654  0.1126  0.1855
  713TMC3    C310539   4.602   0.096  13.593  0.1166 -0.2983 -0.2809
  713TMC3    C410540   4.355   0.014  13.521  0.2004 -0.0489  0.3914
  713TMC3    C510541   4.431   0.087  13.435 -0.3374 -0.7622  0.7377
  713TMC3    C610542   4.550   0.135  13.466  0.1505 -0.0901  1.1698
  713TMC3     C10543   4.339   4.577  13.702  0.0025 -0.2502 -0.5318
  713TMC3     O10544   4.219   4.574  13.679 -0.0093 -0.0848 -0.4219
  713TMC3     H10545   4.584   4.698  13.762 -0.9245 -0.2649  0.8503
  713TMC3    H110546   4.265   4.689  13.486  0.1332  1.2642 -1.2015
  713TMC3    H210547   4.592   0.197  13.388 -1.0467  1.2355  1.5641
  713TMC3    C710548   4.378   0.113  13.298  0.2256 -0.3094  0.6038
  713TMC3    C810549   0.014   0.136  13.623  0.5877  0.1089 -0.1026
  713TMC3    O110550   4.459   0.127  13.204  0.1745  1.0008 -0.1767
  713TMC3    O210551   0.081   0.057  13.691  0.2704 -0.0232  0.9005
  714MPD2     C10552   1.079   2.556   0.943 -0.1004 -0.3807 -0.1712
  714MPD2    C110553   1.119   2.426   0.967  0.7218  0.2328  0.3377
  714MPD2    C210554   1.043   2.319   0.936 -0.5711  0.0544  0.3091
  714MPD2    C310555   0.922   2.343   0.871  0.0994  0.0557  0.1187
  714MPD2    C410556   0.890   2.475   0.843 -0.0099  0.0178  0.0056
  714MPD2    C510557   0.968   2.574   0.876 -0.1177 -0.4510  0.0416
  714MPD2     H10558   1.071   2.218   0.964  0.6461  0.7069  1.3957
  714MPD2    H110559   0.793   2.500   0.801 -0.8958  0.0731  2.1107
  714MPD2    H210560   1.131   2.636   0.994  0.3676 -0.2042 -0.9349
  714MPD2    H310561   0.930   2.673   0.857  0.7548  0.2255  1.8192
  714MPD2     N10562   0.835   2.234   0.845 -0.5617  0.4317  0.1367
  714MPD2    H510563   0.865   2.142   0.875 -3.4196 -0.7283 -0.6032
  714MPD2    N110564   1.251   2.412   1.023  0.0417 -0.2132  0.2028
  714MPD2    H710565   1.305   2.496   1.039 -0.0912 -0.3281  1.2123
  715TMC3    C110566   1.448   2.306   1.098  0.3472  0.7727 -0.8281
  715TMC3    C210567   1.517   2.184   1.120 -0.6139  0.1094 -0.0215
  715TMC3    C310568   1.641   2.190   1.177  0.2057  0.0311 -0.9225
  715TMC3    C410569   1.499   2.425   1.146  0.0082  0.1930  0.3532
  715TMC3    C510570   1.619   2.413   1.214  0.6130  0.7099  0.1352
  715TMC3    C610571   1.700   2.305   1.211  0.3773  0.1971  0.0148
  715TMC3     C10572   1.325   2.297   1.024  0.1944 -0.3403 -0.3645
  715TMC3     O10573   1.300   2.191   0.969 -0.2406 -0.8895 -0.2648
  715TMC3     H10574   1.469   2.090   1.096  0.9357 -0.8974  0.8223
  715TMC3    H110575   1.445   2.518   1.135  0.0726  0.0280 -1.3165
  715TMC3    H210576   1.802   2.305   1.247  0.5149 -1.3059 -0.3645
  715TMC3    C710577   1.668   2.525   1.289 -0.3875 -0.0980  0.3218
  715TMC3    C810578   1.729   2.080   1.153  0.7114 -0.4915  0.7809
  715TMC3    O110579   1.777   2.510   1.339 -0.2217 -0.0903  0.3594
  715TMC3    O210580   1.702   2.007   1.059  0.1380 -0.2501  0.0219
  716MPD2     C10581   1.552   0.360   9.006 -0.3195 -0.4427  0.6855
  716MPD2    C110582   1.515   0.254   8.937 -0.0421  0.3112  0.1016
  716MPD2    C210583   1.614   0.161   8.910 -0.1721  0.1504  0.3661
  716MPD2    C310584   1.743   0.180   8.955  0.0718 -0.0319  0.4527
  716MPD2    C410585   1.777   0.283   9.032 -0.2794 -0.9374 -0.2116
  716MPD2    C510586   1.671   0.371   9.059 -0.2759  0.1685  0.2552
  716MPD2     H10587   1.593   0.083   8.838 -0.3866  0.5334  0.0189
  716MPD2    H110588   1.878   0.300   9.067 -1.8805  3.4282  2.3301
  716MPD2    H210589   1.490   0.449   9.012 -0.1955 -0.4038  1.3614
  716MPD2    H310590   1.692   0.465   9.110  2.2529 -0.9450  1.2565
  716MPD2     N10591   1.835   0.079   8.929 -0.3842 -0.1242 -0.6403
  716MPD2    H510592   1.791   4.720   8.887 -0.4871  0.4827 -1.7147
  716MPD2    N110593   1.380   0.259   8.886  0.2456  0.4983  0.1429
  716MPD2    H710594   1.314   0.332   8.909 -1.0104 -0.3617 -0.7058
  717TMC3    C110595   2.038   4.695   8.880 -0.8292 -0.4062  0.1427
  717TMC3    C210596   1.975   4.623   8.782 -0.7839 -0.0798 -0.2521
  717TMC3    C310597   2.033   4.502   8.742 -0.3103 -0.3565 -0.5381
  717TMC3    C410598   2.149   4.648   8.942 -0.4020 -0.4282 -0.3508
  717TMC3    C510599   2.202   4.526   8.898  0.6082 -0.4095 -0.4374
  717TMC3    C610600   2.144   4.443   8.804  1.1498  0.5257  0.2556
  717TMC3     C10601   1.972   0.078   8.949  0.2779  0.2543 -0.6411
  717TMC3     O10602   2.043   0.147   9.021 -0.1420 -0.1454 -0.1607
  717TMC3     H10603   1.889   4.663   8.729  0.0645 -1.8756 -3.0071
  717TMC3    H110604   2.198   4.708   9.018 -1.7946  0.7794 -0.4175
  717TMC3    H210605   2.166   4.338   8.790 -1.1942  0.0811 -0.1559
  717TMC3    C710606   2.324   4.485   8.970 -0.4573  0.0946 -0.1803
  717TMC3    C810607   1.952   4.411   8.666 -0.2689  0.2215 -0.1804
  717TMC3    O110608   2.360   4.551   9.065  0.1955  0.2273  0.2762
  717TMC3    O210609   1.831   4.436   8.656  0.6798 -0.1267 -0.6241
  718MPD2     C10610   1.214   3.813  12.526 -0.7843 -0.2929 -0.3003
  718MPD2    C110611   1.301   3.791  12.636 -0.0074  0.1129  0.1648
  718MPD2    C210612   1.258   3.725  12.745  0.0465 -0.0730 -0.3848
  718MPD2    C310613   1.127   3.693  12.761 -0.1144  0.0706  0.3086
  718MPD2    C410614   1.036   3.712  12.648  0.0349  0.2400  0.0717
  718MPD2    C510615   1.083   3.766  12.531  0.3206 -0.1574  0.4170
  718MPD2     H10616   1.328   3.708  12.826  3.9252  5.1255 -2.6667
  718MPD2    H110617   0.935   3.674  12.652 -0.1671  0.5262 -2.2943
  718MPD2    H210618   1.244   3.859  12.432  1.0351 -0.1932  0.3505
  718MPD2    H310619   1.011   3.779  12.450  1.3898  0.0068 -0.5068
  718MPD2     N10620   1.085   3.643  12.889  0.0364 -0.6831 -0.5112
  718MPD2    H510621   1.159   3.652  12.958 -0.8263 -0.0461  0.3252
  718MPD2    N110622   1.425   3.854  12.657  0.0831 -0.2941 -0.2420
  718MPD2    H710623   1.473   3.829  12.743  0.0221 -0.0799 -0.1442
  719TMC3    C110624   1.606   3.993  12.644 -0.0819 -0.0733  0.2233
  719TMC3    C210625   1.622   3.933  12.767 -0.1371  0.4689  0.1365
  719TMC3    C310626   1.663   4.011  12.871  0.3432 -0.1906  0.3113
  719TMC3    C410627   1.628   4.123  12.625  0.9430  0.3206 -0.3850
  719TMC3    C510628   1.676   4.195  12.730  0.4958 -0.2898  0.1088
  719TMC3    C610629   1.696   4.140  12.853  0.3270 -0.2206 -0.4848
  719TMC3     C10630   1.488   3.947  12.573  0.2531  0.7161 -0.7672
  719TMC3     O10631   1.453   4.002  12.472 -0.5826  0.4999 -0.1038
  719TMC3     H10632   1.630   3.825  12.777  0.4726  0.2957 -2.0306
  719TMC3    H110633   1.625   4.174  12.529 -0.8757 -2.4268 -1.7766
  719TMC3    H210634   1.745   4.199  12.930 -1.0401  1.3068 -0.7755
  719TMC3    C710635   1.759   4.305  12.684  0.2517 -0.2895 -0.6881
  719TMC3    C810636   1.590   3.964  12.977 -0.0790  0.3824 -0.2159
  719TMC3    O110637   1.798   4.288  12.566  0.2923  0.0025 -0.3170
  719TMC3    O210638   1.547   3.850  12.976  0.1346  0.3743  0.4144
  720MPD2     C10639   3.917   1.442  13.947  0.3138  0.7210 -0.1763
  720MPD2    C110640   4.015   1.525  13.893 -0.2883 -0.1948  0.2966
  720MPD2    C210641   4.144   1.521  13.941  1.2614  0.1210  0.3533
  720MPD2    C310642   4.167   1.435  14.051 -0.1543 -0.6098  0.3290
  720MPD2    C410643   4.066   1.357  14.103 -0.2307  0.4256  0.0460
  720MPD2    C510644   3.938   1.361  14.055  0.8246  0.1972 -0.9142
  720MPD2     H10645   4.228   1.567  13.891  1.5145  0.2864  0.9330
  720MPD2    H110646   4.078   1.281  14.180 -0.6470 -1.9456 -2.2188
  720MPD2    H210647   3.817   1.457  13.909 -0.3984 -1.2857  0.8828
  720MPD2    H310648   3.853   1.304  14.091 -0.7394  2.9934 -0.1575
  720MPD2     N10649   4.301   1.425  14.095  0.0841  0.7475 -0.3947
  720MPD2    H510650   4.368   1.492  14.058 -0.2143  0.5818 -1.2424
  720MPD2    N110651   3.970   1.606  13.779 -0.5685  0.2771  0.4102
  720MPD2    H710652   3.879   1.586  13.740  0.1846  0.2214 -1.3011
  721TMC3    C110653   4.489   1.352  14.222  0.6538  0.1332 -0.5413
  721TMC3    C210654   4.533   1.330  14.353  0.6887 -0.1411  0.4048
  721TMC3    C310655   4.667   1.323  14.370 -0.0570  0.1842  0.0911
  721TMC3    C410656   4.577   1.358  14.118  0.7608 -0.1516 -0.3728
  721TMC3    C510657   4.706   1.353  14.145  0.3287  0.6783 -0.1533
  721TMC3    C610658   0.038   1.332  14.269 -0.4796  1.8027  0.1689
  721TMC3     C10659   4.346   1.351  14.204  0.4185 -0.6487  0.6120
  721TMC3     O10660   4.283   1.301  14.294 -0.2009  0.3334  0.0501
  721TMC3     H10661   4.468   1.323  14.440  0.1470  1.6102  0.1346
  721TMC3    H110662   4.550   1.357  14.012 -1.2154 -2.6851  0.1616
  721TMC3    H210663   0.146   1.327  14.280 -0.4134 -0.8678 -1.7142
  721TMC3    C710664   0.083   1.348  14.038 -0.9440 -0.1754 -0.4170
  721TMC3    C810665   4.715   1.320  14.507 -0.3504  0.0072 -0.5367
  721TMC3    O110666   0.082   1.425  13.942  0.3448 -1.1287 -0.2625
  721TMC3    O210667   0.100   1.372  14.531  0.0895  0.0435  0.3078
  722MPD2     C10668   3.223   4.557  13.392 -0.3502 -0.6471 -0.3983
  722MPD2    C110669   3.202   4.625  13.270 -0.3632 -0.2388  0.5045
  722MPD2    C210670   3.105   4.575  13.179  0.4989  0.1464 -0.6564
  722MPD2    C310671   3.023   4.470  13.212  0.0431 -0.0344 -0.6158
  722MPD2    C410672   3.045   4.404  13.333 -0.1176  0.3263  0.2332
  722MPD2    C510673   3.144   4.443  13.427 -0.4847  0.1958  0.6885
  722MPD2     H10674   3.095   4.624  13.083  3.1362  0.8886 -0.5420
  722MPD2    H110675   2.978   4.323  13.361  0.1372  0.4252  1.1351
  722MPD2    H210676   3.293   4.598  13.464  0.8031  0.9256 -2.3990
  722MPD2    H310677   3.145   4.410  13.530 -1.5605  0.9238  0.9328
  722MPD2     N10678   2.927   4.437  13.117 -0.3313 -0.1229 -0.0223
  722MPD2    H510679   2.891   4.501  13.047  0.6605  1.3369  0.7922
  722MPD2    N110680   3.276   0.017  13.231  0.0236  0.8529  0.2735
  722MPD2    H710681   3.260   0.060  13.140 -0.7154  1.5791  0.7546
  723TMC3    C110682   2.757   4.308  13.020  0.0751  0.5265 -0.0608
  723TMC3    C210683   2.685   4.190  13.020  0.3194  0.5456  0.0468
  723TMC3    C310684   2.567   4.186  12.949  0.0364 -0.0753 -0.0121
  723TMC3    C410685   2.724   4.418  12.939 -0.4070  0.0064 -0.6660
  723TMC3    C510686   2.600   4.412  12.881 -0.1382  0.3741 -0.5801
  723TMC3    C610687   2.523   4.298  12.887 -0.2568 -0.6442 -0.1220
  723TMC3     C10688   2.870   4.314  13.117 -0.3132  0.1215 -0.8177
  723TMC3     O10689   2.901   4.210  13.175 -0.4138  0.5177  0.1359
  723TMC3     H10690   2.725   4.098  13.062 -1.2138  0.1237  0.5803
  723TMC3    H110691   2.775   4.513  12.937  0.2747 -0.3727 -1.6208
  723TMC3    H210692   2.418   4.287  12.863 -0.9090  0.1348  2.3640
  723TMC3    C710693   2.528   4.535  12.846 -0.5151 -1.1014  0.1517
  723TMC3    C810694   2.455   4.129  13.012  0.0266 -0.4278 -0.4603
  723TMC3    O110695   2.426   4.513  12.785  0.1608 -0.0336 -0.0384
  723TMC3    O210696   2.441   4.155  13.135  0.0461 -0.7772 -0.1748
  724TMC3    C110697   2.846   2.734   9.606  0.1587  0.5437  0.7596
  724TMC3    C210698   2.948   2.689   9.687 -0.0255  0.4451  1.3108
  724TMC3    C310699   3.050   2.776   9.722  0.1020  0.7005  0.3121
  724TMC3    C410700   2.839   2.863   9.561  0.2267 -0.2629 -0.6870
  724TMC3    C510701   2.955   2.941   9.579  0.0458 -0.1856 -0.4373
  724TMC3    C610702   3.057   2.904   9.661  0.7020  0.0810 -0.3882
  724TMC3     C10703   2.740   2.649   9.565 -0.0637 -0.1024  0.0121
  724TMC3     O10704   2.761   2.533   9.538 -0.4553 -0.1647 -0.2032
  724TMC3     H10705   2.949   2.586   9.721 -2.4905  0.5038  1.5353
  724TMC3    H110706   2.775   2.887   9.476 -0.0689  1.9071  0.1511
  724TMC3    H210707   3.130   2.974   9.700 -0.6614  0.9808  0.5526
  724TMC3    C710708   2.962   3.072   9.510 -0.7697 -0.4654 -0.7176
  724TMC3    C810709   3.132   2.724   9.832 -0.4190  0.4123  0.3769
  724TMC3    O110710   3.072   3.119   9.513  0.3652  0.0494 -0.0576
  724TMC3    O210711   3.083   2.624   9.887  0.1150  0.0509  0.8063
  725TMC3    C110712   0.112   1.889  12.315  0.2144  0.4409  0.3993
  725TMC3    C210713   0.096   1.863  12.186  0.5959 -0.5532 -0.9082
  725TMC3    C310714   0.167   1.754  12.146  0.9673  0.2161  1.0779
  725TMC3    C410715   0.190   1.821  12.399 -0.4068 -0.4651  0.1142
  725TMC3    C510716   0.264   1.721  12.347 -0.2108  0.1733 -0.0628
  725TMC3    C610717   0.262   1.688  12.217  0.6364 -0.2737 -0.3935
  725TMC3     C10718   0.038   2.002  12.365  0.2741  0.3160 -0.5344
  725TMC3     O10719   0.037   2.099  12.288  0.8433  0.2883  0.4047
  725TMC3     H10720   0.034   1.917  12.115 -0.7597 -1.7993 -0.6791
  725TMC3    H110721   0.197   1.861  12.499 -1.0041  0.9017 -0.3962
  725TMC3    H210722   0.341   1.633  12.168  0.5258  0.4190 -1.3456
  725TMC3    C710723   0.318   1.619  12.438 -0.3577 -0.2681 -0.2904
  725TMC3    C810724   0.180   1.737  12.005 -0.3168  0.7937  1.2857
  725TMC3    O110725   0.342   1.507  12.393 -0.1709  0.0738  0.2589
  725TMC3    O210726   0.191   1.834  11.935  0.1184 -0.0603  0.8052
  726MPD2     C10727   2.964   3.183  10.363  0.4136 -0.5356 -0.2044
  726MPD2    C110728   2.859   3.196  10.268 -0.4456  0.6195  0.1693
  726MPD2    C210729   2.746   3.121  10.284 -0.3232  0.2590 -0.2787
  726MPD2    C310730   2.737   3.023  10.378 -0.1987  0.6239  0.6038
  726MPD2    C410731   2.837   3.005  10.467 -0.7916 -0.4584  0.4158
  726MPD2    C510732   2.954   3.076  10.447 -0.2943  0.2829 -1.0244
  726MPD2     H10733   2.664   3.132  10.214 -0.8052  3.3327  0.7758
  726MPD2    H110734   2.840   2.925  10.540 -2.2735  0.4211  1.4246
  726MPD2    H210735   3.053   3.243  10.349 -0.7611  0.5450 -3.1712
  726MPD2    H310736   3.043   3.058  10.507 -0.0526  3.3026 -0.5072
  726MPD2     N10737   2.624   2.947  10.403 -0.3287 -0.1061 -0.4664
  726MPD2    H510738   2.633   2.876  10.475 -2.2523 -0.4603 -0.5874
  726MPD2    N110739   2.865   3.292  10.161 -0.0452 -0.0827  0.0928
  726MPD2    H710740   2.808   3.278  10.079 -0.0318 -1.0990  0.2491
  727TMC3    C110741   2.942   3.493  10.057  0.9971 -0.1740  0.1876
  727TMC3    C210742   3.041   3.588  10.054  0.5417 -0.9046 -0.3370
  727TMC3    C310743   3.027   3.700   9.982  0.2936 -0.3615  0.4254
  727TMC3    C410744   2.823   3.508   9.988  0.3115 -1.4066  0.1254
  727TMC3    C510745   2.820   3.609   9.901 -0.2712  0.6722 -0.3687
  727TMC3    C610746   2.920   3.701   9.896  0.3153  0.7282  0.5859
  727TMC3     C10747   2.951   3.396  10.172 -0.1716  0.1289 -0.5291
  727TMC3     O10748   3.041   3.425  10.255  0.4674  0.8571  0.6686
  727TMC3     H10749   3.135   3.573  10.107  1.4667  0.5127 -1.5702
  727TMC3    H110750   2.751   3.427   9.992 -0.4982 -0.7643 -1.4076
  727TMC3    H210751   2.908   3.788   9.832 -1.7680 -0.1453 -0.2003
  727TMC3    C710752   2.699   3.611   9.821 -0.1257  0.2252  0.0341
  727TMC3    C810753   3.139   3.798   9.985  0.2303 -0.3740 -0.0633
  727TMC3    O110754   2.602   3.552   9.861 -0.0343  0.0489  0.3144
  727TMC3    O210755   3.249   3.755  10.019  0.0850  0.0613  0.3060
  728TMC3    C110756   2.071   1.362  15.161  0.5044  0.2784  0.7201
  728TMC3    C210757   2.183   1.422  15.191 -1.0948 -0.0099  0.0912
  728TMC3    C310758   2.245   1.493  15.089  0.9307 -0.4991  0.2261
  728TMC3    C410759   2.019   1.354  15.032  0.0979  0.3924 -0.8289
  728TMC3    C510760   2.081   1.424  14.930  0.3396 -0.3232  0.0621
  728TMC3    C610761   2.194   1.495  14.958 -0.2191  0.1652 -0.4002
  728TMC3     C10762   1.992   1.323  15.280 -0.4022  0.0545  0.1010
  728TMC3     O10763   2.055   1.303  15.384 -0.0874 -0.5700  0.4903
  728TMC3     H10764   2.226   1.445  15.288  0.1583 -0.8727 -0.2676
  728TMC3    H110765   1.930   1.298  15.009 -0.3956  1.6525 -2.0055
  728TMC3    H210766   2.237   1.572  14.896  2.1450 -0.2797  0.7143
  728TMC3    C710767   2.000   1.465  14.814  0.2249 -0.1797 -0.0268
  728TMC3    C810768   2.314   1.620  15.131 -0.4467 -0.7507 -0.3939
  728TMC3    O110769   1.885   1.434  14.820 -0.2373  0.4642  0.2921
  728TMC3    O210770   2.270   1.667  15.234 -0.0710  0.2883  0.3499
  729MPD2     C10771   3.993   2.140  16.161  0.1825  0.2137  0.0093
  729MPD2    C110772   3.992   2.264  16.216  0.2076  0.1465 -0.4555
  729MPD2    C210773   3.909   2.286  16.322 -0.6867  0.9736 -0.1172
  729MPD2    C310774   3.825   2.179  16.363 -0.3703  0.4791 -0.0971
  729MPD2    C410775   3.822   2.060  16.301 -0.0151  0.6004 -0.6251
  729MPD2    C510776   3.909   2.046  16.201 -0.0286  0.0527 -0.1732
  729MPD2     H10777   3.923   2.376  16.382 -2.5064 -0.3260  2.2709
  729MPD2    H110778   3.766   1.976  16.340 -0.2364 -0.1503 -2.5548
  729MPD2    H210779   4.068   2.112  16.087 -3.1180 -0.4202 -3.0500
  729MPD2    H310780   3.915   1.944  16.165  0.9182 -0.3922  1.2702
  729MPD2     N10781   3.746   2.195  16.479 -0.3148  0.4557  0.7658
  729MPD2    H510782   3.684   2.120  16.506  1.2180 -1.2401 -0.4630
  729MPD2    N110783   4.093   2.355  16.173  0.0934 -0.2053 -0.4441
  729MPD2    H710784   4.140   2.332  16.086  0.1795  1.7067 -0.9048
  730TMC3    C110785   3.663   2.284  16.679  0.1417 -1.0996 -0.0373
  730TMC3    C210786   3.741   2.193  16.754  0.0080 -0.2850  0.0896
  730TMC3    C310787   3.789   2.242  16.874 -0.0957  0.2159  0.1632
  730TMC3    C410788   3.627   2.403  16.733 -0.5401  0.1186 -0.3994
  730TMC3    C510789   3.661   2.435  16.864  0.2580  0.2026  0.3724
  730TMC3    C610790   3.742   2.354  16.933  0.9212 -0.6370  0.6478
  730TMC3     C10791   3.728   2.308  16.549 -0.0903 -0.9990  0.4361
  730TMC3     O10792   3.769   2.423  16.541  0.3724  0.4160 -0.1533
  730TMC3     H10793   3.784   2.107  16.703 -1.2640 -0.2716 -1.0139
  730TMC3    H110794   3.584   2.479  16.669 -1.6698  0.6278  0.9712
  730TMC3    H210795   3.787   2.402  17.020 -2.9009  0.2602  2.1430
  730TMC3    C710796   3.657   2.577  16.884  0.5275  0.0693 -0.2203
  730TMC3    C810797   3.937   2.253  16.878 -0.2883  0.2119  0.5145
  730TMC3    O110798   3.679   2.658  16.793 -0.4375  0.3870  0.3188
  730TMC3    O210799   3.983   2.349  16.935 -0.1325 -0.0737  0.3382
  731MPD2     C10800   4.005   1.647  12.035 -0.4773 -0.5235  0.0660
  731MPD2    C110801   4.128   1.584  12.055 -0.5855  0.1024 -0.8637
  731MPD2    C210802   4.173   1.545  12.180  0.3585 -0.0083  0.6475
  731MPD2    C310803   4.088   1.554  12.286 -1.5081  0.4679  0.4968
  731MPD2    C410804   3.960   1.609  12.267 -0.3740 -0.6856 -0.2875
  731MPD2    C510805   3.924   1.662  12.146  0.2442 -0.3905 -0.2324
  731MPD2     H10806   4.271   1.502  12.198 -1.0191 -2.2863  2.6391
  731MPD2    H110807   3.885   1.615  12.345 -1.1103 -0.2103 -1.0323
  731MPD2    H210808   3.965   1.680  11.940 -1.7880  0.5173  0.9719
  731MPD2    H310809   3.828   1.710  12.131 -0.2802 -0.8166  1.8284
  731MPD2     N10810   4.122   1.496  12.407  0.3589  0.8057 -0.2502
  731MPD2    H510811   4.213   1.457  12.428 -0.7691 -0.1312  2.9527
  731MPD2    N110812   4.207   1.551  11.935 -0.4090  0.7941  0.8880
  731MPD2    H710813   4.172   1.567  11.841  2.2603 -0.8256 -0.3828
  732TMC3    C110814   4.365   1.425  11.807  0.1029 -0.7734 -0.0927
  732TMC3    C210815   4.275   1.355  11.731  0.2281 -0.3308 -0.8130
  732TMC3    C310816   4.327   1.260  11.646  0.7683 -0.1004  0.5674
  732TMC3    C410817   4.495   1.387  11.810 -0.4130 -1.1669 -0.4113
  732TMC3    C510818   4.544   1.296  11.723 -0.6097  0.4473 -0.2818
  732TMC3    C610819   4.465   1.237  11.630  0.0297 -0.0930 -0.0389
  732TMC3     C10820   4.327   1.483  11.935 -0.2280 -0.0585  0.1171
  732TMC3     O10821   4.397   1.450  12.029  0.0355  0.1664  0.2997
  732TMC3     H10822   4.169   1.380  11.725  0.3084 -0.0612 -1.0975
  732TMC3    H110823   4.564   1.440  11.875  0.1756 -0.6517 -1.4704
  732TMC3    H210824   4.509   1.153  11.577  1.4058  0.3621  0.3871
  732TMC3    C710825   4.665   1.223  11.753  0.4106 -0.1225 -0.0726
  732TMC3    C810826   4.240   1.142  11.625 -0.7256  0.6703  0.1577
  732TMC3    O110827   4.714   1.148  11.667 -0.5673 -0.1882 -0.0529
  732TMC3    O210828   4.305   1.048  11.571 -0.4307 -0.6808 -0.2944
  733TMC3    C110829   0.775   3.635  13.248  0.8562  0.5544  0.0330
  733TMC3    C210830   0.812   3.596  13.125 -0.0858  0.4121 -0.1921
  733TMC3    C310831   0.932   3.631  13.075  0.5353 -0.7931 -0.0296
  733TMC3    C410832   0.854   3.725  13.318  0.7350 -0.2294  0.2238
  733TMC3    C510833   0.969   3.765  13.263 -0.0543 -0.2535 -0.0487
  733TMC3    C610834   1.009   3.720  13.144  0.1922  0.1905  0.1057
  733TMC3     C10835   0.643   3.611  13.294  0.0030 -0.3231 -0.0018
  733TMC3     O10836   0.587   3.684  13.376  0.1836  0.4319 -0.0845
  733TMC3     H10837   0.754   3.515  13.082  0.5029 -0.5557  0.8359
  733TMC3    H110838   0.824   3.753  13.418 -0.0002  0.3799 -0.1609
  733TMC3    H210839   1.087   3.760  13.079  1.2600  2.0385  2.5489
  733TMC3    C710840   1.059   3.853  13.340 -0.1289 -0.5365  0.5620
  733TMC3    C810841   0.948   3.624  12.925  1.3830  0.1036  0.0590
  733TMC3    O110842   1.015   3.918  13.430 -0.9129 -0.5664 -0.2155
  733TMC3    O210843   0.839   3.629  12.867  0.4866 -0.3649 -0.3270
  734MPD2     C10844   2.073   1.815  12.018  0.0986 -0.3597  0.1455
  734MPD2    C110845   2.037   1.733  11.909 -0.6345  0.0252 -0.7159
  734MPD2    C210846   2.118   1.735  11.801 -0.1115 -0.3854 -0.0299
  734MPD2    C310847   2.224   1.830  11.793 -0.3341  0.2801  0.3577
  734MPD2    C410848   2.253   1.909  11.899  0.1075 -0.1471  0.2784
  734MPD2    C510849   2.176   1.901  12.009 -0.3542 -0.7016  0.4932
  734MPD2     H10850   2.095   1.674  11.714 -0.5577  0.4376 -0.4855
  734MPD2    H110851   2.343   1.969  11.896 -0.3739  0.6968  2.9144
  734MPD2    H210852   2.008   1.828  12.104 -1.1592  1.2430 -1.0431
  734MPD2    H310853   2.195   1.970  12.090 -2.0656 -0.7404  0.9339
  734MPD2     N10854   2.296   1.831  11.671 -0.9676  0.7741 -0.3072
  734MPD2    H510855   2.259   1.769  11.599  0.7754 -1.5160  0.7609
  734MPD2    N110856   1.936   1.634  11.936 -0.1691  0.5183 -0.3522
  734MPD2    H710857   1.904   1.633  12.032  0.4158 -1.1260 -0.1833
  735TMC3    C110858   1.833   1.426  11.908  0.2126 -0.4740  0.3130
  735TMC3    C210859   1.808   1.342  11.799 -0.7285 -0.7227  0.1295
  735TMC3    C310860   1.854   1.214  11.802 -0.4752  0.3249  0.5868
  735TMC3    C410861   1.892   1.378  12.019 -0.1256 -0.1824 -0.5711
  735TMC3    C510862   1.931   1.249  12.024  0.2256  0.2198  0.6130
  735TMC3    C610863   1.912   1.164  11.920 -0.0300 -0.0027 -0.6237
  735TMC3     C10864   1.897   1.540  11.842  0.6721  0.5227  0.3887
  735TMC3     O10865   1.935   1.521  11.726  0.1745 -0.4047  0.0295
  735TMC3     H10866   1.750   1.372  11.712  0.1281  0.6115  0.0166
  735TMC3    H110867   1.921   1.445  12.099 -0.2837  1.7726 -2.1364
  735TMC3    H210868   1.955   1.064  11.912  2.9318  1.1754  0.4862
  735TMC3    C710869   2.055   1.236  12.100  0.0048  0.1529 -1.0623
  735TMC3    C810870   1.902   1.177  11.674 -0.0127  0.7741 -0.4102
  735TMC3    O110871   2.053   1.280  12.213  0.3999  0.4800  0.5127
  735TMC3    O210872   1.916   1.060  11.647  0.3681  0.4147 -0.2088
  736MPD2     C10873   2.338   1.238  12.198  0.4577 -0.2266 -0.7733
  736MPD2    C110874   2.293   1.224  12.063  0.2376 -0.5705  0.3504
  736MPD2    C210875   2.395   1.222  11.965 -0.7618  0.4840 -0.0353
  736MPD2    C310876   2.530   1.228  11.989 -0.7891 -0.4194  0.3957
  736MPD2    C410877   2.567   1.250  12.119  0.1403  0.1796 -0.5674
  736MPD2    C510878   2.473   1.253  12.219  0.5492  0.4983 -0.6219
  736MPD2     H10879   2.365   1.214  11.862  0.0161  1.4052 -0.3287
  736MPD2    H110880   2.671   1.262  12.145 -0.1048 -2.0244  1.4302
  736MPD2    H210881   2.271   1.232  12.283 -0.5702 -2.8779 -1.7551
  736MPD2    H310882   2.512   1.259  12.320 -1.9247 -1.3969  0.4326
  736MPD2     N10883   2.633   1.208  11.892 -0.5537 -0.2764 -0.4437
  736MPD2    H510884   2.731   1.208  11.919 -1.0242  0.0078  1.2453
  736MPD2    N110885   2.160   1.213  12.016  0.9163 -0.0920  0.0337
  736MPD2    H710886   2.145   1.188  11.919 -1.2266 -1.3263  0.6875
  737TMC3    C110887   2.738   1.244  11.682 -0.0749  0.2499 -0.1713
  737TMC3    C210888   2.785   1.362  11.622  0.3016 -0.5105  0.6902
  737TMC3    C310889   2.910   1.352  11.565  0.0824  0.2736 -0.1741
  737TMC3    C410890   2.809   1.127  11.702  0.2816 -0.0976 -0.6699
  737TMC3    C510891   2.929   1.128  11.639 -0.7507 -0.3139 -0.2619
  737TMC3    C610892   2.976   1.234  11.562  0.1995 -0.1489  0.3851
  737TMC3     C10893   2.622   1.244  11.760 -0.0583 -0.9655  0.6015
  737TMC3     O10894   2.536   1.317  11.714 -0.1458  0.5465  0.2565
  737TMC3     H10895   2.721   1.448  11.608  1.2594 -0.0586 -0.9067
  737TMC3    H110896   2.765   1.040  11.751  0.2576  0.0669 -0.4003
  737TMC3    H210897   3.066   1.218  11.503  0.6919  1.1076  0.8051
  737TMC3    C710898   2.989   0.996  11.628  1.1191  0.7320  0.2914
  737TMC3    C810899   2.963   1.471  11.493  1.0388 -0.1185 -1.0725
  737TMC3    O110900   2.914   0.899  11.639 -0.0642  1.0132 -0.2499
  737TMC3    O210901   2.946   1.583  11.536  0.2257 -0.2203  0.3751
  738MPD2     C10902   3.549   4.501  15.536  0.5347 -0.1612  0.2702
  738MPD2    C110903   3.470   4.546  15.437  0.5734 -0.1086  0.5673
  738MPD2    C210904   3.518   4.640  15.346  0.4467  0.0688  0.4491
  738MPD2    C310905   3.639   4.705  15.357  0.9092 -0.4941 -0.2622
  738MPD2    C410906   3.722   4.656  15.461 -0.2419  0.5445 -0.7229
  738MPD2    C510907   3.675   4.562  15.541 -0.0303  0.6776  0.5680
  738MPD2     H10908   3.451   4.674  15.269  0.8708  1.7345  0.8185
  738MPD2    H110909   3.825   4.688  15.476  0.6695 -2.2088 -1.0381
  738MPD2    H210910   3.524   4.424  15.607  0.9828 -1.6857 -1.2133
  738MPD2    H310911   3.736   4.531  15.625 -1.8717 -0.7583  1.3793
  738MPD2     N10912   3.692   0.075  15.267  0.2720 -0.2892 -0.0700
  738MPD2    H510913   3.784   0.115  15.281 -0.7523  1.3110  2.2152
  738MPD2    N110914   3.339   4.505  15.425  0.2735 -0.1054 -0.1705
  738MPD2    H710915   3.288   4.533  15.342  3.2372  1.5965 -1.4136
  739TMC3    C110916   3.688   0.240  15.094 -0.0797 -0.0399 -0.0617
  739TMC3    C210917   3.612   0.340  15.031 -0.0863  0.6919  0.7557
  739TMC3    C310918   3.677   0.447  14.996  0.4665  0.0445 -0.6632
  739TMC3    C410919   3.826   0.242  15.098  1.0703  0.5909 -0.5553
  739TMC3    C510920   3.885   0.358  15.048 -0.4252  0.9329 -0.2786
  739TMC3    C610921   3.812   0.456  14.990 -0.2703 -0.5656 -0.1196
  739TMC3     C10922   3.615   0.137  15.171  0.1785  0.6242  0.6647
  739TMC3     O10923   3.493   0.136  15.155  0.6710  0.1708  0.6081
  739TMC3     H10924   3.504   0.334  15.024  0.0044  2.5618 -1.9330
  739TMC3    H110925   3.886   0.158  15.132 -0.0717  0.2396  0.5742
  739TMC3    H210926   3.851   0.547  14.946 -1.3224 -0.2694 -0.4413
  739TMC3    C710927   4.036   0.368  15.041  0.8974 -0.1191 -0.3357
  739TMC3    C810928   3.605   0.535  14.913 -0.2135 -0.1674  0.3018
  739TMC3    O110929   4.095   0.270  15.088  0.7465  0.1483  0.1475
  739TMC3    O210930   3.558   0.489  14.808 -0.2335 -1.4183 -0.7840
  740TMC3    C110931   4.034   1.792  14.211  0.5392  0.1289  0.0579
  740TMC3    C210932   4.058   1.761  14.344  0.0456 -0.5919  0.5398
  740TMC3    C310933   4.185   1.731  14.385 -0.3229 -0.2589  0.1746
  740TMC3    C410934   4.143   1.807  14.133  0.1300  0.1673 -0.2212
  740TMC3    C510935   4.273   1.783  14.181  1.2660 -0.3671  0.4175
  740TMC3    C610936   4.299   1.736  14.307 -0.4997  0.3571  0.0219
  740TMC3     C10937   3.906   1.781  14.144  0.8018  0.0349 -0.1604
  740TMC3     O10938   3.896   1.831  14.033 -0.1222 -0.3322  0.1076
  740TMC3     H10939   3.979   1.756  14.418 -1.7984 -1.3803 -1.4721
  740TMC3    H110940   4.126   1.849  14.035  0.8473  1.1505  0.0790
  740TMC3    H210941   4.400   1.711  14.338 -0.2597  0.7845 -0.4184
  740TMC3    C710942   4.385   1.759  14.088 -0.2877  0.0761 -0.2164
  740TMC3    C810943   4.188   1.636  14.491  1.5616 -0.3456 -0.0101
  740TMC3    O110944   4.487   1.723  14.143  0.0815  0.2610 -0.0084
  740TMC3    O210945   4.092   1.564  14.511 -0.2027  0.0279  0.0391
  741TMC3    C110946   3.283   0.746  14.442  0.9024  0.5096  0.4284
  741TMC3    C210947   3.220   0.619  14.432  0.2368 -0.3425  0.2750
  741TMC3    C310948   3.188   0.568  14.548 -0.3934  0.5093  1.1128
  741TMC3    C410949   3.302   0.819  14.553  0.1218  0.1623  0.0104
  741TMC3    C510950   3.262   0.764  14.672 -0.0926 -0.7774 -0.1869
  741TMC3    C610951   3.222   0.626  14.673 -0.3075  0.1816  0.0716
  741TMC3     C10952   3.307   0.820  14.317  0.3631 -0.9552 -0.1898
  741TMC3     O10953   3.321   0.942  14.321  0.1915  0.1407  0.1176
  741TMC3     H10954   3.174   0.591  14.338  4.2250 -1.8900 -1.2328
  741TMC3    H110955   3.330   0.923  14.538 -0.2949 -0.0331 -2.0828
  741TMC3    H210956   3.168   0.588  14.759  0.0467 -0.4223  0.0282
  741TMC3    C710957   3.266   0.843  14.798  0.6484  0.4948  0.2005
  741TMC3    C810958   3.089   0.466  14.533 -0.7231 -0.5520 -0.4114
  741TMC3    O110959   3.209   0.804  14.897 -0.1122 -0.4686 -0.4274
  741TMC3    O210960   3.021   0.467  14.432 -0.0120  0.0532  0.6980
  742TMC3    C110961   3.170   3.668  15.162  0.1469  0.0828 -0.0136
  742TMC3    C210962   3.054   3.663  15.076  0.0525  0.2064 -0.4357
  742TMC3    C310963   3.069   3.629  14.943 -0.3366  0.2075 -0.6820
  742TMC3    C410964   3.288   3.609  15.121 -0.0198  0.0876  0.1690
  742TMC3    C510965   3.289   3.562  14.994 -0.7734  0.0048  0.2012
  742TMC3    C610966   3.183   3.567  14.904 -0.0680  0.4202 -1.2412
  742TMC3     C10967   3.147   3.711  15.298  0.4596  0.3410 -0.3953
  742TMC3     O10968   3.038   3.718  15.349  0.3901 -0.1801  0.6563
  742TMC3     H10969   2.971   3.727  15.104  0.6874  0.7087  0.3027
  742TMC3    H110970   3.376   3.615  15.184 -0.0991  3.3341 -0.0004
  742TMC3    H210971   3.197   3.538  14.800 -1.1734  1.1628 -1.5954
  742TMC3    C710972   3.406   3.498  14.939 -0.1897 -0.1986 -0.0823
  742TMC3    C810973   2.978   3.668  14.841  0.1877 -0.4278 -0.4389
  742TMC3    O110974   3.444   3.533  14.831 -0.3091  0.0221  0.3462
  742TMC3    O210975   3.040   3.713  14.742  0.5223 -0.1247  0.1081
  743MPD2     C10976   1.382   4.187   1.704 -0.2100  0.3046  0.3491
  743MPD2    C110977   1.451   4.261   1.609 -0.2673 -0.0307  0.4967
  743MPD2    C210978   1.578   4.311   1.647  0.0157  0.6253 -0.5063
  743MPD2    C310979   1.631   4.301   1.776  0.1311  0.1240 -0.4287
  743MPD2    C410980   1.565   4.217   1.861 -0.3973  0.1445 -0.5124
  743MPD2    C510981   1.440   4.166   1.826 -0.2263  0.2923 -0.1351
  743MPD2     H10982   1.640   4.361   1.574 -0.7610 -0.1799 -1.7284
  743MPD2    H110983   1.601   4.200   1.962 -2.6170  1.0283  0.4262
  743MPD2    H210984   1.279   4.160   1.684  0.7678 -2.5428 -0.7156
  743MPD2    H310985   1.391   4.115   1.908  1.0987  0.0437  0.5075
  743MPD2     N10986   1.750   4.365   1.805  0.4016  1.3415  0.1813
  743MPD2    H510987   1.781   4.420   1.725 -1.9664  0.4693 -1.3366
  743MPD2    N110988   1.390   4.274   1.481  0.8416  0.4267  0.1049
  743MPD2    H710989   1.291   4.251   1.475  0.9227  0.6140 -1.8356
  744TMC3    C110990   1.358   4.351   1.264  0.2260  0.6132 -0.4338
  744TMC3    C210991   1.223   4.381   1.282 -0.2678 -0.1470  0.3829
  744TMC3    C310992   1.150   4.438   1.181 -0.3905 -0.2048  0.0725
  744TMC3    C410993   1.426   4.383   1.149  0.2605 -0.1364 -0.2563
  744TMC3    C510994   1.356   4.441   1.053  0.1650 -0.1286  0.7594
  744TMC3    C610995   1.219   4.465   1.062  0.1110 -1.0355  0.0287
  744TMC3     C10996   1.451   4.329   1.369 -0.5060  0.3539  0.0138
  744TMC3     O10997   1.572   4.344   1.350 -0.7999 -0.2958 -0.8676
  744TMC3     H10998   1.173   4.373   1.378 -0.2031 -1.0186  0.3476
  744TMC3    H110999   1.531   4.366   1.129  0.0304 -1.1428 -0.6412
  744TMC3    H211000   1.175   4.527   0.985  2.1985 -0.7634 -0.9394
  744TMC3    C711001   1.431   4.531   0.972 -0.1756 -0.2093 -0.4516
  744TMC3    C811002   1.053   4.538   1.218 -0.2728 -0.2336 -0.1654
  744TMC3    O111003   1.395   4.564   0.860 -0.3289 -0.5014 -0.3244
  744TMC3    O211004   1.045   4.642   1.155  0.0122  0.7839 -0.5907
  745TMC3    C111005   3.891   4.035  13.892 -0.4663 -0.6032 -1.1034
  745TMC3    C211006   3.776   4.046  13.948  0.5149 -0.3951  0.0582
  745TMC3    C311007   3.678   4.096  13.878  0.3473  0.2224  0.2698
  745TMC3    C411008   3.916   4.051  13.758 -0.9774  0.4221  0.1020
  745TMC3    C511009   3.799   4.075  13.686  0.0302 -0.4227 -1.1108
  745TMC3    C611010   3.678   4.107  13.741 -0.3037  0.2442  0.9965
  745TMC3     C11011   4.001   4.080  13.974  0.0013  0.1353  0.5675
  745TMC3     O11012   4.046   4.007  14.060 -0.8662 -0.3112 -0.3341
  745TMC3     H11013   3.790   4.066  14.054 -2.2512  2.0933 -0.0801
  745TMC3    H111014   4.011   4.056  13.706 -0.4410 -3.0907  0.7254
  745TMC3    H211015   3.588   4.131  13.686  0.5809  0.2618 -0.4416
  745TMC3    C711016   3.806   4.093  13.543 -0.1909  0.5789  0.2986
  745TMC3    C811017   3.597   4.186  13.963 -0.1987 -0.9017 -0.5721
  745TMC3    O111018   3.708   4.132  13.479  0.3305 -0.0883  0.7355
  745TMC3    O211019   3.551   4.142  14.070  0.0513  0.4346 -0.4347
  746TMC3    C111020   1.611   0.851  10.892 -0.2937  0.1354 -0.1837
  746TMC3    C211021   1.730   0.843  10.838  0.1953  0.8136  0.6403
  746TMC3    C311022   1.787   0.718  10.831  0.4868 -0.6636 -0.5746
  746TMC3    C411023   1.537   0.747  10.936 -0.1483  0.1471 -1.1632
  746TMC3    C511024   1.601   0.628  10.941 -0.4568  0.5215  0.2263
  746TMC3    C611025   1.723   0.611  10.880 -0.2878 -0.3441 -0.4755
  746TMC3     C11026   1.541   0.980  10.890 -0.0153 -0.8472 -0.1769
  746TMC3     O11027   1.466   1.016  10.978 -0.1146 -0.1137 -0.5003
  746TMC3     H11028   1.797   0.926  10.824 -1.8711  2.2104 -1.0290
  746TMC3    H111029   1.432   0.764  10.960 -0.7554 -1.6747 -2.4748
  746TMC3    H211030   1.765   0.511  10.878  0.2671 -0.0923 -1.1047
  746TMC3    C711031   1.524   0.509  10.968 -0.2582 -0.3818  0.7787
  746TMC3    C811032   1.893   0.691  10.742 -0.3657  0.4825 -0.0590
  746TMC3    O111033   1.581   0.399  10.947 -0.1784 -0.2749  0.0483
  746TMC3    O211034   1.949   0.587  10.766  0.1126 -0.6274  0.1076
  747TMC3    C111035   3.939   0.632  11.377 -0.7477 -0.3558  0.4282
  747TMC3    C211036   3.839   0.604  11.456 -0.6879  1.2583  0.0194
  747TMC3    C311037   3.758   0.707  11.489 -0.5814  0.6971  0.1834
  747TMC3    C411038   3.974   0.760  11.350  0.3311 -0.5278  0.2244
  747TMC3    C511039   3.886   0.859  11.371 -0.1925  0.7722  0.4039
  747TMC3    C611040   3.772   0.840  11.445  0.1680  0.3077  0.0526
  747TMC3     C11041   4.000   0.516  11.315 -0.2106 -0.4657  1.1986
  747TMC3     O11042   3.987   0.412  11.378  0.4785  0.1084 -0.3094
  747TMC3     H11043   3.824   0.504  11.495 -0.1474  0.8313 -0.8842
  747TMC3    H111044   4.062   0.786  11.293 -0.2760  0.4060 -0.2877
  747TMC3    H211045   3.708   0.923  11.469 -1.1400 -1.1419  1.5737
  747TMC3    C711046   3.942   0.994  11.373 -0.8148  0.0730 -0.5645
  747TMC3    C811047   3.644   0.676  11.573 -1.2034 -0.3213 -0.8532
  747TMC3    O111048   4.060   1.001  11.380 -0.5322  0.1847  0.4457
  747TMC3    O211049   3.636   0.560  11.618 -0.6348  0.1647  0.6494
  748MPD2     C11050   0.019   1.039   0.786 -0.4399 -0.5203  0.0265
  748MPD2    C111051   0.140   0.977   0.816 -0.0007  0.3299 -0.4261
  748MPD2    C211052   0.264   1.037   0.826 -0.0341 -0.3681  0.5780
  748MPD2    C311053   0.268   1.170   0.785 -0.2628  0.1603 -0.2374
  748MPD2    C411054   0.154   1.233   0.749  1.3087  0.0561  0.3434
  748MPD2    C511055   0.033   1.168   0.741 -0.4579 -0.1686 -0.2628
  748MPD2     H11056   0.353   0.996   0.871  1.0870  1.2290 -0.1830
  748MPD2    H111057   0.173   1.335   0.715 -0.9440 -0.1374 -1.5162
  748MPD2    H211058   4.644   0.992   0.789  0.0258 -1.4006  1.7678
  748MPD2    H311059   4.661   1.217   0.719 -1.0676  0.1493  3.0946
  748MPD2     N11060   0.402   1.224   0.785 -0.2886 -0.0073 -0.8040
  748MPD2    H511061   0.478   1.160   0.806 -1.6141 -0.2955  3.1379
  748MPD2    N111062   0.120   0.835   0.854  0.2811  0.3773 -0.5164
  748MPD2    H711063   0.028   0.793   0.847  0.9863 -0.8574 -2.2304
  749TMC3    C111064   0.587   1.382   0.782  0.6717 -0.2347 -0.0326
  749TMC3    C211065   0.661   1.307   0.869 -0.7069  1.2551  0.1187
  749TMC3    C311066   0.798   1.345   0.887 -0.4457 -0.7400  0.2703
  749TMC3    C411067   0.642   1.488   0.721 -0.1182 -0.2498  0.1681
  749TMC3    C511068   0.773   1.532   0.747 -0.0904  0.2232  0.3155
  749TMC3    C611069   0.852   1.456   0.825  0.6338 -0.5990 -0.1401
  749TMC3     C11070   0.442   1.360   0.771 -0.7592 -0.0447  0.2343
  749TMC3     O11071   0.378   1.452   0.723  0.5711  0.3869  0.1924
  749TMC3     H11072   0.617   1.225   0.925 -0.7969  0.8371 -0.5711
  749TMC3    H111073   0.579   1.526   0.641  1.9353 -0.4280 -1.5555
  749TMC3    H211074   0.956   1.481   0.841  0.2999  1.1717 -0.6968
  749TMC3    C711075   0.826   1.633   0.664 -0.2076  0.2399 -0.5605
  749TMC3    C811076   0.858   1.312   1.015 -0.4346  0.3048 -0.2779
  749TMC3    O111077   0.916   1.698   0.713  0.7749  0.3200 -0.1713
  749TMC3    O211078   0.778   1.258   1.091  0.1526  0.0127  0.6569
  750MPD2     C11079   1.854   2.695  11.116 -0.0864 -0.5104  0.5756
  750MPD2    C111080   1.719   2.704  11.089 -0.0704  0.3002  0.9893
  750MPD2    C211081   1.665   2.591  11.032 -1.5536 -0.3730  0.5167
  750MPD2    C311082   1.747   2.477  11.006 -0.0619 -0.2211  0.2014
  750MPD2    C411083   1.876   2.470  11.035  0.3922  0.7740 -0.4682
  750MPD2    C511084   1.934   2.585  11.087 -0.1357  0.3066 -0.0135
  750MPD2     H11085   1.562   2.590  11.000 -0.8118 -2.6700 -1.7646
  750MPD2    H111086   1.935   2.382  11.016  0.6392  0.3200  2.4631
  750MPD2    H211087   1.914   2.779  11.150  1.2677 -0.1851 -2.5895
  750MPD2    H311088   2.040   2.584  11.112 -0.0939 -2.5336 -0.2909
  750MPD2     N11089   1.697   2.364  10.943  0.2364  0.2789  0.1122
  750MPD2    H511090   1.767   2.299  10.909  1.0281  0.2914  1.6876
  750MPD2    N111091   1.643   2.826  11.113  0.1455 -0.5051 -0.9836
  750MPD2    H711092   1.690   2.905  11.155 -1.0704 -0.0127 -0.5691
  751TMC3    C111093   1.548   2.224  10.835 -0.5944  0.2014  0.4284
  751TMC3    C211094   1.420   2.197  10.791  0.2182 -0.0700 -0.1251
  751TMC3    C311095   1.404   2.082  10.714 -0.5660  0.3476  0.3959
  751TMC3    C411096   1.654   2.137  10.817 -0.2488 -0.2566 -0.0095
  751TMC3    C511097   1.629   2.025  10.740 -0.5632  0.6958  0.6697
  751TMC3    C611098   1.504   1.993  10.689  0.4508 -0.2811 -0.3639
  751TMC3     C11099   1.566   2.334  10.923  0.0034  0.5595 -0.6947
  751TMC3     O11100   1.470   2.384  10.975 -0.2149 -0.1560  0.3887
  751TMC3     H11101   1.343   2.272  10.799 -1.3451 -1.6254 -0.6287
  751TMC3    H111102   1.755   2.152  10.854 -0.5666 -0.2219  0.8402
  751TMC3    H211103   1.491   1.893  10.651  0.4210  0.2659 -1.8008
  751TMC3    C711104   1.740   1.959  10.672  0.7965 -0.5970 -0.1197
  751TMC3    C811105   1.268   2.045  10.673 -0.4112  0.9638  0.3083
  751TMC3    O111106   1.833   2.039  10.651 -0.2656  0.0480 -0.1387
  751TMC3    O211107   1.256   1.992  10.565 -0.2993 -0.2358 -0.7308
  752TMC3    C111108   0.013   2.287  16.934 -0.0417  0.9992 -0.7304
  752TMC3    C211109   4.600   2.309  16.941  0.3166  0.5771 -0.3508
  752TMC3    C311110   4.537   2.320  17.060 -0.3234 -0.1812 -0.6427
  752TMC3    C411111   0.085   2.271  17.049  0.3513  0.2333 -0.4381
  752TMC3    C511112   0.009   2.260  17.167 -0.2236  0.6327 -0.2905
  752TMC3    C611113   4.598   2.293  17.179  0.1388 -0.0472 -0.2865
  752TMC3     C11114   0.090   2.294  16.811  0.0361  0.5267  0.7962
  752TMC3     O11115   0.213   2.300  16.821 -0.1080  0.2993 -0.2656
  752TMC3     H11116   4.540   2.314  16.851  0.6149  0.3968 -0.5541
  752TMC3    H111117   0.192   2.255  17.042  0.3314  1.2363 -2.9251
  752TMC3    H211118   4.539   2.300  17.270  2.1100  0.9434  0.8949
  752TMC3    C711119   0.079   2.270  17.292 -0.3346  0.1943 -0.6959
  752TMC3    C811120   4.409   2.388  17.048 -0.6605  0.0347  0.6211
  752TMC3    O111121   0.034   2.226  17.394  0.0746 -0.1297 -0.0981
  752TMC3    O211122   4.383   2.453  16.950 -0.6416  0.6848 -0.5324
  753TMC3    C111123   2.554   4.029  13.459 -0.5973  0.2048  0.4053
  753TMC3    C211124   2.502   3.947  13.551  0.0416 -0.0301  0.0030
  753TMC3    C311125   2.458   3.822  13.522  0.1528  1.0548 -0.1279
  753TMC3    C411126   2.570   3.983  13.334 -0.0420  0.6161 -0.5482
  753TMC3    C511127   2.519   3.857  13.307 -0.3509  0.5119 -0.4068
  753TMC3    C611128   2.468   3.777  13.394  0.1905 -0.2184 -0.2622
  753TMC3     C11129   2.574   4.167  13.480 -0.2545 -1.2963  0.8136
  753TMC3     O11130   2.625   4.197  13.587  0.5749  0.3144  0.8377
  753TMC3     H11131   2.470   3.990  13.645 -0.4595 -3.0557  1.2407
  753TMC3    H111132   2.621   4.043  13.260 -0.9562  1.5387 -0.4374
  753TMC3    H211133   2.452   3.670  13.382  0.5876 -0.2246 -0.7301
  753TMC3    C711134   2.531   3.819  13.167 -0.3260 -0.2633  0.3148
  753TMC3    C811135   2.412   3.733  13.625 -0.1171 -0.2972  0.9573
  753TMC3    O111136   2.615   3.879  13.096 -0.6067  0.0954  0.1611
  753TMC3    O211137   2.357   3.627  13.594  0.5741  0.0137 -0.5799
  754MPD2     C11138   0.359   2.966  12.992  0.6762  0.5314  0.3914
  754MPD2    C111139   0.396   2.859  12.910 -0.0646 -0.0186 -0.8308
  754MPD2    C211140   0.355   2.855  12.778 -0.3250 -0.5076  0.5169
  754MPD2    C311141   0.279   2.961  12.730 -0.2602 -0.2521 -0.3556
  754MPD2    C411142   0.238   3.066  12.815  0.4768  0.6774 -0.2361
  754MPD2    C511143   0.286   3.063  12.941 -0.5076  0.5315 -0.4950
  754MPD2     H11144   0.370   2.769  12.713 -1.8862 -0.0910 -0.3688
  754MPD2    H111145   0.162   3.138  12.786  0.4730  0.9115  0.3579
  754MPD2    H211146   0.398   2.970  13.093  0.7325  0.2016  0.3831
  754MPD2    H311147   0.268   3.140  13.016  0.8068 -0.2575  0.6399
  754MPD2     N11148   0.223   2.965  12.600  0.6730 -0.0852 -0.3980
  754MPD2    H511149   0.154   3.036  12.579  1.6375  1.1941  0.7568
  754MPD2    N111150   0.467   2.751  12.962  0.3569  0.0311 -0.2202
  754MPD2    H711151   0.501   2.765  13.057  2.8150 -2.4634 -0.7177
  755MPD2     C11152   4.116   3.084  12.736  0.1071  0.1033  0.1735
  755MPD2    C111153   4.229   3.164  12.733 -0.7034 -0.9789  0.4665
  755MPD2    C211154   4.332   3.121  12.660 -0.0676 -0.0771 -0.0598
  755MPD2    C311155   4.325   2.991  12.602  0.1897  0.0761 -0.1913
  755MPD2    C411156   4.210   2.914  12.608  0.1230 -0.2374  0.3080
  755MPD2    C511157   4.105   2.966  12.675 -0.8080  0.4914 -0.1491
  755MPD2     H11158   4.424   3.178  12.653 -1.2875  2.1185  1.7345
  755MPD2    H111159   4.212   2.811  12.576  0.0466 -0.1602  0.0530
  755MPD2    H211160   4.026   3.114  12.788  0.7594 -2.0876  2.5923
  755MPD2    H311161   4.010   2.914  12.678  0.0739 -1.1769 -0.8187
  755MPD2     N11162   4.432   2.927  12.543  0.0449 -0.2269 -0.1109
  755MPD2    H511163   4.420   2.829  12.517  1.1630 -0.7415  1.3490
  755MPD2    N111164   4.244   3.292  12.792  0.4891  0.3263  0.9110
  755MPD2    H711165   4.323   3.352  12.768 -0.1278  0.5131 -0.6423
  756MPD2     C11166   1.976   3.039   9.342 -0.6088  0.1315  0.3705
  756MPD2    C111167   1.869   2.998   9.410 -0.1741  0.1474 -0.3811
  756MPD2    C211168   1.818   2.874   9.383 -0.1150  0.0098  0.1428
  756MPD2    C311169   1.870   2.796   9.286 -0.5367  0.6054 -0.1512
  756MPD2    C411170   1.982   2.834   9.218  0.3523 -0.0325 -0.3430
  756MPD2    C511171   2.039   2.955   9.247 -0.4425 -0.2862  0.6723
  756MPD2     H11172   1.729   2.835   9.431  0.7499 -0.7813  1.1009
  756MPD2    H111173   2.024   2.764   9.146 -1.9681  0.1134 -1.8376
  756MPD2    H211174   2.032   3.130   9.363  0.5761 -1.1815  2.9359
  756MPD2    H311175   2.134   2.986   9.205 -0.7538 -0.1586  0.0692
  756MPD2     N11176   1.809   2.673   9.262 -0.0388 -0.2179 -0.0921
  756MPD2    H511177   1.730   2.650   9.321 -0.6525 -1.8127 -1.5176
  756MPD2    N111178   1.813   3.084   9.513 -0.8464  0.1788 -0.2450
  756MPD2    H711179   1.720   3.059   9.546 -0.4039 -0.9341  0.1579
  757MPD2     C11180   1.015   2.157   9.511 -0.0342 -0.2145  0.4489
  757MPD2    C111181   1.019   2.112   9.380  0.1672  0.6163 -0.1292
  757MPD2    C211182   1.126   2.160   9.303 -0.9198  0.2083  0.0355
  757MPD2    C311183   1.232   2.227   9.358 -0.5177 -0.9895 -0.9361
  757MPD2    C411184   1.219   2.275   9.488  0.1198  0.1813 -0.2980
  757MPD2    C511185   1.104   2.249   9.556 -0.2926  0.5645 -0.1530
  757MPD2     H11186   1.132   2.136   9.197  0.4394  3.4982 -0.6268
  757MPD2    H111187   1.285   2.353   9.526 -0.2928 -0.1457  1.0762
  757MPD2    H211188   0.940   2.128   9.585  0.0720 -0.0662  0.6145
  757MPD2    H311189   1.098   2.293   9.655 -0.5933 -1.9007  0.9141
  757MPD2     N11190   1.348   2.255   9.282  0.3025  0.1316 -0.1607
  757MPD2    H511191   1.361   2.198   9.199 -1.6229 -1.3519  0.5581
  757MPD2    N111192   0.915   2.026   9.336 -0.0289 -0.1922 -0.5111
  757MPD2    H711193   0.855   1.998   9.413  1.4128 -2.6374 -0.2617
  758MPD2     C11194   1.313   2.085  15.542 -0.3821  0.9797  0.0051
  758MPD2    C111195   1.339   1.969  15.603 -0.4762  0.2595 -0.1098
  758MPD2    C211196   1.281   1.949  15.733 -0.0788 -0.2014 -0.7836
  758MPD2    C311197   1.188   2.042  15.777 -0.9192 -0.1788  0.3056
  758MPD2    C411198   1.151   2.151  15.699 -0.0139  0.1560 -0.0946
  758MPD2    C511199   1.223   2.179  15.589 -0.0522 -0.2741  0.2585
  758MPD2     H11200   1.313   1.862  15.789 -0.3702  0.1890 -0.0076
  758MPD2    H111201   1.077   2.221  15.735 -1.3293 -0.4904 -1.5387
  758MPD2    H211202   1.366   2.112  15.451  0.4067  0.0834  0.1917
  758MPD2    H311203   1.213   2.269  15.530  2.2009  1.2933  2.2602
  758MPD2     N11204   1.125   2.023  15.900  0.8327  0.1533  0.0557
  758MPD2    H511205   1.066   2.095  15.940 -0.7178 -0.0073 -1.9945
  758MPD2    N111206   1.433   1.880  15.545 -0.7828  0.5346  0.2689
  758MPD2    H711207   1.479   1.908  15.459  1.5405  0.3055  1.4456
  759MPD2     C11208   0.041   4.452   9.765  0.1380  0.5595 -0.1050
  759MPD2    C111209   0.169   4.399   9.782  0.2739 -0.8622 -0.4063
  759MPD2    C211210   0.234   4.325   9.685 -0.0232 -0.0840 -0.3525
  759MPD2    C311211   0.154   4.274   9.585  0.6139 -0.9902  0.3654
  759MPD2    C411212   0.030   4.333   9.555  0.2106 -0.0812 -0.4892
  759MPD2    C511213   4.695   4.408   9.654 -0.1615  0.2673 -0.2965
  759MPD2     H11214   0.339   4.306   9.704 -0.6552 -0.4649  2.7574
  759MPD2    H111215   4.700   4.304   9.466  0.2801  1.0656 -0.9046
  759MPD2    H211216   4.710   4.510   9.839 -0.0491 -0.3539  0.4807
  759MPD2    H311217   4.595   4.447   9.642 -0.0947  0.4041 -0.4223
  759MPD2     N11218   0.220   4.192   9.485 -0.6305 -1.0457 -0.2249
  759MPD2    H511219   0.316   4.164   9.504 -0.0095  0.1331 -1.5951
  759MPD2    N111220   0.236   4.398   9.910  0.3037  0.1682  0.1351
  759MPD2    H711221   0.315   4.335   9.922 -0.3347 -0.8798 -1.2917
  760MPD2     C11222   4.561   2.433  11.422  0.3526 -0.0468  0.7700
  760MPD2    C111223   4.650   2.446  11.321 -0.1119 -0.0985 -0.6145
  760MPD2    C211224   0.009   2.342  11.285  0.0768  0.5486  0.2695
  760MPD2    C311225   0.014   2.230  11.368  0.5808 -0.2112 -0.1581
  760MPD2    C411226   4.660   2.227  11.481 -0.7268 -0.2908 -0.6324
  760MPD2    C511227   4.569   2.325  11.506 -0.8657  0.3834 -0.4534
  760MPD2     H11228   0.064   2.347  11.192  1.5589  0.4944  1.1423
  760MPD2    H111229   4.672   2.137  11.540 -0.8097 -0.7610 -1.3416
  760MPD2    H211230   4.482   2.502  11.447 -1.3066 -1.1275 -1.4890
  760MPD2    H311231   4.499   2.315  11.588  0.9924  0.3545  1.1217
  760MPD2     N11232   0.073   2.114  11.327  0.7974 -0.6903  0.5368
  760MPD2    H511233   0.048   2.030  11.378  0.1649 -0.5015  0.5329
  760MPD2    N111234   4.649   2.567  11.249  0.2636 -0.4514  0.1660
  760MPD2    H711235   4.715   2.564  11.172  0.0371  1.3987 -0.0900
  761MPD2     C11236   0.819   1.872  10.833  0.1265 -0.3707 -0.3366
  761MPD2    C111237   0.902   1.820  10.739  0.9156 -0.3732 -0.4243
  761MPD2    C211238   1.022   1.891  10.707  0.4561  0.2210 -0.2363
  761MPD2    C311239   1.056   2.005  10.785 -0.5131  0.1969  0.3158
  761MPD2    C411240   0.964   2.053  10.876  0.4872 -0.1674  0.1068
  761MPD2    C511241   0.852   1.985  10.906 -0.5974  0.8671  0.1440
  761MPD2     H11242   1.085   1.844  10.632  0.8519 -1.8022  1.3689
  761MPD2    H111243   0.999   2.134  10.938  1.3215 -0.4108 -0.0404
  761MPD2    H211244   0.731   1.814  10.860 -1.1424  0.9897 -1.6257
  761MPD2    H311245   0.790   2.007  10.992 -1.4620 -0.5336 -0.1047
  761MPD2     N11246   1.178   2.071  10.770  0.5898  0.4245  0.3109
  761MPD2    H511247   1.202   2.130  10.850  1.7031  0.1599  0.1763
  761MPD2    N111248   0.868   1.699  10.680  0.2211 -0.0788 -0.3076
  761MPD2    H711249   0.795   1.640  10.719  0.0469  1.7089  2.0204
  762MPD2     C11250   1.348   1.695  10.402 -1.2870 -0.0504  0.1175
  762MPD2    C111251   1.341   1.561  10.376  0.4487 -0.1422  0.3532
  762MPD2    C211252   1.449   1.506  10.306  0.3703  1.2626  0.4820
  762MPD2    C311253   1.567   1.575  10.284 -0.0332 -0.0430  0.7197
  762MPD2    C411254   1.586   1.697  10.342  0.5754 -0.3852 -0.7995
  762MPD2    C511255   1.469   1.758  10.386 -0.3630 -0.3039  0.5739
  762MPD2     H11256   1.436   1.405  10.268  0.5817  0.8015  1.6388
  762MPD2    H111257   1.678   1.754  10.338 -0.1987  0.9701  0.9760
  762MPD2    H211258   1.274   1.754  10.455  0.6053  0.6279  2.0318
  762MPD2    H311259   1.488   1.857  10.427 -2.5067  0.0569  0.7150
  762MPD2     N11260   1.673   1.501  10.223  0.3701  0.1123 -0.1677
  762MPD2    H511261   1.664   1.402  10.203  0.2434  0.1112 -0.1106
  762MPD2    N111262   1.227   1.500  10.418 -0.1880 -0.0838  0.8714
  762MPD2    H711263   1.150   1.554  10.455  0.3964  1.4351 -0.1110
  763MPD2     C11264   2.591   2.170  16.052  0.2625 -0.0317 -0.4918
  763MPD2    C111265   2.654   2.250  15.953  0.2153 -0.9429 -0.2561
  763MPD2    C211266   2.733   2.355  15.999  0.1638 -0.3301 -0.0796
  763MPD2    C311267   2.724   2.398  16.135  0.3107  0.1890  1.3596
  763MPD2    C411268   2.652   2.327  16.225 -0.3284 -0.2413  0.4098
  763MPD2    C511269   2.608   2.207  16.185 -0.6409  0.3545 -0.4891
  763MPD2     H11270   2.795   2.408  15.927  0.6974  3.4986  3.2334
  763MPD2    H111271   2.631   2.358  16.327 -3.1070  1.3342 -0.6637
  763MPD2    H211272   2.537   2.078  16.029  1.4457 -1.1080  0.9936
  763MPD2    H311273   2.540   2.156  16.252 -1.5931  1.1668 -0.8218
  763MPD2     N11274   2.804   2.497  16.196 -0.6939  0.9269  0.6509
  763MPD2    H511275   2.787   2.507  16.295 -1.6235  1.2354  0.4643
  763MPD2    N111276   2.661   2.225  15.815 -0.0997 -0.1744 -0.4121
  763MPD2    H711277   2.724   2.281  15.759  0.2578  0.6135  0.7892
  764MPD2     C11278   0.689   3.310  17.578  0.4814 -0.3329  0.1336
  764MPD2    C111279   0.651   3.239  17.466 -0.2136  0.8498  0.2163
  764MPD2    C211280   0.597   3.111  17.480 -0.2328 -0.4948 -0.2634
  764MPD2    C311281   0.588   3.047  17.602 -0.1614  0.6333 -0.2495
  764MPD2    C411282   0.611   3.126   0.025 -0.0538 -0.2646  1.0735
  764MPD2    C511283   0.661   3.247   0.006  0.8032  0.0284 -0.8593
  764MPD2     H11284   0.563   3.057  17.392  1.0091 -1.3608 -0.2149
  764MPD2    H111285   0.588   3.099   0.128 -0.8751  0.5206  1.0936
  764MPD2    H211286   0.714   3.415  17.583  4.5453 -1.3029 -0.0375
  764MPD2    H311287   0.674   3.309   0.093  2.2204  0.3599 -1.3105
  764MPD2     N11288   0.521   2.925  17.609 -0.6901 -0.2793 -0.4693
  764MPD2    H511289   0.498   2.871  17.526  2.0400  0.2135 -1.5640
  764MPD2    N111290   0.674   3.291  17.330 -0.0020 -0.6682 -0.4754
  764MPD2    H711291   0.633   3.235  17.256  0.2958 -0.7373 -0.5878
  765MPD2     C11292   0.518   1.382  15.821 -1.2358 -0.3119 -0.8006
  765MPD2    C111293   0.573   1.480  15.741  0.0633  0.6979  0.1727
  765MPD2    C211294   0.667   1.443  15.649  0.6234  0.2156 -0.4914
  765MPD2    C311295   0.721   1.312  15.649  0.2604 -0.0483 -0.4129
  765MPD2    C411296   0.674   1.217  15.755  0.2019  0.3237 -0.3957
  765MPD2    C511297   0.573   1.258  15.835  0.4796  0.1735  0.3050
  765MPD2     H11298   0.705   1.517  15.580 -1.5122  0.4713 -1.4076
  765MPD2    H111299   0.717   1.118  15.762  2.0060  0.9651 -2.2547
  765MPD2    H211300   0.437   1.405  15.890 -0.3385  2.1826 -0.5716
  765MPD2    H311301   0.536   1.195  15.915  4.6685 -0.4923  1.6839
  765MPD2     N11302   0.810   1.278  15.546  0.4323 -0.0327  0.3596
  765MPD2    H511303   0.843   1.354  15.488 -1.1470 -1.2318 -2.1188
  765MPD2    N111304   0.517   1.602  15.761  0.8282 -0.0531 -0.5491
  765MPD2    H711305   0.426   1.597  15.807  0.9509  1.1821 -0.1614
  766MPD2     C11306   0.002   1.773  15.304 -0.7520  0.0528  0.2056
  766MPD2    C111307   0.129   1.739  15.332 -1.2088  0.9621 -0.3762
  766MPD2    C211308   0.191   1.659  15.234  0.8186  0.0302 -1.0486
  766MPD2    C311309   0.146   1.642  15.107 -0.1222 -0.0951 -0.4903
  766MPD2    C411310   0.012   1.676  15.086 -0.4426  0.1412 -0.7785
  766MPD2    C511311   4.666   1.739  15.189  0.1060  0.4642  0.4965
  766MPD2     H11312   0.293   1.631  15.258  0.7105  1.7221  1.3314
  766MPD2    H111313   4.679   1.652  14.996  1.6647 -0.8337 -1.8190
  766MPD2    H211314   4.666   1.836  15.370 -1.0062 -1.3373  1.3172
  766MPD2    H311315   4.565   1.776  15.175  0.4864  1.3691  0.1981
  766MPD2     N11316   0.229   1.589  15.007 -0.4272 -0.0623  0.1374
  766MPD2    H511317   0.183   1.582  14.917 -1.6652 -0.0883  0.7689
  766MPD2    N111318   0.197   1.770  15.453 -0.0227 -0.0876 -0.4947
  766MPD2    H711319   0.284   1.722  15.472  0.3357  0.3126 -1.1567
  767MPD2     C11320   4.638   1.982  14.972  0.2400 -0.5529 -0.5750
  767MPD2    C111321   0.050   1.975  14.943  0.3312 -0.3457  0.1357
  767MPD2    C211322   0.088   1.927  14.820  0.2216 -0.0405  0.0184
  767MPD2    C311323   4.718   1.886  14.725  0.4017 -0.1993  0.1361
  767MPD2    C411324   4.582   1.903  14.752 -0.1242  0.4517 -0.5089
  767MPD2    C511325   4.547   1.954  14.873  0.4646 -0.0015  0.4203
  767MPD2     H11326   0.192   1.928  14.789 -0.0971 -1.2423 -1.1447
  767MPD2    H111327   4.502   1.876  14.685  2.1679 -0.1255 -3.0417
  767MPD2    H211328   4.600   2.013  15.069 -0.1176  2.1700 -1.5966
  767MPD2    H311329   4.442   1.974  14.893  0.3960  0.1540 -0.0940
  767MPD2     N11330   0.043   1.847  14.598  0.2172 -0.4732 -0.0232
  767MPD2    H511331   0.144   1.847  14.584  0.1115  0.2408 -0.7998
  767MPD2    N111332   0.147   2.000  15.047  0.1575  0.0837  0.1834
  767MPD2    H711333   0.111   2.035  15.135 -1.2155 -0.4326 -0.1793
  768MPD2     C11334   1.656   0.209  10.483  0.4638 -0.6920 -0.1251
  768MPD2    C111335   1.632   0.124  10.590 -0.6062 -0.2099  0.0411
  768MPD2    C211336   1.710   0.141  10.709 -0.7050  0.6274  0.0497
  768MPD2    C311337   1.816   0.229  10.713 -0.3986  0.4550  0.0989
  768MPD2    C411338   1.828   0.320  10.605 -0.3553 -0.2356  0.9542
  768MPD2    C511339   1.748   0.301  10.491 -0.6950 -0.1796 -0.4282
  768MPD2     H11340   1.700   0.086  10.801 -1.3982  2.7825  1.2844
  768MPD2    H111341   1.907   0.394  10.610 -1.7023  1.1067  2.4229
  768MPD2    H211342   1.583   0.215  10.404 -1.2785  1.9424  1.6976
  768MPD2    H311343   1.759   0.380  10.417  0.5814  0.6501  0.6609
  768MPD2     N11344   1.891   0.246  10.830 -0.8183 -0.1519 -0.4140
  768MPD2    H511345   1.966   0.315  10.826 -2.8551  1.8670 -3.7188
  768MPD2    N111346   1.527   0.030  10.597  0.0042 -0.3420  0.0172
  768MPD2    H711347   1.506   4.721  10.692 -0.0151 -1.4495 -0.3482
  769MPD2     C11348   2.003   3.046  14.630  0.0688  0.2280 -0.4773
  769MPD2    C111349   1.907   3.070  14.724 -0.0906 -0.8874 -0.0569
  769MPD2    C211350   1.936   3.046  14.858  0.0885  0.4067 -0.4983
  769MPD2    C311351   2.061   3.027  14.902  0.0283  0.2003 -0.4724
  769MPD2    C411352   2.165   3.012  14.808 -0.1327  0.2774  0.4203
  769MPD2    C511353   2.131   3.023  14.676  0.2331 -0.4134  0.4731
  769MPD2     H11354   1.858   3.047  14.934 -0.8271 -0.3676 -1.4328
  769MPD2    H111355   2.270   2.989  14.826 -0.6601 -2.9702 -0.6078
  769MPD2    H211356   1.989   3.051  14.523 -0.9171  1.3987 -0.2881
  769MPD2    H311357   2.212   3.019  14.604  0.2807 -2.2598  0.6242
  769MPD2     N11358   2.086   3.018  15.044 -0.1372  0.3411 -0.3884
  769MPD2    H511359   2.004   3.022  15.104 -0.8982 -0.0324 -1.3898
  769MPD2    N111360   1.773   3.093  14.688  0.2393 -0.3750 -0.2424
  769MPD2    H711361   1.708   3.080  14.765  1.7550 -3.2486  0.5275
  770MPD2     C11362   1.192   2.444  14.869 -0.2050 -0.4604 -0.1318
  770MPD2    C111363   1.297   2.434  14.783 -0.8869 -0.1920  0.4158
  770MPD2    C211364   1.353   2.551  14.728  0.3884 -0.6912  0.1660
  770MPD2    C311365   1.316   2.676  14.765 -0.1550 -0.7313 -0.1136
  770MPD2    C411366   1.207   2.688  14.843  0.0572  0.1739  0.1184
  770MPD2    C511367   1.148   2.572  14.897  0.0016 -0.0868 -0.2239
  770MPD2     H11368   1.447   2.551  14.674 -1.5049 -2.1123 -3.0883
  770MPD2    H111369   1.158   2.781  14.871 -0.9318 -0.4587  0.4845
  770MPD2    H211370   1.141   2.354  14.899 -2.8198  1.0910  0.1140
  770MPD2    H311371   1.050   2.587  14.943  0.2464  0.0735  0.2438
  770MPD2     N11372   1.379   2.793  14.710  0.1747  0.1706 -0.7736
  770MPD2    H511373   1.469   2.772  14.668 -0.2788 -1.4984 -0.9277
  770MPD2    N111374   1.333   2.305  14.749 -0.7009  0.1497 -0.0133
  770MPD2    H711375   1.299   2.233  14.812 -0.6364 -0.3743 -0.5807
  771MPD2     C11376   3.064   1.001  13.637 -0.4938 -0.8304  0.1489
  771MPD2    C111377   2.966   1.082  13.583 -0.3969  0.3814 -0.0384
  771MPD2    C211378   2.880   1.031  13.497 -0.8169  0.1350  0.0762
  771MPD2    C311379   2.908   0.908  13.437 -0.2373 -0.3979  0.2132
  771MPD2    C411380   3.003   0.822  13.490 -0.4135  0.1539  0.6582
  771MPD2    C511381   3.085   0.876  13.587 -0.1122  0.1285 -0.2606
  771MPD2     H11382   2.797   1.092  13.465  0.9140  1.8817 -1.1029
  771MPD2    H111383   3.003   0.720  13.454 -2.9948  0.4182 -0.0869
  771MPD2    H211384   3.138   1.030  13.711  0.8434  0.1412 -1.5697
  771MPD2    H311385   3.154   0.811  13.639 -0.3537 -1.5602 -2.0201
  771MPD2     N11386   2.830   0.868  13.330  0.1194  0.0306  0.4450
  771MPD2    H511387   2.748   0.921  13.302  1.3443  2.3922  1.3033
  771MPD2    N111388   2.947   1.217  13.623  0.1783 -0.1438  0.4798
  771MPD2    H711389   2.850   1.248  13.630  0.3406  0.5536 -0.4029
  772MPD2     C11390   2.587   1.705  13.363  0.0053 -0.0677 -0.2941
  772MPD2    C111391   2.563   1.667  13.495 -0.3428  0.5488  0.0916
  772MPD2    C211392   2.432   1.665  13.532 -1.1178 -0.7803 -0.3962
  772MPD2    C311393   2.328   1.703  13.447  0.3215 -0.4607 -0.6293
  772MPD2    C411394   2.353   1.727  13.317  0.7447 -0.0915 -0.2832
  772MPD2    C511395   2.483   1.729  13.283  0.2649 -0.5029 -0.1787
  772MPD2     H11396   2.418   1.634  13.635 -1.8524  0.9977  0.0270
  772MPD2    H111397   2.275   1.744  13.244  0.0874  1.9410  0.8808
  772MPD2    H211398   2.684   1.704  13.315  1.2901 -1.2324  2.3122
  772MPD2    H311399   2.519   1.726  13.181  1.2318 -0.8579  0.1707
  772MPD2     N11400   2.189   1.694  13.484 -0.2636  0.6417 -0.2649
  772MPD2    H511401   2.119   1.710  13.412 -1.0328  0.8474  0.5377
  772MPD2    N111402   2.668   1.633  13.587  0.0364 -0.2180 -0.1710
  772MPD2    H711403   2.640   1.573  13.665 -0.0609 -0.8248 -0.6727
  773MPD2     C11404   1.023   2.273   0.138 -0.1882  0.1456 -0.0200
  773MPD2    C111405   1.024   2.132   0.109  0.0541 -0.3346 -0.3163
  773MPD2    C211406   1.120   2.052   0.172  0.3006  0.1690 -0.1734
  773MPD2    C311407   1.213   2.104   0.263 -0.4966  0.3660 -0.2739
  773MPD2    C411408   1.201   2.237   0.300 -0.4984 -0.0465 -0.8352
  773MPD2    C511409   1.110   2.316   0.229  0.1293  0.7033 -0.0121
  773MPD2     H11410   1.124   1.948   0.143 -1.2748 -0.1106  0.5986
  773MPD2    H111411   1.270   2.284   0.369 -0.7410 -0.8045 -0.0764
  773MPD2    H211412   0.950   2.339   0.092 -0.2164 -1.1955 -1.9216
  773MPD2    H311413   1.106   2.424   0.242  2.2523  0.9980 -1.6709
  773MPD2     N11414   1.311   2.016   0.313 -0.2168 -0.4253 -0.1239
  773MPD2    H511415   1.312   1.918   0.286  1.5780 -0.5862  0.5191
  773MPD2    N111416   0.940   2.076   0.015  0.2831 -0.3816  0.9035
  773MPD2    H711417   0.926   1.977   0.030 -1.7207 -0.6428 -2.7237
  774MPD2     C11418   0.346   1.757  13.391 -0.1027 -1.0685 -0.7017
  774MPD2    C111419   0.473   1.789  13.417  0.1730  0.1973  0.0643
  774MPD2    C211420   0.518   1.910  13.368  0.7356 -0.0713 -0.8080
  774MPD2    C311421   0.440   2.002  13.300 -0.0574 -0.0696  0.0655
  774MPD2    C411422   0.309   1.966  13.283 -0.1973  0.0938  0.2151
  774MPD2    C511423   0.264   1.841  13.318  0.0995 -0.0524  0.4564
  774MPD2     H11424   0.621   1.943  13.382  0.4475  0.2386  0.6233
  774MPD2    H111425   0.233   2.030  13.239 -0.2097 -0.5425 -0.7102
  774MPD2    H211426   0.303   1.666  13.430  0.6152 -0.1172  2.3578
  774MPD2    H311427   0.159   1.815  13.315  0.1333 -0.1822  0.3921
  774MPD2     N11428   0.494   2.128  13.248 -0.5743  0.0667 -0.3265
  774MPD2    H511429   0.571   2.164  13.303 -0.5629 -1.2174  0.4980
  774MPD2    N111430   0.556   1.698  13.482 -0.7288  0.3532 -0.2863
  774MPD2    H711431   0.523   1.606  13.507 -0.0796  0.0713 -0.4806
  775MPD2     C11432   2.306   2.753  15.522  0.3802  0.0151  0.2678
  775MPD2    C111433   2.289   2.858  15.612  0.0046  0.2088 -0.5449
  775MPD2    C211434   2.381   2.966  15.606 -0.6583 -0.4979 -0.7422
  775MPD2    C311435   2.490   2.966  15.518 -0.4522 -0.2962  0.5069
  775MPD2    C411436   2.499   2.867  15.430  0.6059  0.0739 -0.7527
  775MPD2    C511437   2.412   2.764  15.438  0.2123  0.0041  0.2863
  775MPD2     H11438   2.365   3.047  15.675  1.8428  1.1168 -2.0440
  775MPD2    H111439   2.578   2.864  15.356  0.1141  1.0595 -1.3259
  775MPD2    H211440   2.241   2.667  15.525  1.1296 -0.4952  1.4232
  775MPD2    H311441   2.429   2.677  15.376  3.0668  0.6454  0.1962
  775MPD2     N11442   2.580   3.073  15.512 -0.4214  0.1168  0.2663
  775MPD2    H511443   2.641   3.077  15.431 -1.2311  2.4540 -0.2217
  775MPD2    N111444   2.180   2.858  15.695 -0.5618 -0.3886  0.3424
  775MPD2    H711445   2.129   2.770  15.689  0.7700 -1.2104  1.0050
  776MPD2     C11446   1.642   3.434  10.879 -0.0601  0.0506 -0.1715
  776MPD2    C111447   1.695   3.417  11.006  0.0379  0.5787 -0.1822
  776MPD2    C211448   1.816   3.479  11.045  0.0964 -0.5292 -0.3588
  776MPD2    C311449   1.866   3.586  10.968  0.2586 -0.4587 -0.2831
  776MPD2    C411450   1.802   3.614  10.851  0.3047  0.8549 -0.1219
  776MPD2    C511451   1.697   3.535  10.803 -0.1745  0.7721  0.8113
  776MPD2     H11452   1.874   3.459  11.135 -0.2312  1.7100  0.3484
  776MPD2    H111453   1.853   3.674  10.777  0.7703 -1.8618 -2.0395
  776MPD2    H211454   1.562   3.379  10.831 -0.5490  0.2717  0.3913
  776MPD2    H311455   1.654   3.541  10.703  0.1943  3.9008  0.8433
  776MPD2     N11456   1.986   3.657  10.990  0.5784 -0.5149 -0.4056
  776MPD2    H511457   2.002   3.724  10.916  1.7931  0.3058  0.6101
  776MPD2    N111458   1.629   3.313  11.077 -0.3713 -0.2673  0.0888
  776MPD2    H711459   1.555   3.266  11.027 -2.2680  0.1934  2.4777
  777MPD2     C11460   1.811   0.912   0.469  0.4032 -0.2261  0.2518
  777MPD2    C111461   1.841   0.833   0.575 -0.4036 -0.5287 -0.2653
  777MPD2    C211462   1.860   0.697   0.553  0.1105 -0.1628  1.3218
  777MPD2    C311463   1.853   0.645   0.427 -0.1659  0.1702  0.6165
  777MPD2    C411464   1.845   0.733   0.320  0.9316  0.0490 -0.0323
  777MPD2    C511465   1.831   0.865   0.342 -0.2857 -0.1436  0.2848
  777MPD2     H11466   1.867   0.628   0.636  0.5035 -0.1674  1.2866
  777MPD2    H111467   1.863   0.693   0.220 -0.6977  0.0012 -0.3070
  777MPD2    H211468   1.793   1.018   0.475  1.8832  0.0273  0.2543
  777MPD2    H311469   1.815   0.939   0.264 -2.3973 -0.7439  0.1558
  777MPD2     N11470   1.849   0.504   0.421  0.2279  0.3035 -0.4395
  777MPD2    H511471   1.860   0.451   0.507 -0.2005 -0.5481 -0.9124
  777MPD2    N111472   1.827   0.886   0.706 -0.4404 -0.1529  0.1955
  777MPD2    H711473   1.797   0.982   0.701  0.7102  0.0652 -2.4142
  778MPD2     C11474   2.495   0.599  15.127 -0.4500  0.4944 -0.4123
  778MPD2    C111475   2.404   0.602  15.023 -0.1201  0.3180  0.7623
  778MPD2    C211476   2.419   0.693  14.921 -0.6376  0.4076 -0.1343
  778MPD2    C311477   2.522   0.786  14.925  0.4687  0.3608  0.0982
  778MPD2    C411478   2.622   0.772  15.025  0.2550 -0.3741 -0.5434
  778MPD2    C511479   2.604   0.681  15.125  0.7107 -0.3114  0.2728
  778MPD2     H11480   2.340   0.693  14.845 -1.0162 -2.0345  0.2538
  778MPD2    H111481   2.710   0.834  15.035  0.5452 -0.8055 -0.4504
  778MPD2    H211482   2.478   0.532  15.210 -0.6897  1.6771  0.5001
  778MPD2    H311483   2.672   0.663  15.207  1.5451  0.0477 -0.3524
  778MPD2     N11484   2.540   0.874  14.816  0.0090  0.0801  0.0632
  778MPD2    H511485   2.477   0.876  14.735 -1.3760 -2.4385  1.0898
  778MPD2    N111486   2.284   0.529  15.013  0.3840  0.5021  0.3889
  778MPD2    H711487   2.222   0.559  14.938  1.4310  0.6754 -0.4142
  779MPD2     C11488   2.090   4.285  14.502 -0.2692 -0.2209  0.1354
  779MPD2    C111489   2.228   4.309  14.515  0.3658 -0.5334 -0.0304
  779MPD2    C211490   2.282   4.427  14.478  0.4540 -0.0629  0.9677
  779MPD2    C311491   2.207   4.531  14.438  0.0192 -0.1235 -0.0403
  779MPD2    C411492   2.065   4.514  14.430 -0.2906  0.3658 -0.3794
  779MPD2    C511493   2.012   4.393  14.465  0.0786  0.0708  0.3764
  779MPD2     H11494   2.389   4.438  14.494  0.4110 -0.7966  1.7931
  779MPD2    H111495   1.991   4.583  14.392 -0.0774  0.1324 -1.2188
  779MPD2    H211496   2.050   4.185  14.514 -0.4036 -0.5206 -2.6123
  779MPD2    H311497   1.905   4.385  14.450 -0.0431 -0.8547  1.7766
  779MPD2     N11498   2.268   4.648  14.393  0.0936 -0.0017 -0.1911
  779MPD2    H511499   2.370   4.652  14.395  0.1500 -0.9731 -1.5745
  779MPD2    N111500   2.313   4.213  14.562  0.2613 -1.0149 -0.0426
  779MPD2    H711501   2.408   4.245  14.542 -0.0901  0.6034  0.9102
  780MPD2     C11502   2.774   4.702   1.049  0.1676 -0.0251 -0.3496
  780MPD2    C111503   2.684   4.598   1.062 -0.6194 -0.0263 -0.3213
  780MPD2    C211504   2.602   4.576   0.953  0.1261 -0.4959  0.3118
  780MPD2    C311505   2.609   4.646   0.837  0.4235 -0.0964  0.1796
  780MPD2    C411506   2.704   0.022   0.830 -0.4039 -0.6649  0.0707
  780MPD2    C511507   2.787   0.047   0.934 -0.6347  0.4069 -0.0997
  780MPD2     H11508   2.532   4.493   0.953  0.2727 -0.6183 -0.0709
  780MPD2    H111509   2.724   0.087   0.745  0.3302  1.1328  1.6118
  780MPD2    H211510   2.840   0.004   1.131  1.5799 -1.9235 -0.8988
  780MPD2    H311511   2.866   0.118   0.911  0.8027 -1.6351 -1.3961
  780MPD2     N11512   2.520   4.611   0.732 -0.5389 -0.4962 -0.4854
  780MPD2    H511513   2.460   4.530   0.743 -1.4496  0.1638 -0.6061
  780MPD2    N111514   2.686   4.512   1.178 -0.2607  0.4888 -0.3767
  780MPD2    H711515   2.761   4.530   1.244 -1.3038  0.2876  0.8742
  781MPD2     C11516   4.148   2.179  11.914  0.1748  0.4239  0.5481
  781MPD2    C111517   4.185   2.052  11.957 -0.0602  0.1060  0.3106
  781MPD2    C211518   4.270   1.974  11.881  0.1370 -0.1790  0.0813
  781MPD2    C311519   4.309   2.017  11.753 -1.3153  1.0348  0.6247
  781MPD2    C411520   4.275   2.146  11.715 -0.0898  0.5914 -0.6188
  781MPD2    C511521   4.213   2.234  11.806 -0.3930 -0.0821 -0.0475
  781MPD2     H11522   4.286   1.870  11.906  3.1059  0.4133  0.6267
  781MPD2    H111523   4.299   2.172  11.613  1.0254  1.1778 -0.2098
  781MPD2    H211524   4.100   2.256  11.974 -0.5064  1.6761 -1.5902
  781MPD2    H311525   4.200   2.340  11.785 -1.2725  0.4773  3.3074
  781MPD2     N11526   4.379   1.935  11.663 -0.1831  0.2265 -0.1681
  781MPD2    H511527   4.398   1.982  11.575 -0.9740  1.5312  0.3680
  781MPD2    N111528   4.128   2.003  12.079  0.5562 -0.7102  0.0085
  781MPD2    H711529   4.176   1.922  12.119  0.2840 -0.7255  0.3025
  782MPD2     C11530   1.903   2.279  10.086  0.6421 -0.2494  0.5377
  782MPD2    C111531   2.037   2.259  10.094 -0.2512  0.4388 -0.2341
  782MPD2    C211532   2.117   2.362  10.129 -0.7181  0.4187  0.3361
  782MPD2    C311533   2.061   2.481  10.175  0.0755  0.0144  0.2685
  782MPD2    C411534   1.928   2.506  10.156 -0.7418 -0.4599 -0.1644
  782MPD2    C511535   1.852   2.406  10.106 -0.2003  0.0263 -0.6351
  782MPD2     H11536   2.225   2.355  10.136 -0.8294 -0.8762  0.7846
  782MPD2    H111537   1.879   2.598  10.187  0.3380  1.2025 -3.4397
  782MPD2    H211538   1.847   2.201  10.038  3.1722 -1.7073 -0.0373
  782MPD2    H311539   1.746   2.426  10.095  0.4216  2.4092 -2.3597
  782MPD2     N11540   2.145   2.574  10.237 -0.1301 -0.5653 -0.1250
  782MPD2    H511541   2.239   2.545  10.264 -0.3062 -0.6874  0.3600
  782MPD2    N111542   2.081   2.128  10.070  0.2549  0.6208 -0.0673
  782MPD2    H711543   2.018   2.049  10.065  2.5036 -0.9695 -3.1861
  783MPD2     C11544   1.838   1.606  10.656  0.0639  0.7871 -0.5654
  783MPD2    C111545   1.836   1.736  10.619  0.8035  0.2474  0.1474
  783MPD2    C211546   1.930   1.786  10.531 -0.0082  0.4245  0.3471
  783MPD2    C311547   2.020   1.701  10.465  0.3260 -0.5323  0.2751
  783MPD2    C411548   2.014   1.570  10.501 -0.0885 -0.4779  0.2796
  783MPD2    C511549   1.921   1.522  10.594  0.5963  0.6463  0.4251
  783MPD2     H11550   1.924   1.891  10.506 -2.8326  0.5445  1.4653
  783MPD2    H111551   2.089   1.509  10.451 -1.5942 -0.2867 -2.2261
  783MPD2    H211552   1.773   1.556  10.727  0.8731 -0.3301 -0.5967
  783MPD2    H311553   1.935   1.415  10.604 -0.7158  0.9386  5.4965
  783MPD2     N11554   2.096   1.760  10.365 -0.5337 -0.2133 -0.2198
  783MPD2    H511555   2.059   1.851  10.338 -0.3355 -0.1928 -0.4228
  783MPD2    N111556   1.739   1.821  10.680  0.1349  0.6900 -0.1159
  783MPD2    H711557   1.663   1.769  10.723  1.7673 -0.0784  1.8252
  784MPD2     C11558   0.269   2.129   0.888  0.1269 -0.6318 -0.0783
  784MPD2    C111559   0.290   2.263   0.852 -0.7799  0.1311 -0.3317
  784MPD2    C211560   0.200   2.320   0.759 -0.0829 -0.0620  0.2875
  784MPD2    C311561   0.101   2.253   0.712  0.4483  0.1520 -0.4304
  784MPD2    C411562   0.080   2.125   0.753 -1.0916 -0.1369  0.1096
  784MPD2    C511563   0.159   2.067   0.849 -0.4001  0.3842  0.4194
  784MPD2     H11564   0.215   2.421   0.722 -0.1555  0.4523  1.6418
  784MPD2    H111565   4.718   2.064   0.723 -0.1260 -1.2454 -0.3554
  784MPD2    H211566   0.339   2.074   0.951  1.4352  0.7964 -0.2868
  784MPD2    H311567   0.139   1.962   0.870 -0.8720  1.0399  3.2817
  784MPD2     N11568   0.019   2.329   0.623 -0.5482  0.7507 -0.7047
  784MPD2    H511569   0.054   2.417   0.589  1.1398 -0.2459 -1.5585
  784MPD2    N111570   0.395   2.337   0.902 -0.1346 -0.5815 -0.2646
  784MPD2    H711571   0.404   2.430   0.862 -1.4350 -0.4935 -0.3849
  785MPD2     C11572   0.928   0.076   9.082  0.9465  0.4523 -0.2866
  785MPD2    C111573   0.976   0.064   9.210 -0.4883  0.2378 -0.1342
  785MPD2    C211574   0.911   4.708   9.306 -0.6546  0.3995 -0.4437
  785MPD2    C311575   0.795   4.642   9.277 -0.6256 -0.2699  0.2536
  785MPD2    C411576   0.739   4.672   9.149  0.1483 -0.4917  1.5141
  785MPD2    C511577   0.801   0.022   9.051  0.7740  0.1699 -0.0937
  785MPD2     H11578   0.945   4.697   9.409 -1.6231  2.7012  0.1216
  785MPD2    H111579   0.645   4.624   9.125  0.0144 -0.0622  1.1845
  785MPD2    H211580   0.975   0.136   9.005  0.5954  1.0254 -0.0467
  785MPD2    H311581   0.752   0.036   8.956 -0.4432  0.7557  0.6186
  785MPD2     N11582   0.728   4.567   9.381 -0.1302  0.6121  0.3586
  785MPD2    H511583   0.782   4.544   9.464  0.7855 -1.2693 -0.7496
  785MPD2    N111584   1.096   0.121   9.256 -0.3507 -0.2538  0.2470
  785MPD2    H711585   1.122   0.086   9.348  1.8315  1.3264  0.2263
  786MPD2     C11586   2.566   3.616  14.558 -0.4911 -0.3875 -0.1918
  786MPD2    C111587   2.697   3.638  14.525 -0.5642  0.3264  0.5895
  786MPD2    C211588   2.787   3.658  14.625  1.2290  0.5467  0.1001
  786MPD2    C311589   2.753   3.653  14.756 -0.8387 -0.2178  0.0664
  786MPD2    C411590   2.622   3.627  14.788  0.4482 -0.4962 -0.5043
  786MPD2    C511591   2.532   3.607  14.686  0.2428 -0.0234  0.4509
  786MPD2     H11592   2.886   3.686  14.591  1.0451  0.1630 -0.7510
  786MPD2    H111593   2.593   3.621  14.892  1.5632 -0.7807 -0.2033
  786MPD2    H211594   2.492   3.597  14.481 -1.9586 -1.2319  1.4222
  786MPD2    H311595   2.430   3.581  14.715 -0.1140  0.3286 -0.4887
  786MPD2     N11596   2.847   3.652  14.865  0.0318  0.3587  0.2754
  786MPD2    H511597   2.810   3.639  14.959  0.1340 -0.0041  0.2665
  786MPD2    N111598   2.750   3.630  14.393  0.6165  0.6884 -0.0705
  786MPD2    H711599   2.843   3.667  14.375  0.7616 -1.4928 -3.7301
  787MPD2     C11600   3.289   3.688  14.447  0.0292  0.1543 -0.1386
  787MPD2    C111601   3.281   3.640  14.321  0.1318  0.5202 -0.5969
  787MPD2    C211602   3.384   3.566  14.271 -0.3298 -0.0158 -0.0139
  787MPD2    C311603   3.477   3.516  14.352 -0.3185 -0.4013 -0.1117
  787MPD2    C411604   3.492   3.564  14.482 -0.9710 -0.6124 -0.4150
  787MPD2    C511605   3.390   3.646  14.527 -0.1447 -0.6688  0.9290
  787MPD2     H11606   3.384   3.526  14.170 -0.2285 -0.3907  0.1331
  787MPD2    H111607   3.573   3.532  14.546 -0.4140  0.2761 -0.6780
  787MPD2    H211608   3.228   3.768  14.488  1.3892  1.1298 -0.0346
  787MPD2    H311609   3.416   3.704  14.615 -0.4083  0.2554  0.3960
  787MPD2     N11610   3.572   3.425  14.303 -0.0842 -0.1184  0.2033
  787MPD2    H511611   3.575   3.401  14.204  0.7170 -0.0610  0.2168
  787MPD2    N111612   3.166   3.679  14.244  0.0104  0.3391 -0.2260
  787MPD2    H711613   3.092   3.731  14.290  0.6076  3.1868 -2.5073
  788MPD2     C11614   0.332   1.514   0.402  0.1406 -0.6060 -0.6021
  788MPD2    C111615   0.239   1.417   0.356 -0.1927  0.6984 -0.1246
  788MPD2    C211616   0.130   1.449   0.268  0.1810 -0.2859  0.2370
  788MPD2    C311617   0.125   1.579   0.219 -0.1799  0.2369 -0.1739
  788MPD2    C411618   0.230   1.665   0.253  0.1505  0.4896 -0.0968
  788MPD2    C511619   0.324   1.639   0.351 -0.0573 -0.0390 -0.1434
  788MPD2     H11620   0.071   1.362   0.241  0.3914 -0.4110  0.1743
  788MPD2    H111621   0.244   1.764   0.211 -2.0887  0.8112 -0.1022
  788MPD2    H211622   0.403   1.502   0.483 -0.7142  2.0608  0.5245
  788MPD2    H311623   0.391   1.720   0.378 -0.4729 -0.1003  1.1136
  788MPD2     N11624   0.026   1.617   0.124 -0.3813 -0.3470 -0.0269
  788MPD2    H511625   0.048   1.707   0.081  0.2944  1.2014  3.5452
  788MPD2    N111626   0.257   1.280   0.387  0.3455  0.4108 -0.0752
  788MPD2    H711627   0.190   1.211   0.356 -1.0154 -0.0353  3.9073
  789MPD2     C11628   0.541   2.065  16.039 -0.1098  0.1825 -0.3585
  789MPD2    C111629   0.512   1.953  16.107 -0.0518  0.0906 -0.2597
  789MPD2    C211630   0.400   1.944  16.184 -0.6864  0.2335  0.0921
  789MPD2    C311631   0.316   2.058  16.199 -0.6170  0.1702 -0.2106
  789MPD2    C411632   0.344   2.176  16.130 -1.0940 -0.7677  0.0963
  789MPD2    C511633   0.454   2.171  16.055  0.5857 -0.2606 -0.5077
  789MPD2     H11634   0.381   1.846  16.226 -1.0357 -0.1954 -1.0595
  789MPD2    H111635   0.274   2.258  16.125  0.5098  0.5679 -0.2443
  789MPD2    H211636   0.629   2.076  15.977  1.0045 -1.7447  0.8557
  789MPD2    H311637   0.473   2.257  15.992 -0.5389  0.5173  0.2105
  789MPD2     N11638   0.190   2.055  16.262 -0.1938 -0.1690 -0.1178
  789MPD2    H511639   0.121   2.129  16.263 -0.4526 -0.4182  0.7443
  789MPD2    N111640   0.595   1.842  16.113  0.8975 -0.1634  0.1333
  789MPD2    H711641   0.563   1.754  16.151  1.6717 -0.5736 -0.1726
  790MPD2     C11642   1.177   3.463  13.490 -0.2369 -0.4359  0.1410
  790MPD2    C111643   1.299   3.427  13.435 -0.7421 -0.1135  0.0798
  790MPD2    C211644   1.306   3.379  13.305  0.9863  0.4408 -0.1175
  790MPD2    C311645   1.195   3.374  13.226  0.6385 -0.6146 -0.1540
  790MPD2    C411646   1.075   3.413  13.284  0.1616 -0.0904  0.1892
  790MPD2    C511647   1.065   3.455  13.412  0.2912  0.5496  0.8152
  790MPD2     H11648   1.401   3.336  13.274 -0.9032 -2.6204 -1.7601
  790MPD2    H111649   0.983   3.426  13.228  0.4252 -1.3743 -0.5503
  790MPD2    H211650   1.174   3.505  13.590 -0.0358  1.4782 -0.6538
  790MPD2    H311651   0.970   3.485  13.456 -1.6100 -1.1466 -2.1407
  790MPD2     N11652   1.206   3.319  13.095 -0.3656  0.0292 -0.4996
  790MPD2    H511653   1.301   3.304  13.061 -0.6095 -0.9241 -0.7813
  790MPD2    N111654   1.410   3.433  13.522 -0.0786 -0.0022  0.2800
  790MPD2    H711655   1.390   3.425  13.621  0.8656 -2.4690  0.2935
  791MPD2     C11656   0.675   3.570  12.557  0.4182 -0.1905  0.0755
  791MPD2    C111657   0.737   3.442  12.525  0.4342  0.4512  0.0911
  791MPD2    C211658   0.690   3.369  12.415  0.2610  0.2838  0.4693
  791MPD2    C311659   0.588   3.427  12.342  0.0196 -0.8388 -0.4315
  791MPD2    C411660   0.541   3.550  12.372  0.5724  0.0771  0.5772
  791MPD2    C511661   0.582   3.623  12.474  0.9251  0.0901 -0.1089
  791MPD2     H11662   0.732   3.274  12.382 -0.0731  0.5878 -0.8212
  791MPD2    H111663   0.471   3.601  12.307  1.5106  1.0587  0.3473
  791MPD2    H211664   0.702   3.634  12.640 -0.8117  1.4500 -0.7907
  791MPD2    H311665   0.556   3.727  12.487 -0.7463 -0.2450 -0.7777
  791MPD2     N11666   0.530   3.345  12.240  0.5669  0.9734 -0.7558
  791MPD2    H511667   0.568   3.257  12.207 -1.1996 -0.7930  1.8211
  791MPD2    N111668   0.853   3.401  12.606  0.0695 -0.5419  0.4872
  791MPD2    H711669   0.889   3.467  12.674  1.0872 -1.8235  1.1907
  792MPD2     C11670   2.081   2.960  10.789 -0.3163 -0.2241 -0.1544
  792MPD2    C111671   1.983   3.054  10.762  0.4919 -0.4957 -0.1602
  792MPD2    C211672   1.853   3.010  10.761 -0.4710 -0.1464 -0.2893
  792MPD2    C311673   1.815   2.881  10.781 -0.4828  0.3193 -0.2546
  792MPD2    C411674   1.915   2.790  10.800 -0.9266 -0.0181 -0.1459
  792MPD2    C511675   2.046   2.829  10.805 -0.5375  0.5146  0.3129
  792MPD2     H11676   1.783   3.091  10.743  2.8701  3.1766  1.4190
  792MPD2    H111677   1.897   2.683  10.796  1.8270 -0.4356 -2.4493
  792MPD2    H211678   2.187   2.975  10.775 -0.2064 -1.0703 -0.2175
  792MPD2    H311679   2.120   2.753  10.824 -2.0055 -1.6370 -2.5206
  792MPD2     N11680   1.683   2.830  10.759  0.2352  0.7564 -0.1883
  792MPD2    H511681   1.667   2.731  10.749 -0.6737  0.7402  1.4247
  792MPD2    N111682   2.014   3.195  10.746  0.2646 -0.5230  0.7303
  792MPD2    H711683   2.115   3.208  10.750  0.2831 -0.3450 -0.3711
  793MPD2     C11684   1.226   3.046   9.956 -0.6545 -0.2323 -0.1441
  793MPD2    C111685   1.331   3.097  10.029  0.1622 -0.3348 -0.0947
  793MPD2    C211686   1.360   3.055  10.157  0.0648  0.1332  0.3342
  793MPD2    C311687   1.277   2.965  10.217  0.3812  0.6853  0.0252
  793MPD2    C411688   1.160   2.924  10.150  0.5619 -0.5380 -0.1507
  793MPD2    C511689   1.135   2.970  10.024 -0.3823  0.2408 -0.0565
  793MPD2     H11690   1.446   3.096  10.208  2.4289 -1.8008 -2.0981
  793MPD2    H111691   1.092   2.854  10.196  1.2315 -0.7299  0.5393
  793MPD2    H211692   1.199   3.077   9.855  0.9523 -0.0444 -0.5250
  793MPD2    H311693   1.046   2.937   9.972 -0.7073 -2.1583  2.0038
  793MPD2     N11694   1.320   2.912  10.342  0.3609  0.3767  0.1828
  793MPD2    H511695   1.408   2.944  10.380  0.8549  2.3053 -2.5695
  793MPD2    N111696   1.435   3.166   9.975 -0.0119  0.5933 -0.0185
  793MPD2    H711697   1.508   3.189  10.041 -0.8214  1.7813  0.4556
  794MPD2     C11698   1.032   1.885  16.998 -0.0156  0.3102 -0.0598
  794MPD2    C111699   0.969   1.999  17.043  0.1218 -0.4591  0.3036
  794MPD2    C211700   0.986   2.114  16.962 -1.0991 -0.1345  0.2001
  794MPD2    C311701   1.056   2.115  16.840  0.2090 -0.3817  0.0227
  794MPD2    C411702   1.116   1.995  16.810  0.2143 -0.5845  0.3844
  794MPD2    C511703   1.106   1.886  16.886 -0.5602 -0.0645  0.8295
  794MPD2     H11704   0.931   2.196  17.008 -0.7848  0.7457 -0.9973
  794MPD2    H111705   1.186   1.994  16.728 -2.7826 -0.3698 -2.1676
  794MPD2    H211706   1.036   1.800  17.065 -0.8811 -1.4811 -2.2666
  794MPD2    H311707   1.162   1.798  16.856 -0.3661  0.9599 -1.7634
  794MPD2     N11708   1.076   2.235  16.760  0.5303 -0.6260 -0.3372
  794MPD2    H511709   1.113   2.223  16.667  0.8462 -1.7593 -0.0668
  794MPD2    N111710   0.885   2.009  17.152 -0.2467 -0.3099  0.4415
  794MPD2    H711711   0.836   2.098  17.158 -1.1642 -0.7210 -0.8519
  795MPD2     C11712   4.001   0.350  13.037 -0.7502 -0.5793  1.2471
  795MPD2    C111713   3.950   0.283  13.143  0.1062 -0.4174 -0.7407
  795MPD2    C211714   4.032   0.217  13.228  0.1082  0.5827 -0.3940
  795MPD2    C311715   4.167   0.224  13.214  0.0713 -0.0694  0.0519
  795MPD2    C411716   4.225   0.293  13.108  0.6854  0.2549 -0.2913
  795MPD2    C511717   4.140   0.361  13.025 -0.5120 -0.4569 -0.1314
  795MPD2     H11718   3.992   0.171  13.317 -1.5796 -0.3810 -1.6394
  795MPD2    H111719   4.332   0.312  13.107  0.7147  0.2233  1.6365
  795MPD2    H211720   3.936   0.423  12.990 -0.2335 -1.5469 -0.9563
  795MPD2    H311721   4.175   0.432  12.951 -2.5574  1.3139  0.5712
  795MPD2     N11722   4.240   0.144  13.305 -0.7762  0.1785  0.4918
  795MPD2    H511723   4.181   0.119  13.384  0.1160 -0.9153  0.8130
  795MPD2    N111724   3.805   0.272  13.158  0.8127  0.5460  0.0787
  795MPD2    H711725   3.771   0.219  13.238  0.1588 -1.5297 -1.5635
  796MPD2     C11726   3.024   1.463  15.716  0.1850  0.8719 -0.1006
  796MPD2    C111727   3.114   1.525  15.804  0.1460  0.2509  0.3370
  796MPD2    C211728   3.130   1.664  15.800  0.2385  0.0259 -0.3343
  796MPD2    C311729   3.074   1.743  15.699  0.1457  0.2286  0.6118
  796MPD2    C411730   2.995   1.677  15.605  0.1545 -0.5298 -0.3793
  796MPD2    C511731   2.966   1.544  15.623  0.6003  0.0356 -0.0328
  796MPD2     H11732   3.200   1.721  15.860 -1.3013  2.1263 -0.5337
  796MPD2    H111733   2.949   1.726  15.520 -0.9091  2.6315  2.0098
  796MPD2    H211734   3.003   1.357  15.725  1.3530  0.6791  0.3978
  796MPD2    H311735   2.897   1.508  15.547  2.7827 -0.6958 -1.6757
  796MPD2     N11736   3.119   1.876  15.697 -0.1984  0.3613  0.1425
  796MPD2    H511737   3.182   1.914  15.767 -0.4035  2.8809 -1.0242
  796MPD2    N111738   3.168   1.448  15.909 -0.1815 -0.7517  0.3899
  796MPD2    H711739   3.147   1.349  15.909 -2.6307 -0.2397  0.5368
  797MPD2     C11740   3.561   1.018  17.245 -0.2234  0.2958 -0.6743
  797MPD2    C111741   3.687   0.974  17.242  0.1650 -0.4053 -0.3892
  797MPD2    C211742   3.779   1.061  17.196  0.4618  0.4607  0.5337
  797MPD2    C311743   3.752   1.189  17.159 -0.5973  1.0854 -0.6190
  797MPD2    C411744   3.625   1.237  17.169  0.2739 -0.0578 -0.0570
  797MPD2    C511745   3.530   1.145  17.218  0.2326  0.6065 -0.0957
  797MPD2     H11746   3.882   1.031  17.181  0.2609  0.6832 -1.3282
  797MPD2    H111747   3.598   1.339  17.145 -0.9160  0.1796  2.2937
  797MPD2    H211748   3.476   0.960  17.279  0.6685 -0.2513  0.6259
  797MPD2    H311749   3.424   1.166  17.225 -0.0332 -0.5633 -0.6396
  797MPD2     N11750   3.865   1.260  17.103 -0.7106 -0.5025  0.0328
  797MPD2    H511751   3.943   1.202  17.074 -1.3146  0.1155 -2.8162
  797MPD2    N111752   3.730   0.847  17.272  0.8871  0.3519 -0.3732
  797MPD2    H711753   3.828   0.836  17.249  1.4401  0.7844  1.7987
  798MPD2     C11754   4.447   0.987  17.235  0.1173  0.0972  0.5454
  798MPD2    C111755   4.323   1.007  17.178  0.4343 -0.5638  1.1084
  798MPD2    C211756   4.220   0.915  17.194  0.1924  0.0881  1.0029
  798MPD2    C311757   4.236   0.810  17.276  0.1754  0.5394  0.5550
  798MPD2    C411758   4.357   0.805  17.352 -0.0506  0.0926 -0.4623
  798MPD2    C511759   4.452   0.893  17.336 -0.2027  0.2276 -0.5731
  798MPD2     H11760   4.122   0.933  17.151  1.2726 -0.6048 -1.7092
  798MPD2    H111761   4.364   0.740  17.438 -0.3723 -0.7053 -1.0343
  798MPD2    H211762   4.534   1.044  17.206 -0.6006  1.4892  1.1423
  798MPD2    H311763   4.544   0.878  17.392 -1.9771  0.8356  2.5129
  798MPD2     N11764   4.115   0.727  17.301  0.1208 -0.2421  0.5648
  798MPD2    H511765   4.032   0.753  17.248 -0.7361 -0.4229  1.8006
  798MPD2    N111766   4.302   1.124  17.096  0.3592  0.3687 -0.0492
  798MPD2    H711767   4.378   1.190  17.087  0.3318  0.3863 -0.1505
  799MPD2     C11768   3.086   2.794  14.227  0.4807  0.3333  0.5327
  799MPD2    C111769   2.953   2.761  14.227 -0.1554  0.6820  0.1175
  799MPD2    C211770   2.866   2.816  14.137 -0.5988  0.0050  0.7316
  799MPD2    C311771   2.917   2.906  14.045 -0.4184 -0.2202 -0.6243
  799MPD2    C411772   3.046   2.960  14.049 -0.4484 -0.1150 -0.2133
  799MPD2    C511773   3.132   2.895  14.139  0.7474 -0.1175  0.1355
  799MPD2     H11774   2.762   2.787  14.144 -0.5959 -0.4804 -1.3660
  799MPD2    H111775   3.082   3.035  13.979  2.1290  0.5301  1.8263
  799MPD2    H211776   3.146   2.745  14.302  3.8374 -0.1159 -2.4509
  799MPD2    H311777   3.234   2.930  14.150  0.7163  0.0550 -0.1336
  799MPD2     N11778   2.837   2.947  13.937  0.9208  0.4650  0.4372
  799MPD2    H511779   2.869   3.025  13.881 -0.6678  1.0706  0.3710
  799MPD2    N111780   2.898   2.656  14.310  0.2982 -0.9313 -0.5344
  799MPD2    H711781   2.806   2.618  14.294 -0.4381  0.7343 -0.3053
  800MPD2     C11782   3.723   4.639  14.177  1.2864 -0.2938 -0.2846
  800MPD2    C111783   3.773   4.642  14.048 -0.1913 -0.2481  0.2475
  800MPD2    C211784   3.747   4.529  13.969  0.6701 -0.6040  0.6413
  800MPD2    C311785   3.674   4.419  14.015  0.3255 -0.3842 -0.4877
  800MPD2    C411786   3.629   4.420  14.141 -0.1602 -0.2956 -0.7491
  800MPD2    C511787   3.645   4.531  14.220  0.0299 -0.2235 -0.1501
  800MPD2     H11788   3.777   4.532  13.865  0.0032  1.2097  0.5003
  800MPD2    H111789   3.569   4.343  14.189  0.2572  0.7110  1.3639
  800MPD2    H211790   3.749   0.001  14.239  0.1687  1.7951 -2.6810
  800MPD2    H311791   3.606   4.521  14.321  5.2379 -1.8865  1.7311
  800MPD2     N11792   3.655   4.310  13.932 -0.0921 -0.2391  0.4247
  800MPD2    H511793   3.700   4.308  13.842  1.0440  1.2720  0.9756
  800MPD2    N111794   3.852   0.026  14.012  0.2009 -0.3713  0.4445
  800MPD2    H711795   3.857   0.109  14.071  1.7980 -0.4682  0.4401
  801MPD2     C11796   4.048   0.533  14.483  0.4831  0.1208  0.1547
  801MPD2    C111797   3.985   0.448  14.395 -0.1011 -0.3211 -0.5144
  801MPD2    C211798   3.854   0.412  14.434  0.0432 -0.7123 -0.5910
  801MPD2    C311799   3.807   0.418  14.565  0.7856 -0.2537  0.4761
  801MPD2    C411800   3.882   0.493  14.647  0.2221  0.3886  0.6207
  801MPD2    C511801   3.997   0.551  14.609 -0.8575 -0.3527 -0.0632
  801MPD2     H11802   3.793   0.365  14.358 -0.4073  0.5959 -1.0257
  801MPD2    H111803   3.847   0.514  14.748  1.7992 -0.1092  1.2726
  801MPD2    H211804   4.137   0.590  14.458  0.2018  0.6881  0.4811
  801MPD2    H311805   4.053   0.612  14.679  1.2050 -1.3811 -0.8091
  801MPD2     N11806   3.691   0.349  14.615 -1.1206 -0.3515 -0.1703
  801MPD2    H511807   3.660   0.387  14.704 -2.4179 -0.6194 -0.5081
  801MPD2    N111808   4.044   0.424  14.270  0.7039 -0.1024  0.7002
  801MPD2    H711809   4.132   0.470  14.250  0.6412 -1.3398 -2.4104
  802MPD2     C11810   3.280   0.365   0.167  0.4235 -0.5247  0.0524
  802MPD2    C111811   3.208   0.391   0.051 -0.3254  0.0326 -0.0375
  802MPD2    C211812   3.216   0.302  17.645  0.2763 -0.1527  0.5421
  802MPD2    C311813   3.294   0.195  17.646 -1.0512  0.8227 -0.5003
  802MPD2    C411814   3.362   0.171   0.067 -0.6203 -0.0330  0.1628
  802MPD2    C511815   3.355   0.255   0.174 -0.0819 -0.5225  1.0679
  802MPD2     H11816   3.159   0.319  17.555  0.9558 -3.7088 -0.5736
  802MPD2    H111817   3.422   0.084   0.093 -2.8868 -1.1956  1.4989
  802MPD2    H211818   3.300   0.439   0.244  1.3362 -0.0247 -0.6666
  802MPD2    H311819   3.409   0.227   0.263 -2.6367 -4.7605  1.2653
  802MPD2     N11820   3.300   0.103  17.543 -0.4748 -0.7321 -0.3810
  802MPD2    H511821   3.242   0.122  17.461  2.0767 -1.3332 -2.3181
  802MPD2    N111822   3.113   0.492   0.032  0.7387 -0.1861  0.0818
  802MPD2    H711823   3.060   0.491  17.639  0.1449 -3.6446  0.4562
  803MPD2     C11824   4.195   3.599  11.762  0.2192  0.2565 -0.2940
  803MPD2    C111825   4.213   3.605  11.898 -0.2287 -0.2134  0.6063
  803MPD2    C211826   4.137   3.529  11.988 -0.0248 -0.1881 -0.8385
  803MPD2    C311827   4.077   3.421  11.930 -0.1971 -0.4273  0.5430
  803MPD2    C411828   4.068   3.401  11.790 -0.2538 -0.4549 -0.1223
  803MPD2    C511829   4.124   3.497  11.710  0.1692 -0.8157 -0.6563
  803MPD2     H11830   4.149   3.548  12.093 -1.1015 -0.4973 -0.6582
  803MPD2    H111831   4.005   3.323  11.749  1.9037 -1.7620 -0.9147
  803MPD2    H211832   4.233   3.667  11.686  0.1146  0.8045  0.1416
  803MPD2    H311833   4.107   3.498  11.603 -1.1079  1.9531 -0.4447
  803MPD2     N11834   4.015   3.324  12.019  0.3288 -0.2361 -0.3694
  803MPD2    H511835   4.015   3.337  12.119 -0.6820  0.4704 -0.4669
  803MPD2    N111836   4.293   3.701  11.960 -0.3261 -0.2557 -0.0510
  803MPD2    H711837   4.301   3.702  12.061 -0.0817 -1.1601 -0.0677
  804MPD2     C11838   3.378   4.132  17.053  0.5377  0.8502  0.1718
  804MPD2    C111839   3.416   4.076  17.170 -0.2204 -0.6218 -0.1889
  804MPD2    C211840   3.474   4.155  17.267 -0.5564 -0.0119  1.0574
  804MPD2    C311841   3.499   4.290  17.240 -0.3654 -0.6267  0.4252
  804MPD2    C411842   3.467   4.343  17.116  0.4773  0.0616 -0.4789
  804MPD2    C511843   3.415   4.262  17.031  0.4211  0.1164  0.2271
  804MPD2     H11844   3.508   4.116  17.362 -0.9346 -1.4333  0.6078
  804MPD2    H111845   3.491   4.442  17.078  2.0326 -0.5552 -1.0598
  804MPD2    H211846   3.326   4.076  16.976 -1.1204 -0.5408  2.3378
  804MPD2    H311847   3.399   4.304  16.932 -1.3055  0.1251  0.5003
  804MPD2     N11848   3.577   4.354  17.341 -0.0600 -0.5611 -0.3789
  804MPD2    H511849   3.590   4.298  17.425 -1.1781  0.3111  0.3785
  804MPD2    N111850   3.406   3.938  17.193 -0.9023 -0.5680 -0.0358
  804MPD2    H711851   3.443   3.906  17.282 -1.1368 -1.0719 -0.1170
  805MPD2     C11852   2.930   3.043  15.492  0.1285  0.2050  0.1673
  805MPD2    C111853   3.016   3.037  15.391  0.2013 -0.0842  0.6259
  805MPD2    C211854   3.148   3.047  15.419  0.3815  0.2546 -0.0201
  805MPD2    C311855   3.199   3.078  15.541 -0.1155 -0.1762 -0.0269
  805MPD2    C411856   3.114   3.089  15.645  0.3471 -0.2662  0.0716
  805MPD2    C511857   2.982   3.070  15.620  0.0767  0.2174 -0.3641
  805MPD2     H11858   3.218   3.027  15.338  0.5417  3.1824 -0.5991
  805MPD2    H111859   3.158   3.105  15.743  0.3944 -1.8312  0.3018
  805MPD2    H211860   2.826   3.013  15.487 -0.5821  2.9102 -1.1137
  805MPD2    H311861   2.917   3.080  15.707 -0.4692  0.6322 -0.8181
  805MPD2     N11862   3.337   3.086  15.571 -0.3418 -0.3036  0.6270
  805MPD2    H511863   3.354   3.118  15.666  0.6547 -2.3288  1.1260
  805MPD2    N111864   2.982   3.013  15.255  0.1762  0.1423 -0.7164
  805MPD2    H711865   3.057   3.014  15.187  0.3754  3.4583 -0.4278
  806MPD2     C11866   3.045   1.768   0.593 -0.0160  0.3112  0.9530
  806MPD2    C111867   3.160   1.701   0.578 -0.6160  0.1706  0.4169
  806MPD2    C211868   3.216   1.691   0.454  0.5873  0.7500 -0.0414
  806MPD2    C311869   3.156   1.746   0.342 -0.5802 -0.0681 -0.0610
  806MPD2    C411870   3.040   1.820   0.360 -0.6954  0.0261 -0.0417
  806MPD2    C511871   2.982   1.823   0.484 -0.7807  0.8979 -0.0893
  806MPD2     H11872   3.312   1.645   0.436  0.9342  0.2169  3.1816
  806MPD2    H111873   2.981   1.850   0.273 -0.2480  1.9461  0.3019
  806MPD2    H211874   2.986   1.773   0.684 -4.9577 -3.1733 -2.1323
  806MPD2    H311875   2.893   1.881   0.501 -0.2432  1.4647  0.7978
  806MPD2     N11876   3.219   1.717   0.212 -0.0360  0.2108  0.2374
  806MPD2    H511877   3.304   1.664   0.229  0.9671  1.2889 -1.4854
  806MPD2    N111878   3.225   1.665   0.697 -0.2681 -0.1638 -0.3403
  806MPD2    H711879   3.170   1.684   0.780  0.0857  1.4119 -0.4598
  807MPD2     C11880   3.127   1.804   1.395 -0.1000  0.0680  0.1720
  807MPD2    C111881   3.200   1.683   1.400  0.0894 -0.1167  0.0102
  807MPD2    C211882   3.193   1.613   1.523 -0.2516  0.3808 -0.2979
  807MPD2    C311883   3.115   1.649   1.633 -0.1424 -1.0769  0.5634
  807MPD2    C411884   3.043   1.765   1.619 -0.2992 -0.9570 -0.7326
  807MPD2    C511885   3.052   1.844   1.503  0.1539  0.5392  0.3241
  807MPD2     H11886   3.258   1.526   1.534 -0.4913  0.3737  1.1086
  807MPD2    H111887   2.976   1.805   1.693  1.0582  1.2414 -0.7002
  807MPD2    H211888   3.142   1.876   1.315 -1.3015 -1.3381 -1.3191
  807MPD2    H311889   2.998   1.938   1.502 -0.2088  0.3322  0.3553
  807MPD2     N11890   3.107   1.555   1.739 -0.3326 -0.3147  0.1833
  807MPD2    H511891   3.166   1.473   1.743 -1.2642 -1.0669 -1.6049
  807MPD2    N111892   3.289   1.647   1.291 -0.2688  0.0758  0.6022
  807MPD2    H711893   3.360   1.583   1.323 -1.5798 -2.3926 -1.3957
  808MPD2     C11894   4.333   2.927  10.451 -0.2244 -0.1773  0.1191
  808MPD2    C111895   4.304   3.060  10.436  0.4947 -0.7166  0.1021
  808MPD2    C211896   4.404   3.150  10.441  0.0739 -0.0896  0.0213
  808MPD2    C311897   4.532   3.114  10.468 -0.4377  0.5117 -0.0000
  808MPD2    C411898   4.562   2.982  10.483  0.0024 -0.3311 -0.0958
  808MPD2    C511899   4.453   2.889  10.479 -0.0174 -0.0856  0.3236
  808MPD2     H11900   4.391   3.252  10.408  1.5476  0.5763  1.5306
  808MPD2    H111901   4.658   2.933  10.498  0.3202  0.0706 -0.8257
  808MPD2    H211902   4.253   2.854  10.442 -1.6429  1.2426  1.2400
  808MPD2    H311903   4.470   2.782  10.483  0.9801  0.1216  1.7899
  808MPD2     N11904   4.640   3.201  10.466 -0.1134 -0.0286  0.1213
  808MPD2    H511905   0.011   3.161  10.461  0.2768  0.7119  1.7418
  808MPD2    N111906   4.171   3.100  10.386  0.4937 -0.2245 -0.1584
  808MPD2    H711907   4.157   3.197  10.359  1.2468  0.2757  1.2745
  809MPD2     C11908   0.627   2.976  10.120 -0.1802  0.5670 -0.1987
  809MPD2    C111909   0.644   3.110  10.094  0.0799 -0.1357 -0.9672
  809MPD2    C211910   0.559   3.194  10.156  1.1315  0.5682  0.4014
  809MPD2    C311911   0.460   3.145  10.234  0.2495 -0.3994  0.7075
  809MPD2    C411912   0.446   3.010  10.263 -0.9001 -0.3593 -0.3977
  809MPD2    C511913   0.536   2.923  10.215 -0.7076 -0.4448  0.6845
  809MPD2     H11914   0.577   3.299  10.138  1.1393  0.2108 -1.7781
  809MPD2    H111915   0.369   2.969  10.329  0.8414 -3.1369 -0.0757
  809MPD2    H211916   0.687   2.898  10.075 -1.2375 -0.7774  0.7239
  809MPD2    H311917   0.523   2.816  10.233 -4.0900  0.0125  1.0646
  809MPD2     N11918   0.361   3.227  10.297 -0.3677  0.1412 -0.3895
  809MPD2    H511919   0.287   3.175  10.343  1.9140 -2.3659  0.4471
  809MPD2    N111920   0.721   3.151   9.986  0.4869 -0.0128 -1.0562
  809MPD2    H711921   0.713   3.251   9.971  4.2200  0.5038  0.6025
  810MPD2     C11922   3.597   3.398  10.728 -0.0504 -0.0353  0.5199
  810MPD2    C111923   3.556   3.433  10.604 -0.2561  0.1154  0.6357
  810MPD2    C211924   3.593   3.564  10.563 -0.0671 -1.0794 -0.3364
  810MPD2    C311925   3.661   3.646  10.647  0.4388  0.3356  0.6117
  810MPD2    C411926   3.682   3.614  10.780  0.0250  0.1739  0.0566
  810MPD2    C511927   3.655   3.484  10.817 -0.5166 -0.0890  0.3325
  810MPD2     H11928   3.568   3.591  10.461 -1.7103 -1.0496  0.0798
  810MPD2    H111929   3.722   3.687  10.848  1.0840  0.3828 -0.7915
  810MPD2    H211930   3.576   3.297  10.762  0.5075 -0.1885  0.4266
  810MPD2    H311931   3.694   3.459  10.915 -0.8257  0.4148  0.5833
  810MPD2     N11932   3.694   3.782  10.615 -0.5960 -0.5760  0.1735
  810MPD2    H511933   3.714   3.846  10.692  0.2334 -0.1462 -0.4004
  810MPD2    N111934   3.494   3.335  10.519 -0.3090 -0.1098  0.0005
  810MPD2    H711935   3.499   3.242  10.559  0.0168 -0.0194  0.1688
  811MPD2     C11936   3.051   3.304   9.796 -0.1476 -0.1770  0.6522
  811MPD2    C111937   3.170   3.349   9.846  0.8431  0.0192 -0.8643
  811MPD2    C211938   3.222   3.470   9.795 -0.4235 -0.3840 -0.1971
  811MPD2    C311939   3.158   3.531   9.690 -0.1837 -0.5010 -0.3034
  811MPD2    C411940   3.044   3.483   9.631 -0.0879 -0.3880  0.1024
  811MPD2    C511941   2.996   3.368   9.686  0.2450 -0.4059 -0.0223
  811MPD2     H11942   3.316   3.502   9.839 -1.5525  1.8305  0.5775
  811MPD2    H111943   2.990   3.535   9.554  1.2371 -0.2871 -0.7584
  811MPD2    H211944   2.996   3.219   9.834  0.2055 -0.5285  0.3721
  811MPD2    H311945   2.903   3.333   9.644 -0.3767  1.7009 -0.3562
  811MPD2     N11946   3.214   3.659   9.666  0.1490  0.8374 -0.1379
  811MPD2    H511947   3.309   3.679   9.698 -0.5074 -1.0646  3.0058
  811MPD2    N111948   3.242   3.288   9.958  0.1924  0.3804  0.3337
  811MPD2    H711949   3.332   3.321   9.992 -0.4839  0.2756  2.2440
  812MPD2     C11950   2.336   3.246  11.972 -0.0543 -0.0933 -0.6918
  812MPD2    C111951   2.239   3.270  12.066 -0.2963 -0.3783  0.9352
  812MPD2    C211952   2.213   3.171  12.157 -0.1936 -0.1539  0.0477
  812MPD2    C311953   2.276   3.047  12.157  0.5229  0.0224 -0.3207
  812MPD2    C411954   2.370   3.020  12.060  0.1871  0.6885  0.2608
  812MPD2    C511955   2.397   3.119  11.965  0.4614 -0.6508 -0.0541
  812MPD2     H11956   2.142   3.192  12.236 -0.4182  0.2270 -0.2539
  812MPD2    H111957   2.415   2.923  12.044  0.2035  0.4083  2.0297
  812MPD2    H211958   2.363   3.326  11.903 -0.0923 -0.8222 -1.5472
  812MPD2    H311959   2.467   3.098  11.885  2.6075  2.4704  1.0078
  812MPD2     N11960   2.235   2.945  12.243  0.3645  0.2245  0.3744
  812MPD2    H511961   2.161   2.962  12.312  0.0938 -1.1054  0.4190
  812MPD2    N111962   2.188   3.402  12.071 -0.0613  0.2948  0.0160
  812MPD2    H711963   2.236   3.469  12.012  0.1243  1.9337  2.0209
  813MPD2     C11964   1.753   0.522  12.982  0.3100 -0.1297  0.0230
  813MPD2    C111965   1.640   0.503  12.912 -0.1871  0.1673  0.7418
  813MPD2    C211966   1.518   0.467  12.974 -0.2172  1.1938 -0.4481
  813MPD2    C311967   1.510   0.466  13.113  0.1308 -0.1087  0.7235
  813MPD2    C411968   1.626   0.494  13.176 -0.0261 -0.1954  0.0561
  813MPD2    C511969   1.742   0.522  13.117 -0.2047 -0.7468 -0.3342
  813MPD2     H11970   1.437   0.455  12.903 -2.0811  1.6776  1.6192
  813MPD2    H111971   1.625   0.505  13.284  2.5884 -0.2653  0.0899
  813MPD2    H211972   1.845   0.545  12.930 -0.3232  0.5661 -0.7861
  813MPD2    H311973   1.831   0.538  13.176 -0.4115  0.4268 -0.3592
  813MPD2     N11974   1.386   0.437  13.166  0.1462 -0.3550 -0.1507
  813MPD2    H511975   1.310   0.440  13.100 -1.2009  1.0065  1.4365
  813MPD2    N111976   1.652   0.519  12.767  0.0730 -0.1745  0.0241
  813MPD2    H711977   1.740   0.553  12.730  0.1462  0.4112  0.7505
  814MPD2     C11978   1.652   1.998  11.951  0.2561 -0.4993  0.3595
  814MPD2    C111979   1.761   1.978  11.862 -0.3860  0.6491  1.1180
  814MPD2    C211980   1.868   2.064  11.880 -0.4045 -0.8981  0.2231
  814MPD2    C311981   1.865   2.178  11.960 -0.0676 -0.4112 -0.2868
  814MPD2    C411982   1.755   2.194  12.045 -0.7466 -0.2034  0.2128
  814MPD2    C511983   1.654   2.103  12.042 -0.4952  0.2301 -0.6492
  814MPD2     H11984   1.955   2.044  11.819 -1.2914  0.2706 -1.4098
  814MPD2    H111985   1.753   2.270  12.123  1.0418 -0.8670  0.9036
  814MPD2    H211986   1.567   1.931  11.949 -0.8753  0.9903 -2.0681
  814MPD2    H311987   1.567   2.114  12.105 -1.0631  1.3297 -1.6517
  814MPD2     N11988   1.964   2.287  11.961 -0.6150 -0.1264 -0.0003
  814MPD2    H511989   1.958   2.365  12.025 -2.2040 -1.4733  1.5070
  814MPD2    N111990   1.767   1.882  11.757 -0.7273 -0.4760 -0.6750
  814MPD2    H711991   1.841   1.893  11.688  2.2057 -0.5792  2.4230
  815MPD2     C11992   2.745   0.037  11.631  0.0541 -0.5848  0.2584
  815MPD2    C111993   2.699   4.633  11.635  0.3671  0.1940  0.1297
  815MPD2    C211994   2.624   4.590  11.743  0.2091 -0.0585 -0.1425
  815MPD2    C311995   2.608   4.672  11.855  0.4318 -1.3574 -0.7455
  815MPD2    C411996   2.649   0.078  11.849 -0.4720  0.1261  0.6174
  815MPD2    C511997   2.726   0.114  11.738  0.5701  0.0088  0.0475
  815MPD2     H11998   2.565   4.500  11.731 -1.7572  1.2377 -0.2112
  815MPD2    H111999   2.627   0.142  11.933  0.8127  1.6658 -0.2305
  815MPD2    H212000   2.803   0.078  11.550 -1.5680  2.0825  0.4580
  815MPD2    H312001   2.774   0.211  11.734 -1.9860  1.2613 -0.5445
  815MPD2     N12002   2.522   4.623  11.955 -0.2860 -0.3650 -0.0462
  815MPD2    H512003   2.469   4.538  11.937 -2.1759  0.9758 -0.9277
  815MPD2    N112004   2.712   4.561  11.515 -0.1588 -0.0433  0.2139
  815MPD2    H712005   2.769   4.593  11.437 -0.6976  0.1952 -0.0745
  816MPD2     C12006   2.111   3.685  16.977 -0.1668  0.6718  0.0436
  816MPD2    C112007   2.165   3.803  16.930 -0.5991 -0.8424 -0.3384
  816MPD2    C212008   2.251   3.801  16.824 -0.1735 -0.0177 -0.2172
  816MPD2    C312009   2.301   3.681  16.775 -0.6616  0.6017 -0.4355
  816MPD2    C412010   2.259   3.564  16.838 -0.6209  0.1061 -0.2779
  816MPD2    C512011   2.161   3.566  16.936 -0.2672 -0.3938  0.6697
  816MPD2     H12012   2.293   3.894  16.786 -1.2533  0.2044 -0.8448
  816MPD2    H112013   2.292   3.466  16.802 -1.7893  0.4758 -2.3606
  816MPD2    H212014   2.040   3.674  17.058 -0.1237 -1.0769 -0.1604
  816MPD2    H312015   2.117   3.474  16.974 -0.2952 -0.1361  1.2535
  816MPD2     N12016   2.396   3.678  16.673  0.2431  0.3307  0.0354
  816MPD2    H512017   2.418   3.764  16.624 -0.7578  0.1510 -0.7234
  816MPD2    N112018   2.106   3.924  16.979  0.9478  0.8555  0.0927
  816MPD2    H712019   2.047   3.915  17.061 -0.3178 -0.0967 -0.9185
  817MPD2     C12020   1.708   0.870   9.282 -0.4488  0.4917  0.0290
  817MPD2    C112021   1.814   0.792   9.262 -0.3411 -0.2180 -0.7862
  817MPD2    C212022   1.823   0.726   9.139 -0.0084  0.2916  0.2597
  817MPD2    C312023   1.729   0.737   9.041 -0.0909  0.1395  0.0694
  817MPD2    C412024   1.622   0.824   9.064 -0.0163  0.6301 -0.4035
  817MPD2    C512025   1.618   0.889   9.183  0.1330  0.0821  0.5280
  817MPD2     H12026   1.907   0.659   9.124  0.1195  0.6860 -0.7677
  817MPD2    H112027   1.545   0.839   8.989  0.5732 -1.4099 -1.4218
  817MPD2    H212028   1.695   0.927   9.374  0.5352 -0.2654  0.6402
  817MPD2    H312029   1.535   0.958   9.194 -0.5783 -0.7405  0.2809
  817MPD2     N12030   1.742   0.665   8.924 -0.2962  0.7279 -0.4144
  817MPD2    H512031   1.826   0.609   8.914 -0.1800  0.9982 -0.9612
  817MPD2    N112032   1.902   0.766   9.359 -0.2259  0.3687  0.0791
  817MPD2    H712033   1.995   0.739   9.326  0.9423  2.6573  1.4660
  818MPD2     C12034   1.301   1.041   9.794  0.5231  0.2320 -0.2399
  818MPD2    C112035   1.295   0.928   9.874 -0.5027  0.0428 -0.5030
  818MPD2    C212036   1.391   0.826   9.846 -0.7983  0.7570  0.0450
  818MPD2    C312037   1.483   0.836   9.745  0.1046 -0.1668  0.9605
  818MPD2    C412038   1.483   0.948   9.669 -0.2983 -0.0827 -0.1648
  818MPD2    C512039   1.393   1.047   9.693 -0.1971  0.2465  0.1401
  818MPD2     H12040   1.395   0.736   9.906  1.2904  0.3260 -0.7432
  818MPD2    H112041   1.547   0.972   9.585  0.2253  0.3512  0.3591
  818MPD2    H212042   1.237   1.126   9.808  1.0511  0.6372 -0.2668
  818MPD2    H312043   1.386   1.134   9.630 -0.7512 -0.6219 -0.9899
  818MPD2     N12044   1.578   0.734   9.720  0.5938 -1.0158 -0.2966
  818MPD2    H512045   1.647   0.757   9.649  1.7025  1.5462  1.5950
  818MPD2    N112046   1.209   0.913   9.985 -0.3358 -0.1420  0.0556
  818MPD2    H712047   1.218   0.827  10.038 -1.7622 -1.0747 -1.2346
  819MPD2     C12048   3.414   2.602  15.434  0.0079  0.5332  0.5473
  819MPD2    C112049   3.450   2.467  15.445 -0.3298 -0.5791 -0.2143
  819MPD2    C212050   3.576   2.427  15.476  0.1418 -0.1314 -0.4197
  819MPD2    C312051   3.667   2.533  15.497  0.0236  0.0046 -0.3975
  819MPD2    C412052   3.635   2.673  15.491  0.0060  0.3860  0.4156
  819MPD2    C512053   3.504   2.708  15.459 -0.1106 -0.9922 -0.2407
  819MPD2     H12054   3.614   2.326  15.476  0.7049  0.0856  0.1488
  819MPD2    H112055   3.713   2.747  15.499 -0.9413  1.3144  1.0481
  819MPD2    H212056   3.313   2.626  15.404 -0.1907  0.8901  1.5213
  819MPD2    H312057   3.485   2.809  15.425  2.3533  0.1582  1.8248
  819MPD2     N12058   3.796   2.487  15.527 -0.5762  0.8470 -0.4336
  819MPD2    H512059   3.803   2.386  15.523  0.3837  1.0350 -3.6846
  819MPD2    N112060   3.347   2.374  15.412 -0.6107  0.6775  0.3112
  819MPD2    H712061   3.279   2.417  15.350  1.1203 -0.2342 -2.2019
  820MPD2     C12062   2.754   2.507  14.713 -0.3764  0.8797 -0.0238
  820MPD2    C112063   2.856   2.561  14.789  0.0783 -0.0412  0.5664
  820MPD2    C212064   2.948   2.475  14.836  0.0652  0.0730 -0.5366
  820MPD2    C312065   2.924   2.339  14.840  0.1163 -0.6672 -0.0458
  820MPD2    C412066   2.818   2.284  14.773  0.4835 -0.6782  0.3022
  820MPD2    C512067   2.739   2.373  14.695 -0.8609 -0.3252  0.9360
  820MPD2     H12068   3.040   2.515  14.877 -0.3716 -1.5823  2.0046
  820MPD2    H112069   2.806   2.177  14.771  2.1367 -0.8636  0.1167
  820MPD2    H212070   2.688   2.573  14.658 -0.0277  0.5748 -0.8075
  820MPD2    H312071   2.671   2.339  14.619 -0.3350  2.2512 -0.6903
  820MPD2     N12072   3.002   2.254  14.921  0.1461 -0.3512  0.3134
  820MPD2    H512073   2.970   2.159  14.937 -2.4839  0.9776  3.2198
  820MPD2    N112074   2.870   2.703  14.790 -0.6027  0.2138 -0.2522
  820MPD2    H712075   2.797   2.756  14.743  0.3246  3.6487  2.2138
  821MPD2     C12076   3.922   4.156  13.259  0.2257 -0.9445 -0.2255
  821MPD2    C112077   3.990   4.085  13.362  0.8565 -0.0433  0.1863
  821MPD2    C212078   4.124   4.061  13.350  0.1221 -0.4115  0.7371
  821MPD2    C312079   4.195   4.106  13.237  0.2561 -0.6219 -0.1135
  821MPD2    C412080   4.129   4.172  13.134  0.0929 -0.1598  0.4711
  821MPD2    C512081   3.991   4.203  13.151 -0.4878  0.1636 -0.7986
  821MPD2     H12082   4.184   4.015  13.427  1.1343  0.0430  0.2201
  821MPD2    H112083   4.171   4.218  13.045 -2.2131  2.1285  0.5584
  821MPD2    H212084   3.822   4.192  13.279  0.6927  0.2436 -0.0148
  821MPD2    H312085   3.945   4.266  13.076 -1.9191  1.6315  1.3120
  821MPD2     N12086   4.332   4.082  13.214 -0.8708 -0.2961 -0.3544
  821MPD2    H512087   4.377   4.139  13.143  0.0778 -0.3511  0.2095
  821MPD2    N112088   3.929   4.055  13.489 -0.2139  0.4085 -0.5286
  821MPD2    H712089   3.985   4.011  13.562  1.6341  0.3759 -1.9535
  822MPD2     C12090   4.315   3.757  15.723 -0.3969 -0.0896  0.4878
  822MPD2    C112091   4.391   3.800  15.833 -0.1396  0.2882  0.9576
  822MPD2    C212092   4.340   3.874  15.936  0.1474  0.0643 -0.4230
  822MPD2    C312093   4.202   3.918  15.932  0.4176  1.4838  0.3321
  822MPD2    C412094   4.126   3.862  15.831  0.8891 -0.0077  0.2608
  822MPD2    C512095   4.177   3.787  15.731  1.2693 -0.2570  0.3554
  822MPD2     H12096   4.400   3.885  16.025  1.1354 -2.5778 -0.7759
  822MPD2    H112097   4.019   3.874  15.825  1.0134  0.9578 -0.0635
  822MPD2    H212098   4.353   3.707  15.635  1.1375  3.7224 -0.9875
  822MPD2    H312099   4.117   3.755  15.646  2.2225 -1.8243  0.2901
  822MPD2     N12100   4.140   3.997  16.032  0.3312 -0.4998  0.1112
  822MPD2    H512101   4.040   4.012  16.032  0.1817 -1.4762 -0.9955
  822MPD2    N112102   4.532   3.789  15.842  0.1562 -0.7504 -0.1739
  822MPD2    H712103   4.569   3.840  15.922  1.1009  0.0124 -1.1124
  823MPD2     C12104   3.698   4.010  16.773  0.3058 -0.4255 -0.4423
  823MPD2    C112105   3.804   3.970  16.693  0.2470  0.6903 -0.2037
  823MPD2    C212106   3.855   3.839  16.711  0.0664 -0.6539 -0.2149
  823MPD2    C312107   3.801   3.760  16.814  0.2281  0.9572  0.6546
  823MPD2    C412108   3.703   3.811  16.897 -0.1250 -0.2706  0.1726
  823MPD2    C512109   3.650   3.931  16.870 -0.9361  0.2331  0.6366
  823MPD2     H12110   3.948   3.811  16.663  1.0459 -0.4338  1.5472
  823MPD2    H112111   3.642   3.747  16.959 -0.6101 -0.4600 -0.5048
  823MPD2    H212112   3.656   4.110  16.768  0.6503 -0.3104 -1.0379
  823MPD2    H312113   3.561   3.966  16.922 -1.7583  1.7703 -1.7991
  823MPD2     N12114   3.859   3.636  16.851  0.0218 -0.6138  0.8154
  823MPD2    H512115   3.848   3.603  16.946 -0.3664  0.1484  1.0342
  823MPD2    N112116   3.863   4.058  16.606 -0.5789 -0.2551  0.4005
  823MPD2    H712117   3.849   4.158  16.617 -1.0742 -0.1172 -1.5425
  824MPD2     C12118   0.552   3.323  16.017 -0.1148 -0.2552 -0.1246
  824MPD2    C112119   0.469   3.323  15.904 -0.0539  0.1850  0.1932
  824MPD2    C212120   0.513   3.259  15.789 -0.0832 -0.6062  0.0513
  824MPD2    C312121   0.627   3.188  15.791 -0.2169 -0.1356  0.3985
  824MPD2    C412122   0.690   3.163  15.910 -0.5369 -0.4115 -0.1172
  824MPD2    C512123   0.658   3.239  16.018 -1.2347 -0.3701 -0.3172
  824MPD2     H12124   0.466   3.273  15.692  0.2651  0.9931  0.1104
  824MPD2    H112125   0.779   3.102  15.918  0.7339  1.8784  3.5156
  824MPD2    H212126   0.524   3.382  16.103 -0.6794  0.1095 -0.5596
  824MPD2    H312127   0.720   3.224  16.106  0.2158  2.0542 -0.9215
  824MPD2     N12128   0.666   3.119  15.675  0.3846 -0.0422  0.4958
  824MPD2    H512129   0.624   3.144  15.586  0.4823 -1.2851  0.0994
  824MPD2    N112130   0.356   3.403  15.915 -0.1734  0.3050  0.1252
  824MPD2    H712131   0.338   3.443  16.006  0.1955  0.9867 -0.1024
  825MPD2     C12132   1.194   3.179  15.011  0.0229  0.4019  0.2573
  825MPD2    C112133   1.076   3.212  15.074 -0.2028 -0.2580 -0.9908
  825MPD2    C212134   1.033   3.342  15.053  0.3379  0.0502 -0.1737
  825MPD2    C312135   1.095   3.434  14.971  0.3385  0.1819 -0.3561
  825MPD2    C412136   1.206   3.390  14.909  0.1662 -0.4745 -0.2525
  825MPD2    C512137   1.255   3.267  14.927  0.5370  0.0843 -0.3139
  825MPD2     H12138   0.946   3.368  15.112  1.0373 -1.8960  1.7267
  825MPD2    H112139   1.254   3.456  14.837 -1.5274  0.5789 -0.4081
  825MPD2    H212140   1.239   3.080  15.019 -0.1462  0.2323 -0.8960
  825MPD2    H312141   1.335   3.238  14.859  1.6833  0.5988  0.8074
  825MPD2     N12142   1.049   3.567  14.942  0.3896 -0.1551  0.1028
  825MPD2    H512143   1.089   3.617  14.864  2.2292  0.1295  1.2333
  825MPD2    N112144   1.008   3.123  15.161  0.3200 -0.2928 -0.5053
  825MPD2    H712145   1.055   3.034  15.173  0.3715 -0.1167  0.5897
  826MPD2     C12146   0.097   3.213  13.554  0.0181 -0.3180 -0.2410
  826MPD2    C112147   0.150   3.340  13.582 -0.2403 -0.3730  0.1774
  826MPD2    C212148   0.065   3.451  13.590 -0.1350 -0.6238 -0.0264
  826MPD2    C312149   4.648   3.431  13.581  0.3225  1.0166  0.3494
  826MPD2    C412150   4.594   3.311  13.546 -0.2075  0.0134 -0.5958
  826MPD2    C512151   4.678   3.206  13.528 -0.4809  0.0324 -0.8393
  826MPD2     H12152   0.107   3.549  13.611  1.1826 -1.0097 -0.8686
  826MPD2    H112153   4.487   3.295  13.540 -0.4417  1.3325  0.0613
  826MPD2    H212154   0.163   3.130  13.532 -0.3672  0.5165 -4.4260
  826MPD2    H312155   4.633   3.112  13.499 -1.1912 -0.4746  1.9015
  826MPD2     N12156   4.558   3.533  13.609  0.0536  0.1084  0.0537
  826MPD2    H512157   4.461   3.505  13.621  0.2507 -0.1615  1.0214
  826MPD2    N112158   0.295   3.344  13.603 -0.0245 -0.7147  0.0280
  826MPD2    H712159   0.353   3.262  13.595 -0.9820 -1.2279 -1.7229
  827MPD2     C12160   1.874   4.479   9.648  0.7685 -0.2866  0.0388
  827MPD2    C112161   1.812   4.367   9.697 -0.2344  0.0330  0.2278
  827MPD2    C212162   1.754   4.273   9.614 -0.7196  0.0035  0.2182
  827MPD2    C312163   1.762   4.284   9.480  0.2700 -0.3905 -0.3126
  827MPD2    C412164   1.827   4.391   9.426  0.0843 -0.2976 -0.3477
  827MPD2    C512165   1.879   4.488   9.509  0.5181  0.4366  0.0177
  827MPD2     H12166   1.716   4.180   9.656  0.8500 -1.1915 -1.0018
  827MPD2    H112167   1.844   4.391   9.319  1.3278  0.8810 -0.1500
  827MPD2    H212168   1.905   4.560   9.714  0.8858 -1.7702  1.8003
  827MPD2    H312169   1.929   4.569   9.457 -1.0886  0.3737 -1.5977
  827MPD2     N12170   1.703   4.176   9.411 -0.0673  0.1800 -0.0044
  827MPD2    H512171   1.651   4.101   9.457 -2.1027  2.0006  0.6766
  827MPD2    N112172   1.816   4.353   9.842  0.1224  0.9173 -0.1053
  827MPD2    H712173   1.885   4.408   9.893  1.6174 -2.5275  1.6108
  828MPD2     C12174   4.445   4.413  12.404  0.1314 -0.0036 -0.5807
  828MPD2    C112175   4.361   4.450  12.299 -0.1506  0.3076  0.2954
  828MPD2    C212176   4.396   4.422  12.172  0.3544 -0.0024 -0.0534
  828MPD2    C312177   4.516   4.361  12.141  0.1307  0.0873  0.5742
  828MPD2    C412178   4.595   4.321  12.244 -0.6057  0.0299 -0.4209
  828MPD2    C512179   4.562   4.356  12.373 -0.1770 -0.0198  0.0946
  828MPD2     H12180   4.330   4.454  12.093 -1.3437  1.3374  1.8994
  828MPD2    H112181   4.679   4.256  12.222  1.3850  2.2735  0.4483
  828MPD2    H212182   4.440   4.451  12.505  1.1696 -2.4317  0.3850
  828MPD2    H312183   4.627   4.337  12.458 -0.3292  2.2139  0.7000
  828MPD2     N12184   4.556   4.318  12.012 -0.1477 -0.1687 -0.4931
  828MPD2    H512185   4.655   4.300  12.000  0.6106  3.2779  0.4171
  828MPD2    N112186   4.234   4.519  12.323  0.0205 -0.1680  0.3388
  828MPD2    H712187   4.176   4.543  12.244  1.1197  0.8015 -0.1742
  829MPD2     C12188   3.887   0.393  11.793  0.3835 -0.0726 -0.2800
  829MPD2    C112189   3.781   0.318  11.840 -0.4279  0.7894  0.5508
  829MPD2    C212190   3.799   0.235  11.950  0.8058 -0.1110  0.2890
  829MPD2    C312191   3.919   0.231  12.020  0.4489 -0.0390 -0.5291
  829MPD2    C412192   4.027   0.294  11.965  0.3010  0.4288  0.0539
  829MPD2    C512193   4.010   0.382  11.858 -0.3751 -0.1303  0.0771
  829MPD2     H12194   3.714   0.180  11.989 -0.4402  0.0083 -2.2659
  829MPD2    H112195   4.128   0.294  12.005  0.1208  0.0070  0.4981
  829MPD2    H212196   3.886   0.455  11.705  1.1754  0.2512 -0.0529
  829MPD2    H312197   4.098   0.441  11.833  0.0392 -0.6433  0.3272
  829MPD2     N12198   3.942   0.149  12.135 -0.8326 -0.4268  0.3828
  829MPD2    H512199   4.039   0.164  12.158 -0.6397 -2.4232  0.8775
  829MPD2    N112200   3.654   0.331  11.777  0.1511  0.3857 -0.3871
  829MPD2    H712201   3.651   0.400  11.703 -0.5239 -0.0207 -0.7351
  830MPD2     C12202   4.661   2.344  15.371 -0.0980 -0.1107 -0.0688
  830MPD2    C112203   4.539   2.349  15.311  0.0901  0.0948  0.3076
  830MPD2    C212204   4.531   2.333  15.168 -0.1019  0.3483 -0.3911
  830MPD2    C312205   4.644   2.313  15.092  0.0795 -0.1364 -0.2909
  830MPD2    C412206   0.048   2.303  15.159  0.1471 -0.4803  0.1432
  830MPD2    C512207   0.054   2.316  15.296  0.0045 -0.0916  0.0814
  830MPD2     H12208   4.435   2.334  15.118 -0.9378  1.2012  1.2451
  830MPD2    H112209   0.141   2.291  15.104  0.5933 -0.6594  0.9310
  830MPD2    H212210   4.669   2.362  15.478 -1.0505  0.4121 -0.0851
  830MPD2    H312211   0.150   2.315  15.346 -0.5206  1.0227  1.1019
  830MPD2     N12212   4.646   2.286  14.951  0.1185  0.7221  0.6230
  830MPD2    H512213   0.018   2.286  14.916 -0.7048  1.9814 -1.5309
  830MPD2    N112214   4.435   2.378  15.395 -0.0079  0.2372 -0.0751
  830MPD2    H712215   4.464   2.376  15.493  0.8787  0.7980 -0.3310
  831MPD2     C12216   4.372   3.965  16.568  0.0030 -0.1544  0.5405
  831MPD2    C112217   4.401   3.919  16.441  0.2459 -0.1737 -0.1683
  831MPD2    C212218   4.332   3.808  16.387  0.1646 -0.4176 -0.0477
  831MPD2    C312219   4.239   3.745  16.469 -0.1448  0.7290  0.2279
  831MPD2    C412220   4.219   3.786  16.600 -0.4521 -1.1293  0.3499
  831MPD2    C512221   4.288   3.894  16.642 -0.5283  0.6958 -0.4300
  831MPD2     H12222   4.357   3.774  16.287  0.3850  1.4894 -0.6515
  831MPD2    H112223   4.150   3.741  16.671  0.8947 -2.1845  0.9909
  831MPD2    H212224   4.423   4.054  16.604 -1.3904  1.0900 -0.5873
  831MPD2    H312225   4.277   3.930  16.744 -1.1120 -1.3635  0.2376
  831MPD2     N12226   4.159   3.641  16.423  0.1746  0.4407 -0.8036
  831MPD2    H512227   4.082   3.611  16.482  0.1714  1.8537 -0.0897
  831MPD2    N112228   4.515   3.963  16.371  0.0939 -0.0110 -0.1149
  831MPD2    H712229   4.529   3.941  16.272  0.7049  0.1955 -0.0730
  832MPD2     C12230   2.971   0.172  17.047 -0.0887 -0.5889 -0.3992
  832MPD2    C112231   2.985   0.294  16.976 -0.1722 -0.5917 -0.0469
  832MPD2    C212232   2.892   0.326  16.882 -0.1285 -0.7278 -0.5785
  832MPD2    C312233   2.775   0.252  16.874 -0.2272  0.3643 -0.3954
  832MPD2    C412234   2.762   0.142  16.956 -0.0572  0.0682  0.2285
  832MPD2    C512235   2.854   0.107  17.052 -0.2123  0.4109 -0.0082
  832MPD2     H12236   2.899   0.425  16.838 -2.1171 -0.0078  0.7138
  832MPD2    H112237   2.676   0.075  16.952  0.2402 -0.4208  1.7754
  832MPD2    H212238   3.051   0.144  17.115 -0.0753 -0.7547 -0.4818
  832MPD2    H312239   2.833   0.022  17.116 -1.5967 -0.2904 -1.3742
  832MPD2     N12240   2.661   0.280  16.791  0.1975 -0.6397 -0.0705
  832MPD2    H512241   2.599   0.202  16.771 -0.0460 -0.9995  2.0834
  832MPD2    N112242   3.102   0.373  16.997  0.1939  0.4963 -0.1303
  832MPD2    H712243   3.164   0.354  17.075 -0.1605 -1.8723 -0.4292
  833MPD2     C12244   0.347   2.166  12.425  0.2214 -0.0455  0.1602
  833MPD2    C112245   0.346   2.164  12.288 -0.2686  0.6863 -0.3034
  833MPD2    C212246   0.414   2.067  12.219  0.5845 -0.1827  0.9459
  833MPD2    C312247   0.495   1.972  12.283  0.1615  0.2631 -0.2413
  833MPD2    C412248   0.499   1.980  12.418 -0.2028 -0.1837 -0.1046
  833MPD2    C512249   0.423   2.067  12.487 -0.2393 -0.5336 -0.2885
  833MPD2     H12250   0.421   2.067  12.110 -0.0649 -0.3712  0.9036
  833MPD2    H112251   0.557   1.905  12.470 -0.0592 -0.0017 -0.0041
  833MPD2    H212252   0.294   2.247  12.474 -1.0120 -0.1963 -0.9200
  833MPD2    H312253   0.428   2.081  12.594  0.6105 -2.2436 -0.1100
  833MPD2     N12254   0.563   1.864  12.215 -0.1804 -0.0941  0.1459
  833MPD2    H512255   0.614   1.795  12.269  3.1198  1.3164 -1.1926
  833MPD2    N112256   0.287   2.275  12.220 -0.2792  0.0524  0.3040
  833MPD2    H712257   0.221   2.335  12.267  0.6102  0.5352  0.9333
  834MPD2     C12258   0.546   0.905  11.883  0.8801  0.1014 -0.7325
  834MPD2    C112259   0.563   0.976  11.761 -0.1444 -0.7078 -0.3572
  834MPD2    C212260   0.562   1.115  11.769  0.2604  0.6716  1.3943
  834MPD2    C312261   0.541   1.186  11.890  0.0397 -0.5294 -0.1034
  834MPD2    C412262   0.522   1.112  12.010  0.6104 -0.2131 -0.2724
  834MPD2    C512263   0.528   0.974  11.996 -0.4912  0.5300  0.0587
  834MPD2     H12264   0.587   1.176  11.683 -1.5287  0.0330  0.4217
  834MPD2    H112265   0.516   1.160  12.107  0.8835 -1.0037  0.1325
  834MPD2    H212266   0.576   0.801  11.887 -2.4162 -0.8306 -0.2291
  834MPD2    H312267   0.525   0.926  12.093  0.3281 -0.7420 -0.5476
  834MPD2     N12268   0.552   1.326  11.887  0.7877  0.2443 -0.0982
  834MPD2    H512269   0.585   1.361  11.798  1.5441  0.6542  0.3500
  834MPD2    N112270   0.610   0.903  11.650 -0.2321  1.3067  0.3198
  834MPD2    H712271   0.616   0.801  11.654  0.9760  1.3882  0.5985
  835MPD2     C12272   1.220   4.477  11.087 -0.2137 -0.3105 -0.3040
  835MPD2    C112273   1.083   4.469  11.117  0.0518 -0.5885  0.6787
  835MPD2    C212274   1.042   4.514  11.242 -0.2623 -0.0457  0.8231
  835MPD2    C312275   1.134   4.536  11.343  0.9233 -0.0650 -0.4364
  835MPD2    C412276   1.270   4.527  11.318 -0.1551 -0.4370  0.6249
  835MPD2    C512277   1.313   4.508  11.186 -0.4673  0.0101  0.1218
  835MPD2     H12278   0.936   4.505  11.260 -0.3287 -0.8092  0.0732
  835MPD2    H112279   1.351   4.542  11.388 -0.5003  0.7830  0.7625
  835MPD2    H212280   1.259   4.442  10.992  1.2459 -1.3128  0.6665
  835MPD2    H312281   1.419   4.507  11.161 -0.4363  0.1592  0.2475
  835MPD2     N12282   1.095   4.559  11.473  0.6615 -0.2990  0.1120
  835MPD2    H512283   1.174   4.575  11.535 -1.7520  2.8723  2.3818
  835MPD2    N112284   0.982   4.427  11.036  0.5085  0.0652 -0.0983
  835MPD2    H712285   0.890   4.436  11.077 -0.2365  0.5673 -1.8648
  836MPD2     C12286   0.477   0.200  11.839 -0.1875  0.0722 -0.0450
  836MPD2    C112287   0.536   0.102  11.916 -0.2868  0.4501 -0.0519
  836MPD2    C212288   0.483   0.085  12.047  0.3346 -0.0179 -0.2081
  836MPD2    C312289   0.374   0.160  12.091 -1.0070  0.3354  0.1736
  836MPD2    C412290   0.319   0.249  12.002  0.4610 -0.1769  0.4321
  836MPD2    C512291   0.372   0.274  11.877 -0.0861 -0.3960 -0.9056
  836MPD2     H12292   0.536   0.023  12.118 -0.9000  0.7222  1.3601
  836MPD2    H112293   0.228   0.301  12.031  1.3032  1.5030  0.0284
  836MPD2    H212294   0.520   0.208  11.740  1.9011  1.0004  0.9404
  836MPD2    H312295   0.323   0.335  11.802  0.0666  0.5725 -0.2218
  836MPD2     N12296   0.310   0.151  12.218 -0.6251  0.0257  0.4840
  836MPD2    H512297   0.219   0.195  12.223  0.0494  1.4650  0.0174
  836MPD2    N112298   0.649   0.037  11.861 -0.3978 -0.3981  0.1185
  836MPD2    H712299   0.665   0.045  11.761  1.9267 -0.4742  0.4861
  837MPD2     C12300   3.783   3.987   9.939  0.3985 -0.0565 -0.7695
  837MPD2    C112301   3.718   4.086   9.866  0.2694  0.0666 -0.7177
  837MPD2    C212302   3.736   4.217   9.899 -0.2693 -0.5415  0.1875
  837MPD2    C312303   3.804   4.248  10.014 -0.4021  0.3893 -0.7066
  837MPD2    C412304   3.875   4.154  10.091  0.1091 -0.1655  0.4326
  837MPD2    C512305   3.856   4.023  10.049 -0.1720  0.2750  0.3081
  837MPD2     H12306   3.700   4.293   9.831 -1.3092  0.2695  1.6523
  837MPD2    H112307   3.915   4.184  10.187  2.0639  0.8753 -0.6969
  837MPD2    H212308   3.765   3.881   9.926  3.5105 -0.8045  1.1885
  837MPD2    H312309   3.903   3.947  10.110 -0.3245 -0.2737 -0.2558
  837MPD2     N12310   3.801   4.385  10.059 -0.1064  0.1245  1.3820
  837MPD2    H512311   3.750   4.439   9.990  0.0357  1.1865  2.1077
  837MPD2    N112312   3.616   4.051   9.777 -0.2670 -0.0308 -0.2023
  837MPD2    H712313   3.576   4.129   9.725 -0.4863  0.1919  0.3058
  838MPD2     C12314   1.869   2.858  11.679 -0.4022 -0.5106 -0.2945
  838MPD2    C112315   1.840   2.725  11.689 -0.0668 -0.3927  0.2245
  838MPD2    C212316   1.722   2.690  11.758 -0.1973 -0.2195 -0.4156
  838MPD2    C312317   1.632   2.781  11.807  0.1958  0.3971  0.2593
  838MPD2    C412318   1.666   2.915  11.792  0.4667 -0.4249 -0.1265
  838MPD2    C512319   1.784   2.948  11.731  0.9099  0.9141 -0.0479
  838MPD2     H12320   1.695   2.586  11.765  2.0290 -0.8374 -1.1603
  838MPD2    H112321   1.611   2.995  11.839  0.6014 -0.3912 -0.0283
  838MPD2    H212322   1.953   2.895  11.621 -0.9696 -1.1690 -1.5245
  838MPD2    H312323   1.821   3.050  11.725  0.5172  0.9965 -1.0278
  838MPD2     N12324   1.512   2.737  11.871  0.2374  0.6154  0.2561
  838MPD2    H512325   1.510   2.635  11.867 -0.7073  0.5779  1.4410
  838MPD2    N112326   1.914   2.618  11.624 -0.1637 -0.3153  0.0638
  838MPD2    H712327   1.872   2.529  11.648  1.9831 -1.1713  0.6180
  839MPD2     C12328   1.433   1.985  11.500  0.0681 -0.7834  0.9054
  839MPD2    C112329   1.484   1.985  11.375  0.0898 -0.5067 -0.2458
  839MPD2    C212330   1.609   2.045  11.352  0.5772 -0.3072  0.4032
  839MPD2    C312331   1.666   2.115  11.458 -0.1053  0.6284 -0.5830
  839MPD2    C412332   1.606   2.116  11.583 -0.1484 -0.6768  0.4165
  839MPD2    C512333   1.493   2.046  11.602  0.2184 -0.3657  0.0550
  839MPD2     H12334   1.660   2.039  11.257 -1.6366  0.5468 -0.8378
  839MPD2    H112335   1.661   2.148  11.671 -0.2192  1.0687 -0.1857
  839MPD2    H212336   1.356   1.912  11.525  2.2222 -2.4059  2.7616
  839MPD2    H312337   1.458   2.025  11.702 -2.6405 -0.1042 -0.9072
  839MPD2     N12338   1.782   2.196  11.448 -0.1753 -0.5283 -0.1518
  839MPD2    H512339   1.806   2.247  11.532 -1.1381 -0.6087  0.1732
  839MPD2    N112340   1.421   1.927  11.260 -0.8251 -0.4051 -0.4555
  839MPD2    H712341   1.475   1.906  11.176 -1.5209 -0.1818 -0.9542
  840MPD2     C12342   2.216   4.652  10.128 -0.1851  0.0608 -0.0086
  840MPD2    C112343   2.197   4.556  10.230 -0.4171  0.7476 -1.2817
  840MPD2    C212344   2.259   4.569  10.349  0.1585 -0.0702 -0.1040
  840MPD2    C312345   2.337   4.686  10.371 -0.9283  1.1614  0.8802
  840MPD2    C412346   2.351   0.062  10.269 -0.3966  0.4857 -0.4408
  840MPD2    C512347   2.292   0.042  10.145 -0.4418  0.1804 -0.1822
  840MPD2     H12348   2.250   4.491  10.424  1.4803 -0.8773 -0.7821
  840MPD2    H112349   2.412   0.151  10.283 -0.7466  0.6431  0.0932
  840MPD2    H212350   2.153   4.635  10.041  1.7062  0.2901 -1.4365
  840MPD2    H312351   2.298   0.119  10.069 -0.7384 -0.6775 -1.0857
  840MPD2     N12352   2.406   4.718  10.496  0.0373 -0.0885 -0.1334
  840MPD2    H512353   2.466   0.077  10.503  0.5039 -0.4138 -0.3579
  840MPD2    N112354   2.108   4.457  10.194 -0.3209  0.7455  0.5919
  840MPD2    H712355   2.056   4.464  10.108  0.3211 -0.9384  0.0669
  841MPD2     C12356   1.277   4.234  14.839  0.9292 -0.7049 -0.7461
  841MPD2    C112357   1.297   4.218  14.703  0.0451 -0.0501 -0.0907
  841MPD2    C212358   1.238   4.312  14.618  0.3660  0.0828  0.4738
  841MPD2    C312359   1.156   4.413  14.673 -0.0242 -0.0321 -0.2048
  841MPD2    C412360   1.129   4.424  14.806 -0.5215  0.0621  0.0269
  841MPD2    C512361   1.197   4.335  14.887 -0.5369  0.3693  0.0445
  841MPD2     H12362   1.248   4.308  14.511  1.6016 -0.6822  0.6148
  841MPD2    H112363   1.074   4.501  14.858  0.6154  1.4637 -0.8633
  841MPD2    H212364   1.306   4.168  14.920 -2.0594 -2.8881 -1.4551
  841MPD2    H312365   1.193   4.349  14.994  0.0170  0.1421  0.0951
  841MPD2     N12366   1.107   4.517  14.579 -0.1876  0.1176  0.4585
  841MPD2    H512367   1.160   4.518  14.492 -1.2814 -0.1505 -0.2114
  841MPD2    N112368   1.367   4.114  14.650  0.6324  0.1120 -0.5702
  841MPD2    H712369   1.406   4.126  14.556  0.0151 -1.9156 -1.0994
  842MPD2     C12370   2.308   0.698  16.733 -0.0298 -1.0017  0.9371
  842MPD2    C112371   2.194   0.620  16.724  0.5684 -0.0295  0.4092
  842MPD2    C212372   2.175   0.520  16.820  0.0594  0.9760  0.7502
  842MPD2    C312373   2.270   0.503  16.918  0.3136  0.3084  0.0199
  842MPD2    C412374   2.377   0.583  16.934 -0.0276  0.4429 -0.1699
  842MPD2    C512375   2.400   0.680  16.839 -0.9185  0.4569 -0.6362
  842MPD2     H12376   2.099   0.442  16.816  1.0323  0.0982 -0.6473
  842MPD2    H112377   2.454   0.569  17.008  1.5395  3.1512 -1.2875
  842MPD2    H212378   2.337   0.770  16.658  0.6593 -0.2643  1.9186
  842MPD2    H312379   2.491   0.739  16.844 -0.4392 -0.3542  0.3199
  842MPD2     N12380   2.266   0.405  17.017  0.2030 -0.1220  0.0866
  842MPD2    H512381   2.358   0.382  17.054 -0.9528  0.9488  3.5776
  842MPD2    N112382   2.107   0.644  16.619 -0.0892 -0.1133 -0.3008
  842MPD2    H712383   2.116   0.735  16.575 -2.0118 -0.1935 -0.8862
  843MPD2     C12384   3.764   0.425   0.696  0.4974  0.1696  0.4938
  843MPD2    C112385   3.878   0.352   0.669  0.3415  0.0848  0.6849
  843MPD2    C212386   3.961   0.386   0.568  0.1278 -0.1042  0.2112
  843MPD2    C312387   3.935   0.499   0.493 -0.2995 -0.0914 -0.4568
  843MPD2    C412388   3.835   0.584   0.539  0.0991 -0.8095 -0.2868
  843MPD2    C512389   3.746   0.539   0.630 -0.8911 -0.1545 -0.2303
  843MPD2     H12390   4.045   0.323   0.544 -0.8200 -0.4156 -2.2438
  843MPD2    H112391   3.816   0.680   0.493  1.3659  0.0857  1.0736
  843MPD2    H212392   3.697   0.387   0.772  0.6528  0.8444  0.9762
  843MPD2    H312393   3.660   0.599   0.656  0.0952  0.9210  0.6039
  843MPD2     N12394   4.010   0.544   0.381  0.3179 -0.0564 -0.1031
  843MPD2    H512395   3.985   0.631   0.336  1.8893 -0.9673 -2.7872
  843MPD2    N112396   3.900   0.233   0.746  0.4109 -0.3750  0.0930
  843MPD2    H712397   3.848   0.217   0.831 -0.9204 -5.4184 -1.6873
  844MPD2     C12398   2.340   4.510  16.279 -0.0707  0.8979  0.1323
  844MPD2    C112399   2.409   4.583  16.186  0.8356  0.0884 -0.0842
  844MPD2    C212400   2.493   4.690  16.228 -0.7821 -0.2489  0.1706
  844MPD2    C312401   2.494   4.715  16.369 -0.3676  0.4921 -0.3613
  844MPD2    C412402   2.420   4.646  16.461  0.4410  0.1221 -0.3346
  844MPD2    C512403   2.351   4.539  16.410 -0.6212 -0.2754  0.1294
  844MPD2     H12404   2.559   0.017  16.158  0.2213  0.7099  1.8001
  844MPD2    H112405   2.427   4.663  16.567 -1.7913  0.7584 -0.2955
  844MPD2    H212406   2.270   4.431  16.255 -1.2199  2.2034 -0.7723
  844MPD2    H312407   2.295   4.484  16.485 -0.5331 -0.5773 -0.0267
  844MPD2     N12408   2.583   0.087  16.420  0.1516  0.1173  0.1389
  844MPD2    H512409   2.594   0.095  16.521  0.6165  2.0856 -0.0585
  844MPD2    N112410   2.419   4.549  16.044  0.0063  0.1429  0.6546
  844MPD2    H712411   2.484   4.603  15.989 -1.4360  0.3307 -0.8583
  845MPD2     C12412   2.894   1.060  16.636 -0.4333 -0.3491 -0.0058
  845MPD2    C112413   2.881   0.976  16.739  0.6890  0.3178  0.5049
  845MPD2    C212414   2.897   0.841  16.716 -0.0373 -0.6774  1.0057
  845MPD2    C312415   2.903   0.788  16.590  0.2732  0.0856 -0.7921
  845MPD2    C412416   2.906   0.880  16.485 -0.2888 -0.2763  0.1626
  845MPD2    C512417   2.906   1.013  16.507  0.1620 -0.4006  0.0729
  845MPD2     H12418   2.871   0.776  16.798 -0.3303 -3.8305 -1.5850
  845MPD2    H112419   2.922   0.855  16.381  1.7664  1.2432  0.0909
  845MPD2    H212420   2.878   1.167  16.641  2.1871  0.1236 -1.4646
  845MPD2    H312421   2.912   1.080  16.422  0.2942 -1.2821 -0.6079
  845MPD2     N12422   2.890   0.651  16.560 -0.0132 -0.4482  0.2842
  845MPD2    H512423   2.920   0.589  16.634  0.0325 -1.4905 -0.6036
  845MPD2    N112424   2.851   1.032  16.865 -0.1103  0.7778 -0.0671
  845MPD2    H712425   2.808   1.124  16.863  0.2678  0.9657  0.5139
  846MPD2     C12426   4.638   1.707  13.647  0.9952 -0.4454 -0.6069
  846MPD2    C112427   4.534   1.788  13.615  0.0178 -0.0958  0.6791
  846MPD2    C212428   4.444   1.807  13.726  0.2368  0.1235 -0.1126
  846MPD2    C312429   4.458   1.754  13.854  0.0116 -0.8908  0.0871
  846MPD2    C412430   4.569   1.676  13.871  0.7579 -0.0856  0.0374
  846MPD2    C512431   4.663   1.656  13.768 -0.3054  0.3847 -0.1461
  846MPD2     H12432   4.365   1.875  13.699 -1.5621 -1.6841  0.5202
  846MPD2    H112433   4.589   1.632  13.968  0.8827 -2.2957 -0.9856
  846MPD2    H212434   4.705   1.671  13.570  1.5606 -0.8294  0.0632
  846MPD2    H312435   0.031   1.596  13.775 -1.7439 -1.9828 -1.7080
  846MPD2     N12436   4.366   1.782  13.956 -0.4611 -0.2807  0.1404
  846MPD2    H512437   4.273   1.813  13.928  0.4962  2.5027  0.0406
  846MPD2    N112438   4.501   1.839  13.490 -0.3161 -0.2742 -0.2049
  846MPD2    H712439   4.433   1.914  13.482  0.7399  0.7600  0.7408
  847MPD2     C12440   0.120   2.961  13.835 -0.3380 -1.1361 -0.1949
  847MPD2    C112441   0.216   2.955  13.937 -0.1840  0.0303 -0.5260
  847MPD2    C212442   0.266   2.832  13.958  0.0108 -0.6426  1.0980
  847MPD2    C312443   0.231   2.723  13.888  0.0080  1.1555 -0.3996
  847MPD2    C412444   0.134   2.730  13.787 -0.2956  0.3621 -0.4311
  847MPD2    C512445   0.077   2.851  13.761 -0.8827  0.4241  0.4412
  847MPD2     H12446   0.336   2.828  14.041  1.3154  0.0626  0.0335
  847MPD2    H112447   0.096   2.646  13.731 -0.6706  0.6942 -0.6803
  847MPD2    H212448   0.059   3.046  13.807 -2.3468 -2.5300 -0.0884
  847MPD2    H312449   0.001   2.857  13.685 -0.9138 -0.5293  0.3979
  847MPD2     N12450   0.289   2.601  13.930  0.5394 -0.3096  0.5749
  847MPD2    H512451   0.353   2.613  14.008  1.5748  1.5197 -0.5589
  847MPD2    N112452   0.248   3.058  14.033 -0.4472 -0.0404  0.4712
  847MPD2    H712453   0.320   3.025  14.095  0.0942  0.0567 -0.1050
  848MPD2     C12454   2.251   0.684  16.144 -0.1860  0.3498  0.0726
  848MPD2    C112455   2.340   0.719  16.237 -0.0716 -0.4724  0.2374
  848MPD2    C212456   2.402   0.836  16.227 -0.3283  0.2421 -0.4092
  848MPD2    C312457   2.394   0.914  16.116 -0.3270  0.4934 -0.4972
  848MPD2    C412458   2.296   0.885  16.026  0.3855  0.4193  0.2038
  848MPD2    C512459   2.228   0.761  16.034  0.0011  1.3147 -0.1488
  848MPD2     H12460   2.467   0.869  16.307 -0.4153  1.2713 -0.7668
  848MPD2    H112461   2.268   0.954  15.947  1.2435 -0.1888 -0.6422
  848MPD2    H212462   2.191   0.594  16.153  1.2380 -0.4122  2.0380
  848MPD2    H312463   2.152   0.734  15.961  1.4397 -2.9258 -0.1278
  848MPD2     N12464   2.456   1.037  16.100  0.2253 -0.1319  0.1507
  848MPD2    H512465   2.435   1.086  16.013  0.2227  0.2185  0.3507
  848MPD2    N112466   2.367   0.634  16.352  0.5749  0.5866 -0.5390
  848MPD2    H712467   2.429   0.668  16.425  1.2516 -0.4715 -0.6204
  849MPD2     C12468   1.696   0.984  13.175  0.0567 -0.1622 -0.7618
  849MPD2    C112469   1.810   0.950  13.236 -0.3841  0.0262  0.3186
  849MPD2    C212470   1.815   0.849  13.327  0.4018 -0.6645 -0.0078
  849MPD2    C312471   1.704   0.777  13.353 -0.6787  0.2115 -0.7092
  849MPD2    C412472   1.587   0.810  13.292  0.3539  0.5549 -0.0812
  849MPD2    C512473   1.589   0.914  13.205  0.2248  0.5348  0.3504
  849MPD2     H12474   1.905   0.837  13.387  0.1868 -0.0522  0.4461
  849MPD2    H112475   1.498   0.753  13.316  1.4564 -1.2373 -0.2558
  849MPD2    H212476   1.684   1.064  13.103  2.0943  0.1607 -0.7339
  849MPD2    H312477   1.496   0.934  13.152  0.1276  1.2722  0.8021
  849MPD2     N12478   1.708   0.682  13.459 -0.1153  0.0137 -0.2202
  849MPD2    H512479   1.625   0.653  13.509  0.4268 -0.0324  0.6539
  849MPD2    N112480   1.922   1.031  13.213 -0.3689  0.1562 -0.0700
  849MPD2    H712481   1.915   1.096  13.134  1.0382 -0.6658 -0.8803
  850MPD2     C12482   4.208   3.652  15.204 -0.1661  0.1295  0.9036
  850MPD2    C112483   4.317   3.623  15.114  0.4069  0.1311 -1.0954
  850MPD2    C212484   4.441   3.673  15.147 -0.0887 -0.3355  0.0544
  850MPD2    C312485   4.467   3.734  15.267 -0.0617  0.6783 -0.4554
  850MPD2    C412486   4.362   3.765  15.351  0.8648  0.0385  0.4375
  850MPD2    C512487   4.236   3.714  15.331 -0.4583  0.0813 -0.0243
  850MPD2     H12488   4.521   3.652  15.077 -2.2416 -1.1467 -2.1244
  850MPD2    H112489   4.389   3.815  15.444  0.4574  0.9544  0.0550
  850MPD2    H212490   4.104   3.626  15.188  0.0499 -1.3554  1.8983
  850MPD2    H312491   4.161   3.737  15.406 -0.3648 -0.5035  0.2554
  850MPD2     N12492   4.601   3.757  15.305 -0.1810  0.7542  0.2029
  850MPD2    H512493   4.611   3.780  15.403 -0.6670  1.8397  0.0036
  850MPD2    N112494   4.276   3.555  14.999  0.1068  0.0076  0.0556
  850MPD2    H712495   4.176   3.544  14.987 -0.0864 -0.0731  1.8635
  851MPD2     C12496   0.028   3.118  14.706  0.2823 -0.0848  0.2668
  851MPD2    C112497   4.634   3.083  14.651 -0.0923  0.3424  0.1598
  851MPD2    C212498   4.613   2.953  14.615 -0.0423  0.3828  0.2358
  851MPD2    C312499   4.714   2.864  14.643  0.0066  0.3712  0.3427
  851MPD2    C412500   0.121   2.902  14.686 -0.0034 -0.2748 -0.2411
  851MPD2    C512501   0.135   3.038  14.712 -0.1754 -0.7699  0.5525
  851MPD2     H12502   4.521   2.915  14.573  1.1765 -2.6467  0.3305
  851MPD2    H112503   0.199   2.828  14.695 -1.1052 -1.2494  1.3282
  851MPD2    H212504   0.057   3.218  14.736 -0.5521 -0.2335  1.5874
  851MPD2    H312505   0.232   3.067  14.752 -1.0683 -0.2034  2.2844
  851MPD2     N12506   4.676   2.735  14.616  0.4354  0.4296 -0.1437
  851MPD2    H512507   4.581   2.728  14.580  0.9164 -0.0695 -1.3467
  851MPD2    N112508   4.537   3.186  14.653 -0.4255 -1.1746  0.3261
  851MPD2    H712509   4.564   3.271  14.701  0.4701 -0.9875 -0.5052
  852MPD2     C12510   0.337   0.216   9.954 -0.4327 -0.3222  0.0038
  852MPD2    C112511   0.456   0.229   9.888 -0.5364 -0.0035  0.0721
  852MPD2    C212512   0.531   0.342   9.896  0.1202 -0.4193  0.2536
  852MPD2    C312513   0.489   0.451   9.969  0.4810 -0.5834 -0.8997
  852MPD2    C412514   0.368   0.442  10.036 -0.6344 -0.1946 -0.2283
  852MPD2    C512515   0.292   0.329  10.016 -0.1457 -0.7860  0.0217
  852MPD2     H12516   0.632   0.337   9.858 -0.7285 -0.8086 -1.9712
  852MPD2    H112517   0.337   0.532  10.088 -1.1284 -0.5815  0.1460
  852MPD2    H212518   0.284   0.122   9.963  3.5061 -2.5512 -0.2313
  852MPD2    H312519   0.193   0.334  10.062 -0.6706  0.7632 -1.2992
  852MPD2     N12520   0.571   0.565   9.968 -0.1023  0.0925  0.3569
  852MPD2    H512521   0.641   0.574   9.895 -1.6290  1.7789 -0.8879
  852MPD2    N112522   0.497   0.128   9.799  0.0718 -0.3263  0.1155
  852MPD2    H712523   0.593   0.132   9.765 -0.1297  1.2995 -0.2889
  853MPD2     C12524   1.298   0.738  12.241 -0.8922  0.5109 -0.3995
  853MPD2    C112525   1.247   0.864  12.221  0.2165 -0.0665  0.7383
  853MPD2    C212526   1.278   0.914  12.090  0.3997  0.3090 -0.3263
  853MPD2    C312527   1.364   0.856  12.000  0.4959  0.2755 -0.0645
  853MPD2    C412528   1.416   0.732  12.035  0.0725 -0.0052 -0.0877
  853MPD2    C512529   1.381   0.676  12.154 -0.4034 -0.9083 -0.0541
  853MPD2     H12530   1.244   1.010  12.052 -2.6667  0.6659  3.3609
  853MPD2    H112531   1.471   0.677  11.960  2.7294  0.5744  1.4628
  853MPD2    H212532   1.281   0.690  12.337  2.3737 -0.9320 -0.5408
  853MPD2    H312533   1.427   0.583  12.185 -0.5705 -1.4399 -1.3967
  853MPD2     N12534   1.383   0.902  11.868 -0.3122 -0.0089 -0.4142
  853MPD2    H512535   1.452   0.845  11.822  0.5967 -0.4439  1.4642
  853MPD2    N112536   1.164   0.924  12.319 -0.4090 -0.0218  0.1609
  853MPD2    H712537   1.145   0.876  12.407  3.0788 -0.8084  0.4753
  854MPD2     C12538   2.549   1.375  13.163  0.1464  0.1931 -0.6563
  854MPD2    C112539   2.644   1.374  13.063 -0.4809  0.8902  0.1056
  854MPD2    C212540   2.776   1.326  13.096  0.9963  0.0963  0.1661
  854MPD2    C312541   2.804   1.287  13.228  0.0669  0.4241  0.0724
  854MPD2    C412542   2.706   1.300  13.328  0.2854 -0.2251  0.6058
  854MPD2    C512543   2.580   1.337  13.290  0.1732 -0.6976 -0.5088
  854MPD2     H12544   2.849   1.328  13.016  0.8128 -0.2855 -0.0106
  854MPD2    H112545   2.731   1.287  13.433 -0.5865  1.0936  0.9693
  854MPD2    H212546   2.447   1.405  13.144  0.3143 -0.5165 -2.6674
  854MPD2    H312547   2.507   1.354  13.369  1.4863  0.2550  0.5067
  854MPD2     N12548   2.934   1.231  13.262 -0.2346 -1.0633  0.7779
  854MPD2    H512549   2.949   1.188  13.352 -2.1185  1.3443  2.2324
  854MPD2    N112550   2.610   1.413  12.932  0.3026 -0.4412  0.3161
  854MPD2    H712551   2.509   1.417  12.922  0.3107  0.8531  0.7706
  855MPD2     C12552   3.575   1.299  13.897 -0.1827  0.5395  0.6373
  855MPD2    C112553   3.599   1.169  13.854  0.1585 -0.0340  0.1138
  855MPD2    C212554   3.548   1.132  13.735  0.6609 -0.1409 -0.3167
  855MPD2    C312555   3.462   1.212  13.659  0.0731  0.5951 -0.3571
  855MPD2    C412556   3.447   1.344  13.701  0.4843  0.3119  0.1626
  855MPD2    C512557   3.493   1.385  13.826  0.3066 -0.2285  0.4521
  855MPD2     H12558   3.576   1.030  13.708  0.7124  0.1936 -1.5261
  855MPD2    H112559   3.382   1.412  13.647 -3.1414 -2.1414  1.4359
  855MPD2    H212560   3.613   1.334  13.992 -1.0112  0.8668  0.8491
  855MPD2    H312561   3.477   1.487  13.857 -0.2834 -0.6033  1.3807
  855MPD2     N12562   3.395   1.188  13.538  0.0403  0.4594  0.6442
  855MPD2    H512563   3.339   1.266  13.505 -0.5740 -0.7416 -1.1639
  855MPD2    N112564   3.653   1.064  13.929 -0.2272 -0.2792 -0.0636
  855MPD2    H712565   3.665   0.972  13.887  3.9096  0.4436 -0.5264
  856MPD2     C12566   0.526   2.007  13.765 -0.8782  0.2830 -0.5553
  856MPD2    C112567   0.627   2.103  13.786  0.5607  0.2816  0.4648
  856MPD2    C212568   0.597   2.239  13.752 -0.2007  0.2584  0.2378
  856MPD2    C312569   0.481   2.269  13.677 -0.8737 -0.0107 -0.2618
  856MPD2    C412570   0.386   2.170  13.656  0.5642 -0.1437 -0.1846
  856MPD2    C512571   0.414   2.043  13.695 -0.1749  0.0380 -0.2686
  856MPD2     H12572   0.681   2.308  13.748 -0.4040  0.5634  1.1098
  856MPD2    H112573   0.296   2.200  13.605  0.3831  0.2125  0.3421
  856MPD2    H212574   0.545   1.903  13.787 -0.8891 -0.3017 -3.3045
  856MPD2    H312575   0.345   1.960  13.683 -0.3921  0.1826 -0.0171
  856MPD2     N12576   0.454   2.404  13.652 -0.1309 -0.4350  0.4471
  856MPD2    H512577   0.376   2.423  13.590  2.3116  0.4138 -2.3849
  856MPD2    N112578   0.752   2.082  13.844  0.6005  0.0511 -0.3397
  856MPD2    H712579   0.819   2.157  13.836 -0.8711  1.2569 -1.3448
  857MPD2     C12580   2.104   3.731  12.995 -0.1623 -0.5004  0.0407
  857MPD2    C112581   2.169   3.747  12.874 -0.2430 -0.3439  0.1556
  857MPD2    C212582   2.260   3.855  12.859 -0.7075  0.8595  0.1385
  857MPD2    C312583   2.290   3.942  12.961  0.2592  0.8472 -0.0476
  857MPD2    C412584   2.222   3.926  13.087  0.2501  0.1726  0.0859
  857MPD2    C512585   2.128   3.824  13.097 -0.2537 -0.2447 -0.5687
  857MPD2     H12586   2.312   3.874  12.766 -0.3091  0.7031  0.3259
  857MPD2    H112587   2.242   3.991  13.172  4.2272 -1.0629  0.0839
  857MPD2    H212588   2.028   3.655  13.004  0.1170 -0.7221  0.4761
  857MPD2    H312589   2.071   3.809  13.188  1.8033 -0.9066  0.6193
  857MPD2     N12590   2.396   4.032  12.939 -0.4819 -0.6923 -0.3060
  857MPD2    H512591   2.442   4.018  12.849  0.3551 -0.5683  0.0960
  857MPD2    N112592   2.143   3.646  12.777  0.1247 -0.1361 -0.2691
  857MPD2    H712593   2.102   3.562  12.817  1.9113 -0.7481  0.2856
  858MPD2     C12594   2.733   3.051  16.601  0.0988  0.0779  0.3742
  858MPD2    C112595   2.833   2.968  16.640 -0.0564 -1.0033 -0.3574
  858MPD2    C212596   2.894   2.987  16.763 -0.6167 -1.2646  0.3368
  858MPD2    C312597   2.844   3.078  16.852 -0.4624  0.4637 -0.4371
  858MPD2    C412598   2.741   3.159  16.811 -0.5193  0.8706  0.2068
  858MPD2    C512599   2.685   3.151  16.685  0.4500  0.3171  0.2000
  858MPD2     H12600   2.971   2.919  16.798 -1.2959 -1.6239  1.1520
  858MPD2    H112601   2.708   3.240  16.874  0.8305  2.2343 -0.8489
  858MPD2    H212602   2.692   3.041  16.501  1.9330  0.1571 -0.3728
  858MPD2    H312603   2.598   3.210  16.658  0.1903 -1.5690 -3.1164
  858MPD2     N12604   2.879   3.091  16.987  0.1452  0.5228  0.1255
  858MPD2    H512605   2.841   3.171  17.037 -0.6885 -0.1324  0.5448
  858MPD2    N112606   2.879   2.873  16.552  0.0736 -0.7132  0.4601
  858MPD2    H712607   2.849   2.871  16.455  2.8205 -1.2285 -0.4023
  859MPD2     C12608   1.534   0.142  15.382  0.3152 -0.1044 -0.2678
  859MPD2    C112609   1.553   0.163  15.241  0.4593  0.0923  0.3403
  859MPD2    C212610   1.562   0.054  15.157  0.0117  0.0590  0.0273
  859MPD2    C312611   1.555   4.650  15.205 -0.1367 -0.5515 -0.7137
  859MPD2    C412612   1.542   4.629  15.335 -0.1138 -0.1236  0.3462
  859MPD2    C512613   1.527   0.013  15.425  0.8814  0.1659  0.0779
  859MPD2     H12614   1.567   0.077  15.052  2.2675 -0.2872  0.0663
  859MPD2    H112615   1.532   4.530  15.378 -2.9880  0.7447  1.7154
  859MPD2    H212616   1.528   0.223  15.455  0.7109 -1.2388  1.0294
  859MPD2    H312617   1.519   4.721  15.533  0.8107 -0.6174 -0.0332
  859MPD2     N12618   1.571   4.534  15.125  0.0008  0.9667  0.2709
  859MPD2    H512619   1.581   4.444  15.170 -1.4704  1.1627  1.0014
  859MPD2    N112620   1.568   0.301  15.205 -0.0530 -0.6891  0.4368
  859MPD2    H712621   1.583   0.373  15.275  0.1199 -1.4331  1.1532
  860MPD2     C12622   4.096   0.899  11.694  0.4021  0.2048  0.5116
  860MPD2    C112623   4.047   1.024  11.717  0.0290 -0.4580 -0.3336
  860MPD2    C212624   3.931   1.043  11.783 -0.0396  0.1250  0.0453
  860MPD2    C312625   3.863   0.936  11.831  0.3001 -0.0526  1.2431
  860MPD2    C412626   3.903   0.809  11.803 -0.3804 -0.6520  0.3006
  860MPD2    C512627   4.016   0.787  11.731 -0.0076  0.7234 -0.5718
  860MPD2     H12628   3.901   1.144  11.805 -1.9085 -0.7047  1.2985
  860MPD2    H112629   3.836   0.727  11.826 -0.4281 -0.9444 -0.8803
  860MPD2    H212630   4.180   0.877  11.628  0.3792 -2.3967  1.3327
  860MPD2    H312631   4.044   0.686  11.704  0.7695  0.3129  1.7479
  860MPD2     N12632   3.735   0.952  11.890  0.3109 -0.0432  0.1287
  860MPD2    H512633   3.693   0.868  11.930  0.1596  0.6163  1.3825
  860MPD2    N112634   4.126   1.143  11.700 -0.1074  0.7281  0.8760
  860MPD2    H712635   4.086   1.229  11.735 -1.6993 -0.1030  1.0998
  861MPD2     C12636   3.405   4.060  10.672 -0.2712 -0.3591  0.4541
  861MPD2    C112637   3.346   3.929  10.677  0.2265  0.6001 -0.3307
  861MPD2    C212638   3.249   3.889  10.587  0.1624  0.1101  0.6496
  861MPD2    C312639   3.214   3.983  10.487  0.8526  0.8348  0.5624
  861MPD2    C412640   3.273   4.109  10.482  0.3789 -0.0258  0.6140
  861MPD2    C512641   3.366   4.147  10.568  0.2372  0.3872  0.4143
  861MPD2     H12642   3.215   3.786  10.586  0.4996  0.0075 -0.9504
  861MPD2    H112643   3.248   4.179  10.404 -0.1200 -1.2434 -0.3298
  861MPD2    H212644   3.463   4.093  10.757 -1.1902  0.4531  0.7756
  861MPD2    H312645   3.421   4.239  10.553 -0.8868  0.5122 -2.8814
  861MPD2     N12646   3.110   3.960  10.400  0.3725 -0.3148  0.6255
  861MPD2    H512647   3.079   4.042  10.349  2.0675 -0.4086 -0.5615
  861MPD2    N112648   3.360   3.837  10.787  0.3584 -0.4577 -0.0466
  861MPD2    H712649   3.312   3.748  10.775  0.6777 -0.7441  0.8081
  862MPD2     C12650   2.488   3.960   9.904 -0.4213  0.2384  0.1554
  862MPD2    C112651   2.601   3.957   9.981 -1.2812  0.2968 -0.1917
  862MPD2    C212652   2.617   3.847  10.070  0.5580 -0.3786  0.6098
  862MPD2    C312653   2.515   3.749  10.087 -0.0759 -0.3954 -0.0070
  862MPD2    C412654   2.403   3.764  10.016  0.6261  0.2562 -0.2791
  862MPD2    C512655   2.394   3.858   9.918  0.2676 -0.1021  0.0339
  862MPD2     H12656   2.710   3.840  10.126  1.5410 -2.3996 -1.2344
  862MPD2    H112657   2.316   3.700  10.019  0.5269  0.3768 -0.5558
  862MPD2    H212658   2.461   4.045   9.842  1.3642  0.1408 -0.7550
  862MPD2    H312659   2.307   3.865   9.854  0.7755 -2.0795 -0.8863
  862MPD2     N12660   2.522   3.642  10.180 -0.4970  0.1154 -0.4669
  862MPD2    H512661   2.440   3.582  10.173  0.4022 -1.0907 -0.7386
  862MPD2    N112662   2.681   4.073   9.974 -0.7539 -0.1942  0.0988
  862MPD2    H712663   2.646   4.133   9.900 -1.9618  0.9959  1.6391
  863MPD2     C12664   1.425   1.504  16.388  0.4965  0.4450 -0.7734
  863MPD2    C112665   1.359   1.608  16.452  0.5191 -1.0322 -0.3245
  863MPD2    C212666   1.402   1.658  16.569  0.2253  0.0888  0.3803
  863MPD2    C312667   1.506   1.600  16.634 -0.4770  0.3413  0.0785
  863MPD2    C412668   1.564   1.483  16.584 -0.2798  0.7629  0.6578
  863MPD2    C512669   1.526   1.446  16.458 -0.2445 -0.0518 -0.4714
  863MPD2     H12670   1.359   1.753  16.600  1.0559  0.5323  0.1830
  863MPD2    H112671   1.651   1.442  16.634 -0.6693 -1.6623 -0.6447
  863MPD2    H212672   1.400   1.461  16.292  1.4183 -1.3768 -0.1909
  863MPD2    H312673   1.581   1.363  16.416 -1.3432 -0.4521 -1.1159
  863MPD2     N12674   1.559   1.644  16.760 -0.6412 -0.8629 -0.2787
  863MPD2    H512675   1.615   1.580  16.816  0.1405  0.0328 -0.0519
  863MPD2    N112676   1.246   1.661  16.389 -0.6730  0.3409 -0.6201
  863MPD2    H712677   1.209   1.613  16.309 -1.3843 -3.2311  1.8579
  864MPD2     C12678   1.527   3.155  17.115 -0.2355 -0.1409  0.5338
  864MPD2    C112679   1.609   3.089  17.034  0.1930 -0.8315  0.0581
  864MPD2    C212680   1.690   3.166  16.955 -0.6075  0.7896 -0.7571
  864MPD2    C312681   1.703   3.297  16.962  0.3619 -0.0539  0.0282
  864MPD2    C412682   1.621   3.364  17.045 -0.0431  0.1345 -0.6328
  864MPD2    C512683   1.523   3.294  17.117  0.5021 -0.9569 -0.4405
  864MPD2     H12684   1.745   3.116  16.876  0.3850  0.3611  0.2048
  864MPD2    H112685   1.612   3.472  17.052  1.7887  0.1048  2.1184
  864MPD2    H212686   1.450   3.111  17.177 -0.9737  0.3571 -0.0275
  864MPD2    H312687   1.456   3.354  17.177  1.6610 -1.7718  1.7024
  864MPD2     N12688   1.787   3.363  16.863  0.2194  0.0260  0.2767
  864MPD2    H512689   1.771   3.463  16.857  1.4103  0.1874 -0.2080
  864MPD2    N112690   1.601   2.948  17.032 -0.5105  0.0822 -0.4668
  864MPD2    H712691   1.534   2.899  17.090  1.4689  0.5816  2.2620
  865MPD2     C12692   1.790   3.466  15.916  0.4374  0.5975  0.2217
  865MPD2    C112693   1.791   3.373  16.020 -0.0919 -0.1427  0.2964
  865MPD2    C212694   1.785   3.421  16.150 -0.1509  0.0095  0.0629
  865MPD2    C312695   1.769   3.553  16.179  0.8252 -1.0956 -0.8111
  865MPD2    C412696   1.780   3.635  16.077  0.2427 -1.0050  0.3027
  865MPD2    C512697   1.785   3.598  15.942  0.1531  0.1856  0.0570
  865MPD2     H12698   1.786   3.349  16.231  0.9516  0.8754  0.8142
  865MPD2    H112699   1.761   3.741  16.090 -1.1113 -1.2541  0.3246
  865MPD2    H212700   1.776   3.427  15.816 -1.1164  2.4130 -0.2865
  865MPD2    H312701   1.788   3.680  15.871  0.0824 -1.2440 -1.5898
  865MPD2     N12702   1.759   3.596  16.308 -0.1497  0.4277 -0.3504
  865MPD2    H512703   1.779   3.695  16.309 -0.2148  0.4290  0.4196
  865MPD2    N112704   1.803   3.238  15.986  0.0164  0.7055 -0.1474
  865MPD2    H712705   1.810   3.210  15.888 -0.7004  1.4169 -0.4023
  866MPD2     C12706   3.391   4.384  11.445 -0.7733 -0.3675 -0.0338
  866MPD2    C112707   3.461   4.385  11.325  0.2487 -0.5436 -0.8431
  866MPD2    C212708   3.393   4.350  11.213  0.3167 -0.0000 -0.4257
  866MPD2    C312709   3.263   4.309  11.217  0.2178 -0.5093 -0.0007
  866MPD2    C412710   3.196   4.301  11.339  0.0478  0.3089  0.5257
  866MPD2    C512711   3.255   4.348  11.450  0.3754  0.2198  0.3865
  866MPD2     H12712   3.441   4.336  11.117  1.1122 -1.8163  0.2520
  866MPD2    H112713   3.091   4.275  11.335  0.3865 -0.9100 -0.3330
  866MPD2    H212714   3.440   4.427  11.531 -1.8936  1.0748 -0.1264
  866MPD2    H312715   3.190   4.354  11.537 -1.0924 -0.2513 -0.6722
  866MPD2     N12716   3.200   4.260  11.100  0.0912  0.2002  0.1373
  866MPD2    H512717   3.110   4.215  11.114 -0.8335  2.3682  1.1637
  866MPD2    N112718   3.604   4.409  11.339 -0.0994  0.5653  0.2829
  866MPD2    H712719   3.642   4.419  11.433 -0.9724 -1.0177  0.8115
  867MPD2     C12720   1.189   3.093  16.471  0.0161 -0.0830  0.2012
  867MPD2    C112721   1.094   3.034  16.556 -0.3411  0.2317  0.5097
  867MPD2    C212722   1.020   3.114  16.644 -0.8372  0.2020  0.1168
  867MPD2    C312723   1.036   3.251  16.657 -0.2728  0.1713 -0.8105
  867MPD2    C412724   1.131   3.305  16.572 -0.5760 -0.9495 -0.9687
  867MPD2    C512725   1.210   3.227  16.482  0.7529 -0.3725 -0.2061
  867MPD2     H12726   0.947   3.071  16.711 -0.9118  0.6556  0.3320
  867MPD2    H112727   1.149   3.411  16.586  0.7430 -1.3910  0.6495
  867MPD2    H212728   1.259   3.040  16.407 -0.5217 -2.2326  1.3840
  867MPD2    H312729   1.296   3.278  16.441  0.4289 -0.1786 -0.6372
  867MPD2     N12730   0.966   3.332  16.750 -0.9439  0.4962  0.2234
  867MPD2    H512731   0.975   3.433  16.746 -2.9859  0.6980  0.8679
  867MPD2    N112732   1.088   2.890  16.546  0.1008 -0.1984 -0.9287
  867MPD2    H712733   1.132   2.848  16.464 -1.2759  1.9060 -2.7286
  868MPD2     C12734   2.456   1.810  12.772  0.0367 -0.0035  0.6651
  868MPD2    C112735   2.503   1.943  12.783  0.4237  0.1667  0.2670
  868MPD2    C212736   2.405   2.042  12.761 -0.2197 -0.1327 -0.3826
  868MPD2    C312737   2.273   2.013  12.723 -0.3792 -0.2263  0.1479
  868MPD2    C412738   2.237   1.877  12.693  0.3122  0.1452 -0.1114
  868MPD2    C512739   2.327   1.776  12.726 -0.3989  0.7263 -0.7412
  868MPD2     H12740   2.431   2.142  12.791 -2.7476  0.5633 -0.4931
  868MPD2    H112741   2.137   1.856  12.657  0.2587 -0.1822  0.2244
  868MPD2    H212742   2.523   1.727  12.790  1.6524  1.0364 -0.4585
  868MPD2    H312743   2.301   1.673  12.702  1.4872 -0.2725  1.4974
  868MPD2     N12744   2.190   2.126  12.710  0.0719  0.0187  0.1910
  868MPD2    H512745   2.228   2.219  12.726  0.8701  0.2350 -3.0009
  868MPD2    N112746   2.638   1.966  12.824 -0.3205 -0.1514 -0.0413
  868MPD2    H712747   2.698   1.884  12.826  2.2319  1.7394 -0.0620
  869MPD2     C12748   3.232   0.264   2.442  0.0632  0.0517 -0.3354
  869MPD2    C112749   3.233   0.167   2.348 -0.2157 -0.2838  0.5232
  869MPD2    C212750   3.286   0.199   2.223 -0.3761 -0.0743 -0.0311
  869MPD2    C312751   3.347   0.322   2.209  0.6367  0.1602  0.0239
  869MPD2    C412752   3.346   0.412   2.310 -0.0652 -0.3463  0.8051
  869MPD2    C512753   3.287   0.390   2.433 -0.5986 -0.3146 -0.1112
  869MPD2     H12754   3.299   0.119   2.151  0.0966 -0.8206  0.8885
  869MPD2    H112755   3.386   0.511   2.289  3.7338 -1.5424  2.5269
  869MPD2    H212756   3.175   0.243   2.532 -1.3637  2.4327 -0.6656
  869MPD2    H312757   3.281   0.463   2.513  2.1615  0.1277 -0.3320
  869MPD2     N12758   3.423   0.358   2.090 -0.8783  0.6549 -0.3926
  869MPD2    H512759   3.449   0.454   2.072 -1.4367  0.7882 -0.5041
  869MPD2    N112760   3.175   0.044   2.378  0.5588 -0.6216 -0.2401
  869MPD2    H712761   3.131   0.035   2.469 -0.1051 -1.0793 -0.6086
  870MPD2     C12762   3.320   2.837   1.933  0.4814  0.6932  0.1540
  870MPD2    C112763   3.334   2.966   1.963  0.2035 -0.1411 -0.1170
  870MPD2    C212764   3.426   3.035   1.885  0.2892  0.1661 -0.0550
  870MPD2    C312765   3.487   2.980   1.774  0.2120  0.3570  0.4714
  870MPD2    C412766   3.478   2.844   1.754 -0.4862 -0.2883  0.2411
  870MPD2    C512767   3.391   2.769   1.830 -0.1733 -1.0010  0.6073
  870MPD2     H12768   3.430   3.140   1.910 -3.4577  0.7965 -2.1197
  870MPD2    H112769   3.533   2.797   1.673  1.5343 -1.7283  2.4847
  870MPD2    H212770   3.248   2.773   1.985  3.5057 -1.6390  1.4719
  870MPD2    H312771   3.376   2.665   1.807 -1.3756 -0.4377 -1.1273
  870MPD2     N12772   3.563   3.078   1.700 -0.4995 -0.3915  0.2182
  870MPD2    H512773   3.559   3.176   1.726  0.3661  0.7195 -3.9232
  870MPD2    N112774   3.259   3.019   2.068 -0.4382 -0.6050 -0.1732
  870MPD2    H712775   3.183   2.962   2.106 -0.6843  0.0386  0.3079
  871MPD2     C12776   4.393   3.305  16.406 -0.1243  0.0577 -0.3634
  871MPD2    C112777   4.308   3.219  16.469  0.5309  0.7083 -0.2993
  871MPD2    C212778   4.288   3.097  16.400 -0.2863 -0.1913  0.0635
  871MPD2    C312779   4.344   3.071  16.282  0.3636  0.1992 -0.2035
  871MPD2    C412780   4.432   3.164  16.222  0.9710 -0.2554  0.4037
  871MPD2    C512781   4.460   3.281  16.291  0.0136 -0.0833  0.5368
  871MPD2     H12782   4.214   3.025  16.435  0.4654 -0.4593  1.0983
  871MPD2    H112783   4.486   3.132  16.134  1.1108 -0.6740  0.6408
  871MPD2    H212784   4.427   3.404  16.435 -1.2856 -0.0140  1.2164
  871MPD2    H312785   4.535   3.352  16.257  1.7310 -2.5557 -0.8399
  871MPD2     N12786   4.322   2.939  16.233  0.4735  0.1508 -0.4999
  871MPD2    H512787   4.253   2.887  16.287  1.9633 -0.1620  1.1073
  871MPD2    N112788   4.247   3.258  16.589  0.4266  0.1966  0.1795
  871MPD2    H712789   4.267   3.352  16.619 -0.4303  0.1613  0.8602
  872MPD2     C12790   0.524   1.085  13.890 -0.8555 -0.3199  0.0886
  872MPD2    C112791   0.479   1.214  13.867  0.5548  0.1606 -0.4733
  872MPD2    C212792   0.358   1.258  13.915 -0.7363 -0.0291  0.4857
  872MPD2    C312793   0.273   1.177  13.987  0.1371  0.0558  0.7542
  872MPD2    C412794   0.324   1.054  14.019 -0.0969 -0.8180 -0.2129
  872MPD2    C512795   0.437   1.004  13.962  0.4486  1.0523 -0.7647
  872MPD2     H12796   0.339   1.364  13.903 -2.9299 -0.6842 -1.8592
  872MPD2    H112797   0.267   0.992  14.088 -0.4404 -0.6353 -0.3349
  872MPD2    H212798   0.620   1.043  13.863 -0.5309 -0.1079  0.9042
  872MPD2    H312799   0.454   0.898  13.976 -3.1326  0.7253  1.2349
  872MPD2     N12800   0.158   1.230  14.062  0.8294 -0.0992  0.2196
  872MPD2    H512801   0.131   1.180  14.147  1.5754 -0.5859  0.1696
  872MPD2    N112802   0.555   1.309  13.795  0.4291 -0.1363  0.4883
  872MPD2    H712803   0.523   1.404  13.779  0.5234 -0.0521  0.8092
  873MPD2     C12804   2.202   0.858   0.590 -0.3364  0.7132 -0.0152
  873MPD2    C112805   2.227   0.864   0.724  0.6566  1.1839  0.2542
  873MPD2    C212806   2.277   0.751   0.773  0.4091 -0.7752 -0.1405
  873MPD2    C312807   2.321   0.643   0.695  0.6778  0.1059 -0.7239
  873MPD2    C412808   2.314   0.651   0.563 -0.8479  0.5633  0.1079
  873MPD2    C512809   2.247   0.754   0.505 -0.2386 -0.7391  0.4226
  873MPD2     H12810   2.259   0.738   0.879  2.0662 -0.4704  0.1864
  873MPD2    H112811   2.342   0.561   0.508  1.7321 -0.2208  2.6997
  873MPD2    H212812   2.152   0.942   0.544 -2.9323 -1.9797 -2.1693
  873MPD2    H312813   2.232   0.765   0.398 -0.6049  1.0169  0.6581
  873MPD2     N12814   2.356   0.519   0.758  0.8569 -0.1792  0.6160
  873MPD2    H512815   2.372   0.438   0.698 -2.6099 -1.4330  1.3849
  873MPD2    N112816   2.181   0.978   0.794 -1.1383 -0.5662 -0.1463
  873MPD2    H712817   2.104   1.030   0.753 -0.2372  0.1846 -0.8982
  874MPD2     C12818   1.915   1.047  15.886 -0.4058  0.6238 -0.2491
  874MPD2    C112819   1.962   1.046  16.019  0.2281 -1.0858  0.8020
  874MPD2    C212820   2.063   1.137  16.057 -0.0822  0.9413 -0.5150
  874MPD2    C312821   2.131   1.217  15.965  0.3298 -0.1680 -0.1370
  874MPD2    C412822   2.083   1.226  15.838  0.2948 -0.0771 -0.4977
  874MPD2    C512823   1.981   1.136  15.799 -0.2378 -0.1363 -1.0680
  874MPD2     H12824   2.095   1.146  16.160 -2.3832  0.7831  0.2088
  874MPD2    H112825   2.140   1.271  15.757 -0.4204  0.3799 -0.7497
  874MPD2    H212826   1.831   0.987  15.852  1.7162 -1.4562 -1.7927
  874MPD2    H312827   1.957   1.127  15.693  2.1138  0.3522 -1.6340
  874MPD2     N12828   2.244   1.294  16.002 -0.6632  0.3097 -0.4467
  874MPD2    H512829   2.265   1.282  16.101 -1.0773 -0.1676 -0.4160
  874MPD2    N112830   1.915   0.940  16.106 -0.6008  0.1990 -0.5233
  874MPD2    H712831   1.839   0.881  16.075 -0.1708 -0.4826 -0.2760
  875MPD2     C12832   2.938   4.368  14.698  0.2202  0.1519 -0.4373
  875MPD2    C112833   2.847   4.293  14.776 -0.2961 -0.2612 -0.1844
  875MPD2    C212834   2.863   4.308  14.913 -0.1661  0.3366 -0.1104
  875MPD2    C312835   2.965   4.386  14.969 -0.1922 -0.3849 -1.0202
  875MPD2    C412836   3.055   4.445  14.886  0.3480 -0.0477  0.1106
  875MPD2    C512837   3.037   4.431  14.753 -0.1564  0.0770 -0.1381
  875MPD2     H12838   2.793   4.260  14.981 -0.9774  1.5172 -0.1063
  875MPD2    H112839   3.140   4.505  14.916 -0.1701 -1.6354  4.6356
  875MPD2    H212840   2.937   4.370  14.590 -1.5650 -0.4429 -0.4393
  875MPD2    H312841   3.095   4.485  14.680  0.7445  0.1249  0.6153
  875MPD2     N12842   2.987   4.407  15.108  0.0868 -0.8021  0.4862
  875MPD2    H512843   3.059   4.470  15.142  1.0016 -1.3517 -0.4310
  875MPD2    N112844   2.746   4.211  14.727 -0.3582 -0.1897  0.1358
  875MPD2    H712845   2.689   4.151  14.785  1.2908 -2.4864 -0.6052
  876MPD2     C12846   1.600   0.575  15.965 -0.6127 -0.4857  0.0627
  876MPD2    C112847   1.723   0.559  15.912  0.2374  0.3582 -0.2487
  876MPD2    C212848   1.809   0.471  15.975 -0.9356  0.6433  0.3539
  876MPD2    C312849   1.771   0.390  16.079 -0.1018  0.1313 -0.0443
  876MPD2    C412850   1.643   0.399  16.121 -0.2244 -0.5933 -0.2583
  876MPD2    C512851   1.558   0.486  16.063  0.7458 -0.5680 -0.1529
  876MPD2     H12852   1.913   0.462  15.947 -0.5848 -0.1822  1.9166
  876MPD2    H112853   1.610   0.354  16.214 -0.5667 -1.1147 -0.6304
  876MPD2    H212854   1.527   0.648  15.929 -0.6240 -0.7623 -0.4715
  876MPD2    H312855   1.461   0.500  16.110  0.5956 -1.7521 -0.1280
  876MPD2     N12856   1.859   0.302  16.143  0.3206 -0.1257  0.1779
  876MPD2    H512857   1.954   0.304  16.107  0.6737 -2.0984  1.0582
  876MPD2    N112858   1.765   0.645  15.812 -0.3938  0.8632 -0.2503
  876MPD2    H712859   1.699   0.717  15.786 -0.4038  1.6079  1.8822
  877MPD2     C12860   1.567   1.021  15.152  0.1160 -0.1468 -0.0432
  877MPD2    C112861   1.706   1.003  15.149 -0.1061 -0.3104 -0.3108
  877MPD2    C212862   1.775   1.024  15.028 -0.6357 -0.0361 -0.1728
  877MPD2    C312863   1.702   1.060  14.910 -0.1160  0.9809 -0.3025
  877MPD2    C412864   1.564   1.051  14.914  0.0477 -0.6598  0.2101
  877MPD2    C512865   1.499   1.030  15.033 -0.3187  0.0936 -0.9666
  877MPD2     H12866   1.883   1.031  15.026 -0.5576 -1.2870 -0.4134
  877MPD2    H112867   1.498   1.063  14.828 -1.4913 -1.7463  1.2292
  877MPD2    H212868   1.508   1.006  15.242  2.9864 -0.1773  1.8047
  877MPD2    H312869   1.391   1.031  15.027 -0.5387 -0.9444  3.0407
  877MPD2     N12870   1.758   1.113  14.791 -0.4226 -0.3246 -0.2950
  877MPD2    H512871   1.697   1.137  14.714  2.2196  0.4493 -2.1641
  877MPD2    N112872   1.785   0.977  15.267  0.3840 -0.2414  0.3922
  877MPD2    H712873   1.886   0.981  15.259  0.4431  1.1245  1.7626
  878MPD2     C12874   2.196   0.906  12.420  0.3272 -0.2963  0.4089
  878MPD2    C112875   2.118   0.851  12.516  0.6155  0.5133  0.7768
  878MPD2    C212876   2.142   0.868  12.655 -0.1205 -0.9196 -0.4790
  878MPD2    C312877   2.248   0.941  12.690 -0.0077  0.1031 -0.4664
  878MPD2    C412878   2.341   0.986  12.598  0.1156  0.6933  0.6236
  878MPD2    C512879   2.315   0.970  12.465 -0.1599 -0.0872 -0.2350
  878MPD2     H12880   2.068   0.837  12.729  0.3459  1.6385  1.0403
  878MPD2    H112881   2.423   1.051  12.626  0.9544 -1.2235  2.6106
  878MPD2    H212882   2.191   0.888  12.314 -2.4617  1.4438  0.2364
  878MPD2    H312883   2.384   1.027  12.404  0.2828  1.2856  1.5450
  878MPD2     N12884   2.243   0.966  12.831 -0.3519 -0.0363  0.3798
  878MPD2    H512885   2.166   0.919  12.876 -2.0233  1.9309 -0.4407
  878MPD2    N112886   2.007   0.778  12.469  0.3940 -0.0637 -0.0184
  878MPD2    H712887   2.001   0.793  12.369 -0.1199  1.6733  0.2805
  879MPD2     C12888   1.886   2.055  16.767  0.1217  0.2224 -0.4896
  879MPD2    C112889   1.967   1.973  16.846 -0.1449  0.4340 -0.3065
  879MPD2    C212890   1.982   1.840  16.814  0.6000  0.5527  0.2096
  879MPD2    C312891   1.938   1.799  16.691  0.3195 -0.2511 -0.2217
  879MPD2    C412892   1.845   1.875  16.622 -0.3564 -1.0310  0.2516
  879MPD2    C512893   1.830   2.003  16.654 -0.0182 -0.4573  1.0248
  879MPD2     H12894   2.041   1.770  16.873  1.7043 -0.2193 -1.8318
  879MPD2    H112895   1.812   1.842  16.524  0.2460 -1.0384  0.0472
  879MPD2    H212896   1.862   2.160  16.783  0.5589  0.7072 -2.9224
  879MPD2    H312897   1.758   2.063  16.600  0.7496  1.3003  1.9516
  879MPD2     N12898   1.975   1.690  16.609 -0.0998  0.0988 -0.0663
  879MPD2    H512899   1.938   1.683  16.515 -0.1501 -0.9223  0.0309
  879MPD2    N112900   2.004   2.037  16.963  0.5718 -0.6195 -0.2147
  879MPD2    H712901   1.978   2.135  16.971  2.0417 -0.2376 -0.0413
  880MPD2     C12902   3.739   2.575   0.356 -0.0118 -0.2006  0.6327
  880MPD2    C112903   3.823   2.678   0.377 -0.0766 -0.5036 -0.6250
  880MPD2    C212904   3.961   2.653   0.389  0.0152 -0.1161 -0.1548
  880MPD2    C312905   4.005   2.525   0.362 -0.7774  0.6212  0.8837
  880MPD2    C412906   3.916   2.420   0.340  0.1688  0.6354 -0.2372
  880MPD2    C512907   3.789   2.450   0.332  0.0287  0.1028 -0.0114
  880MPD2     H12908   4.027   2.734   0.419  0.5708  0.0898 -1.9546
  880MPD2    H112909   3.954   2.321   0.318 -0.6207  0.1447  0.6382
  880MPD2    H212910   3.633   2.588   0.339 -0.3145 -1.7221  1.3866
  880MPD2    H312911   3.722   2.373   0.293  2.8549 -1.1459 -2.3868
  880MPD2     N12912   4.148   2.504   0.365 -0.4766  0.2245  0.3755
  880MPD2    H512913   4.205   2.586   0.381  2.8071 -1.4064 -3.0330
  880MPD2    N112914   3.776   2.804   0.411 -0.2259  0.2439 -1.2208
  880MPD2    H712915   3.840   2.872   0.451  0.7625 -1.6785  0.4511
  881MPD2     C12916   3.462   3.768   0.060 -0.1171 -1.0924 -0.1985
  881MPD2    C112917   3.418   3.647   0.012  0.2580 -0.3844 -0.0222
  881MPD2    C212918   3.453   3.534   0.080  1.1048 -1.2470  0.2329
  881MPD2    C312919   3.521   3.543   0.201  0.6250  0.5334  0.6020
  881MPD2    C412920   3.542   3.666   0.261 -0.2673  0.1573 -0.2909
  881MPD2    C512921   3.514   3.783   0.188  0.6670  0.7381  0.3328
  881MPD2     H12922   3.457   3.439   0.027  0.6157  0.0665 -2.1912
  881MPD2    H112923   3.584   3.668   0.361 -1.5911 -0.5983  0.2872
  881MPD2    H212924   3.451   3.863   0.009  0.2748  0.0034  1.7652
  881MPD2    H312925   3.535   3.880   0.233 -4.2083  1.4731  0.9747
  881MPD2     N12926   3.575   3.433   0.273  0.2010  0.7588 -0.3506
  881MPD2    H512927   3.635   3.459   0.350  2.0671 -0.9706 -1.2244
  881MPD2    N112928   3.376   3.644  17.559  0.0137 -0.0179 -0.4115
  881MPD2    H712929   3.376   3.731  17.507  1.4375  0.6156  0.6324
  882MPD2     C12930   1.838   1.371  14.004  0.9408 -0.0620  0.0539
  882MPD2    C112931   1.758   1.376  14.114  0.2173  0.0091  0.3792
  882MPD2    C212932   1.620   1.370  14.094  0.1424 -0.0355  0.2873
  882MPD2    C312933   1.565   1.362  13.965  0.2304  0.3696  0.0503
  882MPD2    C412934   1.646   1.370  13.857  0.3148 -0.0804  0.3665
  882MPD2    C512935   1.783   1.366  13.878  0.1156  0.7970  0.5136
  882MPD2     H12936   1.555   1.353  14.179  1.6487 -2.0447  1.0437
  882MPD2    H112937   1.611   1.358  13.755  0.2727 -1.2186  0.5206
  882MPD2    H212938   1.946   1.382  14.011  0.8936 -0.7193  1.7163
  882MPD2    H312939   1.850   1.372  13.793  2.0192  0.9625  2.0510
  882MPD2     N12940   1.431   1.323  13.956 -0.3721  0.4607 -0.2775
  882MPD2    H512941   1.374   1.360  14.033 -0.3465  2.3680 -1.1781
  882MPD2    N112942   1.824   1.372  14.236 -0.1287  0.3133 -0.3950
  882MPD2    H712943   1.925   1.373  14.237 -0.1319  0.2329  0.3017
  883MPD2     C12944   3.785   1.039  16.280 -0.6766  0.8229  0.5285
  883MPD2    C112945   3.820   1.132  16.186  0.1944  0.0118  0.5389
  883MPD2    C212946   3.944   1.198  16.193  0.3544 -0.0623 -0.2452
  883MPD2    C312947   4.032   1.172  16.298 -0.4779 -0.3526 -0.6028
  883MPD2    C412948   3.992   1.070  16.387  0.5042  0.3268 -0.0155
  883MPD2    C512949   3.873   1.004  16.375 -0.2086 -0.3948 -0.8425
  883MPD2     H12950   3.972   1.266  16.113 -1.0087  2.0193  1.0541
  883MPD2    H112951   4.055   1.043  16.472  1.3528  1.4984 -0.2607
  883MPD2    H212952   3.690   0.987  16.287  0.0734 -0.3607  1.8356
  883MPD2    H312953   3.851   0.921  16.440  0.0629 -0.9591 -1.4746
  883MPD2     N12954   4.161   1.221  16.293  0.3203  0.2073 -0.7477
  883MPD2    H512955   4.184   1.283  16.216 -1.6654 -0.0460 -1.5269
  883MPD2    N112956   3.734   1.169  16.080 -0.7750  0.3034 -0.2166
  883MPD2    H712957   3.748   1.262  16.041 -0.7276 -0.0809 -1.1058
  884MPD2     C12958   1.076   1.662  14.853 -0.2737  0.2136 -0.0526
  884MPD2    C112959   1.074   1.796  14.848 -0.0771 -0.6733 -0.1486
  884MPD2    C212960   0.975   1.870  14.924  0.1907 -0.0390 -0.8078
  884MPD2    C312961   0.877   1.805  14.989  0.2404 -0.4053  0.5341
  884MPD2    C412962   0.877   1.670  14.993  0.4141 -0.0090 -0.6530
  884MPD2    C512963   0.974   1.600  14.926 -1.4299  0.1753  0.0627
  884MPD2     H12964   0.979   1.978  14.922  0.2897 -0.0275  0.1510
  884MPD2    H112965   0.796   1.611  15.034 -0.9666  1.2007 -1.6284
  884MPD2    H212966   1.143   1.596  14.800 -0.7528 -0.7961  0.6122
  884MPD2    H312967   0.968   1.492  14.912 -1.3335  0.0370  1.1382
  884MPD2     N12968   0.786   1.883  15.059  0.3812 -0.1090  1.3783
  884MPD2    H512969   0.787   1.979  15.025 -0.4229  0.0753  1.8591
  884MPD2    N112970   1.172   1.873  14.781 -0.2477 -0.0690  0.3693
  884MPD2    H712971   1.149   1.970  14.761  0.5481  0.4156  1.8556
  885MPD2     C12972   3.743   1.361  17.641  0.0949  0.4409 -0.3916
  885MPD2    C112973   3.863   1.427  17.631  0.0105 -0.3706 -0.2530
  885MPD2    C212974   3.878   1.534  17.537 -0.2074  0.0543 -0.2316
  885MPD2    C312975   3.775   1.566  17.458 -0.6506  0.6340  0.0104
  885MPD2    C412976   3.651   1.499  17.463  0.2396 -0.0930 -0.0148
  885MPD2    C512977   3.644   1.393  17.552 -0.2433 -0.2785 -0.5156
  885MPD2     H12978   3.964   1.599  17.541  0.0115 -0.1337 -1.7417
  885MPD2    H112979   3.574   1.524  17.392  1.4560 -1.1622 -1.7037
  885MPD2    H212980   3.728   1.279   0.017  1.7872  1.9653  1.7738
  885MPD2    H312981   3.555   1.332  17.555 -0.4539  0.0799  0.4380
  885MPD2     N12982   3.785   1.682  17.367  0.2476 -0.1006 -0.4051
  885MPD2    H512983   3.877   1.722  17.350 -0.5732  2.1583  0.6038
  885MPD2    N112984   3.952   1.388   0.034 -0.1541  0.6629 -0.1001
  885MPD2    H712985   3.920   1.329   0.110 -1.5520  1.0128 -0.4262
  886MPD2     C12986   0.385   0.951  15.652 -1.1239  0.2112 -0.7194
  886MPD2    C112987   0.464   0.847  15.600 -0.3011  0.2242 -0.3241
  886MPD2    C212988   0.524   0.877  15.482  0.5623  0.6448  0.1209
  886MPD2    C312989   0.518   0.995  15.414 -0.1359 -0.4317  0.1071
  886MPD2    C412990   0.459   1.104  15.478 -0.4349  1.0237 -0.3796
  886MPD2    C512991   0.397   1.082  15.602  0.1710  0.0635 -0.2609
  886MPD2     H12992   0.556   0.786  15.433  2.8596  1.3332  0.3327
  886MPD2    H112993   0.470   1.209  15.453  1.4771  0.8156 -0.3636
  886MPD2    H212994   0.341   0.942  15.751 -0.5384 -2.4390 -0.6866
  886MPD2    H312995   0.355   1.169  15.651 -0.3962 -0.8035  0.7626
  886MPD2     N12996   0.550   1.006  15.276  0.0126 -0.0976 -0.0404
  886MPD2    H512997   0.529   1.096  15.235  0.9521  0.7205  1.2656
  886MPD2    N112998   0.481   0.721  15.655  0.2652 -0.0097  0.7256
  886MPD2    H712999   0.543   0.662  15.600 -1.1451 -1.8460  1.1039
  887MPD2     C13000   1.029   0.374  15.496 -0.1268 -0.1683 -0.7040
  887MPD2    C113001   0.907   0.430  15.488  0.3230 -0.2142 -0.2328
  887MPD2    C213002   0.904   0.555  15.427  0.0070 -0.0653 -0.1425
  887MPD2    C313003   1.016   0.620  15.385  0.3337  0.5834 -0.5089
  887MPD2    C413004   1.138   0.560  15.390 -0.0766 -0.5794 -0.0473
  887MPD2    C513005   1.133   0.434  15.438  0.9234  0.2047 -0.0647
  887MPD2     H13006   0.817   0.620  15.428  1.3889  1.8367 -2.1249
  887MPD2    H113007   1.231   0.592  15.343 -1.5410 -0.3655 -2.7975
  887MPD2    H213008   1.053   0.284  15.551 -0.1088  0.1651 -0.1644
  887MPD2    H313009   1.230   0.387  15.448 -0.1300 -1.6436  1.4725
  887MPD2     N13010   0.998   0.753  15.333  0.2490  0.3470  0.0202
  887MPD2    H513011   0.901   0.782  15.326  0.7441  1.8949 -0.4594
  887MPD2    N113012   0.799   0.374  15.558 -0.1287 -0.7244 -0.0366
  887MPD2    H713013   0.804   0.288  15.612  2.0693 -1.1439 -0.9349
  888MPD2     C13014   2.931   0.807  14.475  0.3072  0.1097 -0.0606
  888MPD2    C113015   2.939   0.842  14.611 -0.0373 -0.7565 -0.5487
  888MPD2    C213016   2.993   0.970  14.649 -0.0522 -0.2001  0.1482
  888MPD2    C313017   3.050   1.051  14.560 -0.1574 -0.0810 -0.9387
  888MPD2    C413018   3.040   1.016  14.423 -0.2104 -0.3774 -0.3139
  888MPD2    C513019   2.991   0.891  14.380  0.2477 -0.0783  0.1965
  888MPD2     H13020   2.997   0.998  14.753  3.8491 -2.1726  0.5225
  888MPD2    H113021   3.070   1.079  14.340  1.2888  0.4085  0.8177
  888MPD2    H213022   2.891   0.711  14.446  0.6649 -0.7419  2.2469
  888MPD2    H313023   2.981   0.871  14.274  1.1297 -1.0386  0.2999
  888MPD2     N13024   3.087   1.176  14.611 -0.0818 -0.3594 -0.3096
  888MPD2    H513025   3.089   1.190  14.711  2.1226  0.0617 -0.3995
  888MPD2    N113026   2.886   0.763  14.714 -0.6826 -0.0778 -0.1244
  888MPD2    H713027   2.903   0.779  14.813 -1.7286  0.4240 -0.0243
  889MPD2     C13028   2.388   0.072  12.877 -0.2526 -0.2343 -0.2249
  889MPD2    C113029   2.522   0.063  12.886  0.4562 -0.4375  0.0264
  889MPD2    C213030   2.584   0.173  12.930  0.2093  0.3029  0.0806
  889MPD2    C313031   2.517   0.295  12.932  0.0600  0.8744  0.5228
  889MPD2    C413032   2.386   0.299  12.916 -0.4874 -0.3072  0.1031
  889MPD2    C513033   2.317   0.188  12.892 -0.7916  0.8009  0.7196
  889MPD2     H13034   2.692   0.179  12.926 -0.0121  3.6289 -0.5108
  889MPD2    H113035   2.330   0.390  12.935  0.5785 -0.1748  2.5223
  889MPD2    H213036   2.322   4.709  12.869 -0.9729  0.5092 -2.1805
  889MPD2    H313037   2.212   0.188  12.866 -0.1740  1.4897 -1.7288
  889MPD2     N13038   2.601   0.409  12.959  0.2004  0.4802  0.2481
  889MPD2    H513039   2.698   0.400  12.985  0.9364  1.0277 -2.3898
  889MPD2    N113040   2.580   4.659  12.897  0.2080 -0.3982 -0.0377
  889MPD2    H713041   2.666   4.660  12.950  0.0916 -2.6041  0.2007
  890MPD2     C13042   1.914   1.783  14.417  0.4722 -0.3753 -0.6070
  890MPD2    C113043   2.048   1.789  14.444  0.4847  0.2703 -0.3044
  890MPD2    C213044   2.104   1.693  14.536 -0.1417  0.7228 -0.9440
  890MPD2    C313045   2.016   1.609  14.609 -0.1534 -0.3777  0.2019
  890MPD2    C413046   1.885   1.609  14.579  0.1335 -0.3948 -0.4252
  890MPD2    C513047   1.838   1.682  14.471 -0.1271  0.0385  0.0351
  890MPD2     H13048   2.210   1.687  14.556 -0.5471  2.0391  1.5765
  890MPD2    H113049   1.813   1.541  14.624  0.2860  0.7358  1.4906
  890MPD2    H213050   1.865   1.860  14.359  0.3824 -0.2659 -0.3854
  890MPD2    H313051   1.736   1.672  14.435 -0.0544  0.4891 -0.2859
  890MPD2     N13052   2.063   1.539  14.722 -0.1587  0.2809  0.8657
  890MPD2    H513053   2.164   1.550  14.729 -0.1617  2.2181 -2.0373
  890MPD2    N113054   2.126   1.903  14.403  0.0642 -0.1151 -0.3623
  890MPD2    H713055   2.074   1.969  14.347  2.2235  2.1058  0.2856
  891MPD2     C13056   4.577   0.451  16.734  0.3455  0.2033 -0.4438
  891MPD2    C113057   4.504   0.337  16.757 -0.1673 -0.0402 -0.4766
  891MPD2    C213058   4.533   0.252  16.862  0.1264 -0.3624  0.1180
  891MPD2    C313059   4.651   0.273  16.929  0.1441  0.4446 -0.1303
  891MPD2    C413060   4.714   0.394  16.911  0.1435 -0.2585 -0.7363
  891MPD2    C513061   4.681   0.485  16.816 -0.0661  0.0405  0.5508
  891MPD2     H13062   4.470   0.167  16.888 -0.7903 -0.2259 -1.7035
  891MPD2    H113063   0.083   0.427  16.958 -0.1247 -2.6861  1.4880
  891MPD2    H213064   4.555   0.519  16.653  2.2764 -0.2092 -1.3033
  891MPD2    H313065   0.013   0.577  16.798  0.7946 -0.3100  1.4328
  891MPD2     N13066   4.698   0.183  17.033 -1.0870  0.0095 -0.1349
  891MPD2    H513067   4.648   0.097  17.053 -2.8989  0.6990 -1.7377
  891MPD2    N113068   4.401   0.315  16.665 -0.0140 -1.3199 -0.0499
  891MPD2    H713069   4.390   0.389  16.596 -0.8463 -0.9291  0.5008
  892MPD2     C13070   0.977   1.304  14.667 -0.3235  0.8586  0.4293
  892MPD2    C113071   0.876   1.332  14.568  0.1896 -0.5060  0.2305
  892MPD2    C213072   0.908   1.318  14.437  0.5450 -0.9609  0.1990
  892MPD2    C313073   1.034   1.283  14.398  0.1805  0.2464  0.1402
  892MPD2    C413074   1.130   1.258  14.495  0.5319  0.1487  0.8104
  892MPD2    C513075   1.102   1.270  14.627  0.1976 -0.6126 -0.1022
  892MPD2     H13076   0.830   1.346  14.367 -0.3391 -0.1549  1.5050
  892MPD2    H113077   1.235   1.251  14.467 -0.1992 -2.0550 -1.3366
  892MPD2    H213078   0.965   1.327  14.772 -1.0553  0.8759  0.3454
  892MPD2    H313079   1.182   1.271  14.700  0.7294 -1.2309 -0.6851
  892MPD2     N13080   1.074   1.260  14.264 -0.0315  0.3052  0.2980
  892MPD2    H513081   1.168   1.229  14.241 -0.3825  0.6581 -1.6598
  892MPD2    N113082   0.756   1.396  14.601  0.3879  0.0707  1.3553
  892MPD2    H713083   0.703   1.436  14.524 -1.0077 -0.2398  2.1785
  893MPD2     C13084   4.269   4.369   1.496 -0.9202 -0.2931 -0.1009
  893MPD2    C113085   4.165   4.405   1.574  0.0226 -0.3438 -1.0423
  893MPD2    C213086   4.131   4.535   1.577  0.4924  0.5973 -0.3531
  893MPD2    C313087   4.216   4.635   1.524 -0.1139 -0.0444  0.8551
  893MPD2    C413088   4.323   4.602   1.447 -0.6428  0.2157 -0.0651
  893MPD2    C513089   4.345   4.469   1.432  0.3155  0.1027  0.9040
  893MPD2     H13090   4.038   4.562   1.626  0.0944  0.6885 -1.1553
  893MPD2    H113091   4.379   4.674   1.389 -0.5428 -0.7201 -1.1307
  893MPD2    H213092   4.305   4.268   1.484 -1.5347 -0.5827  0.5155
  893MPD2    H313093   4.423   4.427   1.369  0.5997 -0.2144  1.4682
  893MPD2     N13094   4.202   0.048   1.555 -0.5731  0.1242 -0.0443
  893MPD2    H513095   4.266   0.107   1.503 -1.8668  1.9631  0.4379
  893MPD2    N113096   4.097   4.309   1.648  0.2677  0.4930 -0.4140
  893MPD2    H713097   4.128   4.213   1.657 -2.1680 -0.2948 -0.3389
  894MPD2     C13098   0.972   1.583   1.317  0.3025 -0.1713  0.7113
  894MPD2    C113099   1.032   1.690   1.250 -0.3320  0.0828  0.3163
  894MPD2    C213100   0.961   1.754   1.142 -0.2645  0.0184 -0.4043
  894MPD2    C313101   0.832   1.718   1.104  0.4416  0.1772 -0.2875
  894MPD2    C413102   0.778   1.607   1.168  0.2033  0.0627  0.5909
  894MPD2    C513103   0.845   1.547   1.272 -0.2617 -0.2638  0.1159
  894MPD2     H13104   1.004   1.842   1.096 -0.1997  1.5722  2.6617
  894MPD2    H113105   0.672   1.593   1.150 -0.2515  4.5044 -0.2951
  894MPD2    H213106   1.007   1.544   1.412 -1.4250 -0.1667  1.3539
  894MPD2    H313107   0.801   1.474   1.340 -1.4723  0.4329  0.0877
  894MPD2     N13108   0.778   1.790   0.994  0.2111  0.0332 -0.0296
  894MPD2    H513109   0.830   1.872   0.965  1.3473 -0.3884  0.8504
  894MPD2    N113110   1.162   1.743   1.285 -0.3942 -1.1757  0.2723
  894MPD2    H713111   1.204   1.803   1.215  2.1411 -4.5844 -1.1313
  895MPD2     C13112   4.676   1.011  13.829  0.3574 -0.8297  0.0099
  895MPD2    C113113   4.676   1.108  13.730 -0.2781 -0.0623 -0.1089
  895MPD2    C213114   0.057   1.113  13.637 -0.0437 -0.9813 -0.5448
  895MPD2    C313115   0.155   1.019  13.631  0.5815 -0.4598  0.1024
  895MPD2    C413116   0.156   0.921  13.733 -0.0586  0.2481 -0.1589
  895MPD2    C513117   0.056   0.917  13.829  0.2328  0.1879  0.2555
  895MPD2     H13118   0.035   1.183  13.557  1.3904  0.8263  0.6437
  895MPD2    H113119   0.231   0.845  13.748  0.8148  1.3977  1.2594
  895MPD2    H213120   4.604   1.014  13.909 -0.1026 -1.4413 -0.3804
  895MPD2    H313121   0.077   0.856  13.916 -0.8528 -0.9184 -0.2500
  895MPD2     N13122   0.253   1.021  13.525  0.1146  0.4953 -0.5158
  895MPD2    H513123   0.311   0.939  13.510 -2.2235 -1.3367  0.5459
  895MPD2    N113124   4.573   1.199  13.722  0.2934  0.6102  0.0452
  895MPD2    H713125   4.594   1.270  13.652  4.0796 -0.4591  0.0944
  896MPD2     C13126   2.302   2.950   1.686 -0.0914  0.1398  0.5485
  896MPD2    C113127   2.301   2.833   1.611 -0.3498  0.1171 -0.6906
  896MPD2    C213128   2.214   2.810   1.505 -0.2230 -0.1485  0.0049
  896MPD2    C313129   2.123   2.907   1.465 -0.0790  0.0888  0.7213
  896MPD2    C413130   2.124   3.022   1.546 -0.4756  0.0238 -0.0917
  896MPD2    C513131   2.209   3.040   1.654 -0.0174  0.2703  0.2212
  896MPD2     H13132   2.212   2.721   1.442 -2.0216 -0.0741 -0.0504
  896MPD2    H113133   2.049   3.098   1.532 -1.3495 -0.5819  1.3562
  896MPD2    H213134   2.352   2.971   1.780 -1.4329 -2.8605  1.9327
  896MPD2    H313135   2.194   3.127   1.718  2.1541  0.6616  0.1947
  896MPD2     N13136   2.046   2.888   1.358 -0.7840 -0.4466  0.5421
  896MPD2    H513137   2.046   2.798   1.310  0.2284  0.0611 -0.4241
  896MPD2    N113138   2.402   2.740   1.639  0.4908 -0.6464  0.1252
  896MPD2    H713139   2.477   2.764   1.703 -0.7268  1.2498  0.8349
  897MPD2     C13140   3.534   4.649  10.459  0.5910  0.0811 -0.1992
  897MPD2    C113141   3.595   0.011  10.545  0.4532 -0.0058  0.4349
  897MPD2    C213142   3.578   0.147  10.535 -0.5776 -0.7085 -0.1520
  897MPD2    C313143   3.490   0.189  10.438  0.2238 -0.2993  0.0495
  897MPD2    C413144   3.434   0.102  10.347 -0.4998 -1.0078 -0.7527
  897MPD2    C513145   3.454   4.691  10.360  0.6251  0.0692  0.3055
  897MPD2     H13146   3.629   0.213  10.604 -3.1815  0.1436  0.9683
  897MPD2    H113147   3.369   0.144  10.271 -0.6823  0.4449  0.1913
  897MPD2    H213148   3.563   4.545  10.462  1.8540  0.4220 -0.6579
  897MPD2    H313149   3.401   4.617  10.302 -0.6743  1.9725 -0.9474
  897MPD2     N13150   3.469   0.330  10.437  0.4233 -0.1123  0.0885
  897MPD2    H513151   3.528   0.386  10.497  0.4020 -0.9645  0.9001
  897MPD2    N113152   3.678   4.675  10.633  0.5538  0.2660 -0.3408
  897MPD2    H713153   3.701   4.577  10.617  1.3226  0.4139 -0.1277
  898MPD2     C13154   0.766   0.386  17.684 -0.7126 -0.2235  0.3083
  898MPD2    C113155   0.863   0.437  17.606  0.9726  0.4390 -0.1719
  898MPD2    C213156   0.826   0.527  17.510 -0.8402 -0.7497 -0.1389
  898MPD2    C313157   0.694   0.568  17.495 -0.3680  0.2167  0.4526
  898MPD2    C413158   0.596   0.518  17.574 -0.2380 -0.5390 -0.3008
  898MPD2    C513159   0.634   0.430  17.668  0.0952 -0.1549 -0.7020
  898MPD2     H13160   0.901   0.577  17.450 -2.3890  2.3432  0.4920
  898MPD2    H113161   0.493   0.551  17.574 -0.3615 -0.9208  0.6036
  898MPD2    H213162   0.783   0.310   0.067 -0.1792 -0.1574  0.2536
  898MPD2    H313163   0.561   0.393   0.047 -1.5811  1.8256 -1.3767
  898MPD2     N13164   0.665   0.652  17.393 -0.8466 -0.4728  0.6372
  898MPD2    H513165   0.732   0.666  17.318 -0.9474 -0.0493  0.6258
  898MPD2    N113166   0.997   0.387  17.607 -0.0036 -0.4331 -0.1976
  898MPD2    H713167   1.070   0.437  17.557 -1.1010  0.2202 -1.1610
  899MPD2     C13168   1.590   1.249  17.170  0.6456  0.0587  0.2213
  899MPD2    C113169   1.564   1.355  17.248  0.3007 -0.3215  0.2682
  899MPD2    C213170   1.506   1.333  17.373  0.3843  0.1369 -0.4803
  899MPD2    C313171   1.459   1.209  17.413 -0.2248 -0.8322 -0.5833
  899MPD2    C413172   1.475   1.109  17.326  0.4894 -0.5872 -0.1928
  899MPD2    C513173   1.543   1.125  17.204  0.5000  0.6709 -0.3132
  899MPD2     H13174   1.488   1.421  17.434  2.1255  1.8957 -2.4789
  899MPD2    H113175   1.445   1.009  17.354  0.5412 -0.2707  1.0062
  899MPD2    H213176   1.652   1.258  17.082 -0.6941 -1.8560 -0.9293
  899MPD2    H313177   1.573   1.038  17.147  3.0128  1.2412  0.1243
  899MPD2     N13178   1.379   1.189  17.525 -0.1225  0.1457  0.2915
  899MPD2    H513179   1.341   1.095  17.530  0.2577 -0.0319 -0.0822
  899MPD2    N113180   1.593   1.481  17.198 -0.4647  0.8987  0.0564
  899MPD2    H713181   1.626   1.475  17.102  1.2396  2.5602  0.5361
  900MPD2     C13182   1.172   3.342  12.315  1.0719 -0.5322  0.2841
  900MPD2    C113183   1.122   3.230  12.245  0.0857 -0.6110  0.8032
  900MPD2    C213184   1.021   3.240  12.157 -0.1321 -0.1617 -0.1004
  900MPD2    C313185   0.969   3.367  12.147  0.4446  0.3794 -0.1135
  900MPD2    C413186   1.008   3.476  12.223 -0.6213 -0.5623  0.2428
  900MPD2    C513187   1.108   3.462  12.320  0.2739  0.3039  0.2989
  900MPD2     H13188   0.987   3.154  12.100  0.5713 -0.3864 -0.1836
  900MPD2    H113189   0.973   3.575  12.195 -0.9244 -1.1539 -1.4760
  900MPD2    H213190   1.242   3.327  12.396  0.1983 -0.9653  0.9589
  900MPD2    H313191   1.139   3.540  12.390  1.0348 -0.0919  0.4041
  900MPD2     N13192   0.866   3.378  12.055  0.1248  0.6019 -0.5778
  900MPD2    H513193   0.851   3.294  12.000  2.1511  0.3283 -0.6867
  900MPD2    N113194   1.179   3.112  12.287 -0.1465  0.5762  0.1161
  900MPD2    H713195   1.267   3.115  12.337  0.5567  0.7682 -1.1353
  901MPD2     C13196   1.249   2.110  12.695 -0.5741  0.0902  0.0785
  901MPD2    C113197   1.301   2.114  12.565  0.2480  0.1664 -0.7799
  901MPD2    C213198   1.302   2.228  12.489 -0.5781  1.1191  0.6453
  901MPD2    C313199   1.221   2.333  12.520  0.4465 -0.5076 -0.5985
  901MPD2    C413200   1.157   2.331  12.644 -0.4458 -0.5408 -0.4185
  901MPD2    C513201   1.165   2.219  12.726 -0.7439 -0.3176  0.3940
  901MPD2     H13202   1.359   2.235  12.397 -0.6846  2.1218  0.6526
  901MPD2    H113203   1.104   2.419  12.681 -0.4403 -0.8604  0.3481
  901MPD2    H213204   1.273   2.030  12.765 -2.2272  0.2867  0.8720
  901MPD2    H313205   1.111   2.223  12.820 -0.0787  0.4252  0.7531
  901MPD2     N13206   1.230   2.450  12.442  0.4435  0.3137 -0.4138
  901MPD2    H513207   1.306   2.447  12.374  0.6413 -2.5789 -0.0539
  901MPD2    N113208   1.374   1.998  12.520 -0.3076  0.2994 -0.2039
  901MPD2    H713209   1.403   1.935  12.593 -1.1893 -0.0876 -0.1891
  902MPD2     C13210   0.343   1.587  12.793  0.8843 -0.0480 -0.7417
  902MPD2    C113211   0.287   1.564  12.669  0.1187  0.5976 -0.0300
  902MPD2    C213212   0.210   1.452  12.650  0.5248 -0.1621 -0.1805
  902MPD2    C313213   0.191   1.365  12.756 -0.2096 -0.0069 -0.0203
  902MPD2    C413214   0.256   1.381  12.881 -0.1479  0.1090  0.2688
  902MPD2    C513215   0.329   1.499  12.893 -0.2840 -0.3897  0.5352
  902MPD2     H13216   0.160   1.435  12.555 -0.7011  0.6724  0.3072
  902MPD2    H113217   0.239   1.324  12.971  0.8126 -0.2933  0.1944
  902MPD2    H213218   0.408   1.672  12.810  1.1893 -0.8540  2.0717
  902MPD2    H313219   0.372   1.515  12.991 -1.1636 -0.2820  0.9118
  902MPD2     N13220   0.104   1.259  12.732  0.2826 -0.5084  0.5073
  902MPD2    H513221   0.065   1.254  12.639  2.9657 -0.5768 -0.6127
  902MPD2    N113222   0.310   1.658  12.565  0.0016  0.1804 -0.0715
  902MPD2    H713223   0.312   1.755  12.593  0.9923  0.8359 -2.4523
  903MPD2     C13224   0.184   0.913  12.076 -0.2022 -0.6455  0.1549
  903MPD2    C113225   0.087   0.984  12.148  0.1171 -0.1682 -0.0268
  903MPD2    C213226   0.007   1.075  12.080 -0.2989  0.2388 -0.6418
  903MPD2    C313227   0.027   1.104  11.948  0.4676  0.5141  0.5301
  903MPD2    C413228   0.128   1.035  11.886 -0.4975  0.3811  0.1895
  903MPD2    C513229   0.200   0.936  11.944 -0.6619 -1.2299  0.5658
  903MPD2     H13230   4.651   1.130  12.130 -0.3092  1.1545 -1.6472
  903MPD2    H113231   0.159   1.061  11.785  0.2256 -2.0725 -0.2270
  903MPD2    H213232   0.242   0.834  12.123  0.0547 -0.5875 -0.0683
  903MPD2    H313233   0.285   0.895  11.891 -0.6395 -1.3944  0.7295
  903MPD2     N13234   4.674   1.204  11.887 -0.7035 -0.7115  0.9208
  903MPD2    H513235   4.613   1.251  11.954  0.9546  0.4094  1.6445
  903MPD2    N113236   0.080   0.968  12.292  0.1313 -0.0688 -0.4100
  903MPD2    H713237   0.149   0.904  12.330 -1.3162 -0.6485  1.2210
  904MPD2     C13238   4.548   0.497  13.700 -0.0584 -0.4332 -0.2742
  904MPD2    C113239   4.529   0.384  13.775 -0.1906  0.6244 -0.3846
  904MPD2    C213240   4.629   0.350  13.863  0.4791 -0.0251  0.2900
  904MPD2    C313241   0.024   0.414  13.869 -0.4017  0.0564  0.3635
  904MPD2    C413242   0.045   0.527  13.795  1.4703 -0.3384 -0.5021
  904MPD2    C513243   4.666   0.571  13.716  0.6758 -0.0135 -0.0400
  904MPD2     H13244   4.619   0.264  13.928  1.1764 -1.0276 -0.9560
  904MPD2    H113245   0.147   0.564  13.801  2.3578 -3.1624  2.0569
  904MPD2    H213246   4.478   0.524  13.622 -0.5642  0.9878  0.6767
  904MPD2    H313247   4.688   0.653  13.648  2.1192 -0.7149 -0.4287
  904MPD2     N13248   0.123   0.357  13.954  0.1426 -0.3629 -0.0494
  904MPD2    H513249   0.105   0.264  13.991 -1.1094  0.5840  1.7685
  904MPD2    N113250   4.412   0.306  13.763  0.3284  0.5020 -0.1455
  904MPD2    H713251   4.414   0.217  13.813 -0.7818  0.1642 -0.7013
  905MPD2     C13252   4.240   1.013  13.263  0.3451  0.2706  0.6031
  905MPD2    C113253   4.304   0.897  13.299  0.3504  0.3896 -0.1601
  905MPD2    C213254   4.441   0.883  13.265 -0.0571  0.2864 -0.0953
  905MPD2    C313255   4.502   0.973  13.184  0.0973 -0.2904 -0.3063
  905MPD2    C413256   4.430   1.087  13.144 -0.1300 -1.0141 -0.8744
  905MPD2    C513257   4.298   1.108  13.185 -0.5285  0.2215  0.5064
  905MPD2     H13258   4.490   0.791  13.296 -0.4362  0.2467  0.3908
  905MPD2    H113259   4.481   1.164  13.088 -0.1870 -0.9326 -0.8137
  905MPD2    H213260   4.136   1.039  13.281  0.4100  1.1038 -0.2786
  905MPD2    H313261   4.248   1.201  13.160  0.6258  0.0128 -2.4937
  905MPD2     N13262   4.643   0.973  13.167  0.1481 -0.2276  0.3863
  905MPD2    H513263   4.690   1.050  13.119  3.1728 -2.4737 -0.2230
  905MPD2    N113264   4.238   0.811  13.388  0.2796 -0.1797  0.4007
  905MPD2    H713265   4.151   0.845  13.429  1.2080  0.9706  1.4215
  906MPD2     C13266   2.339   4.649  11.364  0.3184 -0.1299  0.2996
  906MPD2    C113267   2.310   4.585  11.240 -0.6596  0.0926 -0.0107
  906MPD2    C213268   2.244   4.461  11.228 -0.5943 -0.3870 -0.7091
  906MPD2    C313269   2.225   4.403  11.356 -0.0225 -0.9905  0.5815
  906MPD2    C413270   2.259   4.462  11.480 -0.3315 -0.1709 -0.5326
  906MPD2    C513271   2.309   4.587  11.483  1.1623 -0.1730  0.5584
  906MPD2     H13272   2.225   4.420  11.130 -1.7907 -0.4227 -0.4583
  906MPD2    H113273   2.242   4.409  11.573  2.1393  0.5950  0.3319
  906MPD2    H213274   2.380   0.027  11.375 -0.2436  0.0488  0.8164
  906MPD2    H313275   2.330   4.632  11.580  0.7758 -0.3155  0.7100
  906MPD2     N13276   2.161   4.276  11.363  0.1028 -0.0564  0.1454
  906MPD2    H513277   2.121   4.248  11.452 -1.2726  0.6936 -0.2533
  906MPD2    N113278   2.348   4.641  11.116 -0.2315  1.1732  0.1803
  906MPD2    H713279   2.343   4.589  11.029  1.0970 -2.0037  1.9774
  907MPD2     C13280   0.965   4.134  15.479 -0.0038 -0.1361 -0.3329
  907MPD2    C113281   1.026   4.020  15.423 -0.0243 -0.0137  0.5730
  907MPD2    C213282   1.094   3.932  15.502  0.1907  0.0784  0.0568
  907MPD2    C313283   1.103   3.955  15.635 -0.4814 -0.7657  0.2933
  907MPD2    C413284   1.043   4.067  15.691 -0.3362 -0.2836 -0.1697
  907MPD2    C513285   0.973   4.156  15.612  0.3182 -0.2841  0.0843
  907MPD2     H13286   1.144   3.845  15.462  2.1952  0.6821  1.2849
  907MPD2    H113287   1.037   4.084  15.798 -1.4339  1.1024 -0.4503
  907MPD2    H213288   0.905   4.200  15.418  0.0633  0.5205  0.3143
  907MPD2    H313289   0.936   4.246  15.659 -0.9225  0.1726 -1.7661
  907MPD2     N13290   1.183   3.857  15.702  0.3073  0.7039 -0.1967
  907MPD2    H513291   1.211   3.780  15.642  0.1630 -0.2056  0.9092
  907MPD2    N113292   1.022   3.982  15.283  0.4723  0.4916  0.4108
  907MPD2    H713293   1.064   3.892  15.263  2.5544  1.3451  0.8952
  908MPD2     C13294   4.058   3.865  10.532  0.4338 -0.1752  0.0981
  908MPD2    C113295   4.077   3.984  10.460 -0.0383  0.1286  0.3124
  908MPD2    C213296   4.074   4.110  10.523 -0.2331  0.1156 -0.0902
  908MPD2    C313297   4.053   4.125  10.657  0.0615  0.8725  0.1814
  908MPD2    C413298   4.028   4.010  10.727 -0.4081  0.2009 -0.5406
  908MPD2    C513299   4.038   3.882  10.671  0.1388  0.1452 -0.4845
  908MPD2     H13300   4.090   4.194  10.456  0.2582  0.3879  0.3668
  908MPD2    H113301   4.006   4.018  10.833  0.4610  1.8985 -0.4947
  908MPD2    H213302   4.074   3.768  10.487 -0.7439 -0.4180  0.2178
  908MPD2    H313303   4.015   3.796  10.732 -0.9048  0.3749 -0.5487
  908MPD2     N13304   4.047   4.253  10.721 -0.2741 -0.1992  0.1572
  908MPD2    H513305   4.023   4.260  10.820 -1.9255  1.6702 -0.3765
  908MPD2    N113306   4.118   3.963  10.326  0.0221 -0.2420  0.2483
  908MPD2    H713307   4.115   3.865  10.302 -1.5697  0.3116 -1.8649
  909MPD2     C13308   4.173   2.397  11.395 -0.7030  1.1714  0.9215
  909MPD2    C113309   4.147   2.518  11.337  0.3707  0.2154 -0.1879
  909MPD2    C213310   4.064   2.608  11.407 -0.1999 -0.4699  0.2046
  909MPD2    C313311   4.003   2.572  11.521  0.0962 -0.5927  0.0437
  909MPD2    C413312   4.024   2.447  11.573  0.8065 -0.5150  0.0161
  909MPD2    C513313   4.104   2.361  11.504 -0.1440  0.4090  0.6517
  909MPD2     H13314   4.049   2.709  11.371  0.6641 -0.3505  0.1798
  909MPD2    H113315   3.978   2.403  11.661 -1.0751 -0.1043 -0.7746
  909MPD2    H213316   4.233   2.317  11.350  1.5000  0.3333  5.3251
  909MPD2    H313317   4.122   2.259  11.536  2.4955  0.3407 -1.0782
  909MPD2     N13318   3.928   2.669  11.592  0.1501  0.5896 -0.3668
  909MPD2    H513319   3.926   2.764  11.556 -0.5456  0.6339 -0.2092
  909MPD2    N113320   4.201   2.557  11.218 -0.3844 -0.1715 -0.7210
  909MPD2    H713321   4.206   2.656  11.196  1.6193  0.3835  2.1287
  910MPD2     C13322   0.034   4.454  15.809  0.3617 -0.1163  0.2179
  910MPD2    C113323   0.149   4.459  15.729 -0.1507 -0.0165 -0.6089
  910MPD2    C213324   0.140   4.484  15.591 -0.3580  0.0165  1.1175
  910MPD2    C313325   0.017   4.504  15.534 -0.7648 -0.3396  0.2645
  910MPD2    C413326   4.626   4.494  15.615  0.6107 -0.0421  0.1841
  910MPD2    C513327   4.637   4.471  15.748  0.0471  0.4192  0.1103
  910MPD2     H13328   0.234   4.499  15.539  0.5708 -1.1218  2.4750
  910MPD2    H113329   4.528   4.497  15.570  0.9771  0.7743 -0.5670
  910MPD2    H213330   0.029   4.429  15.914 -1.4352 -0.3739  0.0822
  910MPD2    H313331   4.549   4.465  15.812  0.8503  1.2849  1.3098
  910MPD2     N13332   0.002   4.540  15.398  0.4613  0.2519  0.0028
  910MPD2    H513333   4.630   4.561  15.369  0.3462 -1.1046 -0.5684
  910MPD2    N113334   0.275   4.440  15.788 -0.1943 -0.4774  0.2370
  910MPD2    H713335   0.356   4.453  15.730 -0.8676  0.9169 -0.3928
  911MPD2     C13336   2.986   0.051  15.810 -0.0188 -0.3121  0.5487
  911MPD2    C113337   2.963   0.090  15.938  0.1065 -0.1099 -0.0061
  911MPD2    C213338   2.865   0.188  15.966 -0.8016  0.1070 -0.4016
  911MPD2    C313339   2.787   0.242  15.865  0.0160  0.1341 -0.1391
  911MPD2    C413340   2.811   0.197  15.735  0.2207  0.4140 -0.7961
  911MPD2    C513341   2.904   0.103  15.711 -0.4214 -0.1026  0.0672
  911MPD2     H13342   2.846   0.217  16.068  2.7576  0.1826  0.2265
  911MPD2    H113343   2.760   0.241  15.649  3.1495  1.6582 -1.9121
  911MPD2    H213344   3.062   4.701  15.787  0.3311  0.2057  0.0714
  911MPD2    H313345   2.932   0.075  15.610  0.7437 -0.9396  0.6179
  911MPD2     N13346   2.684   0.341  15.882 -0.4933 -0.3072  0.6492
  911MPD2    H513347   2.617   0.358  15.809  0.2912  0.7470  0.1722
  911MPD2    N113348   3.056   0.036  16.033  0.3527  0.0840  0.2072
  911MPD2    H713349   3.121   4.699  15.983  0.0862  0.2040 -0.2847
  912MPD2     C13350   2.590   0.370  15.422 -0.6532 -0.2535 -0.0476
  912MPD2    C113351   2.518   0.357  15.543  0.3273  0.4619 -0.0548
  912MPD2    C213352   2.489   0.229  15.596 -0.7956  0.0500  0.4286
  912MPD2    C313353   2.549   0.115  15.538 -0.5860  0.0884  0.1541
  912MPD2    C413354   2.627   0.130  15.423 -1.0234 -0.3167 -0.5341
  912MPD2    C513355   2.646   0.259  15.366  0.2270 -0.1894 -0.1648
  912MPD2     H13356   2.435   0.211  15.688 -1.2022  0.3309  0.2418
  912MPD2    H113357   2.680   0.046  15.379  1.4936  1.1655 -0.3148
  912MPD2    H213358   2.591   0.463  15.366 -0.1890  0.0095  0.3984
  912MPD2    H313359   2.707   0.269  15.277  1.2461 -0.9588  0.4484
  912MPD2     N13360   2.522   4.718  15.609  0.0824 -0.3573 -0.2398
  912MPD2    H513361   2.458   4.709  15.687  0.2832  2.7911  0.2833
  912MPD2    N113362   2.457   0.472  15.600 -0.1633 -0.5390  0.0858
  912MPD2    H713363   2.487   0.560  15.560 -0.4650  0.0346  1.1082
  913MPD2     C13364   3.804   1.329  10.457  0.3694  0.2064 -0.6630
  913MPD2    C113365   3.744   1.452  10.488 -1.0306 -1.0357 -0.2155
  913MPD2    C213366   3.708   1.536  10.385 -0.1043  0.4395 -0.1165
  913MPD2    C313367   3.703   1.493  10.257 -1.1770  0.1542 -0.0079
  913MPD2    C413368   3.745   1.357  10.229  0.5496  0.2594  0.4707
  913MPD2    C513369   3.800   1.285  10.331 -0.1169  0.1089  0.6740
  913MPD2     H13370   3.677   1.639  10.405 -0.1029  0.2587  0.8215
  913MPD2    H113371   3.746   1.325  10.125 -0.7418  1.6042  0.0542
  913MPD2    H213372   3.847   1.265  10.533  2.7700 -0.5212 -2.6337
  913MPD2    H313373   3.825   1.181  10.311  1.8161  0.9190 -1.0789
  913MPD2     N13374   3.660   1.565  10.148  0.4196 -0.0322 -0.0518
  913MPD2    H513375   3.649   1.511  10.063  0.4226  1.6995 -1.1688
  913MPD2    N113376   3.740   1.474  10.626 -0.3055 -0.0283 -0.1654
  913MPD2    H713377   3.793   1.408  10.683 -0.6141 -0.5130 -0.4386
  914MPD2     C13378   1.043   2.098  11.801  0.3831 -0.2215  0.6115
  914MPD2    C113379   1.126   2.162  11.885 -0.5363  0.3118 -0.1104
  914MPD2    C213380   1.212   2.082  11.956 -0.4724  0.1903  0.5398
  914MPD2    C313381   1.211   1.943  11.955 -0.5916 -0.7270 -0.7168
  914MPD2    C413382   1.110   1.879  11.883 -0.1167 -0.2856  0.0362
  914MPD2    C513383   1.040   1.964  11.804  0.7241 -0.1742  0.2187
  914MPD2     H13384   1.285   2.128  12.021  0.4244  0.4736 -0.6706
  914MPD2    H113385   1.104   1.771  11.877 -0.6402 -0.1212 -2.0687
  914MPD2    H213386   0.982   2.151  11.729 -0.7170 -1.5193  0.5872
  914MPD2    H313387   0.963   1.922  11.740 -0.3966 -0.8447  2.0179
  914MPD2     N13388   1.301   1.873  12.041 -0.1026 -0.3230 -0.4543
  914MPD2    H513389   1.344   1.927  12.115 -2.3091  2.4054 -1.1320
  914MPD2    N113390   1.133   2.301  11.886  0.1427 -0.2570  0.0095
  914MPD2    H713391   1.061   2.354  11.837  0.6794  2.0303  1.6787
  915MPD2     C13392   4.121   1.732  15.294  1.1232 -0.0739 -0.2743
  915MPD2    C113393   4.030   1.824  15.248 -0.1604 -0.2462  0.3264
  915MPD2    C213394   3.936   1.873  15.339 -0.4220  0.3758 -0.2310
  915MPD2    C313395   3.935   1.832  15.474  0.0904  0.4450 -0.0650
  915MPD2    C413396   4.028   1.736  15.521  0.5059  0.0912 -0.0539
  915MPD2    C513397   4.117   1.693  15.426  0.2437  0.8299 -0.1334
  915MPD2     H13398   3.862   1.946  15.308 -1.3364 -0.2122  0.5643
  915MPD2    H113399   4.049   1.695  15.619  2.9735  0.2220 -0.5187
  915MPD2    H213400   4.195   1.688  15.228  0.7532  0.1404 -0.8350
  915MPD2    H313401   4.179   1.612  15.463  0.1043  1.7798  2.1927
  915MPD2     N13402   3.845   1.891  15.565 -0.1751 -0.3284 -0.3512
  915MPD2    H513403   3.786   1.966  15.532 -0.7039 -0.4575  0.3124
  915MPD2    N113404   4.028   1.869  15.112  0.4748 -0.3421  0.8644
  915MPD2    H713405   4.106   1.833  15.058  2.0195  1.7143  1.7134
  916MPD2     C13406   2.169   0.045  15.662 -0.0554 -0.1180 -0.4621
  916MPD2    C113407   2.130   4.663  15.744 -0.5183 -0.0606 -0.4890
  916MPD2    C213408   2.128   4.539  15.691 -0.7086  0.7256 -0.2307
  916MPD2    C313409   2.178   4.516  15.564  0.2182  0.5992 -0.1465
  916MPD2    C413410   2.210   4.617  15.490  0.2980 -0.1724 -0.3368
  916MPD2    C513411   2.206   0.022  15.532  0.1717 -0.0508 -0.0572
  916MPD2     H13412   2.088   4.455  15.747  1.6059  0.0688  0.4394
  916MPD2    H113413   2.253   4.608  15.391  0.8556  2.6257 -0.3425
  916MPD2    H213414   2.171   0.151  15.683  0.3953 -0.2272  0.0531
  916MPD2    H313415   2.244   0.105  15.473  1.9065 -0.1201  0.9774
  916MPD2     N13416   2.174   4.378  15.528  0.0114  0.1331  0.0987
  916MPD2    H513417   2.139   4.311  15.596  2.5844  0.1060  1.3769
  916MPD2    N113418   2.096   4.702  15.879 -0.3962  1.0037 -0.6448
  916MPD2    H713419   2.116   0.075  15.908 -1.6983  0.4312  2.1714
  917MPD2     C13420   2.724   2.253  10.772 -0.2355  0.2607  0.3732
  917MPD2    C113421   2.773   2.286  10.893 -0.6913  0.1657  0.2893
  917MPD2    C213422   2.885   2.374  10.890 -0.0562  0.4314 -0.4151
  917MPD2    C313423   2.939   2.419  10.773  0.0673  0.1986 -0.6485
  917MPD2    C413424   2.885   2.386  10.653  0.1779  0.2832  0.6129
  917MPD2    C513425   2.785   2.301  10.656  0.2707  0.6663 -0.1271
  917MPD2     H13426   2.932   2.400  10.984 -0.4316  1.6400 -0.5609
  917MPD2    H113427   2.910   2.428  10.556 -0.7334  2.4283  1.3104
  917MPD2    H213428   2.638   2.187  10.768  2.8337 -3.5518 -1.3928
  917MPD2    H313429   2.742   2.276  10.559  2.4684 -1.5021 -0.5496
  917MPD2     N13430   3.050   2.502  10.773 -0.1716 -0.3104  0.0238
  917MPD2    H513431   3.065   2.562  10.693 -0.0636 -1.0420 -0.5057
  917MPD2    N113432   2.701   2.252  11.016 -0.3860 -0.4438 -0.1341
  917MPD2    H713433   2.620   2.191  11.008 -0.4427 -0.4594  0.5895
  918MPD2     C13434   2.724   2.791  11.848  0.4866  0.1627 -0.2182
  918MPD2    C113435   2.827   2.692  11.831  1.1223 -0.3335 -0.0184
  918MPD2    C213436   2.806   2.583  11.742 -0.1272 -0.0251  0.2134
  918MPD2    C313437   2.694   2.575  11.664 -0.0124 -0.2514 -0.2260
  918MPD2    C413438   2.604   2.681  11.670 -0.5147 -0.1004  0.1641
  918MPD2    C513439   2.624   2.783  11.762  0.2764  0.9069 -0.3529
  918MPD2     H13440   2.878   2.502  11.740 -0.0838  0.0241 -0.1536
  918MPD2    H113441   2.512   2.680  11.612  0.6385  0.8596 -1.6546
  918MPD2    H213442   2.732   2.865  11.927  1.1786 -0.8276  0.6382
  918MPD2    H313443   2.539   2.848  11.781  1.9125  3.1070 -0.5707
  918MPD2     N13444   2.682   2.462  11.583  0.4597  0.5894 -0.1336
  918MPD2    H513445   2.760   2.397  11.588 -1.0017 -0.8864  2.8363
  918MPD2    N113446   2.951   2.691  11.901  0.8361  0.2085 -0.2877
  918MPD2    H713447   3.014   2.614  11.881  0.2087 -0.3300 -0.2011
  919MPD2     C13448   3.085   1.658  11.285 -0.7346  0.4365 -0.3528
  919MPD2    C113449   3.105   1.523  11.284  0.3959  0.7139 -0.0732
  919MPD2    C213450   3.168   1.456  11.178 -0.0648  0.3282  0.4746
  919MPD2    C313451   3.204   1.533  11.066 -0.6970  0.2377 -0.4132
  919MPD2    C413452   3.197   1.673  11.071 -0.0610 -0.3198 -0.7078
  919MPD2    C513453   3.140   1.730  11.178 -0.4131  0.1258  0.2454
  919MPD2     H13454   3.168   1.349  11.164  0.5950  0.0038  2.9180
  919MPD2    H113455   3.243   1.736  10.996  2.4905  0.1610  1.2612
  919MPD2    H213456   3.043   1.712  11.369 -0.0345  0.8734 -0.2839
  919MPD2    H313457   3.142   1.838  11.189  0.1754  0.4849 -3.4585
  919MPD2     N13458   3.253   1.484  10.940  0.6701 -0.0947  0.0933
  919MPD2    H513459   3.270   1.554  10.868 -0.6517  2.9471  2.7216
  919MPD2    N113460   3.047   1.434  11.385 -0.2121 -0.2864 -0.0469
  919MPD2    H713461   3.042   1.338  11.351 -1.1635 -0.3953  0.3908
  920MPD2     C13462   3.256   1.899  10.170  0.2485  0.8355  0.5953
  920MPD2    C113463   3.223   1.768  10.140 -0.1688  0.2021  0.6439
  920MPD2    C213464   3.255   1.670  10.225 -0.2370  0.0109 -0.3568
  920MPD2    C313465   3.322   1.697  10.342  0.0577 -0.0912 -0.5942
  920MPD2    C413466   3.347   1.823  10.380 -0.0485  0.2152 -0.4194
  920MPD2    C513467   3.318   1.920  10.289 -0.2336 -0.3542  0.3411
  920MPD2     H13468   3.223   1.568  10.205  0.7146 -0.7847  2.2410
  920MPD2    H113469   3.382   1.851  10.479 -2.9305  0.4369  0.5354
  920MPD2    H213470   3.237   1.981  10.101  1.4079  1.4589  1.0197
  920MPD2    H313471   3.339   2.021  10.324 -1.0060 -0.5160  1.2734
  920MPD2     N13472   3.344   1.600  10.450 -0.7526  0.2709 -0.5682
  920MPD2    H513473   3.369   1.631  10.544 -0.3729  1.2171 -0.9838
  920MPD2    N113474   3.137   1.737  10.033  0.0730  0.5978 -0.3806
  920MPD2    H713475   3.097   1.644  10.025  0.7422  0.3038 -0.3392
  921MPD2     C13476   3.777   4.592  16.804  0.0818 -0.0614 -0.3745
  921MPD2    C113477   3.784   4.638  16.675  0.4166 -1.0238 -0.2045
  921MPD2    C213478   3.664   4.653  16.609  0.3588 -0.0186 -0.2245
  921MPD2    C313479   3.540   4.607  16.663 -0.1152  0.0055  0.9405
  921MPD2    C413480   3.536   4.557  16.789  0.4472  0.5499 -0.6497
  921MPD2    C513481   3.655   4.563  16.858 -0.1982 -0.3655  0.0690
  921MPD2     H13482   3.663   4.700  16.511  1.0690 -0.4873 -0.4538
  921MPD2    H113483   3.443   4.519  16.831  0.9357  0.8851  0.7262
  921MPD2    H213484   3.871   4.588  16.858  0.5531  0.7733 -1.1423
  921MPD2    H313485   3.672   4.531  16.960 -1.4542  1.0352  0.7285
  921MPD2     N13486   3.414   4.613  16.595 -0.3666  0.0945 -0.3719
  921MPD2    H513487   3.336   4.580  16.650 -1.7456  1.8773 -1.2295
  921MPD2    N113488   3.911   4.669  16.619 -0.0012  0.2469 -0.0095
  921MPD2    H713489   3.990   4.660  16.683  0.2261 -0.2726 -0.3680
  922MPD2     C13490   4.280   2.290  16.499 -0.0141 -0.5488 -0.4478
  922MPD2    C113491   4.277   2.357  16.621  0.4469  0.0133 -0.0101
  922MPD2    C213492   4.197   2.304  16.720  0.0719  0.0655  0.4730
  922MPD2    C313493   4.102   2.200  16.694  0.0827  0.4313 -0.1930
  922MPD2    C413494   4.113   2.127  16.577  0.3663 -0.1155  0.3468
  922MPD2    C513495   4.208   2.175  16.485  0.2733 -0.8759 -0.5335
  922MPD2     H13496   4.181   2.359  16.812 -0.1328  0.7302  0.0363
  922MPD2    H113497   4.052   2.043  16.546 -1.1641  1.7182 -1.6498
  922MPD2    H213498   4.350   2.323  16.424  1.0420 -0.6451  0.5025
  922MPD2    H313499   4.216   2.108  16.400  0.7102 -0.8099 -0.5460
  922MPD2     N13500   3.991   2.172  16.774  0.0073 -0.4603  0.8134
  922MPD2    H513501   3.923   2.107  16.734 -0.0865 -0.6866  1.3478
  922MPD2    N113502   4.355   2.471  16.651 -0.1611  0.2459 -0.3470
  922MPD2    H713503   4.354   2.512  16.744  0.0049 -0.8672  0.1398
  923MPD2     C13504   1.855   3.968   8.451 -0.5390 -0.1755  0.6243
  923MPD2    C113505   1.768   4.044   8.526  0.5625 -0.6641 -0.3667
  923MPD2    C213506   1.834   4.151   8.592 -0.0721 -0.6044  0.0827
  923MPD2    C313507   1.964   4.189   8.569  0.4639 -0.4359 -0.1089
  923MPD2    C413508   2.046   4.107   8.488  0.3567  0.7900 -0.4427
  923MPD2    C513509   1.987   4.005   8.420 -0.1096 -0.2878 -0.1140
  923MPD2     H13510   1.778   4.208   8.664  0.1292  1.8618 -1.7181
  923MPD2    H113511   2.152   4.127   8.480  0.5153  0.5327  0.9100
  923MPD2    H213512   1.820   3.875   8.405 -2.4611  0.9302 -0.1455
  923MPD2    H313513   2.048   3.936   8.364  1.2338  1.3842 -0.7090
  923MPD2     N13514   2.021   4.309   8.611  0.4460  1.0646  0.3085
  923MPD2    H513515   2.121   4.325   8.606  0.3306  1.4175 -0.8790
  923MPD2    N113516   1.631   4.005   8.537  0.1522  0.0359 -0.7510
  923MPD2    H713517   1.608   3.927   8.476 -1.1040  1.3749 -2.0080
  924MPD2     C13518   1.424   3.296  15.273  0.0234  0.5649 -0.2907
  924MPD2    C113519   1.378   3.236  15.390 -1.1182  0.5061  0.1281
  924MPD2    C213520   1.405   3.292  15.514 -0.2882 -0.2963  0.0244
  924MPD2    C313521   1.479   3.410  15.512 -0.3506 -0.0955  0.7066
  924MPD2    C413522   1.530   3.463  15.396  0.5294  0.0676 -0.2965
  924MPD2    C513523   1.507   3.405  15.275 -1.0774 -0.2191  0.7777
  924MPD2     H13524   1.397   3.251  15.614  2.3165 -0.4565  0.1831
  924MPD2    H113525   1.589   3.553  15.391 -1.1700  1.0843 -2.2032
  924MPD2    H213526   1.402   3.259  15.173 -0.6490  0.5494 -0.1355
  924MPD2    H313527   1.533   3.456  15.184 -0.7919  1.7327  1.9512
  924MPD2     N13528   1.484   3.493  15.622 -0.0423  0.0258  0.5669
  924MPD2    H513529   1.545   3.573  15.610  0.2045 -0.0906  1.0314
  924MPD2    N113530   1.285   3.124  15.385  0.2231 -0.4380 -0.2854
  924MPD2    H713531   1.293   3.073  15.297  0.0560  2.1726 -1.8109
  925MPD2     C13532   0.092   1.230  14.777  0.5541  0.4166 -0.1553
  925MPD2    C113533   4.689   1.195  14.724  0.3075 -0.3584  0.1337
  925MPD2    C213534   4.610   1.106  14.797 -0.2980 -0.7223 -0.6944
  925MPD2    C313535   4.650   1.062  14.917  0.2167 -0.2485 -0.0005
  925MPD2    C413536   0.043   1.098  14.971  0.8078  0.0134  0.8612
  925MPD2    C513537   0.126   1.176  14.898 -0.2081 -0.0937 -0.6484
  925MPD2     H13538   4.511   1.081  14.760 -0.3571 -0.3966 -0.7612
  925MPD2    H113539   0.079   1.059  15.065  0.6714  0.4999  1.1144
  925MPD2    H213540   0.178   1.279  14.733  0.6289  0.0124 -0.4599
  925MPD2    H313541   0.227   1.203  14.929 -0.1786 -0.1233 -0.7178
  925MPD2     N13542   4.567   0.977  14.990 -0.0721  0.3215 -0.0389
  925MPD2    H513543   4.607   0.945  15.077  1.4026  1.9144 -0.1408
  925MPD2    N113544   4.645   1.237  14.591  0.7822 -0.0082  0.0163
  925MPD2    H713545   4.563   1.193  14.552  1.6504 -1.2127 -0.4199
  926MPD2     C13546   3.528   4.531  13.059  0.0263 -0.3261  0.6237
  926MPD2    C113547   3.645   4.575  13.114 -1.0397  0.1128 -0.1160
  926MPD2    C213548   3.741   4.647  13.040 -0.5536 -0.0451  0.3683
  926MPD2    C313549   3.712   4.664  12.906  0.3620  0.1294 -0.8470
  926MPD2    C413550   3.592   4.618  12.851 -0.7962  0.3502  0.1336
  926MPD2    C513551   3.498   4.564  12.940  0.4212 -0.2221  0.4081
  926MPD2     H13552   3.832   4.682  13.088 -1.3261 -0.3337  2.0257
  926MPD2    H113553   3.563   4.630  12.747  0.9393  3.6757  0.0352
  926MPD2    H213554   3.461   4.468  13.116 -0.2620 -2.0031 -1.5498
  926MPD2    H313555   3.400   4.546  12.898 -0.4119  1.4139  1.6672
  926MPD2     N13556   3.801   0.005  12.824 -0.6470  0.1424  0.1087
  926MPD2    H513557   3.756   0.062  12.753 -0.5645  1.4842  1.1350
  926MPD2    N113558   3.683   4.556  13.249  0.4128  0.5315 -0.1370
  926MPD2    H713559   3.764   4.605  13.286  1.1128 -1.4937  1.0041
  927MPD2     C13560   3.186   1.294  17.690 -0.2745  0.4028  0.1405
  927MPD2    C113561   3.111   1.413  17.679  0.2798 -1.0196  0.5824
  927MPD2    C213562   3.127   1.499  17.576  0.0502 -0.0352 -0.0131
  927MPD2    C313563   3.203   1.457  17.468 -0.2625  0.6676 -0.2629
  927MPD2    C413564   3.284   1.343  17.477 -0.2573  0.0702 -0.4750
  927MPD2    C513565   3.278   1.263  17.586 -0.3617  1.1355  0.0055
  927MPD2     H13566   3.080   1.597  17.573  1.3737  0.5719 -0.8306
  927MPD2    H113567   3.354   1.314  17.399  1.8070  1.1750  0.9596
  927MPD2    H213568   3.175   1.217   0.073  1.1758 -0.3096 -0.3812
  927MPD2    H313569   3.340   1.175  17.584 -0.1927  1.2248  1.3075
  927MPD2     N13570   3.224   1.549  17.360  0.3293 -0.2299 -0.3838
  927MPD2    H513571   3.188   1.644  17.371 -0.7444 -0.4478 -2.0343
  927MPD2    N113572   3.031   1.430   0.099 -0.5853  0.0579  0.1032
  927MPD2    H713573   3.034   1.355   0.167  1.5818  1.7743  1.9104
  928MPD2     C13574   1.691   0.018   1.094 -0.1303  0.3578  1.0510
  928MPD2    C113575   1.621   4.679   1.000 -0.2832 -0.0890 -0.4812
  928MPD2    C213576   1.640   4.715   0.870 -0.0093  0.0778  0.0434
  928MPD2    C313577   1.739   0.080   0.826 -0.3171  0.0962 -0.4772
  928MPD2    C413578   1.814   0.142   0.925 -0.7398  0.1543 -0.1108
  928MPD2    C513579   1.788   0.113   1.059 -0.1285 -0.0595 -0.1239
  928MPD2     H13580   1.588   4.649   0.801  0.8489  1.4043 -1.8755
  928MPD2    H113581   1.891   0.211   0.892  0.9026 -0.8134  1.7022
  928MPD2    H213582   1.681   4.707   1.197 -2.6017  0.6942  0.9274
  928MPD2    H313583   1.845   0.161   1.138 -0.0048  2.4284 -1.7482
  928MPD2     N13584   1.750   0.117   0.691 -0.3530 -0.1641 -0.3372
  928MPD2    H513585   1.816   0.193   0.674 -0.9601  0.4926  0.2180
  928MPD2    N113586   1.523   4.593   1.049 -0.0437  0.4466  0.5720
  928MPD2    H713587   1.525   4.572   1.149 -2.1910 -0.8516  0.3401
  929MPD2     C13588   2.071   0.264  10.428 -0.7851  0.4694  0.0223
  929MPD2    C113589   2.009   0.174  10.353  0.2864 -0.1528 -0.1955
  929MPD2    C213590   1.974   0.209  10.223 -0.4204 -0.2873  0.2808
  929MPD2    C313591   1.995   0.343  10.184  0.4729 -0.6759 -0.0387
  929MPD2    C413592   2.061   0.429  10.269  0.1187  0.3155  0.1845
  929MPD2    C513593   2.104   0.385  10.387 -0.2945 -0.3258 -0.2894
  929MPD2     H13594   1.913   0.143  10.162 -0.4592  0.4136 -0.4389
  929MPD2    H113595   2.078   0.533  10.242  0.7055  0.2516  0.3118
  929MPD2    H213596   2.107   0.230  10.525 -0.7260  0.0579 -0.1414
  929MPD2    H313597   2.153   0.449  10.460  0.7512 -1.3302 -0.1020
  929MPD2     N13598   1.946   0.391  10.061 -0.0811  0.1258 -0.6103
  929MPD2    H513599   1.954   0.491  10.045 -2.1895  0.6925  1.8163
  929MPD2    N113600   1.980   0.052  10.412  0.3149 -0.3671  0.2758
  929MPD2    H713601   2.025   0.032  10.501 -1.4123  0.7838  1.3794
  930MPD2     C13602   2.709   2.135  13.862 -0.7806 -0.2779  0.4346
  930MPD2    C113603   2.844   2.169  13.872  0.4073 -0.7179 -1.2940
  930MPD2    C213604   2.922   2.150  13.756  0.3937  0.0237  0.6659
  930MPD2    C313605   2.859   2.111  13.641  0.3804  0.0427 -0.1898
  930MPD2    C413606   2.728   2.065  13.643  0.8216 -0.6922  0.4425
  930MPD2    C513607   2.652   2.077  13.755 -0.1631 -0.7029  0.0095
  930MPD2     H13608   3.023   2.187  13.750  0.9385 -1.5305  0.4380
  930MPD2    H113609   2.690   2.013  13.556  2.0735  0.0630 -0.5735
  930MPD2    H213610   2.640   2.160  13.941  0.8766 -0.0754  1.8025
  930MPD2    H313611   2.550   2.038  13.756 -0.7082  0.7168 -1.6709
  930MPD2     N13612   2.920   2.113  13.511 -0.6741 -0.3900  0.3371
  930MPD2    H513613   2.858   2.100  13.432 -0.5728 -0.5504  0.2845
  930MPD2    N113614   2.893   2.228  13.988  0.4506  0.4704 -0.1830
  930MPD2    H713615   2.820   2.254  14.053  0.6571  0.3224  0.1061
  931MPD2     C13616   3.276   1.275   0.606 -0.0469  0.1278 -0.1681
  931MPD2    C113617   3.161   1.321   0.660 -0.6298 -0.1744 -0.0206
  931MPD2    C213618   3.144   1.320   0.796 -0.5663 -1.1008  0.0360
  931MPD2    C313619   3.247   1.282   0.884 -0.1509 -0.0075 -0.1298
  931MPD2    C413620   3.349   1.219   0.826 -0.7054  0.0541  0.2218
  931MPD2    C513621   3.366   1.218   0.693  0.0429  0.5772 -0.6984
  931MPD2     H13622   3.061   1.368   0.847  1.2964  2.8299 -0.6547
  931MPD2    H113623   3.423   1.171   0.890 -0.3672  0.3006  0.0202
  931MPD2    H213624   3.293   1.262   0.500  0.5768  0.2519 -0.0797
  931MPD2    H313625   3.460   1.177   0.656 -0.7967 -2.2219  0.2881
  931MPD2     N13626   3.240   1.292   1.023 -0.0647 -0.0897 -0.2235
  931MPD2    H513627   3.321   1.259   1.074 -0.3854  1.1777  1.0753
  931MPD2    N113628   3.067   1.367   0.570 -0.4535 -0.0207 -0.4878
  931MPD2    H713629   3.096   1.375   0.472 -0.6320  0.2517 -0.5191
  932MPD2     C13630   0.985   0.306  11.580 -0.4890  0.7458 -0.1949
  932MPD2    C113631   0.888   0.397  11.635 -0.6534 -0.2805  0.3613
  932MPD2    C213632   0.839   0.379  11.760  0.4375  0.4725 -0.5063
  932MPD2    C313633   0.907   0.291  11.844 -0.3601  0.5142 -0.4810
  932MPD2    C413634   1.004   0.216  11.789  0.8656  0.4040  0.4657
  932MPD2    C513635   1.043   0.206  11.662  0.6993  0.0885 -0.0229
  932MPD2     H13636   0.750   0.432  11.792 -1.3606 -1.6062 -2.1033
  932MPD2    H113637   1.055   0.149  11.857  1.7283 -0.8087 -1.3807
  932MPD2    H213638   1.013   0.303  11.476 -1.8879 -0.8725 -0.5221
  932MPD2    H313639   1.121   0.139  11.625  0.5797 -0.0225 -0.0749
  932MPD2     N13640   0.870   0.273  11.983  0.2695  0.0035  0.6132
  932MPD2    H513641   0.918   0.198  12.031  0.5790 -0.9263 -1.1332
  932MPD2    N113642   0.827   0.494  11.555 -0.4414  0.6456  0.4624
  932MPD2    H713643   0.768   0.557  11.609  1.2378  1.7876  0.9797
  933MPD2     C13644   0.780   4.492   1.471 -0.0516 -0.0829 -0.0321
  933MPD2    C113645   0.860   4.561   1.378 -0.1317 -0.0202  0.1985
  933MPD2    C213646   0.851   4.699   1.373 -0.2443  0.3117 -0.0858
  933MPD2    C313647   0.749   0.046   1.446 -0.4391 -0.5808  0.6391
  933MPD2    C413648   0.663   4.698   1.525  0.7619  0.1851  0.0661
  933MPD2    C513649   0.680   4.563   1.537 -0.7740 -0.1080  0.2823
  933MPD2     H13650   0.924   0.031   1.315  0.9090 -2.1206 -0.9251
  933MPD2    H113651   0.587   0.025   1.583  0.6369  0.3939 -0.2732
  933MPD2    H213652   0.801   4.386   1.483 -1.9804 -0.4842 -0.2438
  933MPD2    H313653   0.617   4.508   1.607 -0.9449  1.4484  1.3300
  933MPD2     N13654   0.731   0.187   1.443 -0.2269 -0.3000  0.0104
  933MPD2    H513655   0.812   0.239   1.411  0.6674 -1.9445 -0.3942
  933MPD2    N113656   0.964   4.489   1.309  0.5733  0.1720  0.3273
  933MPD2    H713657   0.957   4.389   1.322 -2.0150  0.3425  0.3997
  934MPD2     C13658   1.643   2.946   1.585 -0.1749 -0.0307 -0.0165
  934MPD2    C113659   1.727   2.835   1.588  0.0737 -0.8794  1.0436
  934MPD2    C213660   1.704   2.733   1.503 -0.0917  0.2792 -0.1209
  934MPD2    C313661   1.596   2.732   1.407  0.4717 -0.1303  0.5723
  934MPD2    C413662   1.513   2.836   1.410 -0.3772  0.1777 -0.0268
  934MPD2    C513663   1.538   2.944   1.499  0.1359  0.7401 -0.3851
  934MPD2     H13664   1.786   2.662   1.503  0.1785  0.6027 -1.5962
  934MPD2    H113665   1.442   2.853   1.330  0.1636 -0.0640 -0.5572
  934MPD2    H213666   1.650   3.027   1.657  0.0741  0.7588 -0.9316
  934MPD2    H313667   1.465   3.024   1.499  1.1360  1.6408 -0.7325
  934MPD2     N13668   1.582   2.625   1.312 -0.3029 -0.1317 -0.1615
  934MPD2    H513669   1.493   2.632   1.263 -0.5950 -1.5396  0.1798
  934MPD2    N113670   1.826   2.814   1.688  0.2046  0.3879  0.0148
  934MPD2    H713671   1.875   2.726   1.699  1.1219  0.8342 -0.4953
  935MPD2     C13672   2.143   1.790   1.267 -0.4904 -0.4847 -0.5495
  935MPD2    C113673   2.068   1.806   1.153  0.3035  0.2830  0.6115
  935MPD2    C213674   1.959   1.891   1.146  0.0019 -0.4423 -0.4101
  935MPD2    C313675   1.934   1.978   1.250  0.3656  0.2069  0.3740
  935MPD2    C413676   2.015   1.965   1.362  0.1196 -0.1734 -0.4918
  935MPD2    C513677   2.107   1.874   1.372 -0.1730  0.2627  0.0177
  935MPD2     H13678   1.891   1.896   1.063  0.0573 -1.5018 -0.5252
  935MPD2    H113679   2.008   2.032   1.447 -0.5361  1.1272 -1.5551
  935MPD2    H213680   2.219   1.714   1.278  2.5697  2.2336 -2.9946
  935MPD2    H313681   2.170   1.863   1.459 -0.2631 -1.7272 -0.1738
  935MPD2     N13682   1.827   2.072   1.250  0.6385  0.4592 -0.0040
  935MPD2    H513683   1.811   2.131   1.331  0.4484  0.2512  0.1076
  935MPD2    N113684   2.081   1.726   1.041 -0.2642 -0.7160  0.0971
  935MPD2    H713685   2.022   1.755   0.964  1.8176  1.3840 -0.6742
  936MPD2     C13686   1.296   4.050  13.383 -1.0967 -0.6968 -0.0562
  936MPD2    C113687   1.284   3.958  13.283 -0.3669 -0.9963  0.9016
  936MPD2    C213688   1.378   3.952  13.184  0.1971 -0.0642 -0.7608
  936MPD2    C313689   1.466   4.058  13.168  0.0447 -0.1554  0.7925
  936MPD2    C413690   1.470   4.162  13.259  0.4064 -0.8922 -0.4251
  936MPD2    C513691   1.391   4.144  13.370  0.1281 -0.5229 -0.4890
  936MPD2     H13692   1.371   3.872  13.112 -1.2284 -0.3799 -0.2898
  936MPD2    H113693   1.541   4.244  13.256  0.8988 -1.3009  0.1173
  936MPD2    H213694   1.240   4.048  13.476 -1.0505 -0.2453 -0.0165
  936MPD2    H313695   1.398   4.211  13.454 -0.7932  1.6404 -2.1244
  936MPD2     N13696   1.557   4.063  13.063  0.1350  0.2093  0.3667
  936MPD2    H513697   1.626   4.138  13.068 -0.6870  0.9397  0.6160
  936MPD2    N113698   1.183   3.854  13.279 -0.1727  0.5615  0.6877
  936MPD2    H713699   1.203   3.781  13.212  1.3127 -0.1367  1.8894
  937MPD2     C13700   3.157   0.759  11.682  0.0525 -0.4119  0.5962
  937MPD2    C113701   3.202   0.876  11.608  0.2345  0.6258 -0.1654
  937MPD2    C213702   3.336   0.884  11.586  0.2015 -0.1602 -0.3216
  937MPD2    C313703   3.421   0.776  11.614  0.1549 -0.3540  0.8687
  937MPD2    C413704   3.374   0.663  11.683 -0.1763  0.7922 -0.2474
  937MPD2    C513705   3.243   0.662  11.715 -0.2856 -1.0218 -0.6352
  937MPD2     H13706   3.372   0.972  11.534  1.3747 -1.1669 -1.2132
  937MPD2    H113707   3.440   0.582  11.712 -0.0448 -0.0269 -2.9027
  937MPD2    H213708   3.061   0.747  11.732 -0.7201  0.5568 -0.6737
  937MPD2    H313709   3.201   0.594  11.788 -0.1254 -2.9199 -2.3094
  937MPD2     N13710   3.552   0.778  11.569  0.3073 -0.3696 -0.5637
  937MPD2    H513711   3.581   0.864  11.522  1.3918 -1.1771 -1.3820
  937MPD2    N113712   3.125   0.995  11.608  0.2312  0.5650  0.6105
  937MPD2    H713713   3.167   1.087  11.602 -1.3719  1.1889 -1.2657
  938MPD2     C13714   0.702   1.984   0.304 -0.3729 -0.1166 -0.0286
  938MPD2    C113715   0.792   1.995   0.412 -0.1525  0.4042  0.1812
  938MPD2    C213716   0.815   1.883   0.488  0.3784 -0.0726 -0.2305
  938MPD2    C313717   0.759   1.760   0.457 -0.2092 -0.4846 -1.3002
  938MPD2    C413718   0.673   1.747   0.346  0.0803 -0.4778 -1.3249
  938MPD2    C513719   0.645   1.861   0.267 -0.1281  0.3269 -0.1509
  938MPD2     H13720   0.874   1.885   0.579  0.6426 -0.3531 -0.3943
  938MPD2    H113721   0.623   1.654   0.321 -0.6911 -0.7078  1.0601
  938MPD2    H213722   0.660   2.067   0.248 -1.4901  0.0785  1.0870
  938MPD2    H313723   0.587   1.854   0.175  1.0772 -0.5873 -0.8348
  938MPD2     N13724   0.767   1.646   0.542  0.2406  0.2493  0.0309
  938MPD2    H513725   0.713   1.565   0.515  0.8653 -0.5998  1.2796
  938MPD2    N113726   0.852   2.124   0.439  0.4587 -0.7235  0.0359
  938MPD2    H713727   0.818   2.204   0.388  1.3902  0.0303  0.6051
  939MPD2     C13728   3.440   3.629   0.937 -0.2688 -0.2221 -0.0476
  939MPD2    C113729   3.441   3.524   1.024 -0.3492 -0.1000 -0.5170
  939MPD2    C213730   3.450   3.386   0.979  0.1592  0.3328 -0.0617
  939MPD2    C313731   3.430   3.364   0.843 -0.6789  0.4618 -0.4127
  939MPD2    C413732   3.424   3.475   0.758  0.3764  0.8676  0.0100
  939MPD2    C513733   3.421   3.603   0.810 -0.5157  0.1634  0.2906
  939MPD2     H13734   3.469   3.304   1.047  0.0318 -1.4201 -2.1520
  939MPD2    H113735   3.440   3.467   0.651  0.1187  0.2047  0.0215
  939MPD2    H213736   3.446   3.730   0.975 -1.0472 -0.7313  1.4383
  939MPD2    H313737   3.411   3.687   0.742  1.1163 -0.1043 -0.2793
  939MPD2     N13738   3.414   3.230   0.794 -0.1257  0.2686  0.3990
  939MPD2    H513739   3.428   3.157   0.863 -1.6590  0.4655  0.9133
  939MPD2    N113740   3.430   3.558   1.162  0.4515 -0.7503  0.2814
  939MPD2    H713741   3.417   3.655   1.187  3.0319 -0.1623 -0.7065
  940MPD2     C13742   2.124   4.527  13.293  0.6571  0.0376 -0.1650
  940MPD2    C113743   2.068   4.401  13.277  0.3592 -0.5198 -1.5701
  940MPD2    C213744   2.082   4.329  13.163 -0.1534 -0.5802 -0.8127
  940MPD2    C313745   2.156   4.377  13.057 -0.7533  0.2067 -0.4112
  940MPD2    C413746   2.211   4.501  13.074 -1.0039 -0.1014 -0.6793
  940MPD2    C513747   2.196   4.570  13.190  0.3878 -0.4120 -0.0583
  940MPD2     H13748   2.031   4.233  13.162 -0.8926 -0.1809  2.1208
  940MPD2    H113749   2.262   4.549  12.991 -0.9020  1.0159  0.0199
  940MPD2    H213750   2.136   4.590  13.380 -2.4247  0.9210 -0.3715
  940MPD2    H313751   2.236   4.671  13.191 -0.7189  0.0463 -1.8026
  940MPD2     N13752   2.158   4.317  12.928 -0.0221  0.0211  0.3534
  940MPD2    H513753   2.207   4.367  12.855  1.6364 -2.1345 -0.0235
  940MPD2    N113754   1.981   4.342  13.371 -0.2466 -0.1775 -0.4978
  940MPD2    H713755   1.927   4.264  13.335  2.2284 -1.8458 -0.6101
  941MPD2     C13756   1.353   2.478   8.841 -0.4307  0.1136  0.3069
  941MPD2    C113757   1.312   2.530   8.964  0.0777  0.5561 -0.4930
  941MPD2    C213758   1.197   2.488   9.029  0.0797 -1.3691  0.2629
  941MPD2    C313759   1.117   2.385   8.971  0.6908  0.2403 -0.3374
  941MPD2    C413760   1.165   2.322   8.855 -0.4308  0.0432  0.6608
  941MPD2    C513761   1.282   2.369   8.796  0.3393  0.2429  0.0498
  941MPD2     H13762   1.168   2.541   9.119 -0.6095  0.9716 -1.3483
  941MPD2    H113763   1.115   2.234   8.818 -2.7164  1.7378 -0.2443
  941MPD2    H213764   1.438   2.512   8.783  0.6009  0.0588  1.7889
  941MPD2    H313765   1.319   2.323   8.705 -1.2365 -2.6900  0.8788
  941MPD2     N13766   0.992   2.338   9.028  0.0166  0.5869 -0.3076
  941MPD2    H513767   0.950   2.263   8.974 -0.3407  0.0213  0.7513
  941MPD2    N113768   1.392   2.624   9.032  0.4252  0.5604  1.0910
  941MPD2    H713769   1.363   2.653   9.125 -0.1963  1.9896  0.4555
  942MPD2     C13770   0.503   3.162   9.650 -0.1106 -0.6370 -0.1602
  942MPD2    C113771   0.523   3.297   9.631  0.4725  0.1767  0.7990
  942MPD2    C213772   0.607   3.339   9.530  0.5359 -0.7019  0.7559
  942MPD2    C313773   0.679   3.249   9.450  0.7037  0.2470  0.4666
  942MPD2    C413774   0.662   3.115   9.480 -0.1726  0.1037 -0.3283
  942MPD2    C513775   0.579   3.071   9.576 -0.0076 -0.1845  0.0109
  942MPD2     H13776   0.624   3.446   9.527  1.1949 -0.8342 -0.3510
  942MPD2    H113777   0.719   3.041   9.425 -1.4076 -0.9301 -0.2163
  942MPD2    H213778   0.431   3.118   9.718  1.0576 -0.5485  1.1323
  942MPD2    H313779   0.579   2.967   9.605 -2.2686 -0.2732 -0.3438
  942MPD2     N13780   0.778   3.288   9.351 -0.1023  0.5446  0.6633
  942MPD2    H513781   0.828   3.212   9.307  0.7972  1.0073  0.8857
  942MPD2    N113782   0.458   3.397   9.710 -0.1013  0.4837 -0.3422
  942MPD2    H713783   0.494   3.489   9.685  0.4158  0.1824 -0.7038
  943MPD2     C13784   3.694   3.063   9.392  0.1016 -0.1931  0.2704
  943MPD2    C113785   3.568   3.066   9.344  0.2709  0.3568  0.1034
  943MPD2    C213786   3.509   3.191   9.314 -0.5639  0.2624 -0.1151
  943MPD2    C313787   3.580   3.305   9.335 -0.6567 -0.0559  0.4677
  943MPD2    C413788   3.705   3.303   9.388 -0.4049  0.4117 -0.8715
  943MPD2    C513789   3.766   3.179   9.416 -0.5404 -0.0536  0.7283
  943MPD2     H13790   3.409   3.197   9.273 -0.7508  0.7394  0.4127
  943MPD2    H113791   3.763   3.393   9.402 -0.2347  0.3535 -1.2102
  943MPD2    H213792   3.738   2.974   9.435 -1.2966 -1.3941 -0.8205
  943MPD2    H313793   3.860   3.172   9.470 -0.7751 -0.7212  1.0566
  943MPD2     N13794   3.528   3.425   9.287  0.6513  0.0573  0.1896
  943MPD2    H513795   3.589   3.498   9.253 -0.9048  0.2619 -2.1727
  943MPD2    N113796   3.502   2.942   9.351 -0.1551 -0.2431 -0.0674
  943MPD2    H713797   3.551   2.863   9.392 -0.5800 -0.8446 -0.7361
  944MPD2     C13798   3.949   1.634  10.957 -0.3541  0.6951  0.0223
  944MPD2    C113799   3.959   1.733  10.855  0.0012  0.2971  0.6818
  944MPD2    C213800   3.942   1.865  10.893  0.3030 -1.0043  0.3257
  944MPD2    C313801   3.921   1.900  11.029  0.2148 -0.5218  0.4034
  944MPD2    C413802   3.913   1.800  11.126 -0.8537  0.2539  0.0150
  944MPD2    C513803   3.917   1.669  11.089 -0.0786 -0.1704 -0.2967
  944MPD2     H13804   3.965   1.944  10.823 -1.5542 -1.0105 -0.2827
  944MPD2    H113805   3.904   1.824  11.231  1.0103 -1.0508  0.4494
  944MPD2    H213806   3.966   1.530  10.935  0.3742  0.5802  1.1223
  944MPD2    H313807   3.930   1.591  11.164 -0.3455 -0.6298 -0.7291
  944MPD2     N13808   3.905   2.041  11.058  0.9690  0.4309  0.0911
  944MPD2    H513809   3.916   2.105  10.980  1.9093  1.1210  0.7953
  944MPD2    N113810   3.988   1.685  10.727 -0.4886 -0.3585 -0.4475
  944MPD2    H713811   3.981   1.585  10.712 -3.1693 -0.6693  2.6062
    1TCq1    O113812   1.454   2.371  13.811  0.2871  0.1840 -0.3883
    1TCq1    C113813   1.470   2.471  13.902 -0.3829 -0.3787 -0.4732
    1TCq1    O213814   1.447   2.473  14.022  0.6778  0.2539  0.8850
    1TCq1    C213815   1.574   2.552  13.849 -0.3048 -0.1857 -0.4229
    1TCq1    C313816   1.559   2.617  13.731  0.3185  0.2228 -0.1322
    1TCq1    C413817   1.651   2.720  13.703  0.2601  0.2703  0.0245
    1TCq1    C513818   1.741   2.768  13.794  0.3993 -0.6258 -0.5887
    1TCq1    C613819   1.749   2.702  13.912 -0.0666 -0.6431 -0.5367
    1TCq1    C713820   1.672   2.590  13.940  0.8050 -0.3273 -0.0898
    1TCq1    C813821   1.840   2.744  14.027 -0.2110 -0.9885  0.6404
    1TCq1    O413822   1.861   2.657  14.109  0.1381 -0.6276 -0.2199
    1TCq1    C913823   1.627   2.799  13.582  0.6935 -0.3932 -0.3806
    1TCq1    O513824   1.510   2.796  13.544 -0.1741  0.0057  0.3967
    1TCq1    O613825   1.728   2.865  13.538  0.2955 -0.4751  0.0251
    1TCq1    H113826   1.508   2.379  13.730 -0.2493  0.9729 -0.6665
    1TCq1    H213827   1.473   2.595  13.670 -0.6310  2.0538  0.5616
    1TCq1    H313828   1.798   2.858  13.776 -0.0621 -0.1854  0.1154
    1TCq1    H413829   1.671   2.541  14.037 -0.7007  1.3271  0.7127
    2MPD2     C13830   2.069   3.101  14.287  0.0367  0.0555 -0.2745
    2MPD2    C113831   1.997   3.164  14.185  0.3958  0.1304  1.0647
    2MPD2    C213832   1.928   3.080  14.102 -0.1029 -0.7645 -0.6793
    2MPD2    C313833   1.939   2.945  14.108  0.5727  0.4636 -0.0719
    2MPD2    C413834   2.012   2.887  14.205 -0.3767  0.1386 -0.2556
    2MPD2    C513835   2.085   2.966  14.290  0.8758  1.0582 -0.1220
    2MPD2     H13836   1.861   3.131  14.033 -2.3309 -0.7059  1.5417
    2MPD2    H113837   2.017   2.779  14.215 -0.0172  0.1913  0.1135
    2MPD2    H213838   2.119   3.156  14.366 -0.8350 -0.0848  0.3736
    2MPD2    H313839   2.146   2.919  14.366  1.9561  0.2862 -1.4699
    2MPD2     N13840   1.866   2.876  14.012  0.3296  0.0007 -0.0834
    2MPD2    H513841   1.811   2.928  13.945  0.7228  0.1239 -0.3117
    2MPD2    N113842   1.995   3.307  14.184 -0.3344 -0.3470 -0.2244
    2MPD2    H713843   2.041   3.355  14.261 -0.6368 -1.1301  0.4486
    3TMC2    C113844   1.978   3.523  14.079  0.6862 -0.6899 -0.1033
    3TMC2    C213845   1.993   3.594  14.190 -0.4186  0.2709  0.1971
    3TMC2    C313846   2.014   3.730  14.187 -0.1897  0.3745  0.1143
    3TMC2    C413847   2.002   3.586  13.955  0.0966  0.2912 -0.8650
    3TMC2    C513848   2.016   3.723  13.953  0.2432  0.5279 -0.2713
    3TMC2    C613849   2.020   3.799  14.069 -0.0152  0.4189  0.1507
    3TMC2     C13850   1.942   3.380  14.076 -0.2333  0.5111  0.4025
    3TMC2     O13851   1.900   3.341  13.968  0.0506 -0.4876 -0.3557
    3TMC2     H13852   1.958   3.553  14.284 -1.6576 -1.1749 -0.8975
    3TMC2    H113853   1.987   3.528  13.865  0.5054 -1.1383 -0.0149
    3TMC2    H213854   2.025   3.907  14.063 -1.1058  0.3585 -1.8047
    3TMC2    C713855   2.048   3.778  13.821  0.2413 -0.0533 -0.1360
    3TMC2    C813856   2.032   3.793  14.309 -0.2153  0.0576 -0.3853
    3TMC2    O113857   2.034   3.706  13.723  0.2601 -0.7726 -0.0503
    3TMC2    O213858   2.035   3.727  14.411  0.0879  0.5455  0.8922
    3TMC2    O513859   2.139   3.874  14.285  0.0194  0.2312  0.2538
    3TMC2    H513860   2.141   3.936  14.209  0.1585 -0.6877 -0.4908
    4MPD2     C13861   2.145   0.328  13.144 -0.3995  0.1659 -0.3903
    4MPD2    C113862   2.060   0.235  13.197  0.3551 -0.0410 -0.0804
    4MPD2    C213863   2.104   0.160  13.307  0.0665  0.4041  0.4491
    4MPD2    C313864   2.230   0.173  13.357 -0.3041  0.1740 -0.0755
    4MPD2    C413865   2.309   0.275  13.303 -0.4558  0.5132  0.2159
    4MPD2    C513866   2.270   0.351  13.199 -0.2908 -0.2773  0.0210
    4MPD2     H13867   2.041   0.085  13.353  2.4670 -0.7095  1.9265
    4MPD2    H113868   2.401   0.306  13.352  0.7872 -0.0361 -1.7677
    4MPD2    H213869   2.121   0.399  13.066  1.0682  1.0659 -0.0186
    4MPD2    H313870   2.328   0.434  13.162  0.4261 -1.5540 -1.7167
    4MPD2     N13871   2.267   0.089  13.470  0.1079  0.7776 -0.1595
    4MPD2    H513872   2.193   0.046  13.524  1.1249 -0.7628  0.0270
    4MPD2    N113873   1.929   0.227  13.138 -0.3173  0.5365 -0.1103
    4MPD2    H713874   1.915   0.282  13.053  0.9938 -1.9768 -1.9478
    5TCq2    C113875   2.401   0.076  13.514 -0.5267 -0.2744 -0.0485
    5TCq2    O213876   2.499   0.140  13.470  0.0542  0.3237  0.7272
    5TCq2    C213877   2.429   4.707  13.626  0.1240 -0.0050  0.3534
    5TCq2    C313878   2.540   0.012  13.706 -0.5855  0.4586  0.8844
    5TCq2    C413879   2.586   4.637  13.788  0.4479  0.4840 -0.1408
    5TCq2    C513880   2.520   4.519  13.803  0.1856  0.7560 -0.3431
    5TCq2    C613881   2.402   4.495  13.733  0.4489 -0.4858 -0.1052
    5TCq2    C713882   2.360   4.587  13.636 -0.2042 -0.0529  0.3640
    5TCq2    C813883   2.316   4.378  13.764  0.5221 -0.0552 -0.2171
    5TCq2    O413884   2.337   4.335  13.875 -0.5448 -1.1385  0.6040
    5TCq2    C913885   2.692   4.677  13.878  0.7154  0.1041 -0.1387
    5TCq2    O513886   2.694   4.622  13.992 -0.7969  0.5756 -0.7979
    5TCq2    O613887   2.732   0.069  13.854 -0.3615  0.2015 -0.8853
    5TCq2    H213888   2.589   0.108  13.693 -1.0910  0.9511  2.6637
    5TCq2    H313889   2.555   4.459  13.887 -0.5261 -0.3075 -0.8055
    5TCq2    H413890   2.265   4.584  13.583  0.4243 -0.9085 -0.7053
    6MPD1     C13891   0.496   1.098  12.399 -1.0903 -0.2763  0.3540
    6MPD1    C113892   0.457   1.031  12.517 -0.1353 -0.1094  0.3317
    6MPD1    C213893   0.523   0.920  12.566 -0.0585 -0.0209  1.0453
    6MPD1    C313894   0.637   0.879  12.499  0.2946 -0.6365 -0.1703
    6MPD1    C413895   0.677   0.940  12.384 -0.8460  0.5006 -0.2959
    6MPD1    C513896   0.613   1.054  12.338 -0.7097 -0.3233 -0.2188
    6MPD1     H13897   0.497   0.874  12.660  1.1632 -1.2243  0.7954
    6MPD1    H113898   0.769   0.914  12.332 -0.5189 -0.1664  0.6281
    6MPD1    H213899   0.436   1.177  12.358 -0.1009  1.4624  2.2282
    6MPD1    H313900   0.649   1.103  12.249  0.5042 -2.7450 -1.0606
    6MPD1     N13901   0.716   0.767  12.539  0.0297 -0.0357 -0.2504
    6MPD1    H513902   0.794   0.742  12.479  0.7535  1.1697  0.1892
    6MPD1    N113903   0.331   1.061  12.569  0.1703 -0.0713 -0.0393
    6MPD1    H613904   0.322   1.040  12.668  0.5058 -0.6411 -0.1292
    6MPD1    H713905   0.308   1.160  12.563  3.5619  0.8667  2.3919
    7MPD2     C13906   0.900   0.216  13.176 -0.7441 -0.3018 -0.1953
    7MPD2    C113907   0.980   0.236  13.064 -0.4903  0.6663 -0.0172
    7MPD2    C213908   1.109   0.186  13.064 -0.0436  1.0957 -0.0430
    7MPD2    C313909   1.179   0.141  13.174  0.1486 -0.0939 -0.3384
    7MPD2    C413910   1.102   0.124  13.287 -0.4907 -0.1700 -0.0162
    7MPD2    C513911   0.965   0.157  13.284  0.4249  0.4950  0.5250
    7MPD2     H13912   1.158   0.185  12.967  0.9987 -0.3554  0.4941
    7MPD2    H113913   1.151   0.097  13.380  0.8350  2.1666 -0.0566
    7MPD2    H213914   0.800   0.257  13.186 -0.8339 -0.0275 -2.2292
    7MPD2    H313915   0.912   0.144  13.377 -0.5000 -5.0914 -0.7570
    7MPD2     N13916   1.311   0.103  13.161 -0.4610 -0.0321  0.2712
    7MPD2    H513917   1.359   0.099  13.251 -1.1725  1.2372  0.7018
    7MPD2    N113918   0.940   0.297  12.947  0.1145 -0.4698  0.8448
    7MPD2    H713919   1.014   0.318  12.881  0.3119  1.0471  1.5603
    8TMC3    C113920   1.519   0.036  13.062  0.2033 -0.1158 -0.0934
    8TMC3    C213921   1.597   0.107  13.147  1.0659 -0.0932  0.4437
    8TMC3    C313922   1.712   0.150  13.091 -0.3359  0.5849  0.1540
    8TMC3    C413923   1.563   4.720  12.936  0.5124 -0.4323  0.0371
    8TMC3    C513924   1.675   0.052  12.881 -0.6616  0.1076 -0.7313
    8TMC3    C613925   1.747   0.140  12.956  0.1911 -0.8497  0.0528
    8TMC3     C13926   1.379   0.073  13.048 -0.6601 -0.5320  0.3757
    8TMC3     O13927   1.334   0.053  12.937  0.4936 -0.1084 -0.4633
    8TMC3     H13928   1.568   0.150  13.242 -0.1005 -1.1220  0.5580
    8TMC3    H113929   1.505   4.647  12.881 -3.0425 -0.6772  4.0403
    8TMC3    H213930   1.847   0.168  12.925 -0.0950 -0.1590 -0.2599
    8TMC3    C713931   1.645   0.110  12.750 -0.1709 -0.3443  0.2690
    8TMC3    C813932   1.821   0.160  13.189 -0.1401 -0.3751  0.1883
    8TMC3    O113933   1.748   0.153  12.689  0.2733 -0.3147 -0.3717
    8TMC3    O213934   1.795   0.117  13.305  0.0869 -0.3140 -0.0618
    9TMC3    C113935   0.784   0.593  12.686  0.0042 -0.2003 -0.4163
    9TMC3    C213936   0.878   0.561  12.592 -0.3123 -0.2469 -0.4339
    9TMC3    C313937   0.931   0.436  12.599  0.2690  0.9493  0.4147
    9TMC3    C413938   0.748   0.512  12.786 -0.5530 -0.4069  0.1206
    9TMC3    C513939   0.806   0.395  12.794  0.4438 -1.1208  0.7246
    9TMC3    C613940   0.892   0.352  12.700  0.1189 -0.5170 -0.1768
    9TMC3     C13941   0.694   0.694  12.655  0.7516  0.0073 -1.1687
    9TMC3     O13942   0.613   0.717  12.746  0.6317  0.0159  0.1895
    9TMC3     H13943   0.912   0.628  12.514  0.3018  0.0034  0.0480
    9TMC3    H113944   0.680   0.542  12.865 -1.2290  1.0263 -1.0201
    9TMC3    H213945   0.924   0.248  12.698  0.1277 -0.4971 -1.2683
    9TMC3    C713946   0.815   0.354  12.925  0.2911 -0.6740 -0.6240
    9TMC3    C813947   1.038   0.401  12.508  0.3725 -0.4811 -0.2642
    9TMC3    O113948   0.724   0.372  13.006  0.7374  0.0200  0.1999
    9TMC3    O213949   1.058   0.489  12.425 -0.1828  0.4040 -0.8416
   10MPD2     C13950   1.521   0.256  12.512 -0.6140 -0.0632  0.6100
   10MPD2    C113951   1.447   0.181  12.603  0.1640 -0.7079 -0.0269
   10MPD2    C213952   1.310   0.182  12.603 -0.1600 -0.3880 -0.2946
   10MPD2    C313953   1.250   0.276  12.524  0.6894 -0.0665 -0.0895
   10MPD2    C413954   1.323   0.351  12.432 -0.2511  0.4583  0.8908
   10MPD2    C513955   1.458   0.341  12.422  0.0031  0.8501  0.8102
   10MPD2     H13956   1.253   0.120  12.671  1.0099 -0.0732  0.9674
   10MPD2    H113957   1.278   0.425  12.367 -1.0382 -0.8201  0.0050
   10MPD2    H213958   1.628   0.249  12.529 -0.6973 -0.2430  1.0626
   10MPD2    H313959   1.514   0.403  12.353  0.0925 -1.1604 -0.8801
   10MPD2     N13960   1.114   0.296  12.552  0.3304  0.0110  0.1479
   10MPD2    H513961   1.083   0.258  12.641  1.0627 -1.0665 -0.0591
   10MPD2    N113962   1.511   0.113  12.711 -0.1378  0.1120  0.6041
   10MPD2    H713963   1.446   0.072  12.778 -1.1900 -3.1240 -2.4177
   11MPD2     C13964   2.127   3.936  13.585 -0.3782 -0.2972 -0.7226
   11MPD2    C113965   2.155   3.973  13.716 -0.0755  0.0147 -0.6843
   11MPD2    C213966   2.202   4.105  13.735 -0.1067  0.3141  0.8449
   11MPD2    C313967   2.226   4.191  13.628  0.2360 -0.0576  0.2164
   11MPD2    C413968   2.205   4.146  13.498 -0.3302 -0.5658  0.1052
   11MPD2    C513969   2.153   4.023  13.477 -0.0367 -0.5313  0.1292
   11MPD2     H13970   2.221   4.142  13.835  0.9605  0.6258  0.5280
   11MPD2    H113971   2.238   4.200  13.410 -3.4484  0.6413 -0.2794
   11MPD2    H213972   2.094   3.840  13.548  0.8588 -1.6092  1.5467
   11MPD2    H313973   2.137   3.971  13.383 -0.6153 -2.0682  1.0697
   11MPD2     N13974   2.275   4.324  13.643 -0.6098 -0.1142  0.4286
   11MPD2    H513975   2.291   4.379  13.559 -0.5543  2.0226  1.8570
   11MPD2    N113976   2.115   3.896  13.826  0.5798  0.4950  0.8098
   11MPD2    H713977   2.125   3.935  13.919  1.6344  1.1200  0.4307
    1MPD1     C13978   3.835   0.272  16.713  0.7578 -0.0585 -0.0867
    1MPD1    C113979   3.910   0.360  16.640 -0.7954 -0.4176 -0.3339
    1MPD1    C213980   4.003   0.438  16.710 -0.3707  0.2571 -0.5533
    1MPD1    C313981   4.006   0.444  16.846  0.3617 -0.1950  0.2243
    1MPD1    C413982   3.928   0.354  16.917 -0.5134  0.1515  0.5889
    1MPD1    C513983   3.848   0.272  16.847 -0.1912 -0.4849 -0.6396
    1MPD1     H13984   4.073   0.499  16.654 -0.9771  2.0092  0.5858
    1MPD1    H113985   3.943   0.338  17.023  1.1768  0.5708  0.4133
    1MPD1    H213986   3.765   0.209  16.658 -0.8586  1.9584 -0.3145
    1MPD1    H313987   3.783   0.209  16.907 -1.1907  1.0807 -0.0838
    1MPD1     N13988   4.104   0.519  16.927 -0.9710  0.0227 -0.4064
    1MPD1    H513989   4.106   0.489  17.024  1.0227 -0.0226 -0.4522
    1MPD1    N113990   3.919   0.339  16.503  0.1868 -0.0948 -0.3446
    1MPD1    H613991   3.939   0.425  16.452 -3.8518  0.5434 -0.8782
    1MPD1    H713992   3.835   0.289  16.473 -0.1435  0.3045 -0.0891
    2MPD1     C13993   0.107   0.265  17.544 -0.0997  0.3227  0.2194
    2MPD1    C113994   0.176   0.334  17.452  0.3331  0.2529 -1.0146
    2MPD1    C213995   0.098   0.385  17.349  0.1362 -0.0310 -0.4237
    2MPD1    C313996   4.686   0.387  17.350 -0.2699  1.1980 -0.1890
    2MPD1    C413997   4.613   0.327  17.450  0.2088  0.4831  0.1744
    2MPD1    C513998   4.690   0.269  17.548 -0.2598  0.4045 -0.0139
    2MPD1     H13999   0.142   0.448  17.273 -0.9289 -0.1683 -1.1608
    2MPD1    H114000   4.506   0.313  17.452  0.4597 -1.5476  0.1927
    2MPD1    H214001   0.163   0.212  17.620 -1.5316 -0.2773  0.8429
    2MPD1    H314002   4.647   0.199  17.618  1.8587 -0.1450  0.7620
    2MPD1     N14003   4.634   0.470  17.247  0.4067 -0.4567  0.5059
    2MPD1    H514004   4.708   0.520  17.199  1.6851 -2.3113  0.5418
    2MPD1    N114005   0.316   0.340  17.448  0.3262 -0.1494  0.3012
    2MPD1    H614006   0.361   0.308  17.534  2.2526  2.6177  0.3364
    2MPD1    H714007   0.335   0.439  17.436 -1.2518 -0.2342 -2.9602
    3TMC3    C114008   4.474   0.560  17.105  0.4003 -0.1153  0.1558
    3TMC3    C214009   4.551   0.670  17.076 -0.3367  0.0828  0.3532
    3TMC3    C314010   4.503   0.762  16.992  0.1863  0.2200  0.2022
    3TMC3    C414011   4.355   0.548  17.041  0.5439 -0.9628  0.2287
    3TMC3    C514012   4.305   0.646  16.964  0.4314  0.4430 -0.2289
    3TMC3    C614013   4.384   0.753  16.935 -0.4293  0.0735  0.2141
    3TMC3     C14014   4.502   0.474  17.215 -0.4866 -0.2464  0.1941
    3TMC3     O14015   4.405   0.410  17.256 -0.0382 -0.1219  0.0786
    3TMC3     H14016   4.634   0.692  17.143 -2.0302  1.1238  2.0880
    3TMC3    H114017   4.299   0.455  17.050 -1.1922 -0.1983 -2.7586
    3TMC3    H214018   4.349   0.818  16.855 -1.7264 -2.0030 -0.9217
    3TMC3    C714019   4.188   0.618  16.876 -0.3412  0.0853 -0.6440
    3TMC3    C814020   4.600   0.857  16.940 -0.0500 -0.1889  0.0036
    3TMC3    O114021   4.188   0.669  16.767 -0.2991 -0.8288  0.0320
    3TMC3    O214022   4.718   0.836  16.970  0.0750 -0.0770  0.0728
    4MPD1     C14023   0.005   1.304  16.736  0.1955  0.4711  0.1576
    4MPD1    C114024   4.601   1.288  16.712 -0.7233 -0.2454 -0.2206
    4MPD1    C214025   4.547   1.176  16.762 -0.3247  0.3432  0.6201
    4MPD1    C314026   4.620   1.081  16.830 -0.2048 -0.5411  0.2351
    4MPD1    C414027   0.025   1.106  16.861  0.4919  0.1476 -0.2194
    4MPD1    C514028   0.082   1.219  16.810  0.1850  0.3570  0.6610
    4MPD1     H14029   4.445   1.152  16.732 -0.5841  0.4068  1.4543
    4MPD1    H114030   0.088   1.043  16.921  0.5814  2.3987  2.0292
    4MPD1    H214031   0.061   1.388  16.697  0.1671  0.3338 -0.1733
    4MPD1    H314032   0.187   1.242  16.819  0.7262 -1.0093 -2.1614
    4MPD1     N14033   4.548   0.966  16.876 -0.1931  0.2086 -0.0451
    4MPD1    H514034   4.447   0.968  16.865 -0.3600 -0.7014  1.2557
    4MPD1    N114035   4.536   1.366  16.621  0.1204  0.5289  0.5079
    4MPD1    H614036   4.439   1.377  16.649 -0.6337 -2.3184 -0.8884
    4MPD1    H714037   4.569   1.462  16.625  0.2090  0.4363  1.9821
    1TCq1    O114038   0.949   0.688  12.255  0.5024 -0.1611 -0.8129
    1TCq1    C114039   0.907   0.723  12.130  0.2349 -0.0550  0.8879
    1TCq1    O214040   0.847   0.828  12.097 -0.1082 -0.2801 -0.0519
    1TCq1    C214041   0.993   0.657  12.030 -0.1654 -0.2074  0.2108
    1TCq1    C314042   1.072   0.560  12.067 -0.6838  0.4422 -0.1917
    1TCq1    C414043   1.159   0.507  11.972 -0.0849  0.5544  0.7041
    1TCq1    C514044   1.158   0.558  11.839 -0.2208 -0.3278  0.9075
    1TCq1    C614045   1.098   0.680  11.820 -0.0321 -0.0510 -0.0970
    1TCq1    C714046   1.010   0.725  11.909  0.1912  0.1979  0.6195
    1TCq1    C814047   1.084   0.731  11.680  0.2684  0.8017 -0.2339
    1TCq1    O414048   0.997   0.812  11.663 -0.0767  0.0421 -0.0491
    1TCq1    C914049   1.209   0.378  11.996 -0.3722  0.3842  0.2460
    1TCq1    O514050   1.194   0.332  12.111 -0.2256 -0.2670 -0.1645
    1TCq1    O614051   1.285   0.331  11.912 -0.6574 -0.3528  0.5965
    1TCq1    H114052   0.986   0.597  12.255  1.4704  0.2245  2.3726
    1TCq1    H214053   1.035   0.493  12.144  1.1257 -0.9588 -0.5468
    1TCq1    H314054   1.217   0.512  11.761  0.3044  1.3002  0.3393
    1TCq1    H414055   0.943   0.805  11.881  2.7772  1.4617 -1.9834
    2MPD1     C14056   1.277   0.820  11.228  0.2232  0.9538  0.2369
    2MPD1    C114057   1.368   0.739  11.291  0.1789  0.2428  0.1347
    2MPD1    C214058   1.335   0.699  11.422  0.2101  0.0341  0.1520
    2MPD1    C314059   1.213   0.734  11.478  0.8754  0.0305 -0.0300
    2MPD1    C414060   1.132   0.820  11.418  0.0043 -0.8767  0.4900
    2MPD1    C514061   1.158   0.860  11.289 -0.5024 -0.4126 -0.0151
    2MPD1     H14062   1.402   0.638  11.483  1.3722  0.5280 -0.6315
    2MPD1    H114063   1.028   0.836  11.445  0.0721 -1.6264  1.2130
    2MPD1    H214064   1.296   0.855  11.127  1.9761 -1.8591 -0.3945
    2MPD1    H314065   1.085   0.921  11.236  1.4374  1.3964 -0.6072
    2MPD1     N14066   1.190   0.686  11.602  0.0680  0.1893  0.4561
    2MPD1    H514067   1.265   0.636  11.649  0.1697  0.0056  0.0976
    2MPD1    N114068   1.503   0.718  11.244  0.0887 -0.0017  0.0657
    2MPD1    H614069   1.563   0.800  11.252 -2.9527  2.2704 -0.3401
    2MPD1    H714070   1.549   0.648  11.303  1.1810  0.5616 -0.1127
    1TCq1    O114071   3.248   0.275   9.706  0.3870  0.0536  0.0358
    1TCq1    C114072   3.320   0.193   9.625  0.1453 -0.0553  0.2199
    1TCq1    O214073   3.280   0.142   9.517 -0.2367 -0.3361  0.3280
    1TCq1    C214074   3.447   0.271   9.623  0.4190  1.0705  0.6059
    1TCq1    C314075   3.468   0.350   9.512 -0.1482  0.1993 -0.2896
    1TCq1    C414076   3.560   0.449   9.513  0.2966  0.2851  0.1185
    1TCq1    C514077   3.638   0.462   9.626  0.0343 -0.9234  0.6100
    1TCq1    C614078   3.606   0.392   9.739  0.2091  0.4883 -0.3281
    1TCq1    C714079   3.511   0.292   9.739  0.0882  0.1231  0.0707
    1TCq1    C814080   3.707   0.378   9.843 -0.6669 -0.1394 -0.1263
    1TCq1    O414081   3.687   0.287   9.924 -0.6900  0.1841 -0.2845
    1TCq1    C914082   3.611   0.509   9.392 -0.2011 -0.5720  0.3733
    1TCq1    O514083   3.567   0.469   9.282  0.0063 -0.0523  0.2597
    1TCq1    O614084   3.702   0.599   9.408 -0.1708  0.2072 -0.2073
    1TCq1    H114085   3.307   0.318   9.773  0.7521 -0.2036 -0.1213
    1TCq1    H214086   3.419   0.325   9.418 -0.8702  0.0034  0.1345
    1TCq1    H314087   3.720   0.532   9.622 -0.2468 -0.6079  0.3902
    1TCq1    H414088   3.490   0.235   9.829  1.7887 -0.2767  0.2150
    2MPD1     C14089   4.054   0.592  10.154 -0.0324 -0.7468  0.0789
    2MPD1    C114090   4.037   0.672  10.047 -0.5950 -0.1186 -0.5188
    2MPD1    C214091   3.945   0.633   9.945 -0.0824 -1.1111 -0.2020
    2MPD1    C314092   3.892   0.505   9.941  0.1182  0.4584  0.8383
    2MPD1    C414093   3.921   0.419  10.045  0.2942 -0.3579  0.0317
    2MPD1    C514094   3.996   0.474  10.151  0.0936 -0.2860  0.3647
    2MPD1     H14095   3.919   0.704   9.867  1.0605 -0.7986 -0.3035
    2MPD1    H114096   3.900   0.312  10.046 -2.1655  0.1377  1.1538
    2MPD1    H214097   4.115   0.625  10.237  0.5270 -2.4715  0.3715
    2MPD1    H314098   4.016   0.411  10.236 -2.3712 -0.9585  0.4545
    2MPD1     N14099   3.806   0.476   9.839 -0.0939 -0.0791  0.1639
    2MPD1    H514100   3.799   0.549   9.768  1.8855 -0.9262 -0.8821
    2MPD1    N114101   4.103   0.797  10.038  0.7616 -0.5707  0.1582
    2MPD1    H614102   4.198   0.768  10.061  1.5594  1.8079 -0.1347
    2MPD1    H714103   4.104   0.832   9.943  0.3164 -0.6119  0.1374
    1MPD1     C14104   2.400   0.438  12.187  0.8265 -0.4906  0.1628
    1MPD1    C114105   2.306   0.527  12.141  0.2620  0.3394  0.3864
    1MPD1    C214106   2.282   0.538  12.006  0.4631  0.4485 -0.1511
    1MPD1    C314107   2.356   0.462  11.916  0.0632 -0.1672 -0.1368
    1MPD1    C414108   2.443   0.368  11.962  0.2668  0.5795 -0.5243
    1MPD1    C514109   2.469   0.360  12.096  0.2736 -0.2526  0.6224
    1MPD1     H14110   2.215   0.611  11.963  1.0791  0.4765 -1.0841
    1MPD1    H114111   2.504   0.295  11.911 -0.0935 -1.3794  1.8214
    1MPD1    H214112   2.427   0.438  12.292  0.4271  2.0988  0.2748
    1MPD1    H314113   2.553   0.300  12.131  0.5515  0.3955  1.0667
    1MPD1     N14114   2.325   0.490  11.782 -0.9458  0.0003 -0.5573
    1MPD1    H514115   2.249   0.556  11.768 -0.7633  0.0108 -1.4626
    1MPD1    N114116   2.238   0.615  12.232 -0.4162  0.0693 -0.3295
    1MPD1    H614117   2.229   0.578  12.326 -2.1570 -1.5509 -1.1384
    1MPD1    H714118   2.140   0.620  12.204 -0.2705 -1.0903 -1.0391
    2MPD1     C14119   2.052   1.303  10.848 -0.0658  0.5236 -0.2501
    2MPD1    C114120   2.037   1.230  10.726 -0.5284 -0.4203 -1.1975
    2MPD1    C214121   2.146   1.235  10.645  0.1936 -0.2993 -0.1453
    2MPD1    C314122   2.259   1.311  10.665 -0.2256  0.2527  0.0671
    2MPD1    C414123   2.268   1.376  10.785  0.4967 -0.0035 -0.3768
    2MPD1    C514124   2.163   1.372  10.876  0.6785  0.6454 -0.3436
    2MPD1     H14125   2.138   1.182  10.551 -2.1467 -0.3806  0.0854
    2MPD1    H114126   2.359   1.429  10.813  1.4410 -1.5463 -0.5533
    2MPD1    H214127   1.969   1.307  10.918 -1.0480 -1.7111 -1.2727
    2MPD1    H314128   2.170   1.422  10.972 -0.9090  1.2442 -0.5399
    2MPD1     N14129   2.367   1.323  10.570  0.4102  0.3081 -0.9971
    2MPD1    H514130   2.440   1.387  10.600  0.0903 -0.0813  0.6357
    2MPD1    N114131   1.931   1.149  10.698  0.1994 -0.3626  0.9840
    2MPD1    H614132   1.845   1.173  10.747 -0.3053  0.7916 -0.4669
    2MPD1    H714133   1.920   1.147  10.597  2.7654  1.0052  0.6646
    3MPD1     C14134   2.533   1.129   9.590  0.4532  0.2637  0.4140
    3MPD1    C114135   2.463   1.238   9.631  0.2408  0.2027  0.3362
    3MPD1    C214136   2.485   1.280   9.760 -0.4711  0.3824 -0.4787
    3MPD1    C314137   2.562   1.208   9.849  0.2103 -0.3041 -0.1694
    3MPD1    C414138   2.640   1.115   9.797  1.0709 -0.0492  0.4518
    3MPD1    C514139   2.637   1.086   9.661 -0.7652  0.8085  0.0994
    3MPD1     H14140   2.418   1.355   9.801 -1.1273 -0.9024  0.8140
    3MPD1    H114141   2.707   1.053   9.856  0.8783 -2.2867 -1.6960
    3MPD1    H214142   2.521   1.075   9.497 -1.3864  1.8831 -0.2892
    3MPD1    H314143   2.696   0.999   9.633  0.0114  1.0073  1.1314
    3MPD1     N14144   2.555   1.246   9.984 -0.6703  0.0625  0.0062
    3MPD1    H514145   2.482   1.314  10.003  2.2837  3.0207  0.7518
    3MPD1    N114146   2.359   1.293   9.556 -0.5802 -0.9308  0.2798
    3MPD1    H614147   2.311   1.379   9.579 -0.4771 -0.4550 -1.2720
    3MPD1    H714148   2.374   1.270   9.457 -2.8730 -1.4126  0.0347
    4MPD2     C14149   2.497   1.047  11.372  0.0532  0.3366  0.6838
    4MPD2    C114150   2.534   0.922  11.331  0.2409  0.7632  0.1039
    4MPD2    C214151   2.665   0.901  11.302  0.6900 -0.1457  0.7247
    4MPD2    C314152   2.747   1.007  11.302  0.2450 -0.1554 -0.3210
    4MPD2    C414153   2.708   1.135  11.322  0.1392 -0.0276 -0.5958
    4MPD2    C514154   2.582   1.150  11.368  0.0001 -0.4744  0.7552
    4MPD2     H14155   2.697   0.802  11.272 -1.0254 -0.6482  0.5601
    4MPD2    H114156   2.777   1.218  11.330  0.7888 -0.7115  1.0155
    4MPD2    H214157   2.394   1.065  11.401 -0.4173  0.4817 -1.0880
    4MPD2    H314158   2.558   1.251  11.400 -0.9006 -0.6066  0.4904
    4MPD2     N14159   2.880   0.978  11.272 -0.0046 -0.0980  0.6413
    4MPD2    H514160   2.903   0.880  11.262  0.1011  0.0151 -0.2247
    4MPD2    N114161   2.441   0.809  11.334  0.1513 -0.0605  0.1516
    4MPD2    H714162   2.470   0.724  11.288 -1.4434  0.2578 -1.4581
    5TMC3    C114163   2.291   0.659  11.405 -0.2808 -0.5322  0.6465
    5TMC3    C214164   2.296   0.600  11.526 -0.3956 -0.3823 -0.0706
    5TMC3    C314165   2.335   0.473  11.540  0.2845  0.7262 -0.1829
    5TMC3    C414166   2.346   0.597  11.291  0.1444 -0.0459 -0.1249
    5TMC3    C514167   2.392   0.470  11.309 -0.3700  0.4322  1.0305
    5TMC3    C614168   2.389   0.411  11.438  0.3682  0.2734  0.0357
    5TMC3     C14169   2.330   0.802  11.411  0.2396 -0.2174  0.1164
    5TMC3     O14170   2.289   0.870  11.506  0.2664 -0.0059 -0.3852
    5TMC3     H14171   2.273   0.672  11.604  3.5017  0.8237 -0.0412
    5TMC3    H114172   2.340   0.641  11.192 -1.9601 -1.5069 -0.6556
    5TMC3    H214173   2.435   0.313  11.448 -3.3639 -1.6043 -1.1080
    5TMC3    C714174   2.529   0.470  11.260  0.1589  0.0676  0.5060
    5TMC3    C814175   2.381   0.429  11.673 -0.0201 -0.1786  0.6186
    5TMC3    O114176   2.571   0.581  11.240 -0.0814 -0.5400 -0.1168
    5TMC3    O214177   2.455   0.331  11.676 -0.3461 -0.0986 -0.0215
    6TMC3    C114178   2.495   1.305  10.372  0.0432  0.1245 -0.8098
    6TMC3    C214179   2.505   1.277  10.239  0.6000 -0.1040  0.5556
    6TMC3    C314180   2.633   1.267  10.203  0.1441  0.4313 -0.6720
    6TMC3    C414181   2.608   1.320  10.453  0.2142  0.3564  0.8317
    6TMC3    C514182   2.731   1.298  10.409  0.0547  0.1623 -0.7568
    6TMC3    C614183   2.748   1.263  10.279 -0.0257  0.6229 -0.1644
    6TMC3     C14184   2.374   1.272  10.446  0.0731 -0.5829  0.0988
    6TMC3     O14185   2.298   1.196  10.386 -0.4118 -0.3289 -0.0883
    6TMC3     H14186   2.416   1.248  10.184  1.4035 -0.3294 -0.6394
    6TMC3    H114187   2.605   1.339  10.560 -1.2446 -1.3653  1.1065
    6TMC3    H214188   2.839   1.263  10.222  1.0849 -2.4043  1.6302
    6TMC3    C714189   2.823   1.231  10.505 -0.4341  0.4183  0.1987
    6TMC3    C814190   2.650   1.211  10.077  0.3095  0.5149 -0.0301
    6TMC3    O114191   2.816   1.246  10.628  0.0400  1.1638 -0.3403
    6TMC3    O214192   2.752   1.148  10.051  0.2981  0.6175 -0.4494
    7MPD2     C14193   3.013   0.295  11.215 -0.4774 -0.2118  0.0906
    7MPD2    C114194   2.957   0.422  11.218  0.1328 -0.1495  0.9750
    7MPD2    C214195   2.820   0.435  11.219  0.5183  0.6991  0.1644
    7MPD2    C314196   2.732   0.332  11.228 -1.2224  0.1380  0.5280
    7MPD2    C414197   2.789   0.201  11.234 -0.3331 -0.1440  0.1095
    7MPD2    C514198   2.926   0.187  11.210 -0.0551  0.5024 -0.1511
    7MPD2     H14199   2.786   0.537  11.205 -0.4833  0.2518 -0.6570
    7MPD2    H114200   2.720   0.118  11.230  3.0316 -2.9453  0.7743
    7MPD2    H214201   3.119   0.278  11.208  0.0958  2.3397  2.3963
    7MPD2    H314202   2.980   0.093  11.200 -0.9143  0.0159 -0.2232
    7MPD2     N14203   2.585   0.345  11.245  0.1605  0.4049  0.0323
    7MPD2    H514204   2.531   0.259  11.238 -1.2612  1.3291 -0.2503
    7MPD2    N114205   3.050   0.524  11.215 -0.2600  0.0233  0.3846
    7MPD2    H714206   3.148   0.496  11.219  0.1211  0.9169 -2.6375
    8TMC3    C114207   3.127   0.744  11.239  0.3043 -0.2966  0.3645
    8TMC3    C214208   3.182   0.759  11.113  0.4730  0.0483  0.3588
    8TMC3    C314209   3.188   0.890  11.063 -0.4597  0.6012  0.1098
    8TMC3    C414210   3.084   0.860  11.302 -0.1243  0.7326 -0.0565
    8TMC3    C514211   3.101   0.985  11.247  0.4604 -0.7893  0.3614
    8TMC3    C614212   3.150   1.002  11.122 -0.3480 -0.6777 -0.7208
    8TMC3     C14213   3.018   0.653  11.252 -0.3759 -0.3962 -0.1086
    8TMC3     O14214   2.911   0.700  11.283  0.1271  0.3899  0.2052
    8TMC3     H14215   3.203   0.670  11.055 -0.0120  1.8895 -2.6182
    8TMC3    H114216   3.037   0.858  11.400  1.0664  2.2141  0.5491
    8TMC3    H214217   3.139   1.097  11.072  0.9765  0.3239  0.8692
    8TMC3    C714218   2.986   1.065  11.265  0.0802  0.0578 -0.4174
    8TMC3    C814219   3.227   0.901  10.921  0.4847  0.3940 -0.2206
    8TMC3    O114220   2.995   1.187  11.263  0.4068 -0.0699 -0.7930
    8TMC3    O214221   3.306   0.816  10.876 -0.7162 -0.0092 -0.2498
    9MPD2     C14222   3.240   0.934  10.630 -0.6882 -0.0210  0.0140
    9MPD2    C114223   3.155   1.001  10.708 -0.6500  0.1308 -0.2180
    9MPD2    C214224   3.058   1.082  10.649 -0.1725 -0.0037  0.0494
    9MPD2    C314225   3.040   1.104  10.513 -1.2652  0.4699 -0.1139
    9MPD2    C414226   3.150   1.057  10.445 -0.0266  0.7091  0.3980
    9MPD2    C514227   3.233   0.964  10.499 -0.0330 -0.2855 -0.3603
    9MPD2     H14228   2.989   1.121  10.723  1.5114  1.4332  0.8414
    9MPD2    H114229   3.152   1.078  10.339 -2.6608 -3.5484 -0.5018
    9MPD2    H214230   3.320   0.870  10.664 -2.3460 -1.3601  1.3898
    9MPD2    H314231   3.317   0.920  10.445  0.3278 -0.1333  0.0738
    9MPD2     N14232   2.936   1.179  10.445 -0.2504  0.0911 -0.3487
    9MPD2    H514233   2.936   1.186  10.344 -0.7918 -0.2144 -0.3675
    9MPD2    N114234   3.150   0.989  10.849  0.4012  0.2191 -0.4831
    9MPD2    H714235   3.086   1.047  10.902  0.0147  1.1275 -1.9283
    1MPD1     C14236   1.710   0.203  15.669 -0.1135  0.1688  0.7888
    1MPD1    C114237   1.628   0.217  15.775  0.4859  0.2509  0.3948
    1MPD1    C214238   1.623   0.112  15.866  0.0915 -0.6907 -0.2113
    1MPD1    C314239   1.692   4.722  15.858 -0.3893 -0.5532  0.2740
    1MPD1    C414240   1.783   4.713  15.751 -0.5020 -0.0642  0.2633
    1MPD1    C514241   1.784   0.088  15.654 -0.6748  0.0865 -0.3864
    1MPD1     H14242   1.555   0.129  15.949 -1.9971 -0.5530 -1.9647
    1MPD1    H114243   1.859   4.636  15.752 -1.6343 -1.1797  0.8323
    1MPD1    H214244   1.721   0.286  15.600  0.4343 -0.8940 -0.4026
    1MPD1    H314245   1.859   0.074  15.577 -0.0120  2.4089 -0.1492
    1MPD1     N14246   1.697   4.628  15.962 -0.3137  0.7205  0.2382
    1MPD1    H514247   1.726   4.535  15.936  2.3263  1.7198 -0.4217
    1MPD1    N114248   1.520   0.311  15.775 -0.2219  0.4901 -0.3724
    1MPD1    H614249   1.541   0.397  15.725  0.2922  1.1320  0.9510
    1MPD1    H714250   1.482   0.331  15.868 -0.1138 -1.3306  0.0560
    2MPD1     C14251   0.888   4.318  16.417 -0.2132 -0.7159  0.9847
    2MPD1    C114252   0.908   4.405  16.316 -0.2447  0.9249 -0.2694
    2MPD1    C214253   1.042   4.441  16.287  0.2172  0.0586 -0.2384
    2MPD1    C314254   1.143   4.393  16.373 -0.3924 -0.8430 -0.0820
    2MPD1    C414255   1.112   4.316  16.483 -0.5223 -0.1164  0.3905
    2MPD1    C514256   0.982   4.280  16.507 -0.3577 -0.8588 -0.3176
    2MPD1     H14257   1.060   4.499  16.198  0.5783 -3.1179 -2.2573
    2MPD1    H114258   1.177   4.274  16.559 -1.8903 -0.3608  1.4193
    2MPD1    H214259   0.793   4.267  16.431  0.4375 -1.9905  0.7715
    2MPD1    H314260   0.958   4.211  16.587  1.2250 -0.7212  0.2882
    2MPD1     N14261   1.278   4.422  16.331  0.1639 -0.2952 -0.0992
    2MPD1    H514262   1.297   4.485  16.254  3.0144 -3.3196 -1.8959
    2MPD1    N114263   0.801   4.441  16.232  0.0351 -0.2546 -0.2174
    2MPD1    H614264   0.798   4.534  16.192 -1.7770 -0.6945 -1.1420
    2MPD1    H714265   0.709   4.436  16.277  0.5634  2.5132  1.1223
    3TCq2    C114266   1.378   4.332  16.366 -0.3116 -0.8689  0.1046
    3TCq2    O214267   1.378   4.223  16.412 -0.4573 -0.2630 -0.2228
    3TCq2    C214268   1.509   4.372  16.303 -0.1599 -0.3934  0.0739
    3TCq2    C314269   1.580   4.270  16.257  0.1478 -0.3524 -0.2497
    3TCq2    C414270   1.686   4.293  16.173 -0.6505  0.6975 -0.6543
    3TCq2    C514271   1.718   4.420  16.140  0.3046 -0.5858  0.1303
    3TCq2    C614272   1.635   4.523  16.170  0.1063  0.3202 -0.2175
    3TCq2    C714273   1.532   4.503  16.256  0.1239 -0.4015  0.4520
    3TCq2    C814274   1.627   4.644  16.087 -0.0519  0.5154  0.1729
    3TCq2    O414275   1.576   0.017  16.139  0.0511  0.6915  0.3013
    3TCq2    C914276   1.765   4.190  16.108 -0.3112  0.0617  0.1546
    3TCq2    O514277   1.743   4.072  16.144  0.1409 -0.9363 -0.4993
    3TCq2    O614278   1.851   4.219  16.019 -0.2429 -1.0232  0.0454
    3TCq2    H214279   1.574   4.167  16.292  1.3812 -0.6018 -0.7958
    3TCq2    H314280   1.792   4.429  16.062 -1.0476  1.4342 -0.9264
    3TCq2    H414281   1.477   4.591  16.288 -0.0438 -0.0105 -0.9209
    1TCq1    O114282   4.246   3.256  12.253  0.2938 -0.0247 -0.0359
    1TCq1    C114283   4.341   3.241  12.161  0.3541  0.3881  0.7796
    1TCq1    O214284   4.328   3.164  12.066 -0.2003 -0.3098  0.4593
    1TCq1    C214285   4.440   3.342  12.172  0.3801  0.1384 -0.4399
    1TCq1    C314286   4.502   3.395  12.065  0.0785 -0.0251 -0.2351
    1TCq1    C414287   4.625   3.445  12.073  0.2971  0.8161  0.2811
    1TCq1    C514288   4.686   3.451  12.198  0.4206  0.0255  0.7591
    1TCq1    C614289   4.625   3.388  12.305  0.6132  0.3578  0.2045
    1TCq1    C714290   4.501   3.340  12.297  0.2117 -0.5356 -0.1937
    1TCq1    C814291   4.673   3.418  12.439 -0.1794  0.0501  0.0203
    1TCq1    O414292   4.586   3.416  12.530  0.4808 -0.6558  0.0949
    1TCq1    C914293   4.688   3.510  11.964 -1.0511  0.0740 -0.7422
    1TCq1    O514294   4.632   3.494  11.852  0.7506  0.4062  0.1316
    1TCq1    O614295   0.068   3.580  11.982  0.1885  0.2161  0.1436
    1TCq1    H114296   4.271   3.300  12.337 -1.1570 -0.4361  0.6160
    1TCq1    H214297   4.453   3.407  11.969 -2.2417  1.3516  1.1175
    1TCq1    H314298   0.055   3.508  12.200 -1.2943  2.8251 -0.3574
    1TCq1    H414299   4.452   3.292  12.380 -1.7031  3.5732  1.0272
    2MPD2     C14300   0.111   3.479  12.682  0.7824  0.4975  0.4009
    2MPD2    C114301   0.156   3.415  12.568  0.0640  0.0029 -0.4560
    2MPD2    C214302   0.284   3.368  12.566 -0.5082 -0.2862  0.0877
    2MPD2    C314303   0.356   3.371  12.680  0.3322  0.2098 -0.8701
    2MPD2    C414304   0.311   3.442  12.791  0.5882  0.4792 -0.7265
    2MPD2    C514305   0.186   3.497  12.795  0.1364  0.7968  0.2434
    2MPD2     H14306   0.329   3.322  12.479  0.2407  2.6697 -1.1114
    2MPD2    H114307   0.365   3.452  12.884  0.8383  0.5220 -0.8743
    2MPD2    H214308   0.017   3.532  12.684 -0.4105 -1.5139 -1.6912
    2MPD2    H314309   0.162   3.556  12.882 -2.7121  0.8395 -0.5644
    2MPD2     N14310   0.481   3.296  12.684  0.2867 -0.0401 -0.1825
    2MPD2    H514311   0.482   3.230  12.607  0.1673 -0.6810  0.3661
    2MPD2    N114312   0.088   3.409  12.447 -0.2256 -0.8252  0.0966
    2MPD2    H714313   0.136   3.370  12.366 -5.1470 -2.5327 -2.0022
    3TCq1    O114314   0.832   2.832  12.551  0.7535 -0.5518 -0.7081
    3TCq1    C114315   0.724   2.905  12.556  0.2411 -0.0542 -0.1767
    3TCq1    O214316   0.638   2.909  12.464  0.1856  0.4805  0.2585
    3TCq1    C214317   0.706   2.977  12.673 -0.8013 -0.8538  0.3284
    3TCq1    C314318   0.763   2.929  12.784  0.5390  0.4218 -1.1803
    3TCq1    C414319   0.782   3.012  12.889 -0.5302  0.1237  0.1293
    3TCq1    C514320   0.722   3.138  12.887  0.5004  0.2113  0.0548
    3TCq1    C614321   0.664   3.183  12.772 -0.5382  0.1973  0.9619
    3TCq1    C714322   0.653   3.102  12.661 -0.0851 -0.2672 -0.3348
    3TCq1    C814323   0.574   3.298  12.789  0.1087 -0.4392  0.1333
    3TCq1    O414324   0.580   3.367  12.889  0.7258 -0.0373  0.0148
    3TCq1    C914325   0.840   2.955  13.013  0.2164  0.4950 -0.3236
    3TCq1    O514326   0.894   2.846  12.996 -0.0098  0.5937  0.0777
    3TCq1    O614327   0.808   3.012  13.123  0.1820 -0.0374 -0.0405
    3TCq1    H114328   0.887   2.851  12.631  0.7100 -0.0800 -0.7909
    3TCq1    H214329   0.793   2.826  12.801  2.5313  1.0024 -1.1267
    3TCq1    H314330   0.733   3.209  12.968  1.0574 -0.2471  0.3797
    3TCq1    H414331   0.619   3.129  12.562 -0.8985  0.4089  0.1322
    1MPD2     C14332   0.530   4.632  14.667 -0.5921 -0.7851  0.4844
    1MPD2    C114333   0.434   4.553  14.727 -0.5880  0.7448  0.1083
    1MPD2    C214334   0.469   4.485  14.843  0.7652  0.4354 -0.1457
    1MPD2    C314335   0.594   4.506  14.902  0.5751 -0.3740  0.0483
    1MPD2    C414336   0.695   4.578  14.837 -0.0922  0.1031  0.2731
    1MPD2    C514337   0.667   4.636  14.718 -0.4295 -0.2933  0.4648
    1MPD2     H14338   0.399   4.439  14.911  0.6372 -0.1981 -0.7059
    1MPD2    H114339   0.795   4.584  14.879  0.4722 -2.0812 -0.7410
    1MPD2    H214340   0.502   4.691  14.580 -1.7165 -2.1927 -0.1135
    1MPD2    H314341   0.743   4.688  14.661 -1.7187 -0.3285 -1.2936
    1MPD2     N14342   0.603   4.436  15.021 -0.2787 -0.3711 -0.2975
    1MPD2    H514343   0.522   4.389  15.059  1.3034  0.0878  3.6697
    1MPD2    N114344   0.298   4.562  14.669  0.2249 -1.0618  0.2971
    1MPD2    H714345   0.276   4.626  14.594  1.1233  0.3537  1.2559
    2TMC3    C114346   0.065   4.496  14.652 -0.0877 -0.2791 -0.3402
    2TMC3    C214347   4.700   4.392  14.691  0.4187 -0.2298 -0.0056
    2TMC3    C314348   4.564   4.407  14.725  0.5472 -0.6567  0.1745
    2TMC3    C414349   0.015   4.627  14.653  0.0524  0.7367 -0.2326
    2TMC3    C514350   4.598   4.633  14.659  1.2655 -0.0266  0.0888
    2TMC3    C614351   4.512   4.526  14.693  0.6443 -0.2624 -0.1728
    2TMC3     C14352   0.193   4.483  14.711 -0.3574 -0.5997  0.1013
    2TMC3     O14353   0.192   4.397  14.800  0.3392  0.5121 -0.3319
    2TMC3     H14354   0.012   4.289  14.689 -0.7799 -0.6785  1.8797
    2TMC3    H114355   0.072   4.709  14.613  1.2273  0.6521  1.2566
    2TMC3    H214356   4.414   4.557  14.726  0.1315 -1.9529 -0.0842
    2TMC3    C714357   4.529   0.019  14.601  0.7204 -0.8258 -0.1552
    2TMC3    C814358   4.535   4.364  14.861  0.8457  0.4378 -0.7082
    2TMC3    O114359   4.419   0.004  14.552  0.5095  0.3115 -0.1282
    2TMC3    O214360   4.426   4.384  14.911 -0.4336  0.5037  0.3699
    3TCq1    O114361   0.316   0.928  14.389 -0.1453 -0.0492  0.0284
    3TCq1    C114362   0.220   1.022  14.406  0.8984  0.6626  0.4829
    3TCq1    O214363   0.147   1.068  14.318 -0.2513  0.6341 -0.3825
    3TCq1    C214364   0.165   0.968  14.531 -0.1007  0.6543 -0.1829
    3TCq1    C314365   0.250   0.918  14.628 -0.4078  0.0059 -0.3255
    3TCq1    C414366   0.212   0.812  14.707 -0.2703 -0.1738 -0.0372
    3TCq1    C514367   0.085   0.764  14.713 -0.4185 -0.3565  0.0216
    3TCq1    C614368   4.719   0.817  14.622 -0.0065  0.8664  0.7098
    3TCq1    C714369   0.035   0.916  14.537 -0.3163  0.0800  0.4777
    3TCq1    C814370   4.613   0.732  14.573  0.0912  0.5756  0.5577
    3TCq1    O414371   4.516   0.780  14.516  0.1064  0.5924 -0.6434
    3TCq1    C914372   0.307   0.767  14.806 -0.2647  0.6651  0.0190
    3TCq1    O514373   0.264   0.692  14.896 -0.0257 -0.2934 -0.4251
    3TCq1    O614374   0.425   0.784  14.770 -0.1617  0.6052 -0.3431
    3TCq1    H114375   0.355   0.891  14.471 -0.6803  0.6960  0.6223
    3TCq1    H214376   0.354   0.948  14.639 -0.6119  0.3716  0.6472
    3TCq1    H314377   0.057   0.693  14.790  1.2054 -1.0083  0.0148
    3TCq1    H414378   4.680   0.959  14.475  2.4188  0.2758 -2.8034
    4MPD2     C14379   4.483   0.507  14.466 -0.3126 -0.0556  0.4183
    4MPD2    C114380   4.587   0.495  14.550 -0.5996 -0.6562  0.4138
    4MPD2    C214381   4.626   0.373  14.593 -0.2901  0.2985  0.0230
    4MPD2    C314382   4.556   0.261  14.557  0.4517  0.4448  0.3972
    4MPD2    C414383   4.440   0.267  14.477  0.0983 -0.3364 -0.2048
    4MPD2    C514384   4.413   0.397  14.433 -0.1027  0.0499  0.4337
    4MPD2     H14385   4.720   0.365  14.646  0.1981 -0.5417 -0.9833
    4MPD2    H114386   4.389   0.185  14.428  0.2666 -0.5295 -0.0504
    4MPD2    H214387   4.455   0.596  14.411  0.8877 -0.7290 -1.2714
    4MPD2    H314388   4.331   0.398  14.363 -1.8475 -0.3862  2.4608
    4MPD2     N14389   4.600   0.137  14.610  0.3339 -0.1056  0.1437
    4MPD2    H514390   4.682   0.131  14.670  0.3581 -2.5866 -0.1572
    4MPD2    N114391   4.657   0.604  14.589  0.2535  0.0633  0.5659
    4MPD2    H714392   0.015   0.593  14.650  0.8484  2.6150  0.2154
    5TMC2    C114393   0.487   4.253  15.295  0.2531 -0.2964 -0.1371
    5TMC2    C214394   0.478   4.336  15.405 -0.4603 -0.3432 -0.3857
    5TMC2    C314395   0.573   4.429  15.428  0.0228  0.0390 -0.0709
    5TMC2    C414396   0.593   4.267  15.212  0.2912 -0.5873  0.6997
    5TMC2    C514397   0.675   4.377  15.227 -0.1356  0.2974  0.2453
    5TMC2    C614398   0.676   4.454  15.342 -0.2438 -0.0758  0.4350
    5TMC2     C14399   0.368   4.247  15.212 -0.3214  1.0684  1.0020
    5TMC2     O14400   0.393   4.287  15.095 -0.1741 -0.1681 -0.4159
    5TMC2     H14401   0.394   4.329  15.473  0.5623  0.3062  0.9357
    5TMC2    H114402   0.611   4.201  15.127 -0.6238  0.5664 -0.3891
    5TMC2    H214403   0.722   4.552  15.336 -0.3954  0.0642  1.5779
    5TMC2    C714404   0.710   4.451  15.106 -0.0394 -0.3371 -0.2156
    5TMC2    C814405   0.577   4.495  15.556  0.3829 -0.0979  0.5087
    5TMC2    O114406   0.801   4.536  15.110  0.0717 -0.7802 -0.2812
    5TMC2    O214407   0.493   4.495  15.645 -0.6043  0.0738 -0.0171
    5TMC2    O514408   0.711   4.518  15.580 -0.7182  0.2767  0.7971
    5TMC2    H514409   0.771   4.495  15.506  0.9735  2.3557  1.5293
    6MPD2     C14410   4.582   4.250  15.141 -0.0518  0.8083 -0.5664
    6MPD2    C114411   4.686   4.283  15.053 -0.1276 -0.2531 -0.0268
    6MPD2    C214412   0.094   4.272  15.100  0.5117 -0.8083 -0.6286
    6MPD2    C314413   0.126   4.227  15.227 -0.1046 -0.0744 -0.9834
    6MPD2    C414414   0.028   4.191  15.315 -0.6991  0.2805 -0.2601
    6MPD2    C514415   4.622   4.210  15.265 -0.3853  0.4719  1.1523
    6MPD2     H14416   0.176   4.296  15.032  0.1973 -2.2060 -1.5062
    6MPD2    H114417   0.050   4.167  15.419 -0.6549  3.7082  0.5463
    6MPD2    H214418   4.481   4.251  15.102  0.5818  0.7861 -2.2379
    6MPD2    H314419   4.538   4.183  15.329 -1.3453  0.7287  0.0067
    6MPD2     N14420   0.255   4.218  15.284 -0.2210 -0.3152 -0.2104
    6MPD2    H514421   0.258   4.198  15.384  0.5342 -0.1271 -0.1969
    6MPD2    N114422   4.657   4.339  14.923 -0.3871  0.3754 -0.0360
    6MPD2    H714423   0.015   4.339  14.862 -0.8456 -1.0432 -0.6435
  945NH4     N114424   1.221   0.091  12.205  0.2202  0.4107  0.5204
  945NH4     H214425   1.319   0.076  12.236  0.0500  1.8371  1.7209
  945NH4     H314426   1.155   0.070  12.282  0.9750  0.3039  1.1344
  945NH4     H414427   1.200   0.030  12.124  1.3953  0.7270 -0.0309
  945NH4     H514428   1.211   0.190  12.175  2.2368 -0.0801 -1.7758
  946SOD     NA14429   3.965   2.713  10.387 -0.0435  0.0017  0.0652
  947SOD     NA14430   1.298   0.253  14.905 -0.0071 -0.0881  0.4347
  948SOD     NA14431   1.192   2.825   9.392 -0.2453  0.5262 -0.3392
  949SOD     NA14432   2.787   0.013  12.134  0.1716  0.3623 -0.2441
  950SOD     NA14433   1.582   1.045   8.087  0.0702 -0.3109 -0.2025
  951SOD     NA14434   4.452   0.332   1.290  0.6488 -0.0548 -0.0289
  952SOD     NA14435   0.288   2.820  11.514  0.0559  0.1884 -0.1244
  953SOD     NA14436   1.374   2.990   9.589  0.3261  0.7717  0.0805
  954SOD     NA14437   0.704   2.588  12.194  0.0696  0.2388 -0.1361
  955SOD     NA14438   0.343   3.872  11.847 -0.8316  0.2745  0.0152
  956SOD     NA14439   3.818   3.987  14.678  0.5884 -0.3415  0.0221
  957SOD     NA14440   0.133   3.693  11.802 -0.1289 -0.2236 -0.2923
  958SOD     NA14441   2.078   4.257  16.001 -0.2953 -0.0107 -0.2489
  959SOD     NA14442   4.262   1.116  10.576  0.0630  0.2936  0.1393
  960SOD     NA14443   2.577   2.405  12.746 -0.0630 -0.4142  0.1280
  961SOD     NA14444   0.032   1.397  10.416 -0.1470 -0.0572  0.1140
  962SOD     NA14445   1.535   4.700   5.872  0.0697  0.3867 -0.7647
  963SOD     NA14446   4.273   1.010  11.336  0.2560 -0.0890 -0.1025
  964SOD     NA14447   1.295   3.331  11.675 -0.3310 -0.4254 -0.2809
  965SOD     NA14448   2.764   2.319   9.913 -0.0281  0.0583 -0.3040
  966SOD     NA14449   2.116   3.167  11.313 -0.3407  0.6448 -0.7327
  967SOD     NA14450   0.897   4.183  12.959  0.2336 -0.2058 -0.5683
  968SOD     NA14451   0.227   3.658  12.100  0.3407 -0.2057  0.0656
  969SOD     NA14452   2.997   0.386  14.226 -0.3707 -0.7948  0.1166
  970SOD     NA14453   1.518   2.889   0.106  0.0882  0.0921  0.1405
  971SOD     NA14454   3.581   3.634  10.232 -0.1458  0.2654 -0.4098
  972SOD     NA14455   1.478   2.946  14.028 -0.0853 -0.0396  0.0239
  973SOD     NA14456   4.379   2.003   9.862  0.1041 -0.2100  0.3472
  974SOD     NA14457   3.072   0.288   6.411  0.3929 -0.0777 -0.5514
  975SOD     NA14458   4.119   4.409  10.312  0.3387 -0.0082 -0.0723
  976SOD     NA14459   3.640   3.125  13.712  0.2454  0.0129 -0.4901
  977SOD     NA14460   0.018   0.843  16.459  0.1369 -0.1971  0.1758
  978SOD     NA14461   2.049   2.600   0.872 -0.1844 -0.0045  0.3447
  979SOD     NA14462   2.849   1.140   3.176 -0.0316  0.1575  0.5995
  980SOD     NA14463   2.030   3.548  14.543 -0.2846  0.0040  0.1130
  981SOD     NA14464   0.385   1.964   9.609  0.0546 -0.2374 -0.0148
  982SOD     NA14465   3.451   1.876   8.762 -0.2757 -0.1042  0.4154
  983SOD     NA14466   0.848   0.880  15.948  0.1560  0.3541 -0.0864
  984SOD     NA14467   0.678   4.015  11.300  0.2328 -0.4509 -0.3607
  985SOD     NA14468   1.891   3.806  14.974 -0.2429 -0.6559  0.1033
  986SOD     NA14469   3.267   3.421  13.889 -0.0611  0.1587  0.1648
  987SOD     NA14470   1.061   4.303   4.126 -0.2027  0.0912  0.2900
  988SOD     NA14471   0.207   1.264   1.868 -0.1378  0.4838  0.3858
  989SOD     NA14472   2.829   0.635  10.438  0.2281  0.1896  0.0132
  990SOD     NA14473   3.645   4.128  11.000 -0.2567 -0.1318  0.0873
  991SOD     NA14474   2.030   3.870  14.599  0.0130 -0.0589  0.3863
  992SOD     NA14475   4.217   0.082  15.127 -0.2207  0.1981 -0.3346
  993SOD     NA14476   3.125   3.119   1.368 -0.0560 -0.0567 -0.3124
  994SOD     NA14477   3.054   0.504  13.329 -0.0225 -0.1622 -0.2906
  995SOD     NA14478   0.549   2.107   7.311  0.1848 -0.5354  0.4907
  996SOD     NA14479   2.560   4.189   0.388 -0.1517 -0.0606 -0.2921
  997SOD     NA14480   1.380   3.819  16.436  0.5227  0.3224  0.8152
  998SOD     NA14481   4.402   1.121  12.337 -0.6126  0.5800  0.7840
  999SOD     NA14482   1.776   2.197  14.189 -0.0100 -0.0514 -0.2845
 1000SOD     NA14483   4.529   0.643   1.426 -0.2012  0.0390 -0.2882
 1001SOD     NA14484   0.740   1.524  16.777 -0.1686  0.3452 -0.3297
 1002SOD     NA14485   0.697   2.789   0.271  0.2448 -0.0300 -0.1904
 1003SOD     NA14486   4.607   1.966   3.815  0.4554 -0.4553 -0.6480
 1004SOD     NA14487   0.770   3.468  15.233 -0.2177 -0.2753  0.0691
 1005SOD     NA14488   4.382   3.231   2.522  0.2848  0.1347 -0.0293
 1006SOD     NA14489   1.330   2.736  13.094  0.4770  0.0451 -0.2741
 1007SOD     NA14490   4.414   4.410  10.188 -0.0683 -0.2021 -0.0339
 1008SOD     NA14491   3.564   2.886   1.138 -0.1676  0.1543 -0.3712
 1009SOD     NA14492   2.345   4.091  10.619 -0.2606  0.0821  0.1573
 1010SOD     NA14493   4.053   2.782   1.301  0.4004  0.3739  0.8239
 1011SOL     OW14494   2.978   1.870   3.247  0.0511 -0.2870 -0.4199
 1011SOL    HW114495   2.976   1.953   3.294 -2.5519 -1.0593  0.8563
 1011SOL    HW214496   2.970   1.892   3.155 -0.9435 -1.2706 -0.5733
 1012SOL     OW14497   0.604   1.670   2.680  0.0234 -0.1152  0.0646
 1012SOL    HW114498   0.530   1.645   2.625 -0.8108  0.1702  1.0775
 1012SOL    HW214499   0.669   1.676   2.610  0.2379 -4.8801 -0.1915
 1013SOL     OW14500   0.718   3.490   0.933 -0.4181  0.1447 -0.3135
 1013SOL    HW114501   0.653   3.420   0.929 -1.2674  0.9341 -0.5615
 1013SOL    HW214502   0.689   3.547   0.861  0.4827 -1.0665 -1.6410
 1014SOL     OW14503   0.785   2.330  17.240  0.0473  0.4194 -0.2997
 1014SOL    HW114504   0.744   2.373  17.316  0.8803 -1.1423  1.0434
 1014SOL    HW214505   0.876   2.357  17.244  0.6324 -1.6697  0.6768
 1015SOL     OW14506   1.050   0.752   3.043  0.4760 -0.4074  0.6160
 1015SOL    HW114507   1.069   0.781   3.132 -1.2871 -1.1676  1.2520
 1015SOL    HW214508   1.129   0.699   3.034  0.4606 -0.4021  0.4433
 1016SOL     OW14509   3.807   3.652   7.838  0.0342 -0.2190  0.3710
 1016SOL    HW114510   3.789   3.615   7.752  2.4650  0.4328 -0.4153
 1016SOL    HW214511   3.866   3.725   7.819 -0.7008  0.4763  0.7489
 1017SOL     OW14512   3.666   4.714  11.235  0.4896  0.0180 -0.1612
 1017SOL    HW114513   3.591   0.025  11.284  0.5500  0.7520 -0.5728
 1017SOL    HW214514   3.647   0.013  11.144  0.9778 -2.9508 -0.9639
 1018SOL     OW14515   1.165   1.746   0.834 -0.4461 -0.0274 -0.3705
 1018SOL    HW114516   1.081   1.701   0.821 -0.2575 -0.4393 -0.1610
 1018SOL    HW214517   1.181   1.774   0.744  0.3198  0.9011  0.0597
 1019SOL     OW14518   3.755   1.019   4.662  0.1398 -0.1549  0.4430
 1019SOL    HW114519   3.731   0.930   4.638  2.3782  0.2515 -3.3487
 1019SOL    HW214520   3.722   1.023   4.751  1.3906  1.3925  0.8341
 1020SOL     OW14521   3.145   1.800   4.150 -0.3259 -0.2128 -0.5211
 1020SOL    HW114522   3.058   1.840   4.147  0.6989  1.9424 -1.0856
 1020SOL    HW214523   3.202   1.866   4.190  0.3765 -0.5194 -1.0247
 1021SOL     OW14524   4.032   4.253   3.351  0.5264 -0.5202  0.3427
 1021SOL    HW114525   3.978   4.211   3.418 -0.1949  0.5025  0.3892
 1021SOL    HW214526   4.111   4.276   3.400  0.4360 -0.8175  0.6344
 1022SOL     OW14527   1.506   3.448   4.525  0.5104 -0.5745  0.3169
 1022SOL    HW114528   1.600   3.436   4.509  0.3149  0.0547 -1.4046
 1022SOL    HW214529   1.477   3.419   4.438 -0.8408 -0.3288  0.6939
 1023SOL     OW14530   3.688   3.374   2.889 -0.2699 -0.0948  0.3355
 1023SOL    HW114531   3.672   3.392   2.982 -1.3033 -1.1580  0.3567
 1023SOL    HW214532   3.780   3.400   2.889 -0.0355 -0.9420  0.4187
 1024SOL     OW14533   4.574   3.016  15.359  0.1715  0.3021  0.1538
 1024SOL    HW114534   4.508   3.083  15.341  2.1093  2.3572  0.5595
 1024SOL    HW214535   4.594   3.009  15.265  1.3192  0.9358  0.3462
 1025SOL     OW14536   0.950   2.529   5.623  0.1811  1.0305  0.0452
 1025SOL    HW114537   0.928   2.621   5.638 -0.4934  1.1674 -1.8104
 1025SOL    HW214538   1.028   2.529   5.566  1.1256  0.3178  1.3383
 1026SOL     OW14539   1.609   1.058   6.661  0.1480  0.0055  0.5775
 1026SOL    HW114540   1.651   1.108   6.731  2.1911  0.4452 -0.9807
 1026SOL    HW214541   1.684   1.019   6.617 -0.5854 -0.4929 -0.2231
 1027SOL     OW14542   3.967   2.674  12.744 -0.3431  0.6072  0.6364
 1027SOL    HW114543   4.056   2.650  12.769 -0.4257 -0.7611 -0.3988
 1027SOL    HW214544   3.929   2.701  12.828  0.5874  0.6764  1.0407
 1028SOL     OW14545   2.693   1.438   4.176 -0.0321 -0.4635  0.4313
 1028SOL    HW114546   2.749   1.424   4.253 -0.6124 -0.4210  0.8631
 1028SOL    HW214547   2.708   1.362   4.121  3.0300  0.1275  0.4252
 1029SOL     OW14548   1.231   1.331  10.026  0.1848 -0.0123  0.9619
 1029SOL    HW114549   1.225   1.237  10.044  0.7860 -0.3830 -0.8157
 1029SOL    HW214550   1.326   1.341  10.019  0.0161  1.6891  1.1693
 1030SOL     OW14551   2.101   2.049   4.430 -0.1184 -0.0461 -0.3414
 1030SOL    HW114552   2.028   2.002   4.470 -0.6771 -1.1291 -2.6182
 1030SOL    HW214553   2.135   1.991   4.362  0.7883  1.5791 -1.2760
 1031SOL     OW14554   1.231   1.045  16.642  0.1353  0.2636  0.5319
 1031SOL    HW114555   1.189   0.960  16.626 -0.6547  0.3021  2.4817
 1031SOL    HW214556   1.283   1.015  16.716  0.7793  2.3796  0.9204
 1032SOL     OW14557   2.231   2.169  15.749  0.0365  0.1656  0.1029
 1032SOL    HW114558   2.312   2.190  15.796 -1.1846  1.4965  1.5702
 1032SOL    HW214559   2.163   2.206  15.804  0.8980 -0.2940  1.4953
 1033SOL     OW14560   3.753   1.211   2.166 -0.6160  0.2566 -0.4737
 1033SOL    HW114561   3.773   1.149   2.096 -0.1842 -0.8065  0.5898
 1033SOL    HW214562   3.664   1.181   2.184  0.0188  0.9488  3.7261
 1034SOL     OW14563   2.657   3.160   1.471 -0.2232  0.1116 -0.2352
 1034SOL    HW114564   2.570   3.145   1.435  0.2782 -1.2844 -0.8724
 1034SOL    HW214565   2.693   3.075   1.447  2.3603  1.1299 -0.0191
 1035SOL     OW14566   2.627   4.579   8.501 -0.2851 -0.1418 -0.2416
 1035SOL    HW114567   2.673   4.513   8.553 -0.8923 -0.2146  0.2147
 1035SOL    HW214568   2.565   4.516   8.463 -1.3560 -0.7029  2.4536
 1036SOL     OW14569   0.907   0.726   7.073  0.2448  0.3465 -0.2099
 1036SOL    HW114570   1.000   0.713   7.091  1.2517  2.9136 -3.4907
 1036SOL    HW214571   0.908   0.799   7.010 -1.7632 -0.6034 -1.3350
 1037SOL     OW14572   1.720   0.125   5.747  0.5141 -0.2512  0.2217
 1037SOL    HW114573   1.678   0.089   5.669 -1.9580 -0.9126  1.8402
 1037SOL    HW214574   1.695   0.216   5.737 -0.1688 -0.5460 -0.7816
 1038SOL     OW14575   3.695   1.594   6.052 -0.0294 -0.8817  0.0001
 1038SOL    HW114576   3.751   1.524   6.085  0.3523  0.1286  1.4431
 1038SOL    HW214577   3.758   1.663   6.069  1.0337 -1.5711 -1.1223
 1039SOL     OW14578   3.279   2.768   7.477  0.2861  0.3691  1.0204
 1039SOL    HW114579   3.320   2.697   7.526  0.4023 -0.5965 -0.4599
 1039SOL    HW214580   3.324   2.750   7.394  1.7203 -0.9307  2.0746
 1040SOL     OW14581   3.300   2.218   6.417  0.2277 -0.0928  0.2949
 1040SOL    HW114582   3.391   2.194   6.434 -0.0552 -0.9977  0.5187
 1040SOL    HW214583   3.309   2.235   6.323 -1.9420 -1.7181 -0.1940
 1041SOL     OW14584   2.355   3.120   8.925  0.9281 -0.0744 -0.0338
 1041SOL    HW114585   2.446   3.093   8.929  0.6869 -0.7996  0.4328
 1041SOL    HW214586   2.352   3.188   8.993 -2.1548 -0.0646 -0.1538
 1042SOL     OW14587   2.673   1.734  17.527  0.3659 -0.3243 -0.1504
 1042SOL    HW114588   2.733   1.799  17.563  0.7738  0.2293 -1.8388
 1042SOL    HW214589   2.602   1.795  17.508 -0.6172 -0.8195  1.8721
 1043SOL     OW14590   3.525   3.635   3.384  0.1161 -0.5503  0.4588
 1043SOL    HW114591   3.587   3.594   3.324  0.9013  0.7335  0.3953
 1043SOL    HW214592   3.466   3.564   3.411  1.6469 -1.4175  1.4845
 1044SOL     OW14593   0.839   3.786  12.265  0.0633  0.1203 -0.7919
 1044SOL    HW114594   0.856   3.868  12.217 -1.0820  0.3948 -0.7313
 1044SOL    HW214595   0.846   3.719  12.198  1.6391  0.3783 -0.8676
 1045SOL     OW14596   1.333   4.654  11.589 -0.3304  0.2867  0.3441
 1045SOL    HW114597   1.420   4.678  11.559  0.1270 -1.1280  0.5701
 1045SOL    HW214598   1.344   4.711  11.664  1.3998  1.3932 -0.7572
 1046SOL     OW14599   4.085   0.837   8.456  0.2198  0.7837  0.1184
 1046SOL    HW114600   4.047   0.925   8.457  0.2356  0.7991 -0.6307
 1046SOL    HW214601   4.063   0.823   8.549  2.4729 -1.7194  0.2957
 1047SOL     OW14602   1.619   3.499   3.449  0.0783  0.2066 -0.0763
 1047SOL    HW114603   1.558   3.491   3.375  0.9672  2.6792 -1.0797
 1047SOL    HW214604   1.558   3.499   3.522 -0.1693  0.2107 -0.2838
 1048SOL     OW14605   0.285   2.966   6.707  0.0363  0.7619 -0.2749
 1048SOL    HW114606   0.361   3.014   6.674  1.3392 -1.7933 -1.0348
 1048SOL    HW214607   0.290   2.988   6.800  1.1359 -0.1449 -0.1141
 1049SOL     OW14608   0.056   2.026  15.957  0.0287  0.0274 -0.2384
 1049SOL    HW114609   0.015   2.033  15.871  0.2357  2.9850 -0.0903
 1049SOL    HW214610   0.028   2.113  15.985 -1.9747 -1.2095  1.6344
 1050SOL     OW14611   0.691   1.418   8.410 -0.4467 -0.1277 -0.1958
 1050SOL    HW114612   0.627   1.348   8.404 -0.4416 -0.2484  1.0659
 1050SOL    HW214613   0.681   1.453   8.499  1.9146 -0.9585  0.3941
 1051SOL     OW14614   1.026   3.367  17.486  0.3140 -0.9280 -0.7378
 1051SOL    HW114615   0.953   3.419  17.454  0.7453  0.9852  1.4049
 1051SOL    HW214616   1.064   3.333  17.405  2.0695  1.4498 -0.9033
 1052SOL     OW14617   0.510   0.167   3.010 -0.1301 -0.2153  0.0366
 1052SOL    HW114618   0.539   0.086   3.051  0.4597  0.4117  0.8664
 1052SOL    HW214619   0.539   0.154   2.920  1.7260  2.1393  0.2740
 1053SOL     OW14620   2.353   3.801   6.093  0.1674  0.5180 -0.0849
 1053SOL    HW114621   2.318   3.885   6.123  2.1837  0.6618  1.8065
 1053SOL    HW214622   2.371   3.755   6.175 -0.1048  0.5444 -0.0090
 1054SOL     OW14623   4.007   3.136   5.270 -0.7272  0.0143 -0.1506
 1054SOL    HW114624   3.953   3.141   5.191 -0.1424 -0.2174 -0.5651
 1054SOL    HW214625   3.935   3.107   5.325 -0.4035 -2.0814 -0.8457
 1055SOL     OW14626   0.070   1.844   2.260  0.0613  0.5552  0.5329
 1055SOL    HW114627   0.081   1.767   2.316 -2.3890 -1.3423 -1.5596
 1055SOL    HW214628   0.147   1.900   2.267  0.4323  0.0594  0.4231
 1056SOL     OW14629   0.047   0.748   7.214  0.1401  0.0084 -0.2290
 1056SOL    HW114630   0.048   0.839   7.244 -1.7030  0.8403 -2.6833
 1056SOL    HW214631   4.717   0.760   7.135 -1.7292 -0.6666  0.9118
 1057SOL     OW14632   0.052   0.997   7.321  0.3820  0.0053 -0.6948
 1057SOL    HW114633   0.008   1.034   7.397 -2.3670  2.9587 -3.7480
 1057SOL    HW214634   0.014   1.042   7.245  3.0055  1.7199 -1.0195
 1058SOL     OW14635   1.012   0.184   4.079  0.1892  0.8568  0.1834
 1058SOL    HW114636   0.977   0.260   4.032  1.2240  0.5919 -1.0113
 1058SOL    HW214637   0.933   0.129   4.084  0.4987  0.3915 -0.0540
 1059SOL     OW14638   0.630   1.655  12.415  0.9418  0.1577  0.2206
 1059SOL    HW114639   0.640   1.658  12.510 -4.1326  0.2268  0.7559
 1059SOL    HW214640   0.635   1.561  12.399 -0.7114  0.2520 -0.8756
 1060SOL     OW14641   1.027   4.586   6.157 -0.1692 -0.6085 -0.0991
 1060SOL    HW114642   1.079   4.521   6.110  1.8146  1.2487 -0.4966
 1060SOL    HW214643   0.966   4.532   6.207  1.8462 -0.4951  2.4962
 1061SOL     OW14644   0.055   1.726   5.139  0.4241  0.2904 -0.0341
 1061SOL    HW114645   4.708   1.743   5.203 -0.0913  0.9895 -0.7807
 1061SOL    HW214646   0.025   1.651   5.088 -1.4094  0.3785  0.9099
 1062SOL     OW14647   2.469   4.391   3.674 -0.3627  0.6009 -0.0816
 1062SOL    HW114648   2.407   4.384   3.602 -2.1564 -0.8014  1.6028
 1062SOL    HW214649   2.518   4.466   3.642 -0.0488  0.5865  0.3650
 1063SOL     OW14650   0.758   4.543   7.733 -0.3263 -0.0484 -0.9774
 1063SOL    HW114651   0.800   4.614   7.782 -0.3102  0.1264 -1.2480
 1063SOL    HW214652   0.673   4.587   7.745  0.4306  0.6587  1.7951
 1064SOL     OW14653   0.677   2.602   7.879  0.1005 -0.3931 -0.1281
 1064SOL    HW114654   0.664   2.687   7.921 -0.6658 -0.3263 -0.5036
 1064SOL    HW214655   0.747   2.626   7.819 -1.2663 -1.1498 -2.0189
 1065SOL     OW14656   3.427   1.902   3.081 -0.2650 -0.1267  0.0924
 1065SOL    HW114657   3.512   1.868   3.109 -0.2176  0.5587  0.8151
 1065SOL    HW214658   3.457   1.984   3.042  1.0019 -0.1462  1.0125
 1066SOL     OW14659   2.408   1.491  17.156 -0.3183  0.2473  0.4595
 1066SOL    HW114660   2.332   1.445  17.191 -0.4556  0.4510  0.4286
 1066SOL    HW214661   2.366   1.577  17.148 -0.1032  0.3778  0.7517
 1067SOL     OW14662   0.111   0.425  11.099  0.2239  0.4322 -0.0774
 1067SOL    HW114663   0.076   0.496  11.152  0.7754  1.9681 -1.7963
 1067SOL    HW214664   0.064   0.349  11.133 -0.5961  0.7474 -0.5021
 1068SOL     OW14665   1.326   3.466  11.494  0.3590  0.0794  0.0141
 1068SOL    HW114666   1.323   3.462  11.399  0.1728 -1.1255  0.0651
 1068SOL    HW214667   1.255   3.526  11.518 -0.6473 -1.5394  1.0904
 1069SOL     OW14668   3.179   0.811   7.249 -0.2935  0.0081  0.0562
 1069SOL    HW114669   3.232   0.733   7.268  3.3121  2.0594 -1.6494
 1069SOL    HW214670   3.102   0.761   7.223  0.7538 -0.6218 -1.8390
 1070SOL     OW14671   1.518   0.208   9.825  0.5400  0.7525  0.3747
 1070SOL    HW114672   1.590   0.147   9.845  0.8619  0.8576 -0.4921
 1070SOL    HW214673   1.473   0.229   9.907  2.0173  0.5384  1.2439
 1071SOL     OW14674   2.255   1.446   0.202 -0.0045  0.2119 -0.3139
 1071SOL    HW114675   2.219   1.382   0.140 -1.3500  0.6741 -0.0200
 1071SOL    HW214676   2.304   1.506   0.146  0.4540  1.4836  1.4539
 1072SOL     OW14677   4.205   4.072   4.658 -0.4302  0.4948 -0.7905
 1072SOL    HW114678   4.298   4.049   4.652 -0.1082  1.8268 -0.7851
 1072SOL    HW214679   4.175   4.040   4.743  0.5538  1.3272 -0.1387
 1073SOL     OW14680   4.715   2.479   4.133 -0.0834 -0.4910  0.1220
 1073SOL    HW114681   4.645   2.477   4.067 -0.2460  1.0699  0.2506
 1073SOL    HW214682   0.069   2.493   4.078  0.6162 -0.1996  1.1769
 1074SOL     OW14683   0.494   0.478   5.271  0.5085  0.2416  0.1738
 1074SOL    HW114684   0.407   0.509   5.296  1.6895  2.5418  1.3605
 1074SOL    HW214685   0.539   0.511   5.349 -2.9860  0.4152  2.1090
 1075SOL     OW14686   4.080   4.519  14.101 -0.3779 -0.2913  0.5984
 1075SOL    HW114687   4.176   4.525  14.105 -0.3037  0.2757 -2.2681
 1075SOL    HW214688   4.066   4.501  14.009 -2.3174 -0.0794  0.8602
 1076SOL     OW14689   1.113   2.904   0.453  0.5391  0.2469 -0.2902
 1076SOL    HW114690   1.122   2.993   0.486  0.4800  0.2741 -0.3491
 1076SOL    HW214691   1.040   2.870   0.505 -0.2244  0.2966 -1.3485
 1077SOL     OW14692   2.970   3.805   6.766  0.1887 -0.0606 -0.1853
 1077SOL    HW114693   2.925   3.827   6.685 -1.2162  2.3623  1.2273
 1077SOL    HW214694   3.060   3.837   6.759 -0.2882  1.2608 -0.3560
 1078SOL     OW14695   3.947   2.655   4.406 -0.0646 -0.3669  0.5814
 1078SOL    HW114696   4.030   2.634   4.363 -0.1905  2.7350 -1.1746
 1078SOL    HW214697   3.885   2.601   4.356 -1.2780  1.4035  0.1653
 1079SOL     OW14698   2.826   4.631   2.073  0.2973  0.1026  0.2144
 1079SOL    HW114699   2.793   4.596   2.156 -1.7458 -0.1527 -0.7099
 1079SOL    HW214700   2.857   4.715   2.109 -2.5151  1.2714 -0.1226
 1080SOL     OW14701   1.685   4.224   2.993 -0.0165 -0.9416  0.2878
 1080SOL    HW114702   1.700   4.309   3.034  3.9831 -1.4514 -0.1246
 1080SOL    HW214703   1.699   4.239   2.900 -0.2190  0.0087  0.4117
 1081SOL     OW14704   2.265   2.096   9.004 -0.2491  0.0032 -0.0819
 1081SOL    HW114705   2.315   2.073   9.083  1.6632 -1.8142 -1.7930
 1081SOL    HW214706   2.341   2.140   8.967  1.9893 -2.1564  1.9000
 1082SOL     OW14707   4.050   1.031  10.506  0.3723  0.0307  0.5423
 1082SOL    HW114708   3.959   1.029  10.534 -0.3332 -1.2415 -1.7726
 1082SOL    HW214709   4.061   1.123  10.482 -0.6467 -0.2659 -1.0489
 1083SOL     OW14710   3.119   1.272   2.796  0.0238  0.1922 -1.1835
 1083SOL    HW114711   3.105   1.318   2.879 -1.3550 -5.1225  1.5461
 1083SOL    HW214712   3.208   1.304   2.781  0.4487 -0.4704 -0.1256
 1084SOL     OW14713   0.182   3.483   4.170  0.1720  0.5371  0.4111
 1084SOL    HW114714   0.114   3.416   4.159  1.4939 -0.6922 -0.3691
 1084SOL    HW214715   0.211   3.484   4.078  0.0131  1.9048  0.3833
 1085SOL     OW14716   1.650   3.102  13.388  0.3763 -0.4847  0.2683
 1085SOL    HW114717   1.730   3.152  13.373  0.0789 -0.7258 -2.1224
 1085SOL    HW214718   1.678   3.032  13.447 -0.1405 -0.4521  0.5555
 1086SOL     OW14719   2.743   2.056   6.728  0.2564 -0.2917 -0.0565
 1086SOL    HW114720   2.714   2.069   6.637  2.8463  1.6171 -0.6080
 1086SOL    HW214721   2.669   2.082   6.782  0.0503  2.8332 -1.8024
 1087SOL     OW14722   3.144   2.190   5.339 -0.2382 -0.3166 -0.0488
 1087SOL    HW114723   3.169   2.252   5.271 -0.4026  0.0736  0.2501
 1087SOL    HW214724   3.082   2.134   5.293  0.2016 -0.2944 -0.6655
 1088SOL     OW14725   0.237   2.833   6.010 -0.2985 -0.5694  0.2872
 1088SOL    HW114726   0.301   2.832   5.938  0.1132 -0.7210  0.6565
 1088SOL    HW214727   0.278   2.773   6.072  0.3653 -0.7145 -0.2969
 1089SOL     OW14728   0.426   2.538  12.501 -0.2424  0.0718 -0.3013
 1089SOL    HW114729   0.368   2.613  12.484 -0.8440 -0.1345  0.8816
 1089SOL    HW214730   0.421   2.529  12.596  0.1161  0.2521 -0.2659
 1090SOL     OW14731   4.510   4.291   2.840 -0.0767 -0.0005 -0.3983
 1090SOL    HW114732   4.433   4.267   2.787 -0.5643 -0.6020  0.5784
 1090SOL    HW214733   4.576   4.274   2.773  0.0420  1.1698 -0.5803
 1091SOL     OW14734   4.182   1.455   7.362 -0.5814  0.0958 -0.1379
 1091SOL    HW114735   4.191   1.538   7.316  1.9810  0.7307  1.4984
 1091SOL    HW214736   4.111   1.410   7.316  0.5189 -1.2043 -0.5768
 1092SOL     OW14737   0.750   2.378  11.819 -0.3622 -0.3736 -0.1760
 1092SOL    HW114738   0.720   2.294  11.855  2.9666 -0.9807  1.2059
 1092SOL    HW214739   0.728   2.431  11.895  0.5754 -1.3788  0.8093
 1093SOL     OW14740   3.697   0.191   0.945  0.2789 -0.5903 -0.5296
 1093SOL    HW114741   3.608   0.213   0.918  0.3355  2.2137  1.4932
 1093SOL    HW214742   3.688   0.096   0.946  0.9084 -0.5910  3.1670
 1094SOL     OW14743   1.322   4.116  12.815 -0.3427 -0.1480 -0.2987
 1094SOL    HW114744   1.364   4.199  12.795  1.2470 -0.6720  0.8427
 1094SOL    HW214745   1.257   4.103  12.746  1.5714  0.1543 -2.1488
 1095SOL     OW14746   0.886   0.194   5.483  0.5271 -0.0373  0.2374
 1095SOL    HW114747   0.939   0.195   5.563 -1.8915 -0.6007  1.8676
 1095SOL    HW214748   0.844   0.279   5.500  0.0759  0.2568 -2.3619
 1096SOL     OW14749   0.330   3.770   3.284  0.1243 -0.1774  0.0541
 1096SOL    HW114750   0.393   3.725   3.340 -0.7500 -3.2073 -1.4288
 1096SOL    HW214751   0.329   3.709   3.210 -0.3791 -0.0030 -0.0814
 1097SOL     OW14752   0.777   0.731   5.164  0.6341  0.4646 -0.2053
 1097SOL    HW114753   0.779   0.796   5.233  0.2934  1.0264 -0.7236
 1097SOL    HW214754   0.841   0.664   5.189  1.3607  1.4289  0.4845
 1098SOL     OW14755   2.024   2.730   3.490  0.3722 -0.5735  0.1485
 1098SOL    HW114756   2.096   2.757   3.432  1.1520 -0.9359  0.9490
 1098SOL    HW214757   1.998   2.655   3.436 -1.3310 -0.3315  0.6433
 1099SOL     OW14758   0.696   3.799   5.175 -0.5170  0.3142  0.2244
 1099SOL    HW114759   0.616   3.793   5.226  0.9735  2.2998  2.8034
 1099SOL    HW214760   0.760   3.749   5.225  0.0846 -0.8403 -1.6977
 1100SOL     OW14761   2.108   1.144   3.546 -0.0924 -0.0090  0.1923
 1100SOL    HW114762   2.176   1.124   3.609  0.0468  2.4903  0.8427
 1100SOL    HW214763   2.129   1.235   3.525  0.9406 -0.9383 -2.8153
 1101SOL     OW14764   1.139   2.484  15.713  0.2826  0.1930  0.5954
 1101SOL    HW114765   1.062   2.481  15.770 -0.3711 -1.3082 -0.3527
 1101SOL    HW214766   1.087   2.462  15.636 -0.4622  0.7026  0.9543
 1102SOL     OW14767   1.529   2.874   0.734 -0.0419  0.3870 -0.9085
 1102SOL    HW114768   1.508   2.931   0.660 -1.3019  1.7338  0.5014
 1102SOL    HW214769   1.619   2.908   0.736  0.4236 -0.8700 -0.2392
 1103SOL     OW14770   2.519   3.809   7.190  0.4032 -0.7991 -0.1228
 1103SOL    HW114771   2.575   3.830   7.264 -2.0701 -0.8802  1.7442
 1103SOL    HW214772   2.486   3.893   7.157  1.8881  0.1389  0.8281
 1104SOL     OW14773   4.347   4.672   9.694  0.1178  0.0585  0.5012
 1104SOL    HW114774   4.309   0.037   9.692 -2.1776 -0.9781 -1.6007
 1104SOL    HW214775   4.418   4.681   9.631 -0.0260 -0.0194  0.3284
 1105SOL     OW14776   2.330   1.621   4.029 -0.1451 -0.2185 -0.1354
 1105SOL    HW114777   2.309   1.641   4.120  0.4549  0.4051 -0.1345
 1105SOL    HW214778   2.408   1.675   4.018  1.1435 -1.6604  1.9731
 1106SOL     OW14779   0.583   1.547   4.668  0.1456 -0.3254  0.0145
 1106SOL    HW114780   0.636   1.596   4.605  0.0084 -1.1397 -0.7162
 1106SOL    HW214781   0.641   1.475   4.694 -0.3236 -0.1268  1.6354
 1107SOL     OW14782   2.745   0.446  17.121 -0.3984 -0.0750  0.3473
 1107SOL    HW114783   2.803   0.399  17.062 -0.7748  1.8916 -1.6036
 1107SOL    HW214784   2.735   0.527  17.071 -1.6877  0.1140  0.9319
 1108SOL     OW14785   1.927   0.094   2.318  0.1442  0.1153  0.3377
 1108SOL    HW114786   1.911   0.026   2.383  0.7851 -0.7116 -0.3564
 1108SOL    HW214787   2.005   0.060   2.274  0.7013  0.5940  0.9627
 1109SOL     OW14788   2.954   0.714   7.130  0.6228  0.1869 -0.3903
 1109SOL    HW114789   2.923   0.624   7.128 -0.4730  0.5927 -1.3847
 1109SOL    HW214790   2.877   0.760   7.097  1.0970 -0.3796 -2.3035
 1110SOL     OW14791   2.817   0.902   3.245  0.2498 -0.3636 -0.2117
 1110SOL    HW114792   2.823   0.817   3.201 -0.8739 -0.6528  0.1836
 1110SOL    HW214793   2.858   0.878   3.328  0.5894  0.5712 -0.1088
 1111SOL     OW14794   3.275   0.789  16.021  0.0453 -1.1782  0.0214
 1111SOL    HW114795   3.280   0.868  16.075 -1.2743 -1.9269  1.2481
 1111SOL    HW214796   3.198   0.814  15.969 -0.2566 -1.1186  0.4940
 1112SOL     OW14797   4.339   4.294   8.178  0.2954  0.1967 -0.0698
 1112SOL    HW114798   4.409   4.231   8.196 -2.0480 -1.9019  1.6020
 1112SOL    HW214799   4.268   4.253   8.227  0.8935 -0.5267  0.1863
 1113SOL     OW14800   0.639   2.997   1.271  0.0538 -0.1609 -0.0620
 1113SOL    HW114801   0.550   3.031   1.282 -0.3918 -1.5963  0.8121
 1113SOL    HW214802   0.652   3.010   1.177  1.8242 -1.8337 -0.0495
 1114SOL     OW14803   0.406   3.696   6.734 -0.0998  0.0267 -0.3865
 1114SOL    HW114804   0.365   3.664   6.815 -0.8478  0.2678 -0.6698
 1114SOL    HW214805   0.348   3.771   6.719 -0.5070 -0.2497 -0.1950
 1115SOL     OW14806   1.605   2.067  14.273  0.2320 -0.3247 -0.3398
 1115SOL    HW114807   1.586   1.974  14.258  0.0007 -0.4925  0.9959
 1115SOL    HW214808   1.513   2.095  14.267  0.6411  0.8207 -1.2496
 1116SOL     OW14809   2.381   2.533   0.937 -0.9054 -0.3905  0.3582
 1116SOL    HW114810   2.306   2.518   0.993 -0.9344 -0.3688  0.3250
 1116SOL    HW214811   2.459   2.535   0.993 -0.0590  0.1327 -0.8111
 1117SOL     OW14812   3.999   2.928  16.324  0.2126  0.3121 -0.0449
 1117SOL    HW114813   4.028   2.849  16.371 -2.5865  0.9236  2.7109
 1117SOL    HW214814   3.966   2.986  16.393  3.0764  0.6729  1.0257
 1118SOL     OW14815   4.096   0.621  12.822 -0.6981  0.1576  0.5583
 1118SOL    HW114816   4.091   0.709  12.784  1.9847  0.7788  1.6286
 1118SOL    HW214817   4.026   0.628  12.887 -0.0159 -0.3252  1.3555
 1119SOL     OW14818   0.826   4.110  11.622 -0.1941 -0.3996 -0.1763
 1119SOL    HW114819   0.857   4.138  11.535  0.5598  0.6229  0.4180
 1119SOL    HW214820   0.757   4.176  11.629 -0.1655 -0.2456 -1.3822
 1120SOL     OW14821   0.775   0.854   0.552  0.5448  0.3976 -0.6500
 1120SOL    HW114822   0.802   0.944   0.534 -2.2834  1.5207  0.6131
 1120SOL    HW214823   0.846   0.812   0.504 -1.1219  0.6478 -3.4083
 1121SOL     OW14824   4.255   4.363   9.016 -0.0626  0.8002  0.4663
 1121SOL    HW114825   4.304   4.351   9.098 -1.0036 -2.7763  0.5027
 1121SOL    HW214826   4.195   4.289   9.008 -0.9384  1.3093  2.2008
 1122SOL     OW14827   3.336   1.846   3.319 -0.6054 -0.2149  0.0090
 1122SOL    HW114828   3.363   1.854   3.228  0.3483 -3.1152  0.0424
 1122SOL    HW214829   3.242   1.829   3.314 -0.6721  0.1767 -0.0809
 1123SOL     OW14830   3.438   3.129   3.874 -0.3204  0.2447 -0.2928
 1123SOL    HW114831   3.372   3.079   3.922  1.6304 -0.1158  2.0094
 1123SOL    HW214832   3.491   3.165   3.945 -1.5668  0.8944  0.2982
 1124SOL     OW14833   0.146   2.823   2.151  0.6290 -0.2567 -0.2592
 1124SOL    HW114834   0.085   2.757   2.184 -0.2266  0.1315 -1.0957
 1124SOL    HW214835   0.208   2.777   2.095  1.1741 -0.8159  0.8084
 1125SOL     OW14836   4.009   0.967   2.154  0.4246  0.6516 -0.6129
 1125SOL    HW114837   4.017   0.973   2.059 -2.6162 -0.8535 -0.9532
 1125SOL    HW214838   3.920   0.932   2.159  2.0167 -3.0328  1.5958
 1126SOL     OW14839   0.211   3.163   4.150  0.1405  0.2824  0.0035
 1126SOL    HW114840   0.139   3.209   4.192 -1.4325 -1.5640 -0.6767
 1126SOL    HW214841   0.173   3.080   4.122  0.2181  2.0636 -5.4355
 1127SOL     OW14842   0.529   4.342  12.471  0.3554 -0.0428  0.0195
 1127SOL    HW114843   0.586   4.408  12.432  0.8761  0.3765  1.5111
 1127SOL    HW214844   0.440   4.358  12.439  0.1098  1.6389  1.5466
 1128SOL     OW14845   3.797   4.285   5.314 -0.0311 -0.0699  0.5794
 1128SOL    HW114846   3.882   4.286   5.358 -0.0070  1.9495  0.4845
 1128SOL    HW214847   3.789   4.192   5.292  0.3250  0.1262 -0.3621
 1129SOL     OW14848   4.523   1.868   2.339 -0.3319  0.0530 -0.2556
 1129SOL    HW114849   4.480   1.805   2.281 -2.5606  0.6195  0.7821
 1129SOL    HW214850   4.610   1.861   2.299 -0.6335  1.3905 -1.1705
 1130SOL     OW14851   2.508   4.248   3.049  0.4723  0.3419  0.1016
 1130SOL    HW114852   2.473   4.300   3.121 -0.4111  2.0793 -1.6124
 1130SOL    HW214853   2.566   4.310   3.005 -1.6032  2.2319  0.0676
 1131SOL     OW14854   1.336   1.026   9.027  0.0787  0.2384 -0.2187
 1131SOL    HW114855   1.358   1.056   8.939 -1.3741  2.4490  0.1635
 1131SOL    HW214856   1.316   1.110   9.067 -0.4410 -0.1357  0.3197
 1132SOL     OW14857   0.890   2.421  15.833  0.2004 -0.0452  0.1048
 1132SOL    HW114858   0.806   2.464  15.821 -0.2637 -1.2138 -0.8594
 1132SOL    HW214859   0.877   2.368  15.912  1.5164  0.7847  0.8858
 1133SOL     OW14860   2.880   3.676   0.651  0.1143  0.1297 -0.4228
 1133SOL    HW114861   2.878   3.727   0.569 -1.1150  0.2683 -0.2990
 1133SOL    HW214862   2.796   3.633   0.637 -0.2343  1.3201 -2.1531
 1134SOL     OW14863   2.415   3.574   6.570 -0.1593  0.0132 -0.1723
 1134SOL    HW114864   2.449   3.640   6.630  2.2611 -0.4188 -1.0507
 1134SOL    HW214865   2.348   3.525   6.616  0.0275  0.5622  0.6725
 1135SOL     OW14866   3.304   2.488   8.578  0.4022 -0.1579  0.2203
 1135SOL    HW114867   3.362   2.436   8.634  2.7669  1.0154 -1.1433
 1135SOL    HW214868   3.342   2.574   8.594 -0.6749  0.1999  0.9023
 1136SOL     OW14869   1.876   1.791   4.822 -0.1088 -0.6433  0.2523
 1136SOL    HW114870   1.919   1.713   4.856  1.0459 -0.2379 -0.2871
 1136SOL    HW214871   1.826   1.831   4.893  1.3884  0.3069  0.7579
 1137SOL     OW14872   3.830   0.955  13.713  0.1644  0.0621  0.5202
 1137SOL    HW114873   3.852   0.896  13.641 -3.0226  1.3064 -1.4842
 1137SOL    HW214874   3.851   1.046  13.691 -0.4704  0.0377 -0.1880
 1138SOL     OW14875   1.592   3.204  10.543 -0.2222  0.4541 -0.0538
 1138SOL    HW114876   1.666   3.253  10.580 -0.3417  0.3682  0.2948
 1138SOL    HW214877   1.605   3.126  10.597 -1.0138  0.8196  0.6569
 1139SOL     OW14878   0.427   2.222   2.765 -0.0615  0.6548 -0.1443
 1139SOL    HW114879   0.389   2.240   2.851 -1.7375 -0.9713 -0.5509
 1139SOL    HW214880   0.519   2.210   2.789 -0.6575 -3.3947  0.1305
 1140SOL     OW14881   3.323   0.379   4.017  0.0681 -0.2530  0.3308
 1140SOL    HW114882   3.291   0.392   4.106 -0.2927 -2.4109  0.5121
 1140SOL    HW214883   3.412   0.345   4.029  0.4925  1.3434  1.7814
 1141SOL     OW14884   0.833   2.300   6.474 -0.1967 -0.3984 -0.0677
 1141SOL    HW114885   0.833   2.246   6.554  1.0097 -0.5975 -0.1914
 1141SOL    HW214886   0.911   2.254   6.442  0.6914  0.1501  1.2811
 1142SOL     OW14887   2.145   1.804   4.644  0.0942  0.0105 -0.5692
 1142SOL    HW114888   2.058   1.822   4.679  0.7032 -0.4744  1.2082
 1142SOL    HW214889   2.145   1.710   4.625  0.5579  0.0223 -0.6243
 1143SOL     OW14890   0.517   4.003  11.475  0.6933 -0.3566  0.1113
 1143SOL    HW114891   0.478   3.954  11.546  0.1360 -3.4450 -2.3395
 1143SOL    HW214892   0.501   4.091  11.509  0.3735  0.1576 -1.3355
 1144SOL     OW14893   3.583   1.957   5.905 -0.2372  0.3632 -0.3373
 1144SOL    HW114894   3.564   1.908   5.985 -4.4442 -1.3009 -2.4062
 1144SOL    HW214895   3.637   1.894   5.858 -0.0981  1.0593 -1.1100
 1145SOL     OW14896   4.716   0.329  14.282  1.1833 -0.1208  0.1199
 1145SOL    HW114897   4.721   0.423  14.265  1.3246 -0.4284 -1.4814
 1145SOL    HW214898   4.624   0.317  14.303  1.4743  0.1218  1.5689
 1146SOL     OW14899   3.323   2.835  12.849 -0.3591 -0.1868 -0.0310
 1146SOL    HW114900   3.278   2.754  12.872 -0.2102  0.4552  2.4492
 1146SOL    HW214901   3.250   2.886  12.813 -3.2462 -1.8503  3.4451
 1147SOL     OW14902   2.751   3.221   7.006  0.3889 -0.3568 -0.0197
 1147SOL    HW114903   2.759   3.266   6.922  0.4104 -2.1806 -0.9771
 1147SOL    HW214904   2.831   3.170   7.004 -0.4787 -1.7577  1.2130
 1148SOL     OW14905   4.441   2.312   9.449  0.0533 -0.1774  0.1511
 1148SOL    HW114906   4.534   2.334   9.444  0.2360 -1.1894 -1.1261
 1148SOL    HW214907   4.415   2.310   9.541  0.8557 -0.9252  0.3602
 1149SOL     OW14908   1.381   1.480  13.060 -0.0008 -0.0809  0.3038
 1149SOL    HW114909   1.357   1.547  12.997 -0.1893 -1.5996 -1.2553
 1149SOL    HW214910   1.314   1.502  13.125  0.2329 -0.1536  0.5725
 1150SOL     OW14911   1.797   1.453   8.500  0.4646 -0.2751 -0.5144
 1150SOL    HW114912   1.705   1.461   8.476  0.7297 -0.5640 -1.6340
 1150SOL    HW214913   1.795   1.388   8.571  0.9933 -0.0791 -0.3153
 1151SOL     OW14914   0.566   3.787  13.617  0.2986  0.9251 -0.5877
 1151SOL    HW114915   0.562   3.753  13.527 -1.7183  1.9872 -0.9064
 1151SOL    HW214916   0.472   3.800  13.631 -0.2835 -1.7081 -1.9195
 1152SOL     OW14917   3.068   4.093   5.790 -0.2492  0.1076 -0.7337
 1152SOL    HW114918   3.103   4.012   5.753 -0.2207 -0.2449  0.0590
 1152SOL    HW214919   3.100   4.159   5.729 -1.6642  0.9775 -0.5185
 1153SOL     OW14920   4.206   2.758  16.854  0.0577  0.5209  0.4404
 1153SOL    HW114921   4.116   2.725  16.850  1.6198 -3.5565 -0.9749
 1153SOL    HW214922   4.232   2.749  16.762 -1.7115 -0.7637  0.0544
 1154SOL     OW14923   4.677   0.881   1.664 -0.4993  0.1131 -0.2373
 1154SOL    HW114924   4.632   0.865   1.581  0.6165  1.8918 -1.1949
 1154SOL    HW214925   0.040   0.893   1.624 -0.3682  1.6181  0.4884
 1155SOL     OW14926   3.711   1.255   6.539 -0.1035  0.1087  0.1422
 1155SOL    HW114927   3.656   1.238   6.462  1.0516 -1.2324 -0.3800
 1155SOL    HW214928   3.799   1.258   6.502 -1.2514  0.1983 -2.6336
 1156SOL     OW14929   1.859   0.249   6.054  0.3872 -0.5201  0.2412
 1156SOL    HW114930   1.932   0.310   6.044  0.8373 -0.6432  2.5930
 1156SOL    HW214931   1.819   0.293   6.129  0.7046 -1.3348  0.8904
 1157SOL     OW14932   2.545   3.711   4.682 -0.2789  0.0917  0.4467
 1157SOL    HW114933   2.506   3.686   4.766 -1.0413 -0.7513 -0.1605
 1157SOL    HW214934   2.474   3.679   4.625 -0.8009  0.1574  1.0611
 1158SOL     OW14935   1.807   2.179   5.526  0.2577 -0.0022 -1.2124
 1158SOL    HW114936   1.816   2.149   5.616 -0.5626 -4.3070 -2.5500
 1158SOL    HW214937   1.725   2.145   5.489 -0.0992  1.2106 -1.5486
 1159SOL     OW14938   0.831   1.829  14.619 -0.5213 -0.3833 -0.5599
 1159SOL    HW114939   0.908   1.810  14.674 -0.2764 -0.9223 -1.0936
 1159SOL    HW214940   0.859   1.812  14.529  1.1810  1.8454 -0.4491
 1160SOL     OW14941   3.046   1.561  12.271  0.1837  0.3535 -0.0140
 1160SOL    HW114942   2.958   1.574  12.307 -0.2215  0.2124 -0.9662
 1160SOL    HW214943   3.046   1.620  12.196  1.3891  0.7327  0.2892
 1161SOL     OW14944   0.348   0.116   2.682  0.0544  0.0744  0.1715
 1161SOL    HW114945   0.421   0.059   2.707  1.8876  1.6420 -1.5456
 1161SOL    HW214946   0.274   0.058   2.698  0.5739 -1.5458 -3.2690
 1162SOL     OW14947   3.491   0.218   6.549 -0.5558  0.2306  0.3463
 1162SOL    HW114948   3.494   0.311   6.573  2.7839  0.4879 -1.0522
 1162SOL    HW214949   3.528   0.177   6.627  1.8240 -1.3422 -1.6196
 1163SOL     OW14950   0.237   2.119   1.518  0.0819 -0.0851  0.1842
 1163SOL    HW114951   0.241   2.052   1.449  0.3985  0.3139 -0.1871
 1163SOL    HW214952   0.232   2.068   1.599 -2.9455 -0.1745 -0.0438
 1164SOL     OW14953   0.487   3.182  15.423  0.5661  0.3239 -0.0336
 1164SOL    HW114954   0.393   3.172  15.436  0.2711  0.7537 -1.8187
 1164SOL    HW214955   0.490   3.146  15.334  2.7779  0.6813 -0.1146
 1165SOL     OW14956   4.071   0.332   7.262  0.2449  0.0955  0.0495
 1165SOL    HW114957   3.982   0.315   7.294 -0.2579 -0.3485 -1.6043
 1165SOL    HW214958   4.124   0.302   7.336  1.1630  1.6980  0.0268
 1166SOL     OW14959   2.757   2.393   3.653  0.1938  0.2445  0.0117
 1166SOL    HW114960   2.763   2.405   3.747 -0.5701 -1.8001  0.3274
 1166SOL    HW214961   2.701   2.315   3.645 -2.4124  2.2639 -1.3696
 1167SOL     OW14962   0.402   2.549  10.902 -0.1717 -0.2412  0.0191
 1167SOL    HW114963   0.368   2.490  10.969  0.6723  0.6434  1.2364
 1167SOL    HW214964   0.451   2.490  10.845 -1.1562 -1.5913  0.5681
 1168SOL     OW14965   0.476   2.239   4.819 -0.0167  0.3220 -0.2937
 1168SOL    HW114966   0.532   2.247   4.742  0.5173 -4.8399 -0.4524
 1168SOL    HW214967   0.448   2.150   4.795  1.0746 -1.0635  3.5340
 1169SOL     OW14968   1.499   0.353   5.631 -0.4223 -0.1777 -0.6713
 1169SOL    HW114969   1.545   0.428   5.669 -0.2265 -0.5980 -0.0861
 1169SOL    HW214970   1.410   0.376   5.603 -0.0863  3.1554  1.0776
 1170SOL     OW14971   3.499   1.657   3.459  0.2434  0.2151  0.2375
 1170SOL    HW114972   3.558   1.616   3.396  1.1113 -0.2967  1.3862
 1170SOL    HW214973   3.470   1.733   3.408 -2.6271 -2.1307 -1.5588
 1171SOL     OW14974   4.029   1.557   2.777 -0.0024  0.3552 -0.4403
 1171SOL    HW114975   4.108   1.590   2.821  0.2445 -0.2020 -0.4716
 1171SOL    HW214976   4.075   1.501   2.714  1.7621  2.8168 -1.3693
 1172SOL     OW14977   0.490   1.899   7.977 -0.8914 -0.7367  0.0705
 1172SOL    HW114978   0.408   1.856   7.954 -0.0184 -2.2488 -0.2217
 1172SOL    HW214979   0.535   1.873   7.896  1.3015 -0.8629  1.3346
 1173SOL     OW14980   1.206   2.621  13.864 -0.0459 -0.0002 -0.1984
 1173SOL    HW114981   1.175   2.542  13.820  0.0143 -0.4916  0.6454
 1173SOL    HW214982   1.237   2.672  13.790 -0.0489 -0.7314 -0.7023
 1174SOL     OW14983   0.907   3.927   0.564  0.1930 -0.0705  0.1243
 1174SOL    HW114984   0.977   3.936   0.629 -0.7051  2.8133  0.6909
 1174SOL    HW214985   0.864   4.011   0.550  1.2145  0.0424 -2.2934
 1175SOL     OW14986   0.893   2.821   0.647  0.6836 -0.0700 -0.0936
 1175SOL    HW114987   0.803   2.822   0.680  0.9753 -0.4907  0.7151
 1175SOL    HW214988   0.887   2.768   0.568 -3.2133  0.7126 -0.3319
 1176SOL     OW14989   2.147   0.922   3.359 -0.0134  0.0511  0.1113
 1176SOL    HW114990   2.100   0.968   3.429 -0.0103 -1.1577  0.9045
 1176SOL    HW214991   2.073   0.867   3.333  1.6138 -1.3212 -1.5502
 1177SOL     OW14992   4.541   3.029   3.513  0.3084  0.9161  0.6642
 1177SOL    HW114993   4.486   2.970   3.566  0.4557 -0.4601 -0.7345
 1177SOL    HW214994   4.631   3.018   3.544  0.2316 -1.1924  0.1244
 1178SOL     OW14995   0.059   0.022   6.397 -0.0352  0.2756 -0.3843
 1178SOL    HW114996   0.106   0.105   6.390 -0.7602  0.7908  0.8205
 1178SOL    HW214997   0.052   0.020   6.493 -1.8893 -1.0536 -0.5467
 1179SOL     OW14998   3.212   0.346  14.226  0.3981 -0.4711 -0.1335
 1179SOL    HW114999   3.218   0.295  14.146 -2.9490 -0.2990 -0.4886
 1179SOL    HW215000   3.301   0.377  14.241 -0.5885  2.1345  0.3842
 1180SOL     OW15001   4.225   4.246  17.528 -0.0731 -0.3655 -0.1598
 1180SOL    HW115002   4.250   4.154  17.533 -1.2838 -0.5761  1.8393
 1180SOL    HW215003   4.284   4.291  17.588 -1.3475  0.0731  0.7673
 1181SOL     OW15004   1.577   2.968  10.419  0.4606 -0.0965 -0.0396
 1181SOL    HW115005   1.613   3.056  10.429  1.9323 -0.4036 -2.7418
 1181SOL    HW215006   1.651   2.924  10.378  1.4614  3.9677 -2.6305
 1182SOL     OW15007   2.747   2.571   0.424  0.0586  0.0520  0.1084
 1182SOL    HW115008   2.736   2.532   0.511  0.4787  1.5768  0.8491
 1182SOL    HW215009   2.682   2.515   0.382  2.6266 -4.1499  1.8072
 1183SOL     OW15010   3.586   2.072   5.231  0.6817 -0.4018 -0.5129
 1183SOL    HW115011   3.619   2.047   5.318  0.5799 -0.7179 -0.5656
 1183SOL    HW215012   3.594   2.167   5.241  1.0322 -0.3210 -1.5702
 1184SOL     OW15013   2.970   4.230  16.408  0.4717  0.4329 -0.0109
 1184SOL    HW115014   2.955   4.246  16.501 -1.4704 -1.4139  0.0068
 1184SOL    HW215015   3.043   4.169  16.403  0.4400  0.3737  0.3055
 1185SOL     OW15016   2.490   3.370   4.750 -0.1567  0.3056 -0.0772
 1185SOL    HW115017   2.417   3.328   4.704 -0.1953 -0.1607  0.4198
 1185SOL    HW215018   2.501   3.319   4.830  0.6171  0.7086  0.0721
 1186SOL     OW15019   1.352   4.206   6.207 -0.1876 -0.4525 -0.0542
 1186SOL    HW115020   1.422   4.257   6.247 -0.6551 -0.4785  0.7979
 1186SOL    HW215021   1.306   4.197   6.290  1.8868  0.9255  1.2266
 1187SOL     OW15022   2.158   4.344  16.644 -0.0909 -0.4087 -0.0242
 1187SOL    HW115023   2.138   4.399  16.568  1.2760 -0.2986 -0.3122
 1187SOL    HW215024   2.108   4.267  16.617 -1.1678 -0.4061  1.9831
 1188SOL     OW15025   4.605   4.537  10.172  0.3325 -0.2478 -0.1893
 1188SOL    HW115026   4.577   4.628  10.159  0.4925 -0.4712 -2.1409
 1188SOL    HW215027   4.685   4.538  10.120  0.8473  1.0020  0.6270
 1189SOL     OW15028   1.240   2.944  12.919  0.1414  0.5590 -0.1891
 1189SOL    HW115029   1.243   2.970  13.011  1.1407 -0.1376 -0.0308
 1189SOL    HW215030   1.324   2.911  12.887  0.0841 -0.0672  0.2950
 1190SOL     OW15031   3.439   2.522   5.597 -0.4461 -0.3364 -0.6513
 1190SOL    HW115032   3.395   2.525   5.513 -0.5045 -1.3528 -0.6637
 1190SOL    HW215033   3.506   2.458   5.571 -0.3311 -0.4020 -0.2095
 1191SOL     OW15034   3.598   2.039   2.068 -0.1691 -0.2927  0.6267
 1191SOL    HW115035   3.522   1.990   2.100 -0.7560  1.1110  1.3623
 1191SOL    HW215036   3.668   1.974   2.080  1.4320  1.3991  0.4684
 1192SOL     OW15037   4.645   0.909   6.462  0.2900  0.2902  0.0400
 1192SOL    HW115038   4.571   0.961   6.433  1.2614  1.0624 -1.0713
 1192SOL    HW215039   4.606   0.822   6.451 -0.7689  0.6557  1.0137
 1193SOL     OW15040   0.856   3.639   1.317 -0.4770  0.0642 -0.5186
 1193SOL    HW115041   0.855   3.556   1.270 -0.1922  0.4464 -1.1965
 1193SOL    HW215042   0.914   3.619   1.390 -0.6410  3.7570  0.6360
 1194SOL     OW15043   3.199   3.601  10.368 -0.0938 -0.1280  0.1750
 1194SOL    HW115044   3.160   3.528  10.320 -0.0836 -1.2388  1.8698
 1194SOL    HW215045   3.120   3.638  10.407  0.9163  1.4217  0.7432
 1195SOL     OW15046   3.816   1.553   9.320  0.2161  0.2574 -0.3758
 1195SOL    HW115047   3.844   1.461   9.316  1.8997  0.8403 -2.3170
 1195SOL    HW215048   3.721   1.544   9.306  0.1260 -1.8434  1.5709
 1196SOL     OW15049   2.310   3.064   1.064  0.6651  0.0115  0.1143
 1196SOL    HW115050   2.337   3.084   1.154  1.1499 -0.4483  0.0750
 1196SOL    HW215051   2.383   3.079   1.004  1.7626 -1.5486  1.0464
 1197SOL     OW15052   1.783   2.875   6.768  0.4625  0.3276 -0.4115
 1197SOL    HW115053   1.773   2.953   6.823  1.6338 -1.2821  2.0663
 1197SOL    HW215054   1.792   2.810   6.837 -0.3562  1.6048  0.8926
 1198SOL     OW15055   3.807   3.927   1.452  0.3025  0.2903  0.2315
 1198SOL    HW115056   3.751   3.937   1.375 -1.3884 -0.6264  1.3432
 1198SOL    HW215057   3.752   3.975   1.514 -0.4191 -2.2606  1.5334
 1199SOL     OW15058   1.236   3.935   5.653  0.2068 -0.0614  0.0898
 1199SOL    HW115059   1.324   3.944   5.687 -0.8020  1.0010  2.4091
 1199SOL    HW215060   1.170   3.905   5.716 -0.8177  1.2087 -0.3696
 1200SOL     OW15061   0.109   3.773   5.508  0.1629  0.7766 -0.1494
 1200SOL    HW115062   0.101   3.868   5.513  4.2323  1.1327  0.1418
 1200SOL    HW215063   0.182   3.770   5.446  0.5174  0.3750  0.2848
 1201SOL     OW15064   1.912   3.159  11.449  0.0303  0.7579  0.3952
 1201SOL    HW115065   1.947   3.226  11.508 -0.0602  0.6604  0.5626
 1201SOL    HW215066   1.832   3.201  11.419  0.3921 -1.0229 -3.0657
 1202SOL     OW15067   0.260   0.025   8.338  0.3881 -0.0855 -0.1568
 1202SOL    HW115068   0.306   0.104   8.365 -0.2506  0.6670 -1.3053
 1202SOL    HW215069   0.193   0.026   8.407  1.0976 -1.7369  0.5582
 1203SOL     OW15070   2.871   3.498   0.870  0.1065 -0.3903  0.0869
 1203SOL    HW115071   2.845   3.554   0.943 -3.0740  0.2753 -1.5342
 1203SOL    HW215072   2.892   3.561   0.801  0.6953 -0.1845  0.4540
 1204SOL     OW15073   0.028   1.982   8.245 -0.0930 -0.0620  0.0215
 1204SOL    HW115074   0.116   1.996   8.279  0.1910 -2.6192  0.3100
 1204SOL    HW215075   0.047   1.968   8.153 -3.5536 -1.9147 -0.4222
 1205SOL     OW15076   1.529   0.065   4.002  0.8347 -0.3053  0.3015
 1205SOL    HW115077   1.434   0.053   4.002  0.8252 -0.2471  0.7046
 1205SOL    HW215078   1.557   4.712   4.054  1.9872 -0.6475 -0.8150
 1206SOL     OW15079   1.295   1.702   4.995  0.2196 -0.2788  0.6462
 1206SOL    HW115080   1.323   1.790   5.020 -1.5233  0.4914 -0.1093
 1206SOL    HW215081   1.354   1.691   4.920 -1.4505 -0.3701 -0.6525
 1207SOL     OW15082   2.626   1.256   9.213 -0.1326 -0.2360 -0.3190
 1207SOL    HW115083   2.531   1.269   9.208  0.0949  1.7722  0.4583
 1207SOL    HW215084   2.633   1.165   9.244 -0.9333  0.3844  1.7161
 1208SOL     OW15085   4.208   0.357   8.645 -0.1946  0.4877 -0.0807
 1208SOL    HW115086   4.232   0.303   8.569 -1.3980  0.8404 -0.7091
 1208SOL    HW215087   4.250   0.441   8.629  0.3451  0.3817  0.7809
 1209SOL     OW15088   2.811   2.703   6.268 -0.4595 -0.1907  0.0279
 1209SOL    HW115089   2.740   2.768   6.261  1.0397  1.6202  1.7502
 1209SOL    HW215090   2.819   2.704   6.363  1.4437 -0.7183 -0.1306
 1210SOL     OW15091   2.247   3.808   3.440 -0.4901 -0.5182 -0.1056
 1210SOL    HW115092   2.212   3.754   3.369 -0.9405 -1.6458  0.9963
 1210SOL    HW215093   2.337   3.823   3.412 -1.5141  1.1093 -2.6212
 1211SOL     OW15094   0.256   0.748   7.022  0.1183  0.4202  0.1883
 1211SOL    HW115095   0.212   0.771   7.104 -1.7148  2.1739 -1.2621
 1211SOL    HW215096   0.257   0.652   7.023 -2.5143  0.3734 -0.0650
 1212SOL     OW15097   3.366   3.791   6.659  0.3232 -0.4852 -0.0179
 1212SOL    HW115098   3.340   3.699   6.661  0.1500 -0.4782 -2.9021
 1212SOL    HW215099   3.328   3.831   6.738 -0.4316 -0.4602 -0.3967
 1213SOL     OW15100   0.206   0.548  16.608  0.5867 -0.3584 -0.2879
 1213SOL    HW115101   0.259   0.592  16.541  0.8547 -1.6825 -0.9404
 1213SOL    HW215102   0.120   0.572  16.573  1.1774  0.3990 -1.2389
 1214SOL     OW15103   1.157   2.247   3.738  0.2754 -0.3398  0.5773
 1214SOL    HW115104   1.159   2.172   3.679  1.4880  1.0064 -1.0811
 1214SOL    HW215105   1.137   2.315   3.674 -2.5454 -0.6238  1.1778
 1215SOL     OW15106   4.103   0.206   4.575  0.3804  0.2563 -0.3768
 1215SOL    HW115107   4.177   0.266   4.565  0.8478 -0.0282  1.2563
 1215SOL    HW215108   4.157   0.129   4.557  1.6508  0.9896  0.2598
 1216SOL     OW15109   3.342   4.212   5.815 -0.4073  0.1090  0.0344
 1216SOL    HW115110   3.293   4.288   5.846 -1.2779 -0.9651  1.2805
 1216SOL    HW215111   3.314   4.198   5.724  1.0643  2.6657 -0.8041
 1217SOL     OW15112   4.512   1.280   0.346  0.4758 -0.1425  0.0417
 1217SOL    HW115113   4.552   1.308   0.428  0.9348  1.2532 -0.6703
 1217SOL    HW215114   4.529   1.353   0.287  1.5717 -2.3028 -2.3614
 1218SOL     OW15115   3.951   4.356  16.881  0.4980  0.0106  0.0759
 1218SOL    HW115116   3.945   4.368  16.975 -0.2619 -0.0998  0.0418
 1218SOL    HW215117   3.861   4.372  16.851  0.2528 -1.0772  0.2348
 1219SOL     OW15118   1.448   2.919   1.862  0.0535  0.1077 -0.0002
 1219SOL    HW115119   1.503   2.976   1.916 -1.8689  2.0841 -0.1232
 1219SOL    HW215120   1.482   2.836   1.896 -0.7946 -0.0345  0.5015
 1220SOL     OW15121   0.681   1.555   8.636 -0.5101 -0.2552  0.6128
 1220SOL    HW115122   0.620   1.619   8.601  0.0368  0.1588  0.4080
 1220SOL    HW215123   0.672   1.569   8.731 -0.0392 -0.4478  0.6875
 1221SOL     OW15124   3.438   4.313  14.576 -0.3254  0.1466  0.2983
 1221SOL    HW115125   3.410   4.224  14.554  1.3465 -1.2001  3.5082
 1221SOL    HW215126   3.379   4.362  14.520 -0.7097 -0.4088  0.2109
 1222SOL     OW15127   1.146   2.790   6.904  0.5507  0.5222  0.4782
 1222SOL    HW115128   1.185   2.868   6.943 -0.3192  1.0351  0.3185
 1222SOL    HW215129   1.056   2.821   6.903 -0.1841 -1.5424  2.3070
 1223SOL     OW15130   0.049   4.260   8.929  0.4176 -0.0616  0.1331
 1223SOL    HW115131   0.021   4.169   8.939  3.3768 -1.2068 -1.8971
 1223SOL    HW215132   0.129   4.256   8.876  0.3365  2.2388 -0.1684
 1224SOL     OW15133   1.375   4.574   8.631  0.1768  0.0139 -0.2053
 1224SOL    HW115134   1.364   4.615   8.717 -1.1722 -0.8539  0.0297
 1224SOL    HW215135   1.445   4.511   8.648  1.5206  1.6980  0.4779
 1225SOL     OW15136   4.117   4.346  15.923 -0.2795  0.1786 -0.4268
 1225SOL    HW115137   4.043   4.388  15.967 -0.0142  0.6463 -0.4285
 1225SOL    HW215138   4.177   4.419  15.915 -1.4745  0.9806 -2.0108
 1226SOL     OW15139   4.094   4.161   8.953  0.1241  0.3165  0.0333
 1226SOL    HW115140   4.100   4.131   8.862  0.3680  2.6068 -0.6931
 1226SOL    HW215141   4.030   4.100   8.991  0.2318 -0.6857 -1.3814
 1227SOL     OW15142   2.062   2.918   6.941  0.2371  0.2741  0.4974
 1227SOL    HW115143   2.080   2.848   7.003  0.5245 -0.3249 -0.2650
 1227SOL    HW215144   1.979   2.955   6.972 -0.5551 -0.5030 -0.6744
 1228SOL     OW15145   2.923   1.374   3.180  0.0419 -0.3346 -0.5653
 1228SOL    HW115146   3.009   1.410   3.160  0.3194 -1.1913 -0.9128
 1228SOL    HW215147   2.870   1.453   3.177 -1.7577 -1.5466 -0.9035
 1229SOL     OW15148   3.533   3.417  16.012 -0.0530  0.1408  0.0485
 1229SOL    HW115149   3.549   3.511  16.001  3.9197 -0.9681 -3.5895
 1229SOL    HW215150   3.620   3.385  15.987  0.3184  0.4591  0.9123
 1230SOL     OW15151   4.529   0.385   6.102  0.5026 -0.1504  0.0590
 1230SOL    HW115152   4.472   0.359   6.030  0.8632 -2.1823  0.5053
 1230SOL    HW215153   4.617   0.368   6.069  1.1255  2.5909  0.2791
 1231SOL     OW15154   0.437   1.139   0.120  0.1361 -0.3868 -0.5623
 1231SOL    HW115155   0.447   1.154   0.026 -2.7359  1.2692 -0.5950
 1231SOL    HW215156   0.427   1.227   0.155  0.7984 -0.3745 -0.3965
 1232SOL     OW15157   4.562   3.777   7.263  0.1969  0.2943  0.6456
 1232SOL    HW115158   4.576   3.816   7.177  1.0370 -1.6860 -0.1266
 1232SOL    HW215159   4.581   3.854   7.316  1.2904  0.2418  0.3486
 1233SOL     OW15160   2.488   0.011   9.244  0.1184 -0.1520 -0.0412
 1233SOL    HW115161   2.445   0.095   9.232  0.9869  0.6159  2.3231
 1233SOL    HW215162   2.442   4.680   9.179 -0.5676  3.0976 -2.2073
 1234SOL     OW15163   1.867   3.351   1.284  0.6671  0.5483  0.4273
 1234SOL    HW115164   1.872   3.368   1.378 -2.6705  2.3407  0.2460
 1234SOL    HW215165   1.881   3.256   1.293  1.5936  0.2020 -4.7557
 1235SOL     OW15166   2.891   0.174   8.410 -0.2543  0.2151  0.4106
 1235SOL    HW115167   2.919   0.101   8.466  0.1554 -0.7362 -1.0332
 1235SOL    HW215168   2.975   0.215   8.390 -0.8221  1.8324  1.3318
 1236SOL     OW15169   2.467   0.849   1.180  0.0318 -0.3007 -0.3150
 1236SOL    HW115170   2.517   0.930   1.171 -0.3619 -0.0134  0.0463
 1236SOL    HW215171   2.395   0.881   1.125 -0.0211  2.0181  1.1059
 1237SOL     OW15172   3.624   2.668   3.181 -0.0590 -0.7715 -1.3874
 1237SOL    HW115173   3.680   2.641   3.108 -0.1423 -3.2323 -0.5101
 1237SOL    HW215174   3.656   2.610   3.250 -1.1289 -0.5136 -0.6702
 1238SOL     OW15175   1.222   3.837   7.654 -0.3200 -0.4599 -0.1184
 1238SOL    HW115176   1.203   3.763   7.712  1.3349  0.0876  1.1459
 1238SOL    HW215177   1.267   3.791   7.583  0.6654 -0.0354  0.2316
 1239SOL     OW15178   2.472   4.008   7.983  0.6232  0.0119  0.2344
 1239SOL    HW115179   2.476   4.047   8.070  0.3292  0.7216 -0.0711
 1239SOL    HW215180   2.435   3.921   7.998  0.5285 -0.0520 -0.3442
 1240SOL     OW15181   3.366   1.401   8.975 -0.1176  0.1898  0.2262
 1240SOL    HW115182   3.404   1.394   9.063 -1.2731  4.6643  1.0753
 1240SOL    HW215183   3.359   1.492   8.947  0.4855  0.2964  0.4114
 1241SOL     OW15184   1.074   1.543  16.981  0.0142 -0.3427 -0.7545
 1241SOL    HW115185   1.010   1.481  16.946 -1.1931  0.9031 -0.7355
 1241SOL    HW215186   1.128   1.555  16.903  2.2039 -1.6773  0.5308
 1242SOL     OW15187   3.895   3.573  14.267 -0.4698 -0.2352  0.3348
 1242SOL    HW115188   3.873   3.621  14.347  1.7804  0.6442  0.4296
 1242SOL    HW215189   3.897   3.639  14.197  0.4539 -1.5326 -0.8492
 1243SOL     OW15190   0.040   0.322  13.170 -0.5046 -0.2155 -0.6411
 1243SOL    HW115191   0.026   0.414  13.148  0.5968  0.2715  0.6875
 1243SOL    HW215192   0.135   0.308  13.174 -0.4430  0.6471  0.9645
 1244SOL     OW15193   2.820   1.970   1.181  0.1511 -0.3903 -0.3405
 1244SOL    HW115194   2.824   1.978   1.086  0.4067 -0.7386 -0.3587
 1244SOL    HW215195   2.856   1.883   1.200  0.6117 -1.0789 -4.2471
 1245SOL     OW15196   3.571   1.244   9.291  0.4335  0.0975  0.2342
 1245SOL    HW115197   3.538   1.331   9.312 -0.8794 -0.1019 -0.9998
 1245SOL    HW215198   3.647   1.280   9.246  0.9090 -0.3330  0.6962
 1246SOL     OW15199   2.641   1.207   3.059 -0.2389  0.6919  0.3415
 1246SOL    HW115200   2.653   1.249   2.974 -1.2617  0.3139  0.0117
 1246SOL    HW215201   2.548   1.184   3.054 -0.3702  1.1431  0.7553
 1247SOL     OW15202   3.508   0.089   4.876 -0.3660  0.0493  0.3096
 1247SOL    HW115203   3.566   0.025   4.918 -1.8181 -0.1937  1.9340
 1247SOL    HW215204   3.533   0.077   4.784  0.5968 -0.8302  0.6884
 1248SOL     OW15205   2.774   1.942  12.035  0.2648 -0.2592 -0.3024
 1248SOL    HW115206   2.720   1.865  12.020 -1.2384  1.1246 -1.9433
 1248SOL    HW215207   2.724   2.014  11.995 -1.0711 -0.2334  1.3864
 1249SOL     OW15208   0.438   1.791   1.205 -0.1213 -0.0235 -0.6044
 1249SOL    HW115209   0.424   1.708   1.249 -0.7399  1.0119  1.1331
 1249SOL    HW215210   0.458   1.760   1.117 -0.6909  1.5122 -1.2862
 1250SOL     OW15211   3.600   4.343   3.381  0.5204 -0.4747 -0.0190
 1250SOL    HW115212   3.661   4.339   3.308  0.7653  0.8057  0.1257
 1250SOL    HW215213   3.519   4.363   3.334  1.1207  0.0070 -0.8386
 1251SOL     OW15214   1.062   1.367  17.448  0.8159 -0.2776 -0.3965
 1251SOL    HW115215   1.139   1.420  17.467  1.0069 -1.1333  1.2257
 1251SOL    HW215216   1.086   1.317  17.369  0.2377 -0.0585 -0.7087
 1252SOL     OW15217   2.747   3.949   0.636  0.1655  0.5399  0.3261
 1252SOL    HW115218   2.708   3.877   0.685 -2.3078 -0.1963 -2.7332
 1252SOL    HW215219   2.675   4.011   0.627 -0.2900 -0.1228 -0.4822
 1253SOL     OW15220   1.986   1.413   2.755 -0.9277  0.1771  0.0695
 1253SOL    HW115221   1.981   1.507   2.737 -0.8925  0.2694  0.5541
 1253SOL    HW215222   1.927   1.397   2.828 -0.0728 -0.3631  0.6476
 1254SOL     OW15223   1.110   0.419   6.445  0.3154  0.0609 -0.0136
 1254SOL    HW115224   1.017   0.407   6.464  0.1780  1.4736  0.1919
 1254SOL    HW215225   1.114   0.460   6.358  0.3479 -0.2021 -0.1372
 1255SOL     OW15226   2.439   0.645   6.255 -0.2211  0.1909 -0.1264
 1255SOL    HW115227   2.494   0.679   6.325 -0.2670  1.4571 -0.7046
 1255SOL    HW215228   2.359   0.696   6.265 -0.8654 -0.9590  0.6204
 1256SOL     OW15229   2.795   1.978   3.585  0.4433 -0.3008 -0.0635
 1256SOL    HW115230   2.793   2.053   3.525 -1.1801  1.4449  2.1585
 1256SOL    HW215231   2.855   2.005   3.654 -0.4630 -0.4511  0.7812
 1257SOL     OW15232   3.901   0.208   3.870 -0.2406  0.8345  0.1192
 1257SOL    HW115233   3.926   0.224   3.779 -0.3048 -0.9002 -0.2011
 1257SOL    HW215234   3.981   0.232   3.916 -1.1918  1.8538  1.2655
 1258SOL     OW15235   4.684   0.411   2.793 -0.4866  0.1017 -0.0845
 1258SOL    HW115236   4.666   0.415   2.887  1.6200  1.1097  0.2690
 1258SOL    HW215237   0.015   0.490   2.785  2.7243 -1.9171  1.5350
 1259SOL     OW15238   2.565   2.176   6.901 -0.0021 -0.1664 -0.4157
 1259SOL    HW115239   2.516   2.174   6.984  3.0506 -2.4851  1.3367
 1259SOL    HW215240   2.497   2.222   6.851  0.3677 -0.8832 -1.5636
 1260SOL     OW15241   0.418   2.845   3.732 -0.2473  0.2275 -0.4137
 1260SOL    HW115242   0.343   2.812   3.781  0.6903 -0.4147  0.5713
 1260SOL    HW215243   0.402   2.939   3.746 -0.6475  0.0757  0.1364
 1261SOL     OW15244   4.432   3.457   0.446  0.7688 -0.5275 -0.3308
 1261SOL    HW115245   4.490   3.502   0.384 -0.8837 -1.2842 -2.4132
 1261SOL    HW215246   4.366   3.427   0.385  0.8383  1.7354 -1.5259
 1262SOL     OW15247   3.693   0.524   5.582  0.1750 -0.1753 -0.3316
 1262SOL    HW115248   3.777   0.500   5.623  0.8677 -0.2653 -1.8124
 1262SOL    HW215249   3.638   0.515   5.660 -0.2902 -1.3527 -0.8027
 1263SOL     OW15250   3.764   3.671   1.377  0.5407  0.5032 -0.1512
 1263SOL    HW115251   3.823   3.733   1.420  0.0429  0.7203  0.2215
 1263SOL    HW215252   3.714   3.730   1.321 -0.2559  0.6075  0.6743
 1264SOL     OW15253   3.570   0.208  12.362 -0.0538  0.1800 -0.1676
 1264SOL    HW115254   3.489   0.164  12.338  0.6269 -0.3977 -1.3794
 1264SOL    HW215255   3.623   0.184  12.286 -1.7323  0.9508 -1.5624
 1265SOL     OW15256   3.975   4.027   7.953  0.3578 -0.5711  0.1504
 1265SOL    HW115257   3.939   4.071   7.876  0.5546 -0.6574  0.0083
 1265SOL    HW215258   4.064   4.062   7.953  1.0328 -2.2346  2.0989
 1266SOL     OW15259   1.293   2.703   2.342  0.0288 -0.2626  0.1605
 1266SOL    HW115260   1.240   2.624   2.329 -0.2591  0.0064 -0.2616
 1266SOL    HW215261   1.275   2.718   2.435  1.0618  0.3200  0.2626
 1267SOL     OW15262   4.080   4.243   7.120 -0.1140 -0.1888  0.2618
 1267SOL    HW115263   4.053   4.320   7.170  1.2965 -0.1367  0.9461
 1267SOL    HW215264   4.043   4.267   7.035  0.8134  0.3176 -0.0072
 1268SOL     OW15265   2.230   3.452   6.728 -0.6224 -0.0102 -0.3599
 1268SOL    HW115266   2.271   3.436   6.813  1.8345  1.7195 -1.2358
 1268SOL    HW215267   2.146   3.408   6.740 -0.5142  0.0952  0.7754
 1269SOL     OW15268   2.022   2.479   6.725 -0.6238 -0.3801  0.4788
 1269SOL    HW115269   2.112   2.510   6.732 -1.1960  1.5454 -0.5373
 1269SOL    HW215270   1.999   2.528   6.646 -0.4416  1.1196  1.3522
 1270SOL     OW15271   1.987   1.951   3.601 -0.0270 -0.1419  0.0544
 1270SOL    HW115272   1.946   1.986   3.522  2.8493  0.6868 -1.0662
 1270SOL    HW215273   1.947   1.864   3.598 -2.9717  1.1176  2.6575
 1271SOL     OW15274   0.387   1.936   3.912 -0.0043 -0.2603  0.3506
 1271SOL    HW115275   0.461   1.987   3.880 -0.1411  0.8160  1.7428
 1271SOL    HW215276   0.434   1.856   3.935 -0.9946 -1.2834 -1.1953
 1272SOL     OW15277   0.688   2.088   6.044  0.0886 -0.0886 -0.5497
 1272SOL    HW115278   0.695   2.107   5.951 -0.1912  1.9408 -0.1531
 1272SOL    HW215279   0.704   2.172   6.086  2.1414  0.5046 -2.5166
 1273SOL     OW15280   4.595   1.794   8.975 -0.2146 -0.3523 -0.2238
 1273SOL    HW115281   4.573   1.750   8.894 -0.6688 -2.1628  0.8894
 1273SOL    HW215282   4.523   1.856   8.983 -1.6278 -2.4602  3.1934
 1274SOL     OW15283   0.661   0.659   8.280  0.1246 -0.5346  0.1829
 1274SOL    HW115284   0.622   0.598   8.343 -1.3731 -1.4525 -1.6260
 1274SOL    HW215285   0.583   0.710   8.259  0.3816 -1.0011 -1.9234
 1275SOL     OW15286   2.658   2.240   8.262 -0.9276  0.4630 -0.0644
 1275SOL    HW115287   2.747   2.215   8.235 -0.3578  1.1581  1.1866
 1275SOL    HW215288   2.664   2.207   8.351 -3.2868 -0.6252 -0.3205
 1276SOL     OW15289   0.088   1.426  10.643 -0.4452 -0.1443  1.0129
 1276SOL    HW115290   0.152   1.465  10.702  1.5820 -1.5597 -0.2380
 1276SOL    HW215291   0.098   1.334  10.670  0.2781 -0.3388  0.0840
 1277SOL     OW15292   1.118   4.024  17.050  0.0080 -0.0462 -0.8066
 1277SOL    HW115293   1.138   4.016  17.144 -0.1995 -2.6888 -0.9978
 1277SOL    HW215294   1.205   4.040  17.013  0.9996 -0.9202  1.1409
 1278SOL     OW15295   0.373   4.060  13.018 -0.5121  0.1807  0.0337
 1278SOL    HW115296   0.393   4.144  13.060  0.1585 -0.4403  0.9468
 1278SOL    HW215297   0.443   4.014  13.064 -1.1174  0.0619  0.8422
 1279SOL     OW15298   3.104   3.049  11.634  0.2497  0.0066  0.4413
 1279SOL    HW115299   3.110   3.067  11.540  0.5449  1.4425  0.7376
 1279SOL    HW215300   3.081   2.956  11.623  0.7306  0.0555 -1.0285
 1280SOL     OW15301   2.450   0.302  12.539  0.4106 -0.0411  0.0233
 1280SOL    HW115302   2.541   0.273  12.533  0.8970  1.6805 -1.0261
 1280SOL    HW215303   2.412   0.215  12.549 -2.3372  1.1178 -0.2806
 1281SOL     OW15304   1.420   1.053  10.412 -0.3014  0.1898  0.3222
 1281SOL    HW115305   1.374   1.129  10.447  0.7820  1.3693 -0.7994
 1281SOL    HW215306   1.356   0.983  10.424 -2.0377  1.6400 -0.4518
 1282SOL     OW15307   1.972   1.600  17.053 -0.2204  0.3228 -0.5564
 1282SOL    HW115308   2.010   1.688  17.055 -0.7371  0.4866  1.9079
 1282SOL    HW215309   2.016   1.566  16.975  0.9959 -1.8127  1.0640
 1283SOL     OW15310   4.459   3.374   3.159  0.2845  0.0832  0.6215
 1283SOL    HW115311   4.486   3.284   3.174 -1.0211 -0.0122  2.4439
 1283SOL    HW215312   4.384   3.378   3.218 -0.9122 -0.1935 -0.8860
 1284SOL     OW15313   2.625   3.155   8.938 -0.4647 -0.0862  0.2565
 1284SOL    HW115314   2.718   3.152   8.962 -0.0460  1.8445 -1.1859
 1284SOL    HW215315   2.636   3.198   8.853  1.9420 -0.5144  0.3433
 1285SOL     OW15316   4.327   4.538   8.333  0.0231  0.1487 -0.5882
 1285SOL    HW115317   4.340   4.457   8.285  2.4713  0.4268 -0.4358
 1285SOL    HW215318   4.298   4.504   8.418  1.7075  2.2683  0.8609
 1286SOL     OW15319   3.107   0.274   3.506 -0.1972  0.1451 -0.2554
 1286SOL    HW115320   3.185   0.233   3.468 -1.4639 -2.1718 -0.3209
 1286SOL    HW215321   3.162   0.320   3.570  2.7934 -0.6759 -2.2236
 1287SOL     OW15322   3.967   3.443   2.939 -0.0897 -0.6277  0.0768
 1287SOL    HW115323   4.052   3.420   2.901 -0.3367 -2.0177  0.3747
 1287SOL    HW215324   3.987   3.515   2.999 -0.7955 -1.6591  1.5112
 1288SOL     OW15325   3.282   2.969  13.761  0.0005 -0.4318  0.2205
 1288SOL    HW115326   3.343   3.015  13.704  1.1218 -1.2851  0.7304
 1288SOL    HW215327   3.339   2.956  13.837  2.5594 -1.6060 -1.8929
 1289SOL     OW15328   4.614   3.484   7.884 -0.3160  0.9481  0.3353
 1289SOL    HW115329   4.559   3.410   7.857  0.3588  1.6507 -2.9444
 1289SOL    HW215330   4.596   3.472   7.977  0.8320 -0.3455  0.3871
 1290SOL     OW15331   0.545   4.451   4.448  0.4587 -0.1780 -0.3141
 1290SOL    HW115332   0.482   4.381   4.457  1.1330 -0.4729  2.1768
 1290SOL    HW215333   0.631   4.412   4.465 -0.6503 -2.6158 -0.3423
 1291SOL     OW15334   1.497   0.521   1.429  0.1891 -0.4014 -0.2491
 1291SOL    HW115335   1.498   0.536   1.524  1.0814 -2.9178  0.1325
 1291SOL    HW215336   1.405   0.536   1.409  0.0860 -2.1545 -1.1114
 1292SOL     OW15337   0.280   2.572  15.292 -0.0518  0.2300 -0.0918
 1292SOL    HW115338   0.311   2.646  15.241  1.5201 -0.1005  0.3725
 1292SOL    HW215339   0.327   2.501  15.249  0.2024  0.7413 -0.6494
 1293SOL     OW15340   0.075   3.309   4.528  0.3918  0.2092  0.5690
 1293SOL    HW115341   0.118   3.243   4.473 -1.4114 -0.3247 -0.1684
 1293SOL    HW215342   0.131   3.338   4.600 -1.5818 -1.9934  2.9725
 1294SOL     OW15343   2.113   4.385   3.980  0.0435  0.2640  0.1838
 1294SOL    HW115344   2.183   4.451   3.976 -1.6655  1.9904 -1.2650
 1294SOL    HW215345   2.082   4.418   4.064  1.7882  0.6078  0.6870
 1295SOL     OW15346   3.553   1.866  15.251  0.1852  0.2161 -0.0326
 1295SOL    HW115347   3.552   1.919  15.171 -2.9857 -0.7648 -0.6606
 1295SOL    HW215348   3.510   1.787  15.218  0.2021 -0.0417  0.5695
 1296SOL     OW15349   2.968   4.025   8.294 -0.5968  0.3840  0.9892
 1296SOL    HW115350   3.035   4.070   8.242 -2.9919  3.1667  0.3555
 1296SOL    HW215351   2.933   3.952   8.244 -1.3371  1.3515  0.1098
 1297SOL     OW15352   2.873   0.302   2.448 -0.0475 -0.2083  0.1177
 1297SOL    HW115353   2.790   0.344   2.472 -0.7473 -1.5569  0.0519
 1297SOL    HW215354   2.904   0.256   2.526 -3.6095 -2.6456  0.0552
 1298SOL     OW15355   2.392   2.850   8.690  0.0879 -0.1647 -0.2565
 1298SOL    HW115356   2.443   2.784   8.736 -0.3843  0.7045  1.5216
 1298SOL    HW215357   2.466   2.883   8.641 -0.7196  0.8325 -0.8050
 1299SOL     OW15358   3.202   1.882   4.792 -0.6684  0.0177 -0.2354
 1299SOL    HW115359   3.256   1.816   4.750 -0.4480 -1.4232  2.3159
 1299SOL    HW215360   3.185   1.831   4.871 -1.0682 -0.3569 -0.5623
 1300SOL     OW15361   4.195   2.537   6.166 -0.2906 -0.7416  0.0021
 1300SOL    HW115362   4.208   2.485   6.086 -1.1031  0.5311 -0.9552
 1300SOL    HW215363   4.287   2.547   6.190 -0.9977  2.9236  1.1599
 1301SOL     OW15364   2.890   0.056   7.155 -0.2064 -0.0720 -0.0115
 1301SOL    HW115365   2.890   0.008   7.237  1.0145  0.5828  0.3671
 1301SOL    HW215366   2.864   0.142   7.189 -1.3507 -0.2549 -0.4303
 1302SOL     OW15367   1.757   1.264   8.718 -0.1231 -0.0702 -0.6547
 1302SOL    HW115368   1.674   1.288   8.759 -1.1331 -1.2256 -2.0258
 1302SOL    HW215369   1.763   1.177   8.758  1.2395  0.0316 -0.6413
 1303SOL     OW15370   1.948   0.523   6.398 -0.2153 -0.3007  0.3775
 1303SOL    HW115371   1.940   0.589   6.467 -0.5312 -2.5151  2.4609
 1303SOL    HW215372   1.900   0.565   6.326  1.0387 -0.6543 -0.6664
 1304SOL     OW15373   3.742   2.369   1.767 -0.4885  0.1147  0.1205
 1304SOL    HW115374   3.731   2.275   1.756  0.6774 -0.1447  1.1176
 1304SOL    HW215375   3.651   2.397   1.759 -0.4437  0.5486  1.1521
 1305SOL     OW15376   1.342   3.698   4.918  0.3428 -0.2117 -0.1020
 1305SOL    HW115377   1.435   3.716   4.911  0.3920 -0.8102 -0.9756
 1305SOL    HW215378   1.327   3.666   4.829  0.0644 -4.1260  1.3245
 1306SOL     OW15379   4.396   3.126   8.163 -0.2291  0.0244  0.1441
 1306SOL    HW115380   4.350   3.179   8.228 -1.3112 -1.2009  0.3929
 1306SOL    HW215381   4.479   3.113   8.208  0.9559  0.9484 -1.8106
 1307SOL     OW15382   1.819   4.219  12.306 -0.4999  0.0628  0.1797
 1307SOL    HW115383   1.853   4.131  12.322 -0.7330 -0.1645 -0.5655
 1307SOL    HW215384   1.794   4.237  12.397  2.4386 -1.0565  1.2121
 1308SOL     OW15385   0.598   2.958   1.639 -0.0167 -0.1588  0.4164
 1308SOL    HW115386   0.605   3.011   1.718 -1.1237  1.5906 -0.6835
 1308SOL    HW215387   0.516   2.996   1.609 -0.4465 -0.4954  1.1607
 1309SOL     OW15388   4.098   0.608   0.729  0.3117  0.0628 -0.2042
 1309SOL    HW115389   4.036   0.677   0.753  2.1910  1.7062 -0.0462
 1309SOL    HW215390   4.054   0.562   0.658 -0.4140 -2.9539  2.2140
 1310SOL     OW15391   2.420   0.377   6.646 -0.6470  0.0466  0.5690
 1310SOL    HW115392   2.464   0.436   6.585 -1.4984  0.5996  0.4920
 1310SOL    HW215393   2.340   0.374   6.594 -1.9578  0.2316  2.5780
 1311SOL     OW15394   4.262   3.021   8.644 -0.1338 -0.2679 -0.2842
 1311SOL    HW115395   4.323   3.020   8.570  2.8995 -1.8887  2.2372
 1311SOL    HW215396   4.178   2.998   8.604 -2.0681  2.6549  2.0440
 1312SOL     OW15397   2.267   0.953   5.471 -0.8572 -0.4082 -0.4871
 1312SOL    HW115398   2.329   0.884   5.450  0.1091 -0.1384  1.4118
 1312SOL    HW215399   2.288   0.966   5.564 -3.3986  0.3034 -0.0135
 1313SOL     OW15400   4.296   0.382  17.547 -0.1752  0.6202 -0.1929
 1313SOL    HW115401   4.269   0.468  17.515  0.6948  1.1689  0.5421
 1313SOL    HW215402   4.326   0.353  17.461  0.1255  2.7576 -0.8220
 1314SOL     OW15403   0.550   0.714   7.820 -0.1210  0.6219  0.0788
 1314SOL    HW115404   0.598   0.666   7.753 -0.6805  0.1444  0.0246
 1314SOL    HW215405   0.487   0.759   7.764  0.4948  0.9052 -0.3882
 1315SOL     OW15406   1.536   4.143   3.739 -0.2678  0.2775  0.3881
 1315SOL    HW115407   1.627   4.136   3.766 -1.2630  0.5765  3.8038
 1315SOL    HW215408   1.534   4.088   3.661  0.0257  0.4754  0.2435
 1316SOL     OW15409   3.222   0.049   1.198 -0.0462 -0.4273  0.1428
 1316SOL    HW115410   3.296   0.110   1.204  0.4721 -0.9198 -1.1539
 1316SOL    HW215411   3.172   0.100   1.262  2.7390  1.1845  1.0425
 1317SOL     OW15412   3.261   1.226   9.733  0.1344 -0.2258 -0.3842
 1317SOL    HW115413   3.319   1.223   9.657 -1.6977  0.0885 -1.8069
 1317SOL    HW215414   3.173   1.218   9.696  0.1093 -1.2224 -0.1363
 1318SOL     OW15415   1.413   3.713   0.447 -0.2355 -0.5778 -0.1737
 1318SOL    HW115416   1.438   3.761   0.368  1.0413 -0.2616  0.4308
 1318SOL    HW215417   1.359   3.775   0.495  0.9200  0.2709  0.0223
 1319SOL     OW15418   3.655   0.193   2.880 -0.7561  0.2426  0.0728
 1319SOL    HW115419   3.741   0.152   2.885 -2.1629 -2.6298  0.4719
 1319SOL    HW215420   3.630   0.187   2.788 -0.2677 -0.0657 -0.0347
 1320SOL     OW15421   1.629   0.021   1.516  0.0604 -0.5643  0.0076
 1320SOL    HW115422   1.547   4.720   1.471  0.0918  1.5467 -1.1193
 1320SOL    HW215423   1.648   0.106   1.477 -2.0899  0.1114  0.4110
 1321SOL     OW15424   0.004   1.209   8.549  0.0606  0.1493 -0.1305
 1321SOL    HW115425   0.023   1.231   8.640  0.5379 -0.5445 -0.0629
 1321SOL    HW215426   0.083   1.160   8.526  2.0753  2.4809  1.8360
 1322SOL     OW15427   1.419   0.970   5.267 -0.4388 -0.0507  0.0450
 1322SOL    HW115428   1.386   0.888   5.230 -0.1289 -0.3369  0.3983
 1322SOL    HW215429   1.512   0.948   5.281 -1.0087 -2.7758 -0.4485
 1323SOL     OW15430   2.265   1.960  13.735 -0.0594 -0.1709 -0.1315
 1323SOL    HW115431   2.306   1.875  13.718  0.2803 -0.2053  0.8388
 1323SOL    HW215432   2.277   1.999  13.648 -0.3692  0.8141  0.2597
 1324SOL     OW15433   3.855   4.127   6.044  0.1225  0.1723 -0.1422
 1324SOL    HW115434   3.877   4.149   5.954  0.3131  1.6424  0.2710
 1324SOL    HW215435   3.788   4.194   6.054  0.6763  0.8325 -0.8891
 1325SOL     OW15436   1.975   3.188   4.405 -0.3882  0.0531  0.4457
 1325SOL    HW115437   2.052   3.150   4.363 -0.9769 -0.8931  0.2437
 1325SOL    HW215438   1.989   3.178   4.499  0.0888  0.9988  0.4839
 1326SOL     OW15439   2.946   3.887  16.418 -0.4288  0.4466 -0.3659
 1326SOL    HW115440   2.877   3.937  16.376 -0.0201  3.1858  2.2589
 1326SOL    HW215441   2.898   3.869  16.499  0.5959  1.5563  0.4810
 1327SOL     OW15442   4.319   2.520   8.317  0.0604 -0.0928  0.4418
 1327SOL    HW115443   4.322   2.615   8.315  3.0101 -0.2068 -0.2556
 1327SOL    HW215444   4.405   2.496   8.284 -0.3773 -1.2030  0.1092
 1328SOL     OW15445   1.343   1.629   7.938 -0.2065  0.0330  0.0934
 1328SOL    HW115446   1.410   1.638   8.006  0.3729 -0.3747 -0.4265
 1328SOL    HW215447   1.262   1.632   7.990  0.4594  0.7514  1.0905
 1329SOL     OW15448   2.000   2.238   3.046 -0.3250  0.2382 -0.1251
 1329SOL    HW115449   1.905   2.249   3.032 -0.4939 -2.3930 -1.0837
 1329SOL    HW215450   2.005   2.171   3.114 -1.3609 -2.5493 -2.7728
 1330SOL     OW15451   2.399   2.854  14.451  0.2943 -0.1096  0.3387
 1330SOL    HW115452   2.464   2.916  14.484  0.6528  0.2422 -1.0332
 1330SOL    HW215453   2.420   2.847  14.358  2.5764 -1.4606  0.9422
 1331SOL     OW15454   4.066   3.498   6.947  0.6024  0.4868 -0.0851
 1331SOL    HW115455   4.136   3.438   6.970 -0.3574 -0.4973  0.2789
 1331SOL    HW215456   4.093   3.539   6.865 -0.9962  0.0331 -0.8457
 1332SOL     OW15457   3.031   0.555  14.077 -0.1871  0.4698 -0.3720
 1332SOL    HW115458   3.065   0.607  14.005  1.6321  0.3310  0.3784
 1332SOL    HW215459   2.940   0.549  14.048  0.0027 -1.2591 -0.6226
 1333SOL     OW15460   3.956   2.959   0.889 -0.1895  1.0325 -0.3044
 1333SOL    HW115461   3.881   3.015   0.865 -0.4937  0.5018 -0.5887
 1333SOL    HW215462   3.966   2.969   0.983  2.1916 -0.5241 -0.4074
 1334SOL     OW15463   1.605   0.414  16.795 -0.0528  0.6819  0.1927
 1334SOL    HW115464   1.622   0.374  16.710 -1.4818 -5.0869  2.6695
 1334SOL    HW215465   1.511   0.401  16.800  0.0339 -0.2588 -0.6897
 1335SOL     OW15466   0.238   4.582  13.751 -0.2488 -0.2579 -0.5117
 1335SOL    HW115467   0.298   4.619  13.816 -0.6750 -1.2556  0.4419
 1335SOL    HW215468   0.188   4.661  13.730 -1.1150 -0.4653  0.7977
 1336SOL     OW15469   4.051   0.765  14.101  0.3537 -0.6014  0.3426
 1336SOL    HW115470   4.131   0.714  14.116  1.0618 -0.4478 -3.0876
 1336SOL    HW215471   4.075   0.814  14.023 -0.8584 -1.0526 -0.3057
 1337SOL     OW15472   3.962   3.237   1.936 -0.2313 -0.0135 -0.0351
 1337SOL    HW115473   3.908   3.164   1.967 -0.8532 -0.4798 -2.2407
 1337SOL    HW215474   3.893   3.299   1.911 -1.6455 -1.6271 -0.1505
 1338SOL     OW15475   4.454   3.297   7.779 -0.0171 -0.2625  1.0372
 1338SOL    HW115476   4.380   3.244   7.810 -1.1809  1.1646  0.6542
 1338SOL    HW215477   4.427   3.322   7.691 -0.7747 -0.6065  1.1702
 1339SOL     OW15478   1.468   4.520   0.421  0.0613 -0.1712  0.4126
 1339SOL    HW115479   1.520   4.567   0.486 -0.0989  2.7470 -1.6089
 1339SOL    HW215480   1.392   4.495   0.475  1.3256  1.6018  3.0240
 1340SOL     OW15481   1.261   0.034   3.976  0.2209  0.3501  0.5317
 1340SOL    HW115482   1.249   0.017   3.883 -0.9326 -0.3106  0.8107
 1340SOL    HW215483   1.190   0.098   3.986 -1.3933 -1.5623  1.1992
 1341SOL     OW15484   3.442   1.112   8.851 -0.7726 -0.0349 -0.0395
 1341SOL    HW115485   3.493   1.191   8.869 -0.6573 -0.1327  0.0586
 1341SOL    HW215486   3.465   1.059   8.927  0.4384  0.4787 -0.0574
 1342SOL     OW15487   3.994   2.903   7.715  0.0308  0.3783 -0.1809
 1342SOL    HW115488   3.928   2.833   7.717 -1.1018  1.4215 -1.0306
 1342SOL    HW215489   3.944   2.984   7.708 -2.1631 -0.4662  5.3111
 1343SOL     OW15490   4.373   1.239  15.310 -0.2732  0.1129  0.0208
 1343SOL    HW115491   4.440   1.307  15.302 -0.5190  0.4920  1.2166
 1343SOL    HW215492   4.310   1.273  15.246 -0.2081  1.4790  0.6891
 1344SOL     OW15493   1.163   1.851   6.015 -0.4864 -0.0307  0.3853
 1344SOL    HW115494   1.110   1.825   5.940  2.0090 -0.3284 -1.2612
 1344SOL    HW215495   1.088   1.879   6.068  0.4428  0.1699  1.5943
 1345SOL     OW15496   4.386   1.355   1.241  0.0230  0.0857 -0.1168
 1345SOL    HW115497   4.304   1.401   1.221 -0.4404 -1.1280 -0.9608
 1345SOL    HW215498   4.435   1.418   1.294  4.0084 -1.9117 -1.4872
 1346SOL     OW15499   3.322   0.827   2.352  0.2751 -0.7116  0.2702
 1346SOL    HW115500   3.236   0.866   2.341  0.3117 -1.5172 -3.1537
 1346SOL    HW215501   3.326   0.747   2.299  2.0618 -0.7410  0.4361
 1347SOL     OW15502   4.169   4.012   4.365 -0.2712  0.0343  0.2487
 1347SOL    HW115503   4.220   3.935   4.390  1.9374  1.7706  1.0894
 1347SOL    HW215504   4.084   3.995   4.405  0.2246 -1.2371  0.7617
 1348SOL     OW15505   0.024   2.655  15.332  0.2155  0.1568  0.0008
 1348SOL    HW115506   0.103   2.602  15.335 -0.2763 -0.4825  1.7165
 1348SOL    HW215507   0.061   2.743  15.323  0.4646 -0.0508 -1.0323
 1349SOL     OW15508   2.438   0.436   7.936 -0.1315 -0.6443  0.5887
 1349SOL    HW115509   2.402   0.353   7.966 -0.3394 -0.9020 -0.3898
 1349SOL    HW215510   2.509   0.442   8.000  1.3258 -1.2171 -0.9664
 1350SOL     OW15511   1.540   4.500  13.304 -1.1496  0.4672 -0.5151
 1350SOL    HW115512   1.447   4.488  13.324 -1.3245  0.8607 -1.0676
 1350SOL    HW215513   1.560   4.573  13.362  1.8136 -0.5272 -0.3313
 1351SOL     OW15514   0.966   1.155  13.506  0.7804 -0.3478 -0.3810
 1351SOL    HW115515   0.999   1.085  13.563  4.4404  0.8708 -0.9754
 1351SOL    HW215516   0.913   1.102  13.447 -0.4659 -0.3749  0.7705
 1352SOL     OW15517   1.640   3.734  15.584 -0.4039  0.3201 -0.1959
 1352SOL    HW115518   1.625   3.806  15.522 -2.9657 -0.5886 -0.6678
 1352SOL    HW215519   1.621   3.788  15.661 -1.4529  1.1323 -1.0098
 1353SOL     OW15520   1.367   3.645   4.659 -0.1559 -0.0733  0.1353
 1353SOL    HW115521   1.419   3.702   4.603 -1.7083  0.0186 -1.2040
 1353SOL    HW215522   1.407   3.560   4.638 -1.0789 -0.1605 -1.2410
 1354SOL     OW15523   3.762   2.049   7.384 -0.4302  0.1795  0.4607
 1354SOL    HW115524   3.738   2.137   7.414 -1.0348  0.8864 -2.1073
 1354SOL    HW215525   3.689   1.994   7.413 -1.5096  1.3365 -0.0302
 1355SOL     OW15526   3.744   4.188   8.980  0.3701  0.3160  0.3248
 1355SOL    HW115527   3.806   4.235   8.924  1.2170 -0.0183  0.9643
 1355SOL    HW215528   3.705   4.135   8.910 -0.4721  1.1333  0.1793
 1356SOL     OW15529   1.086   2.586   9.675  0.3660  0.3578 -0.0009
 1356SOL    HW115530   1.078   2.538   9.757 -0.5688 -0.3478 -0.5081
 1356SOL    HW215531   1.181   2.581   9.659  0.7724 -0.7238  2.8084
 1357SOL     OW15532   2.284   3.452   3.187  0.3053 -0.3378  0.0395
 1357SOL    HW115533   2.225   3.518   3.224  0.8173  0.2510 -0.1973
 1357SOL    HW215534   2.216   3.405   3.139  0.4618  0.8375 -1.3463
 1358SOL     OW15535   0.078   1.824   7.654  0.1944 -0.5709  0.2630
 1358SOL    HW115536   0.063   1.918   7.642  0.2688 -0.7182 -1.0456
 1358SOL    HW215537   0.008   1.790   7.598 -0.1007  0.0061  0.2741
 1359SOL     OW15538   4.693   1.581  10.016  0.1810 -0.4510 -0.7195
 1359SOL    HW115539   4.615   1.602   9.964 -0.2435  1.4010  0.6577
 1359SOL    HW215540   0.010   1.668  10.025 -0.5122 -0.1765 -0.2740
 1360SOL     OW15541   2.528   3.577  11.938  0.5572  0.4535  0.6469
 1360SOL    HW115542   2.435   3.569  11.917  0.6447  1.3661 -0.0859
 1360SOL    HW215543   2.511   3.653  11.993 -0.1892  1.3987 -0.8942
 1361SOL     OW15544   4.067   0.013  14.273 -0.4815  0.1596  0.2475
 1361SOL    HW115545   4.033   4.670  14.212  0.9482 -0.1044 -0.2799
 1361SOL    HW215546   4.012   0.087  14.249  1.1511  1.2178 -0.1929
 1362SOL     OW15547   1.457   3.598  17.655  0.4155 -0.1691  0.1364
 1362SOL    HW115548   1.452   3.550   0.046 -2.0080  0.0203  0.0908
 1362SOL    HW215549   1.396   3.547  17.602 -3.3446  0.7699  3.6023
 1363SOL     OW15550   2.826   2.718  10.175  0.1925 -0.2341 -0.0359
 1363SOL    HW115551   2.915   2.685  10.169 -0.3048 -1.4708 -0.6330
 1363SOL    HW215552   2.834   2.801  10.129 -1.4782 -1.3486 -2.3524
 1364SOL     OW15553   4.079   1.643  11.702 -0.4665  0.1864  0.2870
 1364SOL    HW115554   4.044   1.732  11.706  0.2583  0.4837  0.0289
 1364SOL    HW215555   4.054   1.619  11.612 -0.1413  0.4676  0.1243
 1365SOL     OW15556   3.770   2.824  10.405  0.1704 -0.5019 -0.2613
 1365SOL    HW115557   3.784   2.894  10.468  1.2082 -1.7534  0.8795
 1365SOL    HW215558   3.702   2.766  10.441  0.5223 -0.8300 -0.1300
 1366SOL     OW15559   4.694   0.725   6.865 -0.2034  0.5593  0.5445
 1366SOL    HW115560   0.043   0.788   6.862 -1.2480  1.7126 -0.3639
 1366SOL    HW215561   4.629   0.779   6.908 -1.1869 -1.7199  1.9294
 1367SOL     OW15562   2.425   2.073  10.909 -0.0089 -0.5456  0.2517
 1367SOL    HW115563   2.419   2.137  10.838  2.0669  0.2412  0.7849
 1367SOL    HW215564   2.474   2.002  10.868  1.4922  0.4159  0.4029
 1368SOL     OW15565   1.475   0.280   3.047  0.3107  0.2516  0.0319
 1368SOL    HW115566   1.426   0.222   3.106  1.6525 -0.5442  0.3541
 1368SOL    HW215567   1.530   0.313   3.118  0.6646 -0.8824  0.2899
 1369SOL     OW15568   2.698   4.282   0.784  0.2405  0.1273  0.3675
 1369SOL    HW115569   2.613   4.265   0.824 -0.2405  1.6668  0.0322
 1369SOL    HW215570   2.734   4.360   0.825 -0.4112 -0.0287  1.2264
 1370SOL     OW15571   3.415   1.103   4.466  0.6984 -0.6245 -0.2493
 1370SOL    HW115572   3.452   1.025   4.424  0.3006 -0.6279 -0.5929
 1370SOL    HW215573   3.482   1.170   4.452 -0.7775  1.0075  0.5396
 1371SOL     OW15574   4.490   2.863   2.329 -0.3215 -0.1178 -0.1266
 1371SOL    HW115575   4.509   2.911   2.410  1.0785  0.2593 -0.6946
 1371SOL    HW215576   4.511   2.937   2.273  1.2840 -0.2938  0.2294
 1372SOL     OW15577   2.168   1.172   5.339 -0.7943 -0.9879 -0.2264
 1372SOL    HW115578   2.194   1.087   5.374  1.9861  0.0808  0.2592
 1372SOL    HW215579   2.239   1.224   5.375  0.0043  0.0700 -3.3332
 1373SOL     OW15580   0.197   4.212  13.526 -0.1084  0.0557  0.3043
 1373SOL    HW115581   0.138   4.230  13.599 -0.5675  1.8177 -0.5037
 1373SOL    HW215582   0.245   4.141  13.569  1.4207 -0.2511 -1.8959
 1374SOL     OW15583   1.708   3.324  14.996  0.1439 -0.5335  0.0231
 1374SOL    HW115584   1.741   3.340  14.907 -0.4113  1.1545  0.1063
 1374SOL    HW215585   1.671   3.412  14.995 -0.8263 -0.9549 -2.7672
 1375SOL     OW15586   0.125   3.213   7.322 -0.0638  0.5316  0.5756
 1375SOL    HW115587   0.211   3.216   7.281 -0.0129  4.1142  0.8792
 1375SOL    HW215588   0.080   3.153   7.263  1.6631 -0.4111  0.2220
 1376SOL     OW15589   1.597   0.148  11.872  0.5401 -0.2648  0.2138
 1376SOL    HW115590   1.687   0.175  11.892  0.1862 -1.5158  3.4787
 1376SOL    HW215591   1.558   0.195  11.946 -2.0767 -0.5692 -0.9883
 1377SOL     OW15592   2.907   3.728   7.244 -0.5905  0.5475  0.3184
 1377SOL    HW115593   2.880   3.814   7.213  0.6592  0.9741  0.4084
 1377SOL    HW215594   2.985   3.712   7.191  0.2242  2.1720  1.0245
 1378SOL     OW15595   0.119   2.783   3.409  0.0925 -0.9877  0.0020
 1378SOL    HW115596   0.081   2.827   3.485  0.0420  0.7380 -1.0093
 1378SOL    HW215597   0.164   2.854   3.364 -2.5899  0.9172  0.3187
 1379SOL     OW15598   3.897   2.338  15.138  0.2310  0.3517  0.4192
 1379SOL    HW115599   3.941   2.422  15.127  0.0717  0.4412  0.4650
 1379SOL    HW215600   3.807   2.369  15.134  0.5896  1.2287 -0.7803
 1380SOL     OW15601   0.210   2.257  14.847 -0.2402 -0.2392  0.0011
 1380SOL    HW115602   0.274   2.328  14.838 -0.5336  0.1307  0.8824
 1380SOL    HW215603   0.227   2.190  14.780 -0.4008 -1.4136  1.1392
 1381SOL     OW15604   3.326   0.075   7.769  0.1748 -0.2800 -0.1942
 1381SOL    HW115605   3.355   4.707   7.772  0.7505 -0.0974 -0.2855
 1381SOL    HW215606   3.232   0.060   7.754 -0.0267  0.2356  0.5263
 1382SOL     OW15607   0.202   4.064  10.136  0.6450  0.2453  0.1232
 1382SOL    HW115608   0.122   4.106  10.105 -0.6288 -0.1290  2.9241
 1382SOL    HW215609   0.265   4.101  10.074 -0.3136  2.6315  0.5861
 1383SOL     OW15610   2.709   3.869   1.660  0.1009  0.1434 -0.0488
 1383SOL    HW115611   2.671   3.916   1.734 -1.0150 -0.9386  0.0812
 1383SOL    HW215612   2.738   3.793   1.711 -0.7432 -0.9434 -1.1665
 1384SOL     OW15613   1.149   4.628  15.124 -0.5943  0.2557  0.3520
 1384SOL    HW115614   1.095   4.673  15.189 -0.4865 -0.0602  0.6585
 1384SOL    HW215615   1.124   4.539  15.148 -0.2446 -0.0873 -0.5873
 1385SOL     OW15616   2.807   2.021  15.011  0.2609 -0.5520  0.2260
 1385SOL    HW115617   2.803   2.110  15.045  2.3003  0.8936 -3.3535
 1385SOL    HW215618   2.721   2.007  14.970  0.4394 -0.9222 -0.0192
 1386SOL     OW15619   3.190   1.693   7.758  0.1829  0.8570 -0.0901
 1386SOL    HW115620   3.152   1.779   7.740 -0.6888  0.4663 -0.1102
 1386SOL    HW215621   3.125   1.661   7.821 -1.5034  1.7039 -1.4000
 1387SOL     OW15622   1.888   1.349   5.871  0.1261 -0.3946  0.3842
 1387SOL    HW115623   1.943   1.372   5.796  0.6984  3.4092  1.9905
 1387SOL    HW215624   1.937   1.282   5.918  1.7855  0.8644  0.4553
 1388SOL     OW15625   3.359   1.291  12.540  0.0020  0.3996 -0.1852
 1388SOL    HW115626   3.298   1.224  12.571  1.9718 -0.9836  0.7366
 1388SOL    HW215627   3.293   1.359  12.529  2.3216  2.4453 -1.5649
 1389SOL     OW15628   3.475   2.446   4.504  0.1033 -1.1386 -0.2840
 1389SOL    HW115629   3.403   2.386   4.523  0.2977 -0.6427  2.0531
 1389SOL    HW215630   3.546   2.390   4.535 -0.5580 -0.4331  2.4987
 1390SOL     OW15631   1.417   3.578   3.885  1.0368 -1.0615 -0.3771
 1390SOL    HW115632   1.367   3.556   3.963  0.3269  0.3241 -0.4404
 1390SOL    HW215633   1.451   3.660   3.920  1.4215 -0.3253 -2.4609
 1391SOL     OW15634   2.540   3.386   3.982 -0.2070  0.8539 -0.4467
 1391SOL    HW115635   2.634   3.372   3.992 -0.0251  2.4698  0.1343
 1391SOL    HW215636   2.519   3.306   3.933  0.2730 -0.2138  1.0811
 1392SOL     OW15637   3.708   0.496  15.584  0.4519 -0.4795  0.0717
 1392SOL    HW115638   3.744   0.579  15.615  1.6601 -0.4885 -1.3101
 1392SOL    HW215639   3.614   0.509  15.599  0.1844 -2.0426 -0.3044
 1393SOL     OW15640   0.996   1.989   3.686  0.5440  0.6572 -0.1931
 1393SOL    HW115641   1.028   1.910   3.644 -2.7964 -0.6220 -0.3430
 1393SOL    HW215642   0.984   1.959   3.776  1.7465 -2.0699 -0.9666
 1394SOL     OW15643   3.669   3.146   8.912 -0.2441  0.6519  0.1632
 1394SOL    HW115644   3.717   3.213   8.961 -1.8936  0.8682  1.4847
 1394SOL    HW215645   3.597   3.203   8.885  0.5400  0.9285 -1.3776
 1395SOL     OW15646   4.634   3.703   9.745 -0.6372  0.5118  0.0587
 1395SOL    HW115647   4.607   3.722   9.655 -0.0708 -0.0918 -0.2354
 1395SOL    HW215648   4.613   3.610   9.755  1.9232  0.0137  0.6998
 1396SOL     OW15649   4.677   2.272   9.734 -0.0698 -0.3710 -0.0960
 1396SOL    HW115650   4.604   2.245   9.790  1.9416 -3.2392  1.1726
 1396SOL    HW215651   4.682   2.365   9.754  1.2468 -0.1284 -1.4694
 1397SOL     OW15652   3.360   3.343   3.723 -0.2538 -0.0269 -0.5637
 1397SOL    HW115653   3.345   3.259   3.767 -1.8267 -0.5330 -2.0639
 1397SOL    HW215654   3.393   3.396   3.795 -0.2990 -0.6085 -0.1169
 1398SOL     OW15655   4.036   1.999   5.746 -0.0685  0.3031 -0.4100
 1398SOL    HW115656   4.063   2.090   5.737 -0.5775  0.2935 -1.9578
 1398SOL    HW215657   3.951   2.008   5.790 -0.2602 -2.1828 -0.2529
 1399SOL     OW15658   2.984   1.184  14.902  0.2198  0.6018 -0.1345
 1399SOL    HW115659   2.910   1.123  14.899 -0.6897  1.6449  1.0613
 1399SOL    HW215660   3.010   1.163  14.992 -1.8639 -0.0607  0.3051
 1400SOL     OW15661   3.646   4.436   2.717  0.3303  0.2276  0.0213
 1400SOL    HW115662   3.596   4.359   2.690  1.8404 -0.2334 -1.4928
 1400SOL    HW215663   3.603   4.493   2.653  0.2126  1.0839  0.8611
 1401SOL     OW15664   2.893   3.857   7.654 -1.1387  0.4270  0.7067
 1401SOL    HW115665   2.986   3.878   7.655 -1.4540  1.9221 -1.2144
 1401SOL    HW215666   2.864   3.931   7.707 -2.5170  0.9964 -0.8476
 1402SOL     OW15667   2.024   1.666   2.677 -0.1601  0.0969  0.3408
 1402SOL    HW115668   2.035   1.761   2.670  0.7338 -0.2218 -2.5755
 1402SOL    HW215669   2.065   1.632   2.598 -0.3830  0.7013 -0.0370
 1403SOL     OW15670   1.127   4.623   7.073  0.2910  0.1390  0.0630
 1403SOL    HW115671   1.137   4.605   7.166  3.1744 -0.0128 -0.2675
 1403SOL    HW215672   1.143   4.534   7.040  0.0811  0.0078  0.3116
 1404SOL     OW15673   4.013   0.932   3.223  0.0929  0.4714  0.6843
 1404SOL    HW115674   4.041   0.848   3.259  2.0705 -0.3463 -2.7245
 1404SOL    HW215675   4.078   0.936   3.153 -2.0541 -0.6451 -1.3864
 1405SOL     OW15676   2.415   3.925  15.361 -0.4817  0.5855 -0.4016
 1405SOL    HW115677   2.389   4.014  15.339  2.6238  1.7294  0.5596
 1405SOL    HW215678   2.436   3.930  15.454 -0.4956 -2.3929 -0.2402
 1406SOL     OW15679   3.717   2.492   4.271 -0.0083  0.1060  0.3325
 1406SOL    HW115680   3.641   2.463   4.220 -0.1840 -0.3264  0.8404
 1406SOL    HW215681   3.676   2.488   4.357  1.1683 -1.7797  0.7982
 1407SOL     OW15682   0.004   2.740   0.533  0.2007  1.0906  1.1238
 1407SOL    HW115683   4.694   2.693   0.610 -2.8517 -1.5220 -1.8018
 1407SOL    HW215684   0.096   2.713   0.536  0.3410  1.4560 -0.1762
 1408SOL     OW15685   1.179   0.427   5.545 -0.3637  0.6607  0.5084
 1408SOL    HW115686   1.132   0.465   5.619  2.5722  0.9455  2.2170
 1408SOL    HW215687   1.177   0.333   5.564  0.0605  0.1877 -1.8055
 1409SOL     OW15688   3.073   3.986  14.573 -0.1265  0.0358 -0.2676
 1409SOL    HW115689   3.086   4.037  14.653 -2.5440 -0.5421  0.4911
 1409SOL    HW215690   3.036   3.909  14.617  3.8047 -0.5549  2.0401
 1410SOL     OW15691   0.417   1.199   4.914  0.5570  0.1249  0.6439
 1410SOL    HW115692   0.447   1.185   4.824 -1.9222  3.4730 -0.7123
 1410SOL    HW215693   0.385   1.288   4.898 -0.1693 -0.8256 -3.2574
 1411SOL     OW15694   3.379   1.160   9.501  0.4796  0.0323 -0.5432
 1411SOL    HW115695   3.427   1.186   9.422  0.0468  1.7656 -0.2165
 1411SOL    HW215696   3.294   1.132   9.466  0.4286 -0.0733 -0.3353
 1412SOL     OW15697   0.042   3.611  17.121 -0.1414  0.3508 -0.0539
 1412SOL    HW115698   0.091   3.529  17.111 -2.4648 -0.9094 -0.9704
 1412SOL    HW215699   4.713   3.615  17.041 -0.3390  1.2539  0.1134
 1413SOL     OW15700   0.991   0.663   5.465  0.1371 -0.0930  0.2142
 1413SOL    HW115701   1.041   0.588   5.433 -0.7331  0.5547 -2.5819
 1413SOL    HW215702   1.023   0.733   5.409 -0.4396 -1.5398 -1.9007
 1414SOL     OW15703   2.653   3.031   0.668  0.6341  0.4749 -0.4956
 1414SOL    HW115704   2.559   3.036   0.687  0.3219  1.0871 -2.1838
 1414SOL    HW215705   2.693   3.100   0.721  1.0274  0.5634 -0.9069
 1415SOL     OW15706   4.053   2.189   0.941  0.2538  0.4065  0.1797
 1415SOL    HW115707   4.016   2.153   0.860  0.8996 -3.2302  1.4626
 1415SOL    HW215708   4.066   2.113   0.999  1.7985 -0.2006 -0.9733
 1416SOL     OW15709   1.484   1.015  13.571  0.0288  0.1914 -0.1561
 1416SOL    HW115710   1.453   1.083  13.631 -0.3580  1.3610 -1.7131
 1416SOL    HW215711   1.576   1.034  13.555  0.0952  0.9484  1.1199
 1417SOL     OW15712   4.285   2.479   1.122  0.4706  0.1243 -0.0071
 1417SOL    HW115713   4.268   2.445   1.034  2.2895 -0.2276 -0.2223
 1417SOL    HW215714   4.233   2.425   1.181 -1.4486  2.7281  0.7117
 1418SOL     OW15715   3.228   3.231   4.352  0.2111 -0.2771 -0.0110
 1418SOL    HW115716   3.183   3.147   4.337 -0.8862 -0.0086  1.8396
 1418SOL    HW215717   3.170   3.258   4.422 -1.4310 -2.7323 -0.4062
 1419SOL     OW15718   0.254   3.357   3.631  0.7648 -0.5551 -0.4606
 1419SOL    HW115719   0.181   3.357   3.569 -1.9194 -1.8650  2.7016
 1419SOL    HW215720   0.320   3.413   3.589  1.9481  1.1440  3.6097
 1420SOL     OW15721   1.033   2.134   5.736  1.4027 -0.0885  0.2007
 1420SOL    HW115722   1.084   2.171   5.664  0.9922 -0.2878 -0.1911
 1420SOL    HW215723   1.028   2.216   5.786 -2.2902 -0.6238  0.7077
 1421SOL     OW15724   0.952   2.940  14.770  0.6165 -0.6172  0.4272
 1421SOL    HW115725   0.898   2.993  14.712  0.2604 -3.3787 -1.7320
 1421SOL    HW215726   1.037   2.942  14.725  0.5096  1.4663  0.3426
 1422SOL     OW15727   0.535   4.364   5.302  0.7624 -0.2523  0.2800
 1422SOL    HW115728   0.517   4.419   5.378  0.2539 -0.4306  0.2915
 1422SOL    HW215729   0.630   4.354   5.301  0.7754 -0.1313  0.2554
 1423SOL     OW15730   1.930   3.826   8.110 -0.0438  0.0680 -0.0048
 1423SOL    HW115731   1.976   3.760   8.059 -0.8742 -0.5829  0.0889
 1423SOL    HW215732   1.989   3.898   8.088  1.7172 -1.3898  0.0128
 1424SOL     OW15733   0.562   1.305   4.389  0.9362 -0.0030 -0.0037
 1424SOL    HW115734   0.502   1.379   4.393 -0.4236 -1.0067 -2.2697
 1424SOL    HW215735   0.637   1.347   4.346  1.6537 -2.2855 -0.9526
 1425SOL     OW15736   2.220   1.922   4.904 -0.1519 -0.0704 -0.1156
 1425SOL    HW115737   2.211   1.955   4.815 -0.4932 -0.5205 -0.2490
 1425SOL    HW215738   2.305   1.881   4.886 -0.6595 -1.2424  0.1615
 1426SOL     OW15739   0.291   0.354   2.293 -0.6606 -0.1933 -0.1945
 1426SOL    HW115740   0.210   0.305   2.281 -1.2151  0.8524 -0.7835
 1426SOL    HW215741   0.273   0.408   2.369  0.7276  1.1739 -0.8270
 1427SOL     OW15742   4.588   1.550   6.604  0.5092 -0.1724  0.5269
 1427SOL    HW115743   4.609   1.643   6.608 -0.3381  0.0191  0.5391
 1427SOL    HW215744   4.538   1.541   6.523  0.3351 -0.5047  0.6721
 1428SOL     OW15745   4.260   0.165   3.116 -0.1775 -0.5396 -0.2324
 1428SOL    HW115746   4.306   0.180   3.199  0.3929  2.4067 -1.0633
 1428SOL    HW215747   4.303   0.230   3.060  0.1306  1.0681  1.8693
 1429SOL     OW15748   3.488   4.513   1.081  0.2164  0.3842  0.5648
 1429SOL    HW115749   3.509   4.574   1.153  1.0887  0.9092 -0.1366
 1429SOL    HW215750   3.395   4.508   1.103 -0.7368 -0.0953 -3.6667
 1430SOL     OW15751   4.310   2.595   0.667 -0.3175 -0.3140  0.4048
 1430SOL    HW115752   4.404   2.577   0.672  0.0471  0.4912 -3.0480
 1430SOL    HW215753   4.276   2.545   0.741  1.2091 -0.2326  1.1573
 1431SOL     OW15754   0.341   0.707   6.598 -0.2949  0.0204 -0.3670
 1431SOL    HW115755   0.303   0.774   6.656  1.4095  0.5755  0.0958
 1431SOL    HW215756   0.271   0.645   6.618  0.5372 -0.7629  0.1134
 1432SOL     OW15757   1.047   2.383   2.960  0.0997 -0.2119  0.7880
 1432SOL    HW115758   1.034   2.345   2.873  2.8311 -0.9749  0.7061
 1432SOL    HW215759   1.061   2.307   3.016  0.1034  0.0883  1.1929
 1433SOL     OW15760   0.540   4.482   7.507 -0.3826 -0.0773  0.0340
 1433SOL    HW115761   0.493   4.565   7.507 -1.1996 -0.5383  1.4214
 1433SOL    HW215762   0.537   4.455   7.598 -3.9947  1.0948  0.2792
 1434SOL     OW15763   0.034   4.059  13.937 -0.4000  0.5598 -0.3020
 1434SOL    HW115764   0.016   4.013  14.019 -1.3649 -0.5896 -1.1776
 1434SOL    HW215765   0.111   4.008  13.911 -0.9605 -0.9389  0.9876
 1435SOL     OW15766   2.200   2.036   9.521 -0.1282  0.3042 -0.1774
 1435SOL    HW115767   2.142   1.988   9.462  1.4803 -1.8280 -0.0183
 1435SOL    HW215768   2.152   2.030   9.603 -1.6123  1.0810 -0.9839
 1436SOL     OW15769   0.673   1.801  14.160 -0.2137 -0.5294  0.0675
 1436SOL    HW115770   0.649   1.894  14.166  0.4592 -0.3880  0.5774
 1436SOL    HW215771   0.719   1.811  14.077  1.3523  0.0906  1.0085
 1437SOL     OW15772   0.304   2.962   2.721 -0.4170  0.2713 -0.0784
 1437SOL    HW115773   0.367   2.908   2.768 -2.1833 -0.3462  1.6028
 1437SOL    HW215774   0.260   2.999   2.798  1.4033  2.8470 -0.2970
 1438SOL     OW15775   1.033   1.112   2.597 -0.2249 -0.2055 -0.5888
 1438SOL    HW115776   1.011   1.205   2.587 -2.5023 -0.8757 -1.8949
 1438SOL    HW215777   1.113   1.112   2.545 -0.3644  0.0654 -0.8029
 1439SOL     OW15778   3.183   2.055   1.998  0.1405 -0.2413 -0.3335
 1439SOL    HW115779   3.154   1.965   2.010  1.1720 -0.5119  0.0967
 1439SOL    HW215780   3.106   2.091   2.043 -0.3371 -1.3665 -0.2662
 1440SOL     OW15781   0.891   0.404  10.707 -0.3823  0.2088 -0.1640
 1440SOL    HW115782   0.979   0.436  10.728  0.1361 -1.1421 -0.3084
 1440SOL    HW215783   0.886   0.430  10.615  1.7025  0.7544 -0.1328
 1441SOL     OW15784   3.636   4.665   8.188 -0.0451  0.2023  0.2683
 1441SOL    HW115785   3.692   0.011   8.224  0.9550  0.7979 -2.3975
 1441SOL    HW215786   3.560   4.662   8.246 -0.3829 -0.3224 -0.1976
 1442SOL     OW15787   4.655   2.198   4.518 -1.1627  0.3770  0.0669
 1442SOL    HW115788   4.638   2.188   4.612  0.5434 -0.5108  0.2725
 1442SOL    HW215789   0.025   2.174   4.523 -1.4338 -0.5362  0.8276
 1443SOL     OW15790   4.498   1.005   1.845  0.3073 -0.3314 -0.4573
 1443SOL    HW115791   4.433   0.968   1.785 -0.8414 -0.2498  0.7384
 1443SOL    HW215792   4.573   0.980   1.791 -0.6381 -1.2150 -1.3835
 1444SOL     OW15793   3.643   0.085   5.755  0.3976  0.2985 -0.0307
 1444SOL    HW115794   3.596   0.107   5.675  1.6019 -0.4385 -0.9532
 1444SOL    HW215795   3.718   0.144   5.756 -0.8426  1.9293 -1.9200
 1445SOL     OW15796   1.401   1.988   6.057  0.4069  0.0938 -0.1916
 1445SOL    HW115797   1.332   1.933   6.019  1.5795 -2.1926  0.9941
 1445SOL    HW215798   1.448   1.917   6.100  0.3319 -0.2243 -0.6349
 1446SOL     OW15799   4.561   0.880  16.149 -0.0204 -0.2112 -0.2506
 1446SOL    HW115800   4.606   0.819  16.208  0.1005 -0.9772 -1.1384
 1446SOL    HW215801   4.478   0.885  16.197  0.0623  1.8174 -0.2984
 1447SOL     OW15802   2.542   4.365   4.626  0.7485  0.6369  0.1526
 1447SOL    HW115803   2.597   4.395   4.553 -1.0540  1.8922 -0.6746
 1447SOL    HW215804   2.480   4.434   4.647 -2.6558 -2.2861 -0.3814
 1448SOL     OW15805   1.655   4.627  12.086 -0.3722  0.4134  0.1756
 1448SOL    HW115806   1.610   4.609  12.003 -0.6832 -1.4302  0.7597
 1448SOL    HW215807   1.742   4.592  12.072 -0.6009  0.7218 -2.1917
 1449SOL     OW15808   1.617   1.777   9.509  0.1727  0.2726 -0.0829
 1449SOL    HW115809   1.682   1.737   9.451 -0.1871 -0.2268 -0.1414
 1449SOL    HW215810   1.610   1.703   9.568 -1.4758 -1.8457 -2.9073
 1450SOL     OW15811   0.391   3.710   7.030  0.0812 -0.3403 -0.3548
 1450SOL    HW115812   0.389   3.761   7.111 -2.8269 -0.5908 -0.2821
 1450SOL    HW215813   0.303   3.685   7.005  0.7445 -0.6974 -2.3401
 1451SOL     OW15814   0.093   3.576   1.879  0.4651  0.7322  0.1245
 1451SOL    HW115815   0.065   3.523   1.804  0.7564  0.5647  0.1334
 1451SOL    HW215816   0.159   3.521   1.921  1.2121 -0.1679 -2.2031
 1452SOL     OW15817   3.408   0.584   0.694  0.1308 -0.4010 -0.1826
 1452SOL    HW115818   3.324   0.591   0.738  0.0138 -0.7283 -0.3518
 1452SOL    HW215819   3.464   0.616   0.765  1.0868 -0.3874 -0.9311
 1453SOL     OW15820   0.926   4.207   1.349  0.4425 -0.0007  0.0440
 1453SOL    HW115821   0.860   4.172   1.409 -0.3390  2.3370  0.5177
 1453SOL    HW215822   1.001   4.153   1.376  0.8322  0.0888 -0.8774
 1454SOL     OW15823   1.921   3.822  17.177  0.7471 -0.1799  0.7108
 1454SOL    HW115824   1.841   3.791  17.135 -0.1654  1.5123  1.1859
 1454SOL    HW215825   1.873   3.850  17.256  1.0727  0.7814  0.5719
 1455SOL     OW15826   3.787   1.245   4.531  0.0678  0.6008 -0.0376
 1455SOL    HW115827   3.881   1.254   4.545  0.5445 -1.2682 -1.9208
 1455SOL    HW215828   3.765   1.161   4.571  0.6625 -0.5395 -2.1065
 1456SOL     OW15829   1.643   1.524   4.052 -0.3420 -0.4010  0.2743
 1456SOL    HW115830   1.706   1.596   4.051  1.4278 -1.9452 -0.4897
 1456SOL    HW215831   1.670   1.465   3.982  2.1540  0.3174  0.6350
 1457SOL     OW15832   1.827   4.685   6.796 -0.2210 -0.5989  0.3898
 1457SOL    HW115833   1.908   4.699   6.746 -0.3637 -1.4846 -0.0987
 1457SOL    HW215834   1.806   0.044   6.841 -0.1515 -0.1212 -0.4524
 1458SOL     OW15835   1.887   3.866   5.129 -0.3916 -0.3272  0.7312
 1458SOL    HW115836   1.909   3.918   5.051 -1.3349 -0.1675  0.5659
 1458SOL    HW215837   1.794   3.851   5.110 -0.7479  1.0928  1.3477
 1459SOL     OW15838   2.653   2.578   2.483  0.0186  0.3126 -0.1562
 1459SOL    HW115839   2.627   2.587   2.392  0.4206  0.8213 -0.2265
 1459SOL    HW215840   2.646   2.483   2.482 -2.7592  0.5245  0.6193
 1460SOL     OW15841   1.947   2.915   8.019 -0.4173 -0.1169 -0.1465
 1460SOL    HW115842   1.948   2.941   8.111 -1.0976 -3.9930  0.9728
 1460SOL    HW215843   2.034   2.939   7.989 -0.3827 -0.8378 -0.6440
 1461SOL     OW15844   4.226   3.373   5.029 -0.4065  0.1189 -0.0169
 1461SOL    HW115845   4.197   3.385   4.938 -0.1633  1.7139  0.1113
 1461SOL    HW215846   4.174   3.299   5.061  1.1818 -0.3103  1.5318
 1462SOL     OW15847   0.301   4.320   0.761  0.1235  0.7512  0.0463
 1462SOL    HW115848   0.235   4.264   0.802  0.0613  1.5890  1.0984
 1462SOL    HW215849   0.302   4.394   0.821  1.0037  1.0772 -0.3691
 1463SOL     OW15850   3.732   4.452   2.316 -0.2062  0.2531  0.3054
 1463SOL    HW115851   3.804   4.510   2.296 -0.6318  0.0787 -1.7216
 1463SOL    HW215852   3.782   4.372   2.332 -1.2675 -0.7135 -1.0969
 1464SOL     OW15853   2.308   1.363   4.726 -0.1209 -0.2535  0.0378
 1464SOL    HW115854   2.394   1.400   4.708  0.0686 -0.5845  0.2737
 1464SOL    HW215855   2.289   1.311   4.648  0.3269  0.3476 -0.4714
 1465SOL     OW15856   4.417   1.500   8.823 -0.2000  0.0485  0.4053
 1465SOL    HW115857   4.334   1.494   8.776  0.2730  0.3326 -0.4651
 1465SOL    HW215858   4.429   1.595   8.824  1.5738 -0.1833 -0.2594
 1466SOL     OW15859   2.433   1.094  15.767 -0.3692  0.1691  0.1835
 1466SOL    HW115860   2.355   1.046  15.738  1.2512 -2.1153 -0.3835
 1466SOL    HW215861   2.404   1.185  15.754 -1.0990 -0.2216 -0.9737
 1467SOL     OW15862   1.190   1.205  15.790  0.3157 -0.0448  0.3271
 1467SOL    HW115863   1.171   1.298  15.803 -0.8572 -0.2555  0.1750
 1467SOL    HW215864   1.219   1.201  15.699 -0.5865 -0.9676  0.0795
 1468SOL     OW15865   1.789   3.047   4.624  0.3224 -0.4763  0.4367
 1468SOL    HW115866   1.727   3.002   4.682  1.8788 -0.3238  2.2034
 1468SOL    HW215867   1.724   3.068   4.557  1.4660 -1.2793 -0.9285
 1469SOL     OW15868   2.317   0.097   6.189 -1.2072  0.3479 -0.4740
 1469SOL    HW115869   2.297   0.081   6.282 -1.6633 -0.2154 -0.6640
 1469SOL    HW215870   2.331   0.192   6.191  2.1238 -0.1504 -1.4084
 1470SOL     OW15871   4.548   3.848   4.181  0.0241 -0.3395  0.6510
 1470SOL    HW115872   4.458   3.817   4.173  0.8608 -2.9489  1.4312
 1470SOL    HW215873   4.589   3.798   4.110  0.3153 -0.6802  1.0601
 1471SOL     OW15874   2.581   1.110  15.109  0.3804 -0.3379  0.3612
 1471SOL    HW115875   2.632   1.085  15.032 -1.3422  0.4751 -1.0119
 1471SOL    HW215876   2.538   1.185  15.069  0.9023 -0.1463  0.1569
 1472SOL     OW15877   1.113   4.081  17.629 -0.2895 -0.1203 -0.5075
 1472SOL    HW115878   1.179   4.012  17.627  1.2414  1.2475  2.2751
 1472SOL    HW215879   1.063   4.067  17.549  0.5829 -0.8965 -0.8957
 1473SOL     OW15880   2.141   3.656   2.145  0.3421  0.2516 -0.1731
 1473SOL    HW115881   2.051   3.665   2.113 -0.0916 -0.4737  0.8392
 1473SOL    HW215882   2.178   3.676   2.059  0.4969 -1.7026 -0.5704
 1474SOL     OW15883   0.244   0.874   2.653 -0.1353  0.4345 -0.2565
 1474SOL    HW115884   0.276   0.786   2.632  0.3182  0.8285 -1.2349
 1474SOL    HW215885   0.187   0.891   2.578 -0.6295 -0.4883 -0.0942
 1475SOL     OW15886   1.982   2.884   4.819  0.3882 -0.0368  0.6581
 1475SOL    HW115887   2.054   2.881   4.755  0.5169  0.5833  0.7697
 1475SOL    HW215888   1.913   2.851   4.761  0.1432  2.4256 -0.4722
 1476SOL     OW15889   2.130   2.038   8.452  0.4437 -0.3086  0.1996
 1476SOL    HW115890   2.189   2.036   8.527 -0.7032  0.9612  1.1262
 1476SOL    HW215891   2.058   2.095   8.478  0.8639  0.4884 -0.3872
 1477SOL     OW15892   2.649   3.058   4.201  0.1807 -0.3970  0.0871
 1477SOL    HW115893   2.634   3.013   4.118  0.2057  0.4455 -0.3741
 1477SOL    HW215894   2.695   3.137   4.173 -1.5664  0.0862 -1.4215
 1478SOL     OW15895   4.419   0.142  11.591 -0.6580 -0.0504  0.6825
 1478SOL    HW115896   4.469   0.096  11.523 -1.4834 -2.8998  2.0138
 1478SOL    HW215897   4.332   0.150  11.553 -1.0895  2.1057  2.1729
 1479SOL     OW15898   2.612   0.683   7.742  0.2760 -0.7209  0.2161
 1479SOL    HW115899   2.595   0.713   7.831 -3.0133  1.7603 -1.2228
 1479SOL    HW215900   2.652   0.754   7.692 -2.9096  2.7622  2.5920
 1480SOL     OW15901   4.444   3.186   4.859 -0.8932  0.4061  0.1020
 1480SOL    HW115902   4.364   3.210   4.813 -0.3064 -0.6103 -1.4190
 1480SOL    HW215903   4.403   3.126   4.921 -0.0731 -0.6449 -0.3661
 1481SOL     OW15904   3.760   2.456   8.989  0.3977  0.0314  0.0851
 1481SOL    HW115905   3.846   2.487   9.019  0.0644  0.6911  0.3623
 1481SOL    HW215906   3.707   2.521   9.036 -1.0869  0.0809 -1.6655
 1482SOL     OW15907   1.039   3.186   7.599 -0.1050 -0.6525  0.4804
 1482SOL    HW115908   1.036   3.161   7.507  0.3959  0.4873  0.1523
 1482SOL    HW215909   1.083   3.271   7.594  0.2427 -0.8591 -0.0424
 1483SOL     OW15910   4.036   1.835  12.906  0.9543 -0.2169 -0.0492
 1483SOL    HW115911   4.110   1.888  12.934  2.0666 -0.9495 -1.6196
 1483SOL    HW215912   4.064   1.821  12.816 -1.0242 -0.6442 -0.6152
 1484SOL     OW15913   3.378   2.880  15.924  0.0371  0.2566 -0.5795
 1484SOL    HW115914   3.411   2.848  16.008 -0.2725  1.2312 -0.0889
 1484SOL    HW215915   3.379   2.975  15.937  0.6730  0.1297  0.3255
 1485SOL     OW15916   4.064   0.063   8.451  0.3390  0.1872  0.0504
 1485SOL    HW115917   3.993   0.100   8.504  2.9735  1.9728  2.2986
 1485SOL    HW215918   4.037   4.694   8.453 -3.3181  1.3297  2.5855
 1486SOL     OW15919   3.988   3.606   4.131 -0.1715  0.7655  0.4860
 1486SOL    HW115920   3.965   3.699   4.127  1.4174  1.1557  0.2991
 1486SOL    HW215921   3.914   3.556   4.164 -2.0525  2.3319 -1.4137
 1487SOL     OW15922   2.334   0.065   3.031 -0.3071 -0.2910 -0.4574
 1487SOL    HW115923   2.352   0.136   2.969  0.1124 -0.5517 -0.6321
 1487SOL    HW215924   2.240   0.078   3.039  0.0059  0.8951  1.3180
 1488SOL     OW15925   0.148   4.469   7.019  0.4197 -1.0808  0.6135
 1488SOL    HW115926   0.093   4.489   6.943  2.0218  1.5356  0.1352
 1488SOL    HW215927   0.219   4.533   7.007  0.5906 -1.1266  1.3882
 1489SOL     OW15928   0.641   2.564  15.831  0.7914  0.3151 -0.5188
 1489SOL    HW115929   0.556   2.599  15.859  0.0396 -0.5341 -1.7218
 1489SOL    HW215930   0.636   2.555  15.736 -0.7094 -2.8615 -0.1288
 1490SOL     OW15931   4.701   4.488  13.821  0.6366  0.4271 -0.2519
 1490SOL    HW115932   0.023   4.404  13.819  2.2311  1.2542  0.7768
 1490SOL    HW215933   0.042   4.549  13.857  2.6275 -1.6300 -0.3370
 1491SOL     OW15934   3.647   4.512  10.933  0.0226  0.0272 -0.5158
 1491SOL    HW115935   3.652   4.470  10.846  3.7532 -1.8012  0.5788
 1491SOL    HW215936   3.647   4.436  10.991  2.0828 -1.1937 -2.1086
 1492SOL     OW15937   3.863   0.640   2.599 -0.4437  0.1800  0.6841
 1492SOL    HW115938   3.770   0.661   2.588 -0.3164  0.4332  0.0655
 1492SOL    HW215939   3.905   0.692   2.530 -0.4800  0.0765  0.5840
 1493SOL     OW15940   0.995   0.586   6.789 -0.1939  0.4270  0.2254
 1493SOL    HW115941   0.944   0.554   6.864  0.7831  1.2218  1.2395
 1493SOL    HW215942   0.986   0.505   6.739  1.0028  0.5527 -0.1991
 1494SOL     OW15943   0.711   1.754  16.393 -0.2580  0.4538 -0.1479
 1494SOL    HW115944   0.755   1.679  16.433 -1.8001 -0.8430 -0.9146
 1494SOL    HW215945   0.619   1.737  16.411 -0.2101 -0.4804 -0.7916
 1495SOL     OW15946   1.050   0.209   5.898  0.2528  0.0488 -0.2051
 1495SOL    HW115947   0.996   0.232   5.974 -2.6446 -2.7495 -1.4170
 1495SOL    HW215948   1.006   0.134   5.858 -0.2495 -2.1714  4.5886
 1496SOL     OW15949   0.192   3.868   3.580  0.2485  0.9065  0.1251
 1496SOL    HW115950   0.139   3.941   3.613 -0.5882  0.0957  0.5858
 1496SOL    HW215951   0.210   3.898   3.491  1.1204 -1.2454 -0.4004
 1497SOL     OW15952   2.800   2.130   7.989 -0.3669 -0.2329  0.1824
 1497SOL    HW115953   2.858   2.204   8.010  3.1445 -2.4982 -1.4868
 1497SOL    HW215954   2.860   2.057   7.974 -0.4994 -0.3420  0.1794
 1498SOL     OW15955   1.745   1.237  12.363  0.5166 -0.0349 -0.3209
 1498SOL    HW115956   1.708   1.148  12.360  2.1256 -0.7727  2.2629
 1498SOL    HW215957   1.839   1.221  12.361  0.4918 -0.3245  0.8038
 1499SOL     OW15958   3.950   0.672   6.067  0.7075 -0.2316 -0.4533
 1499SOL    HW115959   3.981   0.684   6.157 -1.4485 -0.1059  0.2741
 1499SOL    HW215960   3.951   0.763   6.039 -0.7852 -0.1615 -0.2917
 1500SOL     OW15961   4.254   0.759   2.225 -0.4314 -0.2628  0.1512
 1500SOL    HW115962   4.285   0.775   2.136 -0.5983  2.0987  0.5191
 1500SOL    HW215963   4.232   0.666   2.222  2.1585 -0.9599  2.6722
 1501SOL     OW15964   2.433   0.478   5.596 -0.3500 -0.2175 -0.5448
 1501SOL    HW115965   2.382   0.404   5.562 -1.1083  1.1585 -2.3646
 1501SOL    HW215966   2.506   0.498   5.538 -0.9733 -0.1069 -1.2852
 1502SOL     OW15967   0.995   3.562  11.431 -0.3731  0.1827  0.3873
 1502SOL    HW115968   0.924   3.549  11.369 -0.4710 -0.0752  0.5540
 1502SOL    HW215969   1.008   3.471  11.459 -0.1367  0.5582  1.5211
 1503SOL     OW15970   4.295   0.130  11.884  0.2082  0.4140  0.1230
 1503SOL    HW115971   4.324   0.220  11.898 -0.2319  0.5280  0.2892
 1503SOL    HW215972   4.345   0.107  11.805 -0.7953 -1.6278  0.0869
 1504SOL     OW15973   1.214   1.291   6.374  0.3483  0.0244  0.2022
 1504SOL    HW115974   1.282   1.288   6.442  1.6296 -1.1696 -1.1447
 1504SOL    HW215975   1.165   1.362   6.415  0.3690  0.0461  0.1893
 1505SOL     OW15976   0.122   4.484   6.046  0.5391  0.6174  0.3146
 1505SOL    HW115977   0.099   4.392   6.054  2.3229  0.2954  1.6633
 1505SOL    HW215978   0.065   4.515   5.975 -0.4221 -0.9468  0.4124
 1506SOL     OW15979   2.179   2.823   6.291 -0.2865  0.1903 -0.1828
 1506SOL    HW115980   2.086   2.842   6.279 -0.1649  1.9396  1.6096
 1506SOL    HW215981   2.203   2.757   6.226 -1.0234 -0.7893  0.5456
 1507SOL     OW15982   2.047   4.225  15.774 -0.0533  0.2545 -0.2333
 1507SOL    HW115983   2.055   4.132  15.756  1.2742  0.2947  0.1818
 1507SOL    HW215984   1.953   4.244  15.768 -0.2453 -1.3411 -2.2557
 1508SOL     OW15985   1.487   2.737   4.143 -0.4715 -0.2943  0.0390
 1508SOL    HW115986   1.423   2.749   4.213 -2.3349  2.5402 -2.1511
 1508SOL    HW215987   1.532   2.662   4.181  1.3678  1.5852  1.6160
 1509SOL     OW15988   2.075   3.242   7.763 -0.1964 -0.4312  0.5834
 1509SOL    HW115989   1.989   3.266   7.798  0.3481  1.0576  0.8893
 1509SOL    HW215990   2.071   3.146   7.770 -0.7320 -0.4462  0.0966
 1510SOL     OW15991   1.612   3.746   8.412  0.4563  0.0201  0.0491
 1510SOL    HW115992   1.687   3.697   8.377  0.3612 -1.4760  1.9140
 1510SOL    HW215993   1.553   3.720   8.341 -1.4508 -0.0099  1.6664
 1511SOL     OW15994   4.498   3.565  11.452  0.3175  0.3989  0.1127
 1511SOL    HW115995   4.522   3.647  11.495 -1.6495  0.6627  0.7143
 1511SOL    HW215996   4.490   3.510  11.530  1.7471  1.2900  0.8780
 1512SOL     OW15997   2.423   3.678   2.584  0.4266 -0.6912  0.6865
 1512SOL    HW115998   2.483   3.751   2.601 -0.0227 -0.3867  0.9738
 1512SOL    HW215999   2.484   3.618   2.542  0.8230  0.9480 -1.0832
 1513SOL     OW16000   0.444   1.462   1.070 -0.2943  0.6007  0.2324
 1513SOL    HW116001   0.456   1.523   0.997 -0.6249  0.8659  0.4016
 1513SOL    HW216002   0.349   1.453   1.066 -0.0406 -1.9971 -0.1772
 1514SOL     OW16003   0.877   0.898   2.728  0.3963 -0.1938 -0.4753
 1514SOL    HW116004   0.786   0.929   2.724  0.2297 -0.5255  0.7919
 1514SOL    HW216005   0.924   0.980   2.713 -1.5412  0.7978 -1.0858
 1515SOL     OW16006   1.562   2.549   0.460 -0.5460  0.3072  0.0754
 1515SOL    HW116007   1.500   2.510   0.522  0.7731  0.1270  1.2819
 1515SOL    HW216008   1.514   2.523   0.381 -0.5452 -1.9816  0.8311
 1516SOL     OW16009   2.334   2.212  13.814  0.9841  0.1156 -0.6302
 1516SOL    HW116010   2.256   2.268  13.804  0.9994  0.7222  2.5653
 1516SOL    HW216011   2.295   2.125  13.820 -1.2408  1.1383 -0.2114
 1517SOL     OW16012   1.233   2.199   3.088  0.4033 -0.2230  0.1909
 1517SOL    HW116013   1.245   2.113   3.046  1.2598 -0.0218  0.0281
 1517SOL    HW216014   1.293   2.183   3.161  1.6274 -2.4719 -1.2937
 1518SOL     OW16015   1.530   2.658   2.565 -0.1964 -0.1518  0.1201
 1518SOL    HW116016   1.566   2.727   2.622  1.0226  0.0593 -0.9095
 1518SOL    HW216017   1.472   2.706   2.507  0.1122 -1.5310 -1.3104
 1519SOL     OW16018   1.685   2.128   4.595  0.1874  0.3559  0.6968
 1519SOL    HW116019   1.694   2.181   4.675  0.4255  0.4765  0.5920
 1519SOL    HW216020   1.594   2.142   4.570  0.8588  1.5319 -1.1303
 1520SOL     OW16021   0.781   0.194  10.068  0.4641 -0.4217  0.2999
 1520SOL    HW116022   0.784   0.202  10.163 -0.4585  1.2024  0.1937
 1520SOL    HW216023   0.836   0.270  10.047  1.6116 -1.6897 -1.2229
 1521SOL     OW16024   0.213   1.576   9.210 -0.0321 -0.0690 -0.1295
 1521SOL    HW116025   0.227   1.481   9.212  0.7283  0.0726  1.3255
 1521SOL    HW216026   0.262   1.594   9.290 -0.2638 -1.5413  0.3552
 1522SOL     OW16027   2.898   3.357   8.020  0.1093  0.4306 -0.3382
 1522SOL    HW116028   2.959   3.398   8.081  0.4302 -0.3465 -0.1311
 1522SOL    HW216029   2.945   3.274   8.007  0.9659  0.9682 -0.7254
 1523SOL     OW16030   0.663   3.360  15.058 -0.0418 -0.4487  0.1183
 1523SOL    HW116031   0.568   3.366  15.067  0.0373  1.8132 -0.6109
 1523SOL    HW216032   0.681   3.293  14.992 -2.1342 -0.5896 -0.2858
 1524SOL     OW16033   3.418   0.294  13.588  0.0783 -0.4293  0.3799
 1524SOL    HW116034   3.403   0.209  13.548 -2.6816  1.0494 -1.7138
 1524SOL    HW216035   3.330   0.326  13.565  1.4653  1.6540 -2.0160
 1525SOL     OW16036   1.084   0.335   0.797  0.1298 -0.0796  0.2413
 1525SOL    HW116037   1.131   0.348   0.880 -0.7740 -2.2331  1.0788
 1525SOL    HW216038   1.123   0.404   0.744  1.0942 -0.6550  0.1945
 1526SOL     OW16039   0.377   1.468   2.972 -0.0576  0.1112 -0.0140
 1526SOL    HW116040   0.328   1.421   2.905  1.0554 -0.0600 -0.7200
 1526SOL    HW216041   0.467   1.435   2.970 -0.6950 -1.5144 -1.2697
 1527SOL     OW16042   1.520   1.158   8.283  0.4745 -0.1627 -0.1854
 1527SOL    HW116043   1.466   1.095   8.332  1.4665 -1.0392 -0.2237
 1527SOL    HW216044   1.589   1.166   8.348 -0.9044  1.2583  1.1135
 1528SOL     OW16045   1.226   0.459  14.853 -0.2114  0.3253  0.0510
 1528SOL    HW116046   1.191   0.502  14.775  0.6471 -1.7094 -1.4355
 1528SOL    HW216047   1.201   0.519  14.924  0.2233  0.9301 -0.3069
 1529SOL     OW16048   0.303   0.339   7.583  0.3763 -1.0255  0.3166
 1529SOL    HW116049   0.227   0.371   7.632 -0.2018 -1.1951 -0.4835
 1529SOL    HW216050   0.263   0.316   7.500  0.0021 -2.2947  0.8566
 1530SOL     OW16051   1.506   0.307   7.377 -0.3536 -0.7041  0.0912
 1530SOL    HW116052   1.440   0.356   7.427 -1.2359 -0.9783 -0.7919
 1530SOL    HW216053   1.543   0.254   7.448 -0.8975  1.8933  2.3576
 1531SOL     OW16054   1.333   0.983  16.883 -0.0394  0.0671 -0.5613
 1531SOL    HW116055   1.347   0.896  16.919  0.5246 -0.5572 -2.3050
 1531SOL    HW216056   1.248   1.008  16.920  0.5563 -1.0861  1.6075
 1532SOL     OW16057   1.858   1.987   7.188  0.2896 -0.1935  0.2516
 1532SOL    HW116058   1.888   1.972   7.098 -0.4732  3.8259 -0.6966
 1532SOL    HW216059   1.770   2.023   7.175  0.5190  0.1191 -0.4459
 1533SOL     OW16060   2.991   2.601   0.576  0.0653 -0.7092 -0.4534
 1533SOL    HW116061   2.961   2.582   0.487 -1.5099  0.9632 -0.2513
 1533SOL    HW216062   2.931   2.670   0.603  1.3506  0.2680 -0.1112
 1534SOL     OW16063   4.201   2.365   5.427  0.4629  0.5205 -0.3034
 1534SOL    HW116064   4.236   2.440   5.379 -0.1334  1.6850  1.1156
 1534SOL    HW216065   4.200   2.400   5.516 -0.7013  0.9406 -0.4832
 1535SOL     OW16066   2.884   1.133   1.248 -0.5659  0.1769 -0.6400
 1535SOL    HW116067   2.951   1.112   1.183 -1.0896  2.2198 -1.8509
 1535SOL    HW216068   2.913   1.068   1.312 -1.3762  0.1363 -0.3231
 1536SOL     OW16069   0.838   4.011   3.887  0.2537 -0.0760  0.0612
 1536SOL    HW116070   0.831   4.079   3.954 -1.7575 -0.0494 -0.1950
 1536SOL    HW216071   0.802   3.936   3.935  0.7840 -0.7977 -0.6513
 1537SOL     OW16072   3.437   1.336  14.203 -0.4058  0.5708  0.1097
 1537SOL    HW116073   3.362   1.363  14.149  1.1968  0.3957 -2.2148
 1537SOL    HW216074   3.467   1.271  14.140  0.4997 -2.1432  3.3691
 1538SOL     OW16075   0.381   3.753   0.186  0.1230 -0.7465 -0.4132
 1538SOL    HW116076   0.307   3.813   0.192  1.3478  0.6878  0.5497
 1538SOL    HW216077   0.451   3.819   0.193  0.6778 -1.4833  0.9720
 1539SOL     OW16078   2.702   0.771   0.625 -0.1680  0.7667  0.1935
 1539SOL    HW116079   2.632   0.834   0.646 -1.6434 -0.9116  0.3150
 1539SOL    HW216080   2.680   0.698   0.684  1.4598  1.6945  1.9559
 1540SOL     OW16081   1.160   0.538  14.324  0.1895  0.3104  0.0162
 1540SOL    HW116082   1.219   0.577  14.259  0.5364  0.2989  0.3199
 1540SOL    HW216083   1.077   0.547  14.278 -0.5689  0.3877  1.4106
 1541SOL     OW16084   3.923   0.222  15.384  0.3365 -0.3606  0.0196
 1541SOL    HW116085   3.990   0.160  15.355 -2.4541 -1.9295 -3.0808
 1541SOL    HW216086   3.934   0.222  15.479 -0.0379  2.4673  0.0542
 1542SOL     OW16087   3.278   1.229  11.609  0.4360 -0.1438  0.4798
 1542SOL    HW116088   3.362   1.262  11.642 -0.6404  0.2431  2.8382
 1542SOL    HW216089   3.217   1.291  11.650 -0.3290 -1.2344  1.0005
 1543SOL     OW16090   4.669   0.523  15.141  0.0176 -0.6894 -0.3094
 1543SOL    HW116091   4.579   0.506  15.167 -0.4130 -1.1173 -2.1014
 1543SOL    HW216092   4.674   0.473  15.059 -1.3865 -1.8509  0.3156
 1544SOL     OW16093   2.030   2.699   7.615 -0.0450  0.0581  0.8501
 1544SOL    HW116094   1.955   2.672   7.562  1.0723  3.0795 -2.3090
 1544SOL    HW216095   2.083   2.622   7.595 -0.6501  0.3890 -2.0275
 1545SOL     OW16096   4.620   2.435  13.959 -0.1541  0.2829 -0.1267
 1545SOL    HW116097   4.682   2.424  13.887  0.6057  1.0264  0.4123
 1545SOL    HW216098   4.551   2.480  13.911 -1.0530 -0.7214  0.2300
 1546SOL     OW16099   1.077   3.830   4.990 -0.1458  0.7727  0.0266
 1546SOL    HW116100   1.167   3.798   4.999 -0.4283 -0.2289 -0.6759
 1546SOL    HW216101   1.023   3.753   5.007 -0.6211  0.9318 -0.7117
 1547SOL     OW16102   0.975   2.754  16.075 -0.1224 -0.7706  0.1027
 1547SOL    HW116103   1.010   2.686  16.132 -0.4932 -0.2733  0.9320
 1547SOL    HW216104   0.890   2.710  16.068 -0.7283  0.8633 -2.9776
 1548SOL     OW16105   4.482   0.360   1.962 -0.4147 -0.5342 -0.0378
 1548SOL    HW116106   4.459   0.268   1.948  1.3055 -1.0345  0.4060
 1548SOL    HW216107   4.545   0.367   1.890 -1.0258  0.5908 -0.4546
 1549SOL     OW16108   1.026   0.281   1.543  0.2972  0.0338 -0.1809
 1549SOL    HW116109   1.023   0.356   1.603  1.0606  0.5259 -0.7416
 1549SOL    HW216110   1.074   0.220   1.598 -0.2191  0.2576  0.5091
 1550SOL     OW16111   1.611   3.031   3.519  0.6470 -0.2100  0.2436
 1550SOL    HW116112   1.699   3.024   3.556  0.3096 -1.5780  0.7791
 1550SOL    HW216113   1.624   3.089   3.444 -1.3121 -1.0187 -0.7014
 1551SOL     OW16114   1.558   1.202  10.223  0.2293 -0.7683 -0.1906
 1551SOL    HW116115   1.491   1.182  10.287 -0.3127 -3.3160 -1.5670
 1551SOL    HW216116   1.608   1.122  10.233  3.3216  1.1653 -0.2915
 1552SOL     OW16117   0.832   0.889   7.278 -0.0485 -0.2850  0.3953
 1552SOL    HW116118   0.851   0.821   7.214  0.3309  0.5972 -0.4338
 1552SOL    HW216119   0.736   0.885   7.278 -0.1038  1.0241 -3.1357
 1553SOL     OW16120   1.941   0.040   8.107 -0.3288  0.0098  0.3296
 1553SOL    HW116121   1.946   0.012   8.016  1.3972 -0.8056  0.6887
 1553SOL    HW216122   2.019   0.094   8.118 -0.3069  0.4343 -1.8884
 1554SOL     OW16123   3.207   3.952   3.268 -0.2342  0.0821  0.0481
 1554SOL    HW116124   3.250   3.937   3.352  0.5259  0.7378 -0.2141
 1554SOL    HW216125   3.275   3.917   3.209  1.0558  0.2613  1.4447
 1555SOL     OW16126   0.361   0.445   9.550  0.6905 -0.1114 -0.0569
 1555SOL    HW116127   0.307   0.389   9.605 -0.1292 -0.1283 -0.8799
 1555SOL    HW216128   0.373   0.382   9.479  0.6517  0.0185 -0.1801
 1556SOL     OW16129   1.363   1.335  16.966  0.6068 -0.6133  0.0043
 1556SOL    HW116130   1.298   1.290  16.911  0.4942 -0.5033  0.0472
 1556SOL    HW216131   1.440   1.285  16.939  1.3432  0.6266 -0.2269
 1557SOL     OW16132   3.601   0.177   4.426  0.6178  0.2570  0.6005
 1557SOL    HW116133   3.583   0.253   4.370 -0.8918  1.4295  2.7009
 1557SOL    HW216134   3.696   0.176   4.429  0.6481 -1.8827 -0.9433
 1558SOL     OW16135   0.573   3.084   4.649 -0.1571 -0.6921  0.0412
 1558SOL    HW116136   0.668   3.072   4.647 -0.1036  0.0971 -1.7027
 1558SOL    HW216137   0.578   3.175   4.618  0.0059 -1.4785 -2.1992
 1559SOL     OW16138   1.191   2.868   1.740  0.3680  0.0361 -0.2383
 1559SOL    HW116139   1.262   2.895   1.799 -1.5386  1.7434  1.2894
 1559SOL    HW216140   1.153   2.787   1.773 -0.1015  0.1352 -0.5417
 1560SOL     OW16141   4.603   3.910   2.878  0.0800 -0.0192 -0.0754
 1560SOL    HW116142   4.642   3.998   2.875 -0.8381  0.3634 -0.6094
 1560SOL    HW216143   4.625   3.873   2.793 -0.0970 -1.3618  0.4606
 1561SOL     OW16144   1.722   3.394  13.148  0.0381 -0.1645  0.0403
 1561SOL    HW116145   1.811   3.396  13.181  0.0712 -2.6142  0.1160
 1561SOL    HW216146   1.681   3.392  13.235  0.4337 -2.2317  0.1947
 1562SOL     OW16147   0.963   3.449   4.070 -0.2432  0.0681 -0.2291
 1562SOL    HW116148   0.961   3.419   4.161 -1.5152  1.0176  0.0724
 1562SOL    HW216149   0.871   3.436   4.043  0.7781 -0.2891 -3.5817
 1563SOL     OW16150   0.348   4.508   0.976  0.5101 -0.0952  0.1174
 1563SOL    HW116151   0.413   4.514   1.046 -2.4701  2.1208  2.6671
 1563SOL    HW216152   0.277   4.559   1.014 -0.5374 -0.8406 -0.8442
 1564SOL     OW16153   0.188   0.064   4.076 -0.3200 -0.1794 -0.7652
 1564SOL    HW116154   0.159   0.106   4.157 -1.3679 -0.6846 -0.8871
 1564SOL    HW216155   0.162   4.696   4.092 -3.6811  0.9896  0.3512
 1565SOL     OW16156   1.952   0.496   4.223  0.0563 -0.4700 -0.0059
 1565SOL    HW116157   1.861   0.475   4.200 -0.0285  0.2788 -0.3644
 1565SOL    HW216158   2.000   0.449   4.155 -0.3411  1.1788 -1.4173
 1566SOL     OW16159   2.645   2.992  10.704  0.2397 -0.5660 -0.2638
 1566SOL    HW116160   2.706   3.046  10.654  1.2413 -1.8557 -0.4482
 1566SOL    HW216161   2.691   2.978  10.787  1.4124  2.1558 -0.4460
 1567SOL     OW16162   0.317   3.287   0.819 -0.5821  0.3308  0.2310
 1567SOL    HW116163   0.239   3.300   0.873 -1.4278 -1.2792 -0.6082
 1567SOL    HW216164   0.362   3.366   0.848  0.3293 -0.6176  1.3970
 1568SOL     OW16165   0.875   2.034   1.178 -0.1918  0.0375  0.4864
 1568SOL    HW116166   0.877   2.124   1.210 -0.2756 -0.3356  1.5456
 1568SOL    HW216167   0.793   1.991   1.202 -0.3453  0.7948  1.3133
 1569SOL     OW16168   3.869   2.690   4.833 -0.4874 -0.0563 -0.1367
 1569SOL    HW116169   3.787   2.739   4.844 -1.2626 -1.3160 -0.3657
 1569SOL    HW216170   3.842   2.608   4.874 -1.1821  1.0569  1.6013
 1570SOL     OW16171   3.597   0.657   9.091 -0.0658  0.2240 -0.1058
 1570SOL    HW116172   3.552   0.604   9.157  0.8571  0.9569  1.1218
 1570SOL    HW216173   3.686   0.630   9.112  0.2190  3.3332  2.7477
 1571SOL     OW16174   0.000   2.838   5.349 -0.3766 -0.6953  0.3351
 1571SOL    HW116175   0.088   2.805   5.368  0.0234  0.6269  0.7949
 1571SOL    HW216176   0.014   2.930   5.326  1.4276 -0.6515  1.5339
 1572SOL     OW16177   0.816   2.271  12.459 -0.2158  0.8470  0.3705
 1572SOL    HW116178   0.760   2.329  12.408  0.6497  0.9996 -0.4246
 1572SOL    HW216179   0.748   2.221  12.504  0.5705  0.2511  0.8938
 1573SOL     OW16180   0.779   1.605   4.494 -0.0009 -0.2131 -0.5072
 1573SOL    HW116181   0.777   1.540   4.423 -1.6426 -0.5407 -0.1643
 1573SOL    HW216182   0.870   1.604   4.524  0.2797  0.3476 -1.3107
 1574SOL     OW16183   0.690   3.781   9.376 -0.4097  0.1943 -0.3974
 1574SOL    HW116184   0.723   3.691   9.366  0.7304  0.3300  2.0696
 1574SOL    HW216185   0.763   3.828   9.336 -0.5508 -0.4218 -1.3974
 1575SOL     OW16186   3.846   0.513   6.565 -0.0911  0.0245  0.3108
 1575SOL    HW116187   3.803   0.597   6.582 -0.1413 -0.0713  0.6777
 1575SOL    HW216188   3.874   0.488   6.654 -1.3936 -1.5607  0.2853
 1576SOL     OW16189   1.327   3.330   2.257 -0.7893 -0.2766  0.3073
 1576SOL    HW116190   1.338   3.384   2.335 -1.3430  2.2011 -1.3104
 1576SOL    HW216191   1.364   3.392   2.193 -1.3108  0.7948  1.0538
 1577SOL     OW16192   2.719   0.027  12.593  0.3254 -0.1444  0.8238
 1577SOL    HW116193   2.625   0.010  12.595  0.2433 -0.2188 -3.2280
 1577SOL    HW216194   2.727   0.122  12.581  1.9969 -0.3603  0.1966
 1578SOL     OW16195   1.203   1.873   8.973 -0.5127  0.0193  0.2859
 1578SOL    HW116196   1.134   1.906   9.030 -0.9233  1.6514 -1.1236
 1578SOL    HW216197   1.187   1.924   8.893 -0.6538 -0.3829  0.0567
 1579SOL     OW16198   2.721   0.209  10.163  0.0825 -0.9260  0.1251
 1579SOL    HW116199   2.737   0.231  10.072 -1.5033  2.0204  0.5681
 1579SOL    HW216200   2.757   0.120  10.163 -0.6795 -1.2429  1.8675
 1580SOL     OW16201   1.496   2.419   4.161 -0.6471  0.2720 -0.3088
 1580SOL    HW116202   1.560   2.461   4.218 -1.1350  0.3389  0.1947
 1580SOL    HW216203   1.491   2.337   4.209  0.4667  0.1710 -0.3778
 1581SOL     OW16204   0.260   0.095   3.103 -0.5734 -0.2820 -0.4394
 1581SOL    HW116205   0.336   0.137   3.063 -1.1912  1.0669 -0.2064
 1581SOL    HW216206   0.216   0.066   3.023 -1.5297  2.6488 -1.0053
 1582SOL     OW16207   2.950   3.740   0.376 -0.0867 -0.1319 -0.2288
 1582SOL    HW116208   2.969   3.831   0.402  0.0957  0.1347 -1.3058
 1582SOL    HW216209   3.038   3.708   0.358 -0.0230 -0.2952  0.3677
 1583SOL     OW16210   4.302   2.498  17.667 -0.1348 -0.4125 -0.0109
 1583SOL    HW116211   4.254   2.580  17.672 -0.5264 -0.5251 -2.1796
 1583SOL    HW216212   4.393   2.525  17.684  0.3776 -1.5130 -0.9908
 1584SOL     OW16213   1.978   2.720  14.966 -0.6976  0.3991  0.4263
 1584SOL    HW116214   1.977   2.627  14.988 -1.5149  0.0665 -0.9717
 1584SOL    HW216215   2.070   2.740  14.950 -0.5291 -1.4871 -0.9617
 1585SOL     OW16216   2.420   1.913   4.237  0.0382  0.1276 -0.7470
 1585SOL    HW116217   2.399   2.006   4.227  0.3220  0.2052 -0.6099
 1585SOL    HW216218   2.329   1.884   4.241  0.3061 -0.4015  1.2082
 1586SOL     OW16219   0.227   3.723   5.229  0.1515  0.2959  0.9589
 1586SOL    HW116220   0.226   3.640   5.182 -2.4896  1.4545 -1.0386
 1586SOL    HW216221   0.177   3.776   5.166  1.5542  0.2179 -0.2046
 1587SOL     OW16222   2.974   0.045   8.735 -0.0995 -0.0113 -0.2776
 1587SOL    HW116223   2.910   4.710   8.777  0.0319  0.4947  0.6082
 1587SOL    HW216224   3.016   4.705   8.677 -0.5470 -0.9441  0.3967
 1588SOL     OW16225   4.236   0.711  10.800  0.2214 -0.6075 -0.0221
 1588SOL    HW116226   4.224   0.684  10.709  2.5622  0.5002 -0.6717
 1588SOL    HW216227   4.318   0.668  10.827  0.2549 -0.8974 -0.6019
 1589SOL     OW16228   1.060   3.641  16.265  0.0380 -0.7745 -0.5850
 1589SOL    HW116229   1.007   3.561  16.268 -0.4580 -0.4575 -0.9918
 1589SOL    HW216230   1.004   3.690  16.206  0.4589 -0.9896 -1.1703
 1590SOL     OW16231   3.325   2.099   3.833 -0.1322 -0.2335 -0.3651
 1590SOL    HW116232   3.417   2.123   3.828  0.4015 -1.3893  3.6284
 1590SOL    HW216233   3.275   2.166   3.787 -0.3436  0.3235  0.6707
 1591SOL     OW16234   0.459   1.830   8.298  0.5913 -0.5375 -0.0629
 1591SOL    HW116235   0.458   1.876   8.214  0.3737  1.9166  1.2724
 1591SOL    HW216236   0.382   1.873   8.336  0.4746 -0.6721 -0.1490
 1592SOL     OW16237   1.427   4.654   4.534  0.0792  0.0681 -0.1545
 1592SOL    HW116238   1.343   4.696   4.552  0.5692  0.9312  0.0811
 1592SOL    HW216239   1.488   0.004   4.538  0.1973  0.0364 -1.3979
 1593SOL     OW16240   0.722   0.114  15.291  0.4347  0.3322 -0.4427
 1593SOL    HW116241   0.667   0.167  15.349  0.6852  0.4530 -0.3144
 1593SOL    HW216242   0.647   0.067  15.254  0.4463  1.4676 -1.9180
 1594SOL     OW16243   2.817   4.419   7.157  0.2364  0.0074  0.2411
 1594SOL    HW116244   2.820   4.373   7.073  0.2631  0.2009  0.1357
 1594SOL    HW216245   2.767   4.497   7.131  0.7413  0.9036  1.9687
 1595SOL     OW16246   1.942   0.541   2.881 -0.1475 -0.4070 -0.2997
 1595SOL    HW116247   1.997   0.463   2.887 -0.3453 -0.5501 -0.3356
 1595SOL    HW216248   1.989   0.609   2.833 -0.8867 -0.1629 -0.6733
 1596SOL     OW16249   0.977   4.198   6.967  0.3355  0.0083  0.2574
 1596SOL    HW116250   0.913   4.143   7.011 -0.3799  0.7915  0.1729
 1596SOL    HW216251   0.943   4.191   6.878 -2.3522  1.2006  1.2101
 1597SOL     OW16252   3.455   3.435   7.154 -0.3307 -0.5235 -0.1658
 1597SOL    HW116253   3.454   3.453   7.060  1.1746 -0.9755 -0.2646
 1597SOL    HW216254   3.465   3.520   7.198 -0.0263 -1.5797  1.7749
 1598SOL     OW16255   2.421   0.562  14.619  0.0128 -0.3796  0.2913
 1598SOL    HW116256   2.500   0.576  14.567  0.8778 -0.8071  1.5135
 1598SOL    HW216257   2.394   0.652  14.639 -0.2100 -0.2514 -0.5833
 1599SOL     OW16258   2.700   0.817   1.371  0.6381 -0.4121  0.5599
 1599SOL    HW116259   2.631   0.817   1.438  1.6100 -0.3195  1.5436
 1599SOL    HW216260   2.656   0.860   1.298  1.8755 -0.0706  0.0333
 1600SOL     OW16261   3.065   2.588   7.743 -0.5996 -0.2391 -0.7345
 1600SOL    HW116262   3.095   2.552   7.827  0.4485 -2.3855 -2.0304
 1600SOL    HW216263   3.033   2.674   7.771  0.0073 -0.2861  0.1193
 1601SOL     OW16264   1.190   1.805   4.087  0.1885  0.8641 -0.2263
 1601SOL    HW116265   1.208   1.712   4.104 -3.0221  0.5389  1.4227
 1601SOL    HW216266   1.280   1.833   4.077  0.1973  0.2332 -1.8251
 1602SOL     OW16267   4.507   1.705  10.307  0.1436  0.1405 -0.6261
 1602SOL    HW116268   4.595   1.681  10.335 -0.5046 -0.2525  1.0747
 1602SOL    HW216269   4.491   1.622  10.261  0.8656 -0.5404  0.3479
 1603SOL     OW16270   0.866   3.876  14.278 -0.0208  0.0103 -0.0882
 1603SOL    HW116271   0.953   3.876  14.318 -0.0454  1.0687 -0.0357
 1603SOL    HW216272   0.805   3.907  14.345  0.9913 -0.8178  1.2261
 1604SOL     OW16273   0.313   2.594   4.628  0.6839  0.3434  0.4866
 1604SOL    HW116274   0.272   2.514   4.660  0.8520 -1.2995 -3.4123
 1604SOL    HW216275   0.325   2.583   4.533 -1.8935  1.4742  0.0388
 1605SOL     OW16276   1.129   0.639   8.150 -0.2022 -0.2698 -0.0756
 1605SOL    HW116277   1.101   0.578   8.218 -1.4284 -0.1422 -0.4772
 1605SOL    HW216278   1.128   0.580   8.075  1.2875 -1.6574  0.9655
 1606SOL     OW16279   4.528   3.205   1.537  0.6357  0.0085 -0.3160
 1606SOL    HW116280   4.516   3.210   1.632 -0.9657 -0.0288 -0.5115
 1606SOL    HW216281   4.531   3.297   1.509 -1.4606  0.3412  0.5382
 1607SOL     OW16282   0.153   3.306   6.382 -0.0244  0.1529 -0.6639
 1607SOL    HW116283   0.059   3.314   6.396  0.0935  0.3084  0.0323
 1607SOL    HW216284   0.187   3.382   6.430  1.9245 -0.2294 -1.4002
 1608SOL     OW16285   0.229   0.365  10.397  0.1471  0.6746 -0.7027
 1608SOL    HW116286   0.287   0.300  10.357 -0.3791 -0.0287 -0.3170
 1608SOL    HW216287   0.146   0.354  10.349 -0.0787 -1.1340  0.1176
 1609SOL     OW16288   0.228   4.244   0.285 -0.1605  0.1693 -0.0334
 1609SOL    HW116289   0.280   4.290   0.218 -1.4969  1.7102 -0.0136
 1609SOL    HW216290   0.276   4.271   0.363 -0.0740  0.1169 -0.0682
 1610SOL     OW16291   4.241   3.121   5.991 -0.0135  0.6287 -0.5976
 1610SOL    HW116292   4.311   3.089   6.048 -0.3124 -0.7365 -0.9979
 1610SOL    HW216293   4.298   3.175   5.935 -0.4108  1.4322 -0.2148
 1611SOL     OW16294   1.438   0.141   6.391  0.0005  0.7751  0.3383
 1611SOL    HW116295   1.463   0.132   6.483 -1.3743 -0.8696  0.5579
 1611SOL    HW216296   1.522   0.125   6.349  1.2984  1.9541  2.4734
 1612SOL     OW16297   2.543   2.898   0.433 -0.4403 -0.0092 -0.2037
 1612SOL    HW116298   2.585   2.984   0.434  2.0379 -1.2350  0.4270
 1612SOL    HW216299   2.465   2.924   0.482 -0.5991 -1.2385  0.2088
 1613SOL     OW16300   1.505   0.072  12.231  0.1134 -0.1793 -0.0653
 1613SOL    HW116301   1.569   0.054  12.300 -0.2302 -1.8276 -0.1749
 1613SOL    HW216302   1.548   0.018  12.165  1.3957 -1.5487  1.8665
 1614SOL     OW16303   1.073   3.796  11.354 -0.6222  0.4784  0.2356
 1614SOL    HW116304   1.059   3.798  11.259 -1.5364  0.8283  0.3734
 1614SOL    HW216305   1.055   3.706  11.381 -1.8075  0.4101 -0.7824
 1615SOL     OW16306   4.408   2.804   8.225 -0.6820  0.1521  0.0978
 1615SOL    HW116307   4.417   2.898   8.209 -3.1837  0.3320 -0.2334
 1615SOL    HW216308   4.485   2.773   8.273 -1.3485 -1.4498  0.1292
 1616SOL     OW16309   2.095   2.643   0.072 -0.5884 -0.1096  0.1788
 1616SOL    HW116310   2.161   2.698   0.116  1.0442 -1.5394 -0.5181
 1616SOL    HW216311   2.031   2.626   0.142 -1.0633 -0.8584 -0.4469
 1617SOL     OW16312   2.964   0.678  13.837  0.0693  0.3962  0.6111
 1617SOL    HW116313   2.895   0.666  13.773  1.5580 -2.1157 -0.5428
 1617SOL    HW216314   3.041   0.660  13.783  0.1991  0.2748  0.8358
 1618SOL     OW16315   2.951   3.890   3.303  0.5625  0.0151 -0.0529
 1618SOL    HW116316   3.035   3.928   3.279  1.1544 -1.1305  0.2163
 1618SOL    HW216317   2.984   3.814   3.350 -0.2128  0.5593  1.3792
 1619SOL     OW16318   0.790   4.416   5.225 -0.3268  0.0479  0.2195
 1619SOL    HW116319   0.792   4.498   5.176 -0.5182  0.0854  0.2769
 1619SOL    HW216320   0.825   4.353   5.161 -1.1952  1.6659 -1.8447
 1620SOL     OW16321   0.656   1.791   7.747  0.3669  0.2298  0.6881
 1620SOL    HW116322   0.687   1.720   7.803  0.3259 -0.1217  0.2625
 1620SOL    HW216323   0.735   1.845   7.748 -0.1277  0.9609  1.8192
 1621SOL     OW16324   4.416   1.798   0.359  0.0588 -0.5458 -0.6657
 1621SOL    HW116325   4.339   1.745   0.380 -0.8863  1.7079  1.4697
 1621SOL    HW216326   4.492   1.740   0.365 -0.1034 -0.9254 -2.4160
 1622SOL     OW16327   3.597   2.700   0.837  0.7916 -0.2909  0.0195
 1622SOL    HW116328   3.575   2.629   0.776 -0.3987  1.1498 -1.2423
 1622SOL    HW216329   3.523   2.697   0.897 -0.6534 -1.6195 -1.7977
 1623SOL     OW16330   4.608   0.279   1.015  0.3706 -0.0328 -0.1149
 1623SOL    HW116331   4.655   0.316   0.941 -0.0213 -1.0112 -0.8569
 1623SOL    HW216332   4.662   0.307   1.089 -1.3896  3.7951 -0.2956
 1624SOL     OW16333   2.299   3.849   6.587 -0.1507  0.1848  0.4394
 1624SOL    HW116334   2.254   3.811   6.511 -1.8857 -0.9785  2.0454
 1624SOL    HW216335   2.248   3.929   6.604  0.2941  0.1132  2.1199
 1625SOL     OW16336   3.820   4.572   4.575 -0.4223  0.4571 -0.5639
 1625SOL    HW116337   3.731   4.604   4.585 -0.6258 -0.2092 -0.2638
 1625SOL    HW216338   3.857   4.557   4.662  0.5099 -0.7907 -1.1762
 1626SOL     OW16339   2.463   2.338   3.073  0.4915 -0.1948 -0.2009
 1626SOL    HW116340   2.415   2.364   2.994 -0.5833 -3.4380 -0.6409
 1626SOL    HW216341   2.525   2.410   3.082  0.2759  0.1197 -1.2191
 1627SOL     OW16342   1.386   0.965  15.575  0.0882  0.1873  0.2700
 1627SOL    HW116343   1.373   1.055  15.604 -0.9274 -0.3893  1.6330
 1627SOL    HW216344   1.439   0.966  15.495  1.1479 -0.7032  0.9526
 1628SOL     OW16345   1.180   0.938   6.433  0.6727 -0.1741  0.5023
 1628SOL    HW116346   1.125   0.892   6.497 -1.8998  0.0204 -1.5882
 1628SOL    HW216347   1.238   0.982   6.495 -0.2278  1.6209  0.0771
 1629SOL     OW16348   2.991   1.934   4.616  0.5908  0.0847  0.3956
 1629SOL    HW116349   2.920   1.893   4.665 -1.1105  1.8182 -0.5837
 1629SOL    HW216350   3.057   1.912   4.681  2.6032  2.0076 -0.9806
 1630SOL     OW16351   4.302   1.040   9.312 -0.0389 -0.2383 -0.1478
 1630SOL    HW116352   4.394   1.012   9.314  0.3646  0.8909 -3.1438
 1630SOL    HW216353   4.298   1.126   9.269  0.4230  1.5740  3.4573
 1631SOL     OW16354   2.428   0.897  11.988 -0.5007  0.0798  0.1473
 1631SOL    HW116355   2.459   0.846  11.913 -0.3830  3.2248 -1.9398
 1631SOL    HW216356   2.458   0.983  11.957  0.7084 -0.1727  0.5910
 1632SOL     OW16357   2.136   1.931   3.832 -0.1836 -0.3537 -0.0575
 1632SOL    HW116358   2.075   1.931   3.758 -1.2280 -1.3853  0.7998
 1632SOL    HW216359   2.187   1.852   3.815  0.0861 -0.3039  0.5188
 1633SOL     OW16360   1.622   1.361   6.541 -0.1361  0.0550  0.5917
 1633SOL    HW116361   1.656   1.426   6.602 -0.8421 -1.9183  3.1068
 1633SOL    HW216362   1.705   1.314   6.531  0.0304  0.0485  2.0394
 1634SOL     OW16363   4.018   3.359   9.248  0.0267  0.3412  0.0809
 1634SOL    HW116364   4.108   3.370   9.216  0.3571 -1.2371  0.4529
 1634SOL    HW216365   4.005   3.433   9.306 -2.6636 -0.4703  0.5170
 1635SOL     OW16366   0.425   3.235  14.856  0.3915  0.0918 -0.3700
 1635SOL    HW116367   0.417   3.330  14.849  1.2397  0.2584  0.9307
 1635SOL    HW216368   0.400   3.220  14.765 -0.9513 -1.2589  0.2118
 1636SOL     OW16369   3.020   4.259   4.480  0.4475  0.1581 -0.0831
 1636SOL    HW116370   3.105   4.293   4.450  0.3156  2.5537  2.2789
 1636SOL    HW216371   3.018   4.181   4.425 -0.1358  1.2962 -1.6728
 1637SOL     OW16372   4.039   1.778   7.028 -0.6489 -0.2705 -0.0356
 1637SOL    HW116373   4.088   1.845   6.980 -0.5438  0.7710  1.5305
 1637SOL    HW216374   3.957   1.821   7.048 -0.4451  0.3693 -0.5763
 1638SOL     OW16375   2.615   0.505   9.627 -0.5263  0.4506 -0.1125
 1638SOL    HW116376   2.541   0.465   9.672 -1.1613 -0.2113 -1.7756
 1638SOL    HW216377   2.639   0.446   9.556 -0.1655 -1.1748  1.3569
 1639SOL     OW16378   1.277   0.347  10.435 -0.0309 -0.0690  0.0535
 1639SOL    HW116379   1.214   0.292  10.389 -0.8296 -0.9140  2.1576
 1639SOL    HW216380   1.353   0.346  10.377 -0.0922 -2.0361 -0.0159
 1640SOL     OW16381   1.251   3.367   6.769 -0.3404  0.1556  0.2972
 1640SOL    HW116382   1.311   3.441   6.775 -2.0774  1.6015 -0.0824
 1640SOL    HW216383   1.300   3.306   6.825  1.1212  0.4434 -0.6794
 1641SOL     OW16384   0.711   1.481   4.231  0.2962 -0.3682 -0.9943
 1641SOL    HW116385   0.782   1.465   4.168  1.8949  0.2096  0.6685
 1641SOL    HW216386   0.674   1.558   4.188  0.2252 -0.5196 -1.2044
 1642SOL     OW16387   3.514   4.673   2.169 -0.0852  0.4785  0.1473
 1642SOL    HW116388   3.510   0.030   2.116 -0.4290 -0.7975 -1.7483
 1642SOL    HW216389   3.421   4.657   2.187  0.0362  1.0105  1.2311
 1643SOL     OW16390   0.854   3.940   8.462  0.0767 -0.0562  0.7006
 1643SOL    HW116391   0.870   3.974   8.551  2.4625 -0.1889  0.3192
 1643SOL    HW216392   0.871   3.846   8.476 -0.3752 -0.3362 -0.6893
 1644SOL     OW16393   1.546   0.607   0.209  0.1528 -0.0945  0.3578
 1644SOL    HW116394   1.635   0.576   0.193 -0.4963 -0.7571 -2.0601
 1644SOL    HW216395   1.501   0.533   0.250 -1.1824  0.1522 -0.6500
 1645SOL     OW16396   0.798   4.367  17.685 -0.1021 -0.5480  0.1375
 1645SOL    HW116397   0.751   4.424  17.625 -1.4601 -2.4728 -0.6473
 1645SOL    HW216398   0.885   4.407  17.689  0.1563 -1.0539 -0.3654
 1646SOL     OW16399   3.182   3.964   7.415 -0.0610 -0.3231 -0.7967
 1646SOL    HW116400   3.107   4.000   7.368  0.0974  4.4318  2.6386
 1646SOL    HW216401   3.162   3.990   7.505 -1.8957 -0.7912 -1.0632
 1647SOL     OW16402   1.675   1.532  13.040  0.0749  0.3904 -0.5677
 1647SOL    HW116403   1.620   1.467  13.084  0.3402  1.2522  1.0519
 1647SOL    HW216404   1.613   1.570  12.977  1.0824  2.0882 -0.5578
 1648SOL     OW16405   3.393   3.067   8.791 -0.2020 -0.0301 -0.3262
 1648SOL    HW116406   3.419   2.981   8.758  0.2415 -0.2782  0.6695
 1648SOL    HW216407   3.412   3.131   8.723  0.0237 -0.1763 -0.4036
 1649SOL     OW16408   2.512   1.374   0.360  0.2112 -0.1593  0.7860
 1649SOL    HW116409   2.469   1.361   0.444  1.6032 -2.5310  1.1310
 1649SOL    HW216410   2.451   1.431   0.313 -0.3318 -0.7299  0.8062
 1650SOL     OW16411   4.076   4.695   3.166  0.4097  0.1337 -0.2463
 1650SOL    HW116412   4.129   4.624   3.130 -0.7578 -1.3245  0.9138
 1650SOL    HW216413   4.122   0.057   3.163 -0.2923  0.5168 -0.2606
 1651SOL     OW16414   3.574   2.444   3.975 -0.5492  0.1339 -0.5535
 1651SOL    HW116415   3.485   2.451   3.941 -0.8253 -1.5568 -0.1497
 1651SOL    HW216416   3.573   2.372   4.038  0.1687  1.6273  1.1588
 1652SOL     OW16417   3.465   0.966   7.363 -0.6814 -0.0469  0.0884
 1652SOL    HW116418   3.421   0.902   7.419  1.8726 -1.8362  0.0642
 1652SOL    HW216419   3.503   1.015   7.436  1.0537 -1.4780  0.1595
 1653SOL     OW16420   2.582   2.672   5.706  0.2906 -0.3619  0.0252
 1653SOL    HW116421   2.511   2.622   5.666 -0.3182  0.0313  0.6130
 1653SOL    HW216422   2.638   2.597   5.726  1.0922  0.0810 -0.5796
 1654SOL     OW16423   2.681   2.354   3.340 -0.4830  0.2462  0.5983
 1654SOL    HW116424   2.734   2.415   3.391 -1.2077  2.2987 -1.0933
 1654SOL    HW216425   2.610   2.322   3.396 -2.0056  0.7322 -1.0617
 1655SOL     OW16426   2.712   0.668  16.977 -0.5814 -0.1121 -0.4151
 1655SOL    HW116427   2.782   0.734  16.971  1.8802 -2.6267  0.5429
 1655SOL    HW216428   2.700   0.632  16.889  0.0311 -1.9300  0.2393
 1656SOL     OW16429   3.568   4.671   4.552 -0.2067  0.2256 -0.3060
 1656SOL    HW116430   3.559   0.034   4.510  0.1278  1.3183  1.8592
 1656SOL    HW216431   3.516   4.612   4.498 -1.5572  0.9294  0.1960
 1657SOL     OW16432   1.477   3.874   7.793 -0.7441 -0.0562 -0.5361
 1657SOL    HW116433   1.388   3.893   7.763 -2.0248 -1.7849  2.2296
 1657SOL    HW216434   1.447   3.824   7.869  0.9163  1.8770  1.3918
 1658SOL     OW16435   4.005   2.602   9.039  0.6683  0.3448  0.0300
 1658SOL    HW116436   4.067   2.656   9.089  0.3855 -0.7348  1.5462
 1658SOL    HW216437   4.057   2.559   8.972 -0.3599 -2.4045  1.0030
 1659SOL     OW16438   4.234   3.629  10.753 -0.2805 -0.4612 -0.5901
 1659SOL    HW116439   4.164   3.583  10.707 -0.1749 -1.5279  0.3273
 1659SOL    HW216440   4.204   3.643  10.843  0.3909  3.4024 -0.9592
 1660SOL     OW16441   4.475   1.233   1.014 -0.0543 -0.0858 -0.2989
 1660SOL    HW116442   4.407   1.168   0.999 -2.0345  1.9543 -0.0239
 1660SOL    HW216443   4.427   1.291   1.073 -0.5423 -2.2682  1.4387
 1661SOL     OW16444   2.698   0.691  10.243 -0.1742  0.2364  0.2373
 1661SOL    HW116445   2.751   0.728  10.172  3.1487 -1.5824  1.7616
 1661SOL    HW216446   2.632   0.641  10.195  2.3150 -1.1873 -1.7154
 1662SOL     OW16447   0.815   2.611  12.401  0.7176  0.7771 -0.1117
 1662SOL    HW116448   0.798   2.696  12.442  2.2713 -0.0277  2.1948
 1662SOL    HW216449   0.901   2.595  12.439 -0.4362 -0.2970  2.0785
 1663SOL     OW16450   1.010   3.567   6.623 -0.0541  0.2370 -0.2297
 1663SOL    HW116451   0.970   3.654   6.627  0.3223  0.3762  0.6021
 1663SOL    HW216452   1.030   3.551   6.716 -1.8891 -0.1442  0.0942
 1664SOL     OW16453   1.822   2.063   3.408  0.2245 -0.2489 -0.1257
 1664SOL    HW116454   1.738   2.019   3.422 -0.5712  0.2126 -3.2891
 1664SOL    HW216455   1.790   2.131   3.349  0.1274  0.2153  0.4596
 1665SOL     OW16456   3.098   3.574   6.175  0.1622 -0.5527 -0.1232
 1665SOL    HW116457   3.176   3.629   6.190 -0.7815  0.9238 -0.6181
 1665SOL    HW216458   3.074   3.627   6.099  3.5825  0.3069 -0.6235
 1666SOL     OW16459   2.062   2.520   8.012  0.4127  0.0493  0.0874
 1666SOL    HW116460   2.113   2.594   7.977 -1.0520  0.4361 -1.2200
 1666SOL    HW216461   1.976   2.560   8.023  0.2958 -0.0507 -0.4340
 1667SOL     OW16462   2.911   2.285   8.878  0.2901  0.2236 -0.6497
 1667SOL    HW116463   2.922   2.291   8.972  1.0088  1.1878 -0.7880
 1667SOL    HW216464   2.983   2.339   8.844  0.7289  0.5350  0.7866
 1668SOL     OW16465   2.594   1.624   2.003 -0.0715 -0.1606  0.1515
 1668SOL    HW116466   2.623   1.672   1.926 -0.6952  0.0856  0.0697
 1668SOL    HW216467   2.547   1.549   1.967 -1.4870  0.5363  0.5578
 1669SOL     OW16468   2.527   1.930   8.835 -0.1515  0.1487 -0.2672
 1669SOL    HW116469   2.558   1.871   8.904  2.9708 -0.1133 -1.9111
 1669SOL    HW216470   2.580   2.005   8.862  0.2442  0.0877 -0.8647
 1670SOL     OW16471   3.949   0.641   3.777 -0.3154  0.2279  0.0317
 1670SOL    HW116472   3.870   0.695   3.776  0.1482  0.7457 -5.6485
 1670SOL    HW216473   3.955   0.624   3.871 -2.0100 -1.2225 -0.1222
 1671SOL     OW16474   0.867   1.193   8.394 -0.0110 -0.0027  0.2066
 1671SOL    HW116475   0.863   1.182   8.299 -0.7060  0.4338  0.1826
 1671SOL    HW216476   0.834   1.283   8.399  0.4439  0.1053  1.3269
 1672SOL     OW16477   1.458   3.036   0.294  0.2129 -0.9357 -0.0117
 1672SOL    HW116478   1.438   2.981   0.370  0.3399  0.4986  1.0482
 1672SOL    HW216479   1.403   3.112   0.314 -0.4181 -0.9685 -1.6082
 1673SOL     OW16480   3.649   0.809   9.698 -0.4153  0.4963  0.1352
 1673SOL    HW116481   3.603   0.865   9.760  0.5213  2.6762 -1.1421
 1673SOL    HW216482   3.585   0.745   9.667 -1.3626  0.5156  2.0708
 1674SOL     OW16483   0.115   3.751  12.272 -0.1110  0.4142  0.0143
 1674SOL    HW116484   0.052   3.819  12.294 -1.2493 -0.3358 -0.9292
 1674SOL    HW216485   0.162   3.746  12.355 -2.9241 -1.0048  1.5128
 1675SOL     OW16486   2.084   3.955   2.761 -0.4616  0.1913  0.4140
 1675SOL    HW116487   2.035   4.026   2.802 -0.9423 -0.7784  1.5084
 1675SOL    HW216488   2.124   3.998   2.686  0.1884 -2.4823 -0.7936
 1676SOL     OW16489   3.454   0.963   0.031 -0.1721 -0.0731 -0.1737
 1676SOL    HW116490   3.412   0.922   0.107 -0.2132 -3.2269 -1.8857
 1676SOL    HW216491   3.528   0.901   0.031  0.3447  0.5344  1.8566
 1677SOL     OW16492   3.935   3.862   9.017 -0.3915 -0.5547  0.6624
 1677SOL    HW116493   3.985   3.832   8.942 -1.2323 -0.2951 -0.0050
 1677SOL    HW216494   3.848   3.825   8.999  0.0126 -1.0927 -0.1526
 1678SOL     OW16495   0.653   1.699   4.929 -0.4255  0.0855  0.2300
 1678SOL    HW116496   0.590   1.677   4.999 -0.6550 -0.4530 -0.1491
 1678SOL    HW216497   0.632   1.636   4.860  0.4730  0.0195  0.0231
 1679SOL     OW16498   0.131   2.165   6.618 -0.4380  0.4491 -0.1691
 1679SOL    HW116499   0.207   2.156   6.561 -0.2316 -0.0232  0.1840
 1679SOL    HW216500   0.065   2.213   6.570  0.2162  1.3144 -0.2099
 1680SOL     OW16501   3.068   2.262   5.577  0.2660 -0.0781  0.2599
 1680SOL    HW116502   3.110   2.229   5.498  0.9688  0.0525  0.5809
 1680SOL    HW216503   3.040   2.345   5.539 -0.1158 -1.1792 -1.9009
 1681SOL     OW16504   0.837   4.036   3.328 -0.5042  0.2375 -1.0692
 1681SOL    HW116505   0.847   4.047   3.234  0.8662 -0.5893 -1.0302
 1681SOL    HW216506   0.891   3.957   3.336 -0.8080  0.1344 -0.0734
 1682SOL     OW16507   2.582   1.821  15.921 -0.1479 -0.0405  0.0408
 1682SOL    HW116508   2.569   1.903  15.874 -0.1438  0.4364  0.8710
 1682SOL    HW216509   2.673   1.825  15.949  0.6581 -1.1265 -2.4939
 1683SOL     OW16510   2.552   3.025  15.938 -0.0823  0.2519 -0.3375
 1683SOL    HW116511   2.548   3.055  15.847  0.2695  0.6165 -0.2347
 1683SOL    HW216512   2.608   3.091  15.979  1.9641 -1.4706 -0.3377
 1684SOL     OW16513   2.953   4.369   7.405  0.3306 -0.0625 -0.8133
 1684SOL    HW116514   2.900   4.374   7.327 -1.8674  1.4050  0.7832
 1684SOL    HW216515   3.015   4.301   7.380  1.3301  0.5840 -0.1354
 1685SOL     OW16516   2.553   4.022   0.217  0.0002  0.5429  0.4743
 1685SOL    HW116517   2.533   3.929   0.214  0.8981  0.3486  0.6564
 1685SOL    HW216518   2.596   4.038   0.133  0.2168 -0.7715  0.3364
 1686SOL     OW16519   0.378   2.554   7.669 -0.3956 -0.1203  0.3858
 1686SOL    HW116520   0.364   2.647   7.651  0.6178 -0.0966 -0.2465
 1686SOL    HW216521   0.312   2.541   7.737  0.9032 -0.6855  1.5372
 1687SOL     OW16522   1.940   1.704   9.163 -0.6199 -0.2642 -0.2083
 1687SOL    HW116523   1.910   1.771   9.102 -2.1284 -0.6737  0.0877
 1687SOL    HW216524   1.887   1.632   9.128  0.0228 -1.2272  0.7740
 1688SOL     OW16525   0.138   4.266  13.804  0.0301  0.2567 -0.2798
 1688SOL    HW116526   0.091   4.188  13.831  0.6085 -0.0339 -0.1250
 1688SOL    HW216527   0.205   4.269  13.872  0.8551  2.5186 -1.1967
 1689SOL     OW16528   3.851   2.330   1.125 -0.1675 -0.6902 -0.9567
 1689SOL    HW116529   3.868   2.277   1.047 -0.0564 -1.9072 -0.1090
 1689SOL    HW216530   3.760   2.348   1.102 -0.0336  0.0073 -0.9212
 1690SOL     OW16531   0.102   4.618  11.766  0.0974  0.0015  0.2379
 1690SOL    HW116532   0.010   4.608  11.794 -0.0861 -1.5888 -0.9972
 1690SOL    HW216533   0.109   4.582  11.678 -0.6088  0.0366  0.1670
 1691SOL     OW16534   3.929   3.721  10.288  0.3572  0.1104  0.7987
 1691SOL    HW116535   3.934   3.632  10.323 -0.0960 -0.2503 -0.0636
 1691SOL    HW216536   3.839   3.719  10.256  0.7716  0.5121 -0.3834
 1692SOL     OW16537   3.641   2.439   2.649 -0.2146 -0.4340 -0.1437
 1692SOL    HW116538   3.733   2.467   2.647 -0.1061 -0.8186 -0.4173
 1692SOL    HW216539   3.637   2.360   2.596  0.0532  0.2292 -1.1502
 1693SOL     OW16540   2.657   2.598   8.194  0.0345 -0.0678 -0.0044
 1693SOL    HW116541   2.639   2.565   8.282  0.3922 -1.9379 -0.6170
 1693SOL    HW216542   2.569   2.615   8.160  0.1473 -0.1040 -0.3221
 1694SOL     OW16543   4.568   1.240  17.614 -0.0190 -0.0134  0.4363
 1694SOL    HW116544   4.535   1.166  17.664 -0.4168  1.0877  1.8113
 1694SOL    HW216545   4.656   1.247  17.651  0.1632 -0.9782  0.1961
 1695SOL     OW16546   4.062   2.898   0.138 -0.2333  0.7456 -0.0095
 1695SOL    HW116547   4.107   2.926   0.218 -1.4627 -0.1562  0.9927
 1695SOL    HW216548   3.972   2.925   0.157 -1.6829 -4.3971  0.4104
 1696SOL     OW16549   1.320   1.500  11.790 -0.2498 -0.4671 -0.0340
 1696SOL    HW116550   1.282   1.549  11.864  1.6569  1.6837 -0.5037
 1696SOL    HW216551   1.383   1.445  11.837  0.4282  0.1691 -0.1931
 1697SOL     OW16552   3.771   0.483   6.835 -0.5943  0.1805 -0.0138
 1697SOL    HW116553   3.700   0.547   6.837 -0.1412  0.6822  0.1397
 1697SOL    HW216554   3.746   0.418   6.901 -1.3883  0.6775  0.1696
 1698SOL     OW16555   4.665   2.484   5.084 -0.0256 -0.1773  0.6318
 1698SOL    HW116556   4.620   2.568   5.071  0.0275 -0.2428  0.0033
 1698SOL    HW216557   4.622   2.454   5.164  1.0537 -1.8944  0.5758
 1699SOL     OW16558   3.915   0.827   0.314  0.2369 -0.3907 -0.5148
 1699SOL    HW116559   3.929   0.864   0.401  0.1285 -2.2141  0.2747
 1699SOL    HW216560   3.992   0.862   0.269 -0.7138  1.6493 -0.5868
 1700SOL     OW16561   1.846   1.890   5.350 -0.6503 -0.2338 -0.1914
 1700SOL    HW116562   1.884   1.864   5.434  1.2704  3.1618 -0.0052
 1700SOL    HW216563   1.807   1.973   5.378 -2.2318 -0.9308 -0.3727
 1701SOL     OW16564   0.883   2.184   9.892 -0.1305  0.3179  0.5600
 1701SOL    HW116565   0.795   2.178   9.855  0.4515 -0.8396 -0.6344
 1701SOL    HW216566   0.868   2.184   9.986 -0.9380 -2.0254  0.4296
 1702SOL     OW16567   1.580   2.361  14.225 -0.4103  0.3651  0.3008
 1702SOL    HW116568   1.590   2.451  14.256 -2.6009  1.4043 -2.0933
 1702SOL    HW216569   1.518   2.377  14.154  1.3726  1.4174 -1.0355
 1703SOL     OW16570   1.101   2.832   7.753  0.0313 -0.2400 -0.3600
 1703SOL    HW116571   1.136   2.922   7.750 -1.2903  0.2880  0.2843
 1703SOL    HW216572   1.158   2.793   7.819 -0.1934  1.7988  1.0379
 1704SOL     OW16573   4.668   0.608   1.623 -0.3430  0.1697  0.4199
 1704SOL    HW116574   4.670   0.694   1.665 -0.0363 -0.6717  2.1182
 1704SOL    HW216575   4.647   0.555   1.700 -0.6666  0.5524  0.5931
 1705SOL     OW16576   4.325   4.721   2.473 -0.0176  0.4602 -0.2054
 1705SOL    HW116577   4.324   0.094   2.468 -0.9772  0.3875 -1.3886
 1705SOL    HW216578   4.235   4.697   2.454 -0.6463  2.0271  0.8812
 1706SOL     OW16579   4.135   4.482   6.277 -0.8134 -0.0310 -0.1860
 1706SOL    HW116580   4.077   4.520   6.210  1.2378  0.1945 -1.8286
 1706SOL    HW216581   4.080   4.431   6.336 -2.8758  2.2142 -0.1488
 1707SOL     OW16582   2.377   0.173   7.982  0.0575  0.6134  0.0474
 1707SOL    HW116583   2.467   0.157   8.008 -0.2676 -0.1387  0.6989
 1707SOL    HW216584   2.356   0.104   7.920 -1.1580 -0.1607  1.3244
 1708SOL     OW16585   1.480   4.531   2.670 -0.2021 -0.4579  0.2290
 1708SOL    HW116586   1.475   4.511   2.576  0.9098 -2.0810  0.5160
 1708SOL    HW216587   1.439   4.617   2.671 -0.9320 -0.8024 -0.1645
 1709SOL     OW16588   1.762   1.124   1.704  0.3311  0.5490 -0.2212
 1709SOL    HW116589   1.801   1.037   1.695 -0.4336 -0.0519  2.0357
 1709SOL    HW216590   1.668   1.104   1.706  0.5141 -0.3942 -0.9500
 1710SOL     OW16591   1.259   3.764   3.426  0.2194  0.0139 -0.3520
 1710SOL    HW116592   1.238   3.815   3.504  0.6288 -0.8758  0.3447
 1710SOL    HW216593   1.188   3.699   3.428  0.7202 -0.5674 -1.6879
 1711SOL     OW16594   1.359   4.129  16.978  0.5637 -1.2057  0.8838
 1711SOL    HW116595   1.398   4.044  16.960  0.9600 -0.6682 -0.7906
 1711SOL    HW216596   1.425   4.173  17.032 -2.2940  0.9670  2.5830
 1712SOL     OW16597   0.202   4.169   3.125  0.0953  0.2151  0.5560
 1712SOL    HW116598   0.213   4.167   3.030  0.1245 -0.7558  0.5774
 1712SOL    HW216599   0.118   4.212   3.139  0.4707  0.6198  1.6161
 1713SOL     OW16600   1.586   4.284  15.329  0.7389 -0.6160  0.1117
 1713SOL    HW116601   1.657   4.324  15.380 -1.0644  0.7501  1.5291
 1713SOL    HW216602   1.635   4.225  15.272  0.5752 -0.5786 -0.0666
 1714SOL     OW16603   1.915   4.534   6.138 -0.3264 -0.3351  0.5522
 1714SOL    HW116604   1.850   4.600   6.115  0.8428 -0.0580 -1.9879
 1714SOL    HW216605   1.898   4.479   6.062  0.4107 -0.8997  0.7989
 1715SOL     OW16606   1.601   0.650   6.054 -0.3934 -0.3462  0.6183
 1715SOL    HW116607   1.637   0.570   6.093 -0.3650 -1.6579 -2.1332
 1715SOL    HW216608   1.550   0.622   5.978  0.4569  0.6508 -0.3011
 1716SOL     OW16609   2.197   1.554  12.219 -0.3504 -0.5603 -0.1221
 1716SOL    HW116610   2.200   1.474  12.272  1.3286  0.5791  1.4972
 1716SOL    HW216611   2.235   1.617  12.279  0.6824 -1.4377  0.1549
 1717SOL     OW16612   3.766   3.402   7.449 -0.6491 -0.0630  0.1621
 1717SOL    HW116613   3.698   3.431   7.509 -0.5201 -1.2039  0.8679
 1717SOL    HW216614   3.723   3.349   7.383 -1.8555  2.9408 -1.4678
 1718SOL     OW16615   1.993   2.886   5.179 -0.5459  0.1548 -0.0450
 1718SOL    HW116616   1.974   2.843   5.096 -1.5249 -1.6954  1.1406
 1718SOL    HW216617   1.951   2.828   5.242 -2.2262  0.4803 -0.8756
 1719SOL     OW16618   4.426   4.468   2.414 -0.1317 -0.0865  0.0691
 1719SOL    HW116619   4.374   4.547   2.428 -0.0886  0.6988 -4.2144
 1719SOL    HW216620   4.367   4.397   2.391 -1.1434 -0.0146  2.4933
 1720SOL     OW16621   2.424   2.930   4.907  0.1274 -0.3544 -0.2894
 1720SOL    HW116622   2.380   3.006   4.868  1.0822  0.0024 -0.6688
 1720SOL    HW216623   2.368   2.907   4.981 -0.3580  0.6981 -0.3303
 1721SOL     OW16624   4.367   1.561   8.291  0.1510  0.1374  0.0863
 1721SOL    HW116625   4.429   1.625   8.324  0.3153  1.0799 -2.0876
 1721SOL    HW216626   4.418   1.514   8.225 -1.5759  0.8261 -1.7399
 1722SOL     OW16627   1.498   1.323   4.660 -0.5988  0.3640  0.1988
 1722SOL    HW116628   1.577   1.371   4.687 -1.9779  2.0060  1.2504
 1722SOL    HW216629   1.531   1.255   4.600 -3.7874 -1.1123  0.1519
 1723SOL     OW16630   3.504   2.608   1.119  0.3130  0.3876 -0.2817
 1723SOL    HW116631   3.537   2.605   1.209 -1.9247 -1.4571  0.4919
 1723SOL    HW216632   3.417   2.644   1.134  0.5356  0.8582 -0.1369
 1724SOL     OW16633   3.095   3.458   8.161  0.1458  0.2257 -0.4355
 1724SOL    HW116634   3.082   3.546   8.197  0.0721  0.4908 -1.1059
 1724SOL    HW216635   3.161   3.488   8.099  0.9226 -0.4122  0.0891
 1725SOL     OW16636   2.602   1.915   6.993 -0.1681 -0.8979  0.5357
 1725SOL    HW116637   2.514   1.893   6.963  0.1173  2.4411 -2.7597
 1725SOL    HW216638   2.611   1.999   6.949 -0.1023 -0.2278  1.8409
 1726SOL     OW16639   4.166   4.341   4.628 -0.3396  0.8757 -0.0062
 1726SOL    HW116640   4.159   4.248   4.647 -0.5743  0.7376 -0.7859
 1726SOL    HW216641   4.261   4.356   4.631 -0.1517 -0.9507  2.5406
 1727SOL     OW16642   0.186   2.597   6.656 -0.2034  0.2377 -0.7450
 1727SOL    HW116643   0.196   2.688   6.682 -2.6370  0.4625 -0.6696
 1727SOL    HW216644   0.278   2.575   6.637 -0.1995 -1.0954  0.8671
 1728SOL     OW16645   0.139   2.268   1.131  0.0010  0.1150 -0.0409
 1728SOL    HW116646   0.207   2.301   1.072 -0.3223 -1.9746 -1.5824
 1728SOL    HW216647   0.175   2.284   1.219 -2.6074  1.5234  0.7815
 1729SOL     OW16648   0.075   1.370   6.765  0.2179  0.3531 -0.3741
 1729SOL    HW116649   0.137   1.441   6.777  0.9116  0.3763 -4.0147
 1729SOL    HW216650   0.061   1.374   6.670 -0.7710 -0.2936 -0.2612
 1730SOL     OW16651   4.013   1.913   5.500  0.0632 -0.0697 -0.0930
 1730SOL    HW116652   4.025   1.953   5.586  1.6374  1.7041 -1.1455
 1730SOL    HW216653   4.086   1.954   5.454 -0.7439  1.5889  0.1036
 1731SOL     OW16654   2.327   1.744   9.028 -0.7225 -0.3983 -0.4888
 1731SOL    HW116655   2.343   1.837   9.015 -0.0649 -0.5108 -0.4731
 1731SOL    HW216656   2.337   1.710   8.940  0.4509 -3.3118  0.7649
 1732SOL     OW16657   2.842   4.715  13.023  0.3430 -0.0905 -0.0038
 1732SOL    HW116658   2.851   0.061  13.090  0.2440  0.6806 -0.7813
 1732SOL    HW216659   2.922   0.017  12.978  0.9732 -0.4211  0.9381
 1733SOL     OW16660   2.326   1.760   5.797  0.4876 -0.2464  0.1528
 1733SOL    HW116661   2.343   1.790   5.708 -0.0604  0.9069  0.4451
 1733SOL    HW216662   2.410   1.772   5.841  0.5794 -2.2043  0.5398
 1734SOL     OW16663   1.189   3.230   9.310 -0.1446  0.6112  0.7467
 1734SOL    HW116664   1.272   3.278   9.308  0.0958  0.1732  0.1910
 1734SOL    HW216665   1.202   3.161   9.375 -1.9450 -0.2704  0.1798
 1735SOL     OW16666   4.516   0.752   8.516  0.4702  0.1469 -0.2397
 1735SOL    HW116667   4.457   0.797   8.456  2.6207  1.8228 -1.1134
 1735SOL    HW216668   4.520   0.829   8.574 -1.3238 -0.7906  1.1290
 1736SOL     OW16669   2.657   3.261   7.643 -0.2367  0.1534  0.0785
 1736SOL    HW116670   2.648   3.214   7.560 -1.4416  2.7082 -1.2266
 1736SOL    HW216671   2.703   3.341   7.616  0.2182  0.1335  0.7862
 1737SOL     OW16672   3.409   1.255   7.278  0.3007 -0.3862 -0.1281
 1737SOL    HW116673   3.359   1.287   7.353  0.6710  0.9630 -0.4547
 1737SOL    HW216674   3.378   1.165   7.269  0.3285 -0.2823 -1.2758
 1738SOL     OW16675   0.882   0.434   9.073  0.2754  0.1798  0.0015
 1738SOL    HW116676   0.918   0.491   9.004 -0.7499 -0.9973 -1.5037
 1738SOL    HW216677   0.946   0.363   9.063 -0.2714 -0.1132 -1.4465
 1739SOL     OW16678   1.373   2.101   2.301 -0.2826  0.3321  0.0026
 1739SOL    HW116679   1.367   2.037   2.230 -0.5353  0.6762 -0.2874
 1739SOL    HW216680   1.381   2.188   2.260  1.4162  0.2347  0.0930
 1740SOL     OW16681   3.483   4.224  16.672 -0.0166  0.1160  0.5530
 1740SOL    HW116682   3.437   4.211  16.590  1.1441 -1.0662  0.0863
 1740SOL    HW216683   3.462   4.145  16.720 -1.1249 -0.6635 -1.2289
 1741SOL     OW16684   4.225   4.203  14.795 -0.3358 -0.2532 -0.2103
 1741SOL    HW116685   4.165   4.277  14.785  0.6650  0.8874  2.2745
 1741SOL    HW216686   4.287   4.249  14.851  0.9964  0.1042 -1.9806
 1742SOL     OW16687   1.690   1.214   2.416 -0.0306 -0.0284 -0.1829
 1742SOL    HW116688   1.682   1.119   2.423 -1.8093  0.2491  1.8492
 1742SOL    HW216689   1.671   1.229   2.324 -0.8616 -0.9010 -0.1573
 1743SOL     OW16690   4.058   1.042   4.057 -0.2545 -0.2168 -0.2186
 1743SOL    HW116691   4.145   1.052   4.017 -0.1012 -0.8588 -0.0413
 1743SOL    HW216692   4.008   1.026   3.977 -0.5829 -1.0272  0.1469
 1744SOL     OW16693   1.103   2.575   5.979  0.0826 -0.3838  0.7823
 1744SOL    HW116694   1.107   2.663   6.016  1.9864  0.2304 -0.9165
 1744SOL    HW216695   1.183   2.536   6.014  0.4107 -0.7467 -0.4057
 1745SOL     OW16696   2.496   1.661   1.103 -0.2893 -0.0396  0.5634
 1745SOL    HW116697   2.472   1.739   1.054 -1.8419  0.3569  1.9513
 1745SOL    HW216698   2.412   1.617   1.093 -0.6167  0.3852  1.4961
 1746SOL     OW16699   1.122   2.785  13.127 -0.5633  0.0714 -0.4228
 1746SOL    HW116700   1.051   2.791  13.063 -0.3847 -1.0366 -0.7290
 1746SOL    HW216701   1.104   2.869  13.169  0.3231 -0.3899  0.8749
 1747SOL     OW16702   4.545   4.642  17.034  0.2838  0.2176 -0.4681
 1747SOL    HW116703   4.453   4.618  17.031 -0.2379  2.2782 -0.9481
 1747SOL    HW216704   4.582   4.565  17.077 -2.8332 -1.0965 -0.1741
 1748SOL     OW16705   1.122   3.642  17.048  0.3807 -0.7296  0.4603
 1748SOL    HW116706   1.140   3.548  17.053 -0.4983 -0.8387  1.6185
 1748SOL    HW216707   1.096   3.646  16.956  1.2451  2.4503  0.3754
 1749SOL     OW16708   2.074   2.654   3.777  0.6546 -0.1035 -0.0983
 1749SOL    HW116709   2.057   2.695   3.692  1.2761 -0.2792 -0.3143
 1749SOL    HW216710   2.060   2.561   3.759  0.9235 -0.1527 -0.0611
 1750SOL     OW16711   2.119   2.190  14.928 -0.6947  0.6482  0.2039
 1750SOL    HW116712   2.180   2.146  14.988 -0.0104 -0.6772 -1.4737
 1750SOL    HW216713   2.179   2.214  14.856  0.0998 -2.9567 -0.3264
 1751SOL     OW16714   2.339   1.747   7.107 -0.0258 -0.3352  0.6199
 1751SOL    HW116715   2.295   1.828   7.131  1.0037  0.1820  0.7210
 1751SOL    HW216716   2.300   1.682   7.165 -1.0590  0.5056  0.8558
 1752SOL     OW16717   2.091   4.565  17.311  0.4389 -0.0385 -0.1711
 1752SOL    HW116718   2.125   4.608  17.232  0.7498  1.3934  0.7316
 1752SOL    HW216719   2.150   4.491  17.324 -0.4021 -0.9240 -1.5006
 1753SOL     OW16720   0.742   3.213   2.867 -0.4342  0.3094  0.1325
 1753SOL    HW116721   0.772   3.303   2.880 -0.1212  0.4982 -1.8382
 1753SOL    HW216722   0.649   3.212   2.890 -0.6650 -0.8717 -0.8218
 1754SOL     OW16723   1.248   1.523   3.840 -0.1179 -0.1659 -0.1111
 1754SOL    HW116724   1.294   1.601   3.809  1.1411  0.1548  2.4708
 1754SOL    HW216725   1.279   1.530   3.931  1.3576  1.4278 -0.7240
 1755SOL     OW16726   2.751   0.287   1.643 -0.4192  0.3950 -0.1725
 1755SOL    HW116727   2.694   0.291   1.720  1.1632 -0.9316  1.0684
 1755SOL    HW216728   2.715   0.353   1.584  0.8126  0.8213 -0.4419
 1756SOL     OW16729   2.652   2.920   8.595 -0.8827  0.3227  0.2090
 1756SOL    HW116730   2.665   3.001   8.645  0.2389 -2.4389  4.4064
 1756SOL    HW216731   2.645   2.947   8.504 -0.4586  0.1318  0.1240
 1757SOL     OW16732   3.588   3.135   5.147  0.0936  0.3304 -0.1504
 1757SOL    HW116733   3.496   3.107   5.142  0.2044  0.2022 -1.5579
 1757SOL    HW216734   3.593   3.196   5.073  0.8658  2.9834  2.0765
 1758SOL     OW16735   1.297   3.305   2.724  0.0403  0.1138  0.0578
 1758SOL    HW116736   1.236   3.337   2.790  0.1621 -1.0359  0.7309
 1758SOL    HW216737   1.375   3.347   2.761 -0.0176 -0.6785  1.0862
 1759SOL     OW16738   0.857   2.081  13.510  0.2186 -0.1197 -0.3018
 1759SOL    HW116739   0.825   2.107  13.424 -0.8502 -1.2976 -0.2620
 1759SOL    HW216740   0.812   1.998  13.522  2.0375 -0.6783  2.6400
 1760SOL     OW16741   2.213   2.842   5.841 -0.3771 -0.0815  0.3681
 1760SOL    HW116742   2.205   2.904   5.769  1.0822  1.1088  1.2282
 1760SOL    HW216743   2.153   2.887   5.900 -2.1597  0.7766 -2.1148
 1761SOL     OW16744   4.548   4.693  11.210 -0.0767  0.4881  0.2844
 1761SOL    HW116745   4.508   4.627  11.153 -0.5284  1.3725 -0.4287
 1761SOL    HW216746   4.469   0.002  11.253 -0.0908  1.7017 -0.6076
 1762SOL     OW16747   2.092   3.477   9.448 -0.0589 -0.0694  0.5572
 1762SOL    HW116748   2.018   3.537   9.457  0.6895  0.9769 -0.4215
 1762SOL    HW216749   2.065   3.397   9.495 -1.4783 -0.6553 -1.2826
 1763SOL     OW16750   4.288   2.815   7.038  0.5804 -0.5834 -0.3170
 1763SOL    HW116751   4.270   2.851   7.126  0.8887 -0.3390 -0.3521
 1763SOL    HW216752   4.200   2.791   7.011  0.1820  1.1474 -0.5772
 1764SOL     OW16753   0.412   0.721   5.874 -0.4139 -0.0819 -0.3368
 1764SOL    HW116754   0.422   0.799   5.928  0.7675  1.9605 -3.4571
 1764SOL    HW216755   0.463   0.747   5.797 -1.6442  2.3626 -0.3348
 1765SOL     OW16756   2.946   1.665   6.840 -0.8438 -0.1750  0.0512
 1765SOL    HW116757   2.861   1.658   6.882 -0.3491  4.0192  1.7603
 1765SOL    HW216758   2.924   1.731   6.774  1.8107  0.4916 -0.1646
 1766SOL     OW16759   4.705   0.687  10.229 -0.0335  0.0081 -0.2459
 1766SOL    HW116760   0.022   0.770  10.258 -0.3525  0.0740  0.0033
 1766SOL    HW216761   4.617   0.702  10.265 -0.4686 -0.5077 -1.0969
 1767SOL     OW16762   4.125   4.567   5.541 -0.2201  0.3724 -0.2325
 1767SOL    HW116763   4.095   4.657   5.550  1.3464  0.6226  2.5322
 1767SOL    HW216764   4.195   4.564   5.606 -0.6075 -0.4117  0.1512
 1768SOL     OW16765   0.481   3.137   5.018  0.0561  0.0319  0.0761
 1768SOL    HW116766   0.519   3.221   4.990 -0.1551 -0.4816 -1.7986
 1768SOL    HW216767   0.556   3.101   5.065  0.5885  2.4751  1.0871
 1769SOL     OW16768   2.939   2.028   6.446  0.1806  0.2337  0.4803
 1769SOL    HW116769   2.849   2.057   6.434  0.3229  0.5173  0.0796
 1769SOL    HW216770   2.966   2.016   6.355  0.3696 -1.7609  0.8015
 1770SOL     OW16771   2.266   1.034   0.174  0.1475  0.0027  0.1806
 1770SOL    HW116772   2.340   0.977   0.195 -1.0976 -0.9113  2.1211
 1770SOL    HW216773   2.263   1.082   0.257  2.0739  2.6104 -1.2606
 1771SOL     OW16774   2.801   2.246   3.099 -0.3478  0.0793 -0.0041
 1771SOL    HW116775   2.837   2.317   3.046  0.0449  0.1464  0.3539
 1771SOL    HW216776   2.752   2.290   3.169 -0.6424  2.0561 -1.4331
 1772SOL     OW16777   4.535   0.346   8.547  0.2087 -0.0097  0.3948
 1772SOL    HW116778   4.475   0.273   8.560 -1.4824  1.4894  1.0183
 1772SOL    HW216779   4.520   0.400   8.625 -1.9004 -0.6708  0.4388
 1773SOL     OW16780   2.054   3.147  13.016  0.2997 -0.0080 -0.0844
 1773SOL    HW116781   2.093   3.063  13.041 -0.5869 -0.2857  0.3674
 1773SOL    HW216782   2.075   3.200  13.093 -0.9798  2.2392 -1.2912
 1774SOL     OW16783   4.589   2.035  11.874 -0.2269 -0.4941  0.1017
 1774SOL    HW116784   4.514   2.003  11.824 -0.1863 -0.1659 -0.1655
 1774SOL    HW216785   4.539   2.055  11.953  0.1160 -1.4328  0.5519
 1775SOL     OW16786   1.631   1.426   5.841  0.0943  0.1583  0.1316
 1775SOL    HW116787   1.721   1.398   5.858  0.3278  0.2507 -0.9358
 1775SOL    HW216788   1.586   1.422   5.925  0.2438  0.7647  0.2385
 1776SOL     OW16789   1.080   4.048   6.622 -0.3553 -0.1846 -0.4336
 1776SOL    HW116790   1.010   4.111   6.638 -0.9320 -0.7665 -0.6933
 1776SOL    HW216791   1.028   3.971   6.600  0.9889 -1.4063  0.6677
 1777SOL     OW16792   0.304   1.428   2.452  0.1456  0.1762 -0.3060
 1777SOL    HW116793   0.296   1.515   2.493  1.5489  1.4781 -2.7934
 1777SOL    HW216794   0.217   1.395   2.476  0.7287  1.5486  3.8301
 1778SOL     OW16795   2.829   2.850   0.626 -0.2770 -0.1131  0.4429
 1778SOL    HW116796   2.757   2.912   0.634  1.5357  2.0830 -0.2407
 1778SOL    HW216797   2.869   2.857   0.713  0.8929  0.0442 -0.0989
 1779SOL     OW16798   2.033   2.414  14.428  1.2209  0.4403  0.3407
 1779SOL    HW116799   2.065   2.503  14.445  0.5109  0.9557 -1.0845
 1779SOL    HW216800   1.985   2.431  14.348  1.1148 -1.1139  0.0716
 1780SOL     OW16801   1.049   0.245   7.613  0.0674 -0.1025  0.8605
 1780SOL    HW116802   0.997   0.315   7.572 -1.0317 -0.8640  0.9400
 1780SOL    HW216803   0.979   0.191   7.649  1.1909 -0.9043  1.8283
 1781SOL     OW16804   3.720   3.176   6.459 -0.0418  0.2588  0.0094
 1781SOL    HW116805   3.629   3.154   6.438 -0.6477  1.6476  1.1002
 1781SOL    HW216806   3.758   3.117   6.395 -0.2842 -0.1801  0.2714
 1782SOL     OW16807   4.668   4.353  10.980 -0.6300  0.5864 -0.0094
 1782SOL    HW116808   0.007   4.409  10.933 -0.7989  0.5733 -0.2505
 1782SOL    HW216809   4.593   4.356  10.920 -1.3150  0.0916  0.8220
 1783SOL     OW16810   1.873   0.561   6.839  0.7326  0.9549 -0.2306
 1783SOL    HW116811   1.810   0.528   6.775 -0.4570  0.9935  0.9184
 1783SOL    HW216812   1.866   0.504   6.915 -1.0372 -2.1286 -2.7366
 1784SOL     OW16813   3.984   4.225   6.620 -0.5761 -0.2690 -0.2823
 1784SOL    HW116814   3.941   4.225   6.706 -0.2104  0.4467 -0.0996
 1784SOL    HW216815   4.071   4.191   6.643 -1.2332  0.5430  3.3602
 1785SOL     OW16816   1.486   4.381   4.117  0.5213 -0.4038 -0.4293
 1785SOL    HW116817   1.529   4.307   4.159 -3.5758 -1.7674  1.3769
 1785SOL    HW216818   1.556   4.444   4.100  1.2816 -1.2148 -0.2320
 1786SOL     OW16819   4.702   3.220   5.748 -0.1680 -0.9854  0.4372
 1786SOL    HW116820   4.693   3.227   5.653  0.8540 -0.7622  0.3587
 1786SOL    HW216821   0.037   3.293   5.771  0.3159 -1.8599  2.0362
 1787SOL     OW16822   0.325   3.046  15.044 -0.2206  0.3058  0.1781
 1787SOL    HW116823   0.349   3.101  14.970  0.6415  0.1981  0.3734
 1787SOL    HW216824   0.239   3.085  15.058  0.4480  2.1688 -0.9904
 1788SOL     OW16825   2.881   3.968   6.153 -0.3278  0.0666  0.5432
 1788SOL    HW116826   2.932   4.036   6.110  0.1800 -0.5627  0.1475
 1788SOL    HW216827   2.807   4.017   6.189 -0.1584 -1.5673  3.1524
 1789SOL     OW16828   4.358   2.141   2.776 -0.3799  0.4752 -0.4515
 1789SOL    HW116829   4.293   2.105   2.836 -1.3826  2.2774 -0.4405
 1789SOL    HW216830   4.383   2.061   2.730  0.1073  0.1720  0.3299
 1790SOL     OW16831   1.417   1.142   5.759  0.5757 -0.2901 -0.7308
 1790SOL    HW116832   1.410   1.226   5.715 -2.5005 -1.3271 -2.2626
 1790SOL    HW216833   1.351   1.093   5.709 -0.6133  0.8142 -0.2539
 1791SOL     OW16834   3.599   2.813  12.830 -0.5219 -0.0734 -0.2136
 1791SOL    HW116835   3.609   2.728  12.872 -0.4967 -0.7009 -1.4799
 1791SOL    HW216836   3.503   2.815  12.826 -0.4611  0.8711 -1.3683
 1792SOL     OW16837   3.682   3.781   8.982 -0.1569  0.5969 -0.2346
 1792SOL    HW116838   3.651   3.872   8.981  2.8582  1.6562  1.9764
 1792SOL    HW216839   3.606   3.740   8.942  0.1434  1.1544 -1.3635
 1793SOL     OW16840   2.717   2.760   7.146 -0.6836  0.0397 -0.1128
 1793SOL    HW116841   2.662   2.832   7.116  0.4082  0.8470 -0.1770
 1793SOL    HW216842   2.803   2.798   7.163  0.2425 -1.5756 -1.2821
 1794SOL     OW16843   0.901   4.157   7.407 -0.3756  0.8585  0.1293
 1794SOL    HW116844   0.850   4.180   7.330 -0.3917 -0.3582 -0.2311
 1794SOL    HW216845   0.875   4.222   7.472 -2.4438 -0.5422  0.7032
 1795SOL     OW16846   2.738   3.091   2.798  0.4351 -0.4101 -0.8311
 1795SOL    HW116847   2.730   3.175   2.842  0.8485  0.0743 -1.6755
 1795SOL    HW216848   2.657   3.097   2.746 -0.5969 -0.1791  0.7934
 1796SOL     OW16849   1.047   3.563   0.922 -0.3929 -0.5204 -0.3657
 1796SOL    HW116850   1.016   3.623   0.989 -0.3211  0.4048 -1.1619
 1796SOL    HW216851   0.995   3.580   0.843 -3.4636 -0.3628  1.6813
 1797SOL     OW16852   0.737   3.994  14.071 -0.6614 -0.3616 -0.0578
 1797SOL    HW116853   0.778   3.961  14.151  1.1724  1.2978 -0.2867
 1797SOL    HW216854   0.812   4.020  14.018 -0.8799  0.1687 -0.1096
 1798SOL     OW16855   0.557   0.907   9.580  0.0090 -0.5728 -0.3113
 1798SOL    HW116856   0.525   0.819   9.598  0.9489 -1.5613 -3.5161
 1798SOL    HW216857   0.486   0.937   9.524  0.2996 -0.7027 -0.7498
 1799SOL     OW16858   2.169   0.036   3.808  0.3222  0.6257  0.0066
 1799SOL    HW116859   2.247   0.016   3.861  0.6107  0.4168 -0.5009
 1799SOL    HW216860   2.165   4.677   3.759  2.4780  1.2347 -1.1759
 1800SOL     OW16861   4.268   4.183   2.403 -0.2126  0.4964  0.0501
 1800SOL    HW116862   4.201   4.217   2.344  0.2246  0.3617 -0.5291
 1800SOL    HW216863   4.330   4.149   2.338 -0.0245 -1.2339  1.1532
 1801SOL     OW16864   2.456   1.281  14.948 -0.0242 -0.0649 -0.0988
 1801SOL    HW116865   2.409   1.273  14.866  1.7419 -1.6343 -0.9621
 1801SOL    HW216866   2.486   1.371  14.948  0.5441 -0.2614 -2.1551
 1802SOL     OW16867   1.628   1.753   1.157 -0.1912  0.2759  0.6916
 1802SOL    HW116868   1.544   1.759   1.111 -0.8315 -2.8916  1.4071
 1802SOL    HW216869   1.651   1.840   1.126 -1.0598  0.8598  1.6725
 1803SOL     OW16870   0.055   3.875   8.339  0.4568 -0.3058  0.0785
 1803SOL    HW116871   0.080   3.924   8.260 -0.3071  0.1994  0.1576
 1803SOL    HW216872   4.691   3.851   8.306  1.2919 -1.0492 -1.5857
 1804SOL     OW16873   4.299   2.894  13.501 -0.2084  0.0452 -0.0898
 1804SOL    HW116874   4.204   2.884  13.497 -0.2560  0.2532  0.4683
 1804SOL    HW216875   4.320   2.842  13.424 -2.7489  1.1149 -1.5131
 1805SOL     OW16876   3.540   3.289   4.555 -0.3925  0.2915 -0.0917
 1805SOL    HW116877   3.574   3.352   4.491 -1.8825  0.9617 -0.2279
 1805SOL    HW216878   3.478   3.344   4.602 -0.6588  1.0814 -1.3707
 1806SOL     OW16879   0.399   0.760  11.330  0.0785  0.6695  0.4759
 1806SOL    HW116880   0.395   0.853  11.350 -1.7121  1.0161 -1.4675
 1806SOL    HW216881   0.308   0.735  11.350  0.0425  1.6403  1.5124
 1807SOL     OW16882   3.485   2.357   0.796 -0.5379 -0.6491  0.0931
 1807SOL    HW116883   3.401   2.387   0.831 -0.4660 -2.1113  1.5001
 1807SOL    HW216884   3.470   2.386   0.706  1.0407  3.0568  1.0198
 1808SOL     OW16885   4.006   0.626  15.524 -0.2990 -0.1807 -0.2718
 1808SOL    HW116886   3.939   0.617  15.457 -0.3967  0.6584 -0.2877
 1808SOL    HW216887   3.960   0.601  15.604  3.1489 -0.9436  1.5178
 1809SOL     OW16888   0.941   4.000  13.884  0.4985 -0.8989  0.2845
 1809SOL    HW116889   0.977   3.933  13.827 -1.0036  0.0164 -1.7217
 1809SOL    HW216890   1.005   4.071  13.878  0.6182 -1.1124 -0.9312
 1810SOL     OW16891   3.431   2.782   2.281 -0.4759  0.0730 -0.2478
 1810SOL    HW116892   3.426   2.714   2.213  1.4455 -1.5855  1.2612
 1810SOL    HW216893   3.486   2.851   2.245 -1.2268  1.4785  1.2987
 1811SOL     OW16894   0.239   3.525   8.344  0.6373 -0.3506 -0.0962
 1811SOL    HW116895   0.276   3.562   8.264  1.6281  0.2229  0.6176
 1811SOL    HW216896   0.238   3.605   8.397 -1.9409 -0.4472 -0.0110
 1812SOL     OW16897   2.306   4.482   7.439 -0.0825 -0.1815  0.1850
 1812SOL    HW116898   2.212   4.490   7.453  0.0008 -1.1129  1.3137
 1812SOL    HW216899   2.328   4.464   7.531 -0.7087 -1.5879  0.0615
 1813SOL     OW16900   2.293   3.071   9.556  0.0472  0.0784 -0.0239
 1813SOL    HW116901   2.311   3.111   9.641 -0.2101 -1.0960  0.5785
 1813SOL    HW216902   2.267   3.140   9.495  0.2642  2.2750  2.3576
 1814SOL     OW16903   1.414   3.175   6.903  0.6514 -0.2698 -0.1456
 1814SOL    HW116904   1.441   3.114   6.834  1.3590 -1.4001  1.1483
 1814SOL    HW216905   1.438   3.140   6.988 -0.1647 -0.0298  0.1841
 1815SOL     OW16906   1.587   2.475   2.975 -0.8101 -0.2589  0.2354
 1815SOL    HW116907   1.605   2.557   3.021 -1.4179 -0.5003  0.8956
 1815SOL    HW216908   1.496   2.467   3.002 -1.4270 -0.7039 -1.9759
 1816SOL     OW16909   0.673   2.964   3.104  0.3417 -0.3345  0.4302
 1816SOL    HW116910   0.596   2.991   3.053 -0.1768 -2.8090 -0.1175
 1816SOL    HW216911   0.670   3.028   3.174  0.4387 -1.9901  1.9554
 1817SOL     OW16912   3.579   0.426   4.274 -0.8998  0.0997  0.2809
 1817SOL    HW116913   3.647   0.428   4.207  1.2172 -1.0810  2.3944
 1817SOL    HW216914   3.581   0.516   4.308 -1.7974  0.8368 -1.5955
 1818SOL     OW16915   2.372   1.306   3.302  0.8982 -0.0833  0.2421
 1818SOL    HW116916   2.304   1.343   3.246  1.1141  0.7704  0.5477
 1818SOL    HW216917   2.364   1.212   3.284 -0.2652 -0.3843  2.3779
 1819SOL     OW16918   1.072   3.779  17.268  0.0470  0.5968 -0.0874
 1819SOL    HW116919   1.089   3.729  17.188 -0.2176  0.4474 -0.0515
 1819SOL    HW216920   1.018   3.716  17.317  3.4913 -1.5481  0.9591
 1820SOL     OW16921   1.395   1.121  16.413 -0.2767 -0.1830 -0.1081
 1820SOL    HW116922   1.346   1.118  16.495  0.5272  0.5985  0.4035
 1820SOL    HW216923   1.342   1.146  16.338 -1.1455 -2.1019 -0.1470
 1821SOL     OW16924   3.179   3.343   8.881  0.4791  0.4206 -0.0590
 1821SOL    HW116925   3.194   3.267   8.938 -1.2277  1.1054  1.2968
 1821SOL    HW216926   3.272   3.347   8.858  0.6268  1.1111  0.6498
 1822SOL     OW16927   0.698   1.976   4.918  0.5494  0.2520 -0.0410
 1822SOL    HW116928   0.708   1.883   4.937  1.5326  0.0346 -1.6459
 1822SOL    HW216929   0.606   1.975   4.891  0.8296 -0.8405 -0.9300
 1823SOL     OW16930   2.033   2.811   2.601 -0.1400 -0.0336  0.3958
 1823SOL    HW116931   1.987   2.737   2.562 -0.8243 -0.1596  1.4333
 1823SOL    HW216932   2.084   2.843   2.527  0.8410 -2.8911 -0.1414
 1824SOL     OW16933   4.536   2.952   1.839  0.0091  0.6717 -0.1405
 1824SOL    HW116934   4.622   2.959   1.797 -0.5422 -0.7604 -1.5089
 1824SOL    HW216935   4.542   2.864   1.876  0.1540  1.0943  0.8463
 1825SOL     OW16936   1.021   0.276   3.481  0.2115  0.4522  0.2509
 1825SOL    HW116937   1.042   0.305   3.392  1.7936 -3.0180 -0.5180
 1825SOL    HW216938   1.103   0.302   3.523 -0.4715 -0.4503  2.0927
 1826SOL     OW16939   3.406   1.922   2.248  0.8158 -0.3423 -0.1895
 1826SOL    HW116940   3.383   1.858   2.315  1.1364 -0.9274 -0.6251
 1826SOL    HW216941   3.400   2.009   2.288  1.0291 -1.4630  2.2669
 1827SOL     OW16942   2.043   2.876   6.662 -0.2610  0.4884  0.0018
 1827SOL    HW116943   2.067   2.882   6.755 -0.7172  1.9650  0.0214
 1827SOL    HW216944   1.950   2.860   6.680 -0.9542  0.4634 -3.7045
 1828SOL     OW16945   1.753   3.579   4.669  0.2298 -0.7740 -0.1488
 1828SOL    HW116946   1.743   3.485   4.651  0.8249 -0.8825  0.1029
 1828SOL    HW216947   1.680   3.614   4.618 -0.7730 -2.3203  0.2462
 1829SOL     OW16948   4.070   4.161   6.224  0.1093  0.5636  0.3458
 1829SOL    HW116949   4.068   4.205   6.309 -0.2528  0.4552  0.3929
 1829SOL    HW216950   3.982   4.181   6.192  0.7186  1.8224 -0.5271
 1830SOL     OW16951   2.331   2.953   6.934  0.1286 -0.0059 -0.1252
 1830SOL    HW116952   2.318   2.936   6.840 -0.3495 -2.6667  0.4180
 1830SOL    HW216953   2.239   2.963   6.957 -0.5408 -2.1168 -1.9020
 1831SOL     OW16954   4.164   3.087   7.490 -0.2689  0.0717 -0.2720
 1831SOL    HW116955   4.147   3.177   7.515 -1.5054 -0.1552 -0.2921
 1831SOL    HW216956   4.154   3.046   7.576 -1.0318 -0.9151 -0.8330
 1832SOL     OW16957   1.310   2.225  15.182  0.1340  0.1963  0.0757
 1832SOL    HW116958   1.398   2.262  15.180  0.5484 -0.6623  1.4401
 1832SOL    HW216959   1.329   2.139  15.220  0.0055  0.0756 -0.1363
 1833SOL     OW16960   1.879   4.602   9.996 -0.1212  0.1907 -0.0809
 1833SOL    HW116961   1.852   4.633  10.082 -0.2003 -1.2101  0.3831
 1833SOL    HW216962   1.829   4.661   9.940  0.0247 -0.8616 -1.3130
 1834SOL     OW16963   0.523   4.490   3.951 -0.2246  0.2288  0.3860
 1834SOL    HW116964   0.567   4.502   3.866  2.2975 -1.4004  1.4534
 1834SOL    HW216965   0.434   4.477   3.919 -0.0047 -1.9383  0.6672
 1835SOL     OW16966   1.837   3.696   6.162  0.0308  0.0654 -0.0939
 1835SOL    HW116967   1.846   3.751   6.240  3.2426  0.0210 -0.4524
 1835SOL    HW216968   1.741   3.695   6.153  0.2883 -4.5628 -2.5341
 1836SOL     OW16969   4.275   3.656   7.878  0.0762 -0.5840 -0.5395
 1836SOL    HW116970   4.325   3.661   7.796 -0.3902 -2.4609 -0.9356
 1836SOL    HW216971   4.227   3.738   7.889 -1.1838 -1.6043  1.4997
 1837SOL     OW16972   0.445   4.558   5.810  0.1054 -0.1853  0.3756
 1837SOL    HW116973   0.372   4.529   5.866  0.6546  0.1040  1.2454
 1837SOL    HW216974   0.497   4.599   5.879 -0.8335  0.0730  0.9386
 1838SOL     OW16975   1.263   1.134   5.406  0.3333 -0.0845  0.0491
 1838SOL    HW116976   1.240   1.087   5.487  0.0957  1.2980  0.7736
 1838SOL    HW216977   1.315   1.071   5.356  0.9141  0.3897  0.0615
 1839SOL     OW16978   4.549   1.036   5.298 -0.1898 -0.1515 -0.3073
 1839SOL    HW116979   4.545   1.117   5.247 -1.0621 -0.5037 -0.8009
 1839SOL    HW216980   4.467   0.995   5.270 -0.4364  0.9985 -1.2745
 1840SOL     OW16981   2.970   1.144   6.634 -0.0651 -0.3045 -0.3139
 1840SOL    HW116982   3.052   1.152   6.683 -0.2809  0.5619 -0.0950
 1840SOL    HW216983   2.915   1.217   6.663  0.1455  0.2835 -1.4258
 1841SOL     OW16984   0.788   4.716  13.708  0.6661 -0.6310  0.0698
 1841SOL    HW116985   0.775   4.650  13.640 -1.9665  1.7552 -1.7417
 1841SOL    HW216986   0.752   4.678  13.788  0.5960 -0.2374  0.2216
 1842SOL     OW16987   2.868   0.593   6.657  0.4094  0.3156  0.3764
 1842SOL    HW116988   2.963   0.595   6.653  0.3578 -2.8184 -2.6421
 1842SOL    HW216989   2.854   0.685   6.681 -0.6563  0.3005 -0.1803
 1843SOL     OW16990   2.041   0.009   6.627 -0.3654 -0.3637 -0.1318
 1843SOL    HW116991   2.127   0.048   6.641 -0.2731 -0.3857 -0.6407
 1843SOL    HW216992   2.061   4.672   6.555 -1.1162  0.6249 -1.1654
 1844SOL     OW16993   3.886   1.087   5.711 -0.0425 -0.0331  0.5653
 1844SOL    HW116994   3.903   1.097   5.804 -1.9973  0.7433  0.8293
 1844SOL    HW216995   3.915   1.168   5.668 -2.9262  0.3221 -0.7092
 1845SOL     OW16996   3.898   2.486   1.530  0.4488 -0.1374 -0.5060
 1845SOL    HW116997   3.905   2.565   1.582  0.1073 -1.5867  1.7475
 1845SOL    HW216998   3.851   2.432   1.593 -0.0010 -0.5484 -1.1892
 1846SOL     OW16999   2.424   3.904   2.084 -0.5810 -0.4404  0.4310
 1846SOL    HW117000   2.476   3.837   2.130 -0.4558 -0.9111 -0.3890
 1846SOL    HW217001   2.371   3.848   2.027  0.9381 -1.5408  0.1085
 1847SOL     OW17002   3.853   3.878   4.985 -0.2106  0.6911 -0.0412
 1847SOL    HW117003   3.807   3.811   5.036  0.5607 -0.3759 -0.7520
 1847SOL    HW217004   3.780   3.938   4.965 -0.3073  0.1374 -1.3519
 1848SOL     OW17005   2.060   0.298   4.065 -0.3252  0.4482  0.1066
 1848SOL    HW117006   1.994   0.268   4.003  1.3686  1.9335 -2.4717
 1848SOL    HW217007   2.121   0.338   4.001 -2.1241  0.8467 -1.3558
 1849SOL     OW17008   1.479   3.328   5.551  0.1538 -0.5880 -0.3132
 1849SOL    HW117009   1.563   3.285   5.538  1.3583  1.2192  1.3249
 1849SOL    HW217010   1.482   3.388   5.626 -0.8846 -0.6699 -0.1992
 1850SOL     OW17011   2.600   0.570   2.732 -0.3524 -0.5055 -0.6236
 1850SOL    HW117012   2.667   0.556   2.800 -0.5577  0.1947 -0.2757
 1850SOL    HW217013   2.525   0.518   2.762  0.9297 -1.8879  0.2193
 1851SOL     OW17014   2.318   1.540  15.577 -0.3808 -0.0786  0.6056
 1851SOL    HW117015   2.355   1.472  15.521 -1.0766 -0.1118  0.1926
 1851SOL    HW217016   2.306   1.491  15.659  1.0077  0.3943  1.0939
 1852SOL     OW17017   3.783   4.371  14.657  0.0366 -0.0934 -0.2928
 1852SOL    HW117018   3.752   4.322  14.733  0.3478 -1.2148 -0.9015
 1852SOL    HW217019   3.758   4.311  14.588 -0.5731  0.7135 -0.7780
 1853SOL     OW17020   3.826   0.998   5.157  0.1976  0.3403 -0.0763
 1853SOL    HW117021   3.862   0.915   5.128 -1.2271 -0.6888  1.1014
 1853SOL    HW217022   3.885   1.017   5.231  0.8537  0.9250 -0.7540
 1854SOL     OW17023   0.010   3.183   4.919  0.2811  0.6375 -0.3283
 1854SOL    HW117024   4.637   3.196   4.923  0.3174  0.3500  1.4704
 1854SOL    HW217025   0.013   3.092   4.889 -0.9552 -0.3135  2.4582
 1855SOL     OW17026   0.870   1.649   2.575 -0.4110  0.7906 -0.1815
 1855SOL    HW117027   0.942   1.634   2.513  1.7832  2.9314  1.9056
 1855SOL    HW217028   0.817   1.572   2.552  0.3974  0.3366 -0.5127
 1856SOL     OW17029   1.323   0.125   3.481 -0.2095 -0.4130 -0.5216
 1856SOL    HW117030   1.241   0.079   3.465 -2.0492  1.9430  2.1109
 1856SOL    HW217031   1.383   0.054   3.455  1.0107  1.0964 -1.8932
 1857SOL     OW17032   0.583   0.764   7.251  0.4509  0.9583 -0.1906
 1857SOL    HW117033   0.584   0.669   7.236  0.9666  0.5692  2.2189
 1857SOL    HW217034   0.565   0.787   7.160 -0.7522  2.2769  0.3897
 1858SOL     OW17035   4.495   1.483   5.059  0.2905 -0.4500  0.0992
 1858SOL    HW117036   4.545   1.532   4.994 -0.6664  1.8734  1.0970
 1858SOL    HW217037   4.425   1.438   5.012  0.0866 -0.2064  0.1695
 1859SOL     OW17038   3.923   3.671   4.815  0.6161  0.0699 -0.1800
 1859SOL    HW117039   3.951   3.755   4.852  0.0405  0.3330 -0.3489
 1859SOL    HW217040   3.829   3.682   4.801  0.5062  1.8525  1.8364
 1860SOL     OW17041   1.941   1.092  14.003  0.2685  0.0366 -0.4679
 1860SOL    HW117042   1.981   1.049  14.078 -0.1619  0.0510 -0.2309
 1860SOL    HW217043   2.020   1.143  13.983 -0.8466  1.9956  0.0998
 1861SOL     OW17044   3.272   4.377  11.845  0.2263  0.1162 -0.5044
 1861SOL    HW117045   3.296   4.288  11.819  3.6950  0.4563  1.5650
 1861SOL    HW217046   3.257   4.365  11.939  0.6307 -1.4623 -0.6322
 1862SOL     OW17047   0.400   0.859   2.149  0.4131 -0.0134  0.6776
 1862SOL    HW117048   0.465   0.792   2.168  0.2064 -0.1316  0.9608
 1862SOL    HW217049   0.454   0.934   2.174 -0.2387  0.0831  1.7872
 1863SOL     OW17050   2.350   0.325   1.862 -0.1050 -0.5488 -0.1686
 1863SOL    HW117051   2.439   0.292   1.849  0.6097  0.9459  1.0283
 1863SOL    HW217052   2.360   0.411   1.903 -1.4313 -0.1625 -0.6595
 1864SOL     OW17053   0.401   3.574   0.827  0.1614  0.2684 -0.6447
 1864SOL    HW117054   0.467   3.602   0.764 -0.0807  1.2364 -0.4659
 1864SOL    HW217055   0.424   3.625   0.905  1.6248  0.6996 -1.3546
 1865SOL     OW17056   3.207   1.018   7.613 -0.0742  0.7730 -0.6377
 1865SOL    HW117057   3.269   0.953   7.582  0.4703  1.3827 -0.8293
 1865SOL    HW217058   3.181   1.060   7.531 -1.3713 -0.5631 -0.9242
 1866SOL     OW17059   3.482   3.069   1.281 -0.0937  0.0245 -0.0734
 1866SOL    HW117060   3.411   3.020   1.322  0.9997 -1.3685  0.1505
 1866SOL    HW217061   3.456   3.157   1.310 -0.0400 -0.7814  2.4539
 1867SOL     OW17062   3.652   0.425   5.095 -0.2524 -0.0609  0.7260
 1867SOL    HW117063   3.715   0.489   5.127  1.5681 -3.0250  3.0819
 1867SOL    HW217064   3.644   0.372   5.174 -0.4623  0.5613  1.1164
 1868SOL     OW17065   1.976   2.416   8.681 -0.1576  1.0022  0.0604
 1868SOL    HW117066   2.033   2.410   8.759 -1.6649  2.2853  1.2661
 1868SOL    HW217067   1.948   2.508   8.677  1.8486  1.4900 -3.0838
 1869SOL     OW17068   2.207   3.963   7.333  0.1508 -0.1267  0.0622
 1869SOL    HW117069   2.127   3.923   7.300 -0.2683  0.4926  0.3409
 1869SOL    HW217070   2.235   3.890   7.390  0.0785 -0.7699 -0.7213
 1870SOL     OW17071   0.971   4.566   3.188 -0.3664 -0.4078 -0.4428
 1870SOL    HW117072   1.054   4.612   3.195 -0.8405  0.1326  1.8055
 1870SOL    HW217073   0.990   4.491   3.133 -2.6838 -2.2813  1.2933
 1871SOL     OW17074   1.405   0.394   5.227  0.0688  0.2853 -0.1190
 1871SOL    HW117075   1.311   0.383   5.210 -0.4041  1.6179  1.6045
 1871SOL    HW217076   1.396   0.468   5.287 -1.5890  0.6822 -0.8608
 1872SOL     OW17077   2.587   1.561  10.642 -0.6825  0.2553 -0.5430
 1872SOL    HW117078   2.575   1.642  10.593  0.0052  0.0144 -1.1218
 1872SOL    HW217079   2.663   1.585  10.696  0.2005  0.4444 -1.8669
 1873SOL     OW17080   0.827   3.582   7.784 -0.2091 -0.0491 -0.0252
 1873SOL    HW117081   0.742   3.538   7.789 -1.4289  2.3970  0.8126
 1873SOL    HW217082   0.881   3.513   7.822 -2.2231 -2.4599 -1.5475
 1874SOL     OW17083   0.239   0.047   6.094  0.9326  0.8930 -0.3357
 1874SOL    HW117084   0.206   0.121   6.145  0.5414  0.8288 -0.4965
 1874SOL    HW217085   0.177   4.696   6.102  3.1297 -0.8501  0.6903
 1875SOL     OW17086   3.376   3.447  11.779  0.0043 -0.6046  1.0951
 1875SOL    HW117087   3.286   3.476  11.768  0.5610  1.7486  2.8043
 1875SOL    HW217088   3.435   3.516  11.749 -0.9441  0.6569  2.1103
 1876SOL     OW17089   4.410   3.468   4.185 -0.5146  0.6121  0.0961
 1876SOL    HW117090   4.327   3.466   4.233 -0.7863  0.8588 -0.3695
 1876SOL    HW217091   4.461   3.427   4.255  1.0746  1.1037 -0.7663
 1877SOL     OW17092   3.910   1.094   9.686 -0.5471  0.4745 -0.3176
 1877SOL    HW117093   3.843   1.076   9.620  0.7799 -0.9160 -1.2791
 1877SOL    HW217094   3.854   1.089   9.763  1.3598  0.3272  1.0490
 1878SOL     OW17095   3.481   2.806   4.410  0.2995  0.6105  0.5516
 1878SOL    HW117096   3.482   2.899   4.387 -1.0238  0.2455 -0.9563
 1878SOL    HW217097   3.564   2.795   4.456 -0.3797 -0.2948  1.5413
 1879SOL     OW17098   2.726   0.862   7.102 -0.5322  0.2654  0.0043
 1879SOL    HW117099   2.736   0.956   7.112 -1.3999  0.5168 -1.3953
 1879SOL    HW217100   2.681   0.830   7.180  1.0842  1.6247  1.4877
 1880SOL     OW17101   4.270   0.998  16.714 -0.4378  0.1108  1.1348
 1880SOL    HW117102   4.186   1.040  16.732 -0.4583  0.5436  0.0418
 1880SOL    HW217103   4.280   1.030  16.624 -3.3161  0.2775  0.8656
 1881SOL     OW17104   4.671   3.970   9.810 -0.1040 -0.3052  0.6834
 1881SOL    HW117105   4.593   4.003   9.764  0.9115  2.0860  0.7013
 1881SOL    HW217106   4.666   3.876   9.794  0.0109 -0.6606  2.8351
 1882SOL     OW17107   4.577   0.603  12.127  0.0629 -0.2439  0.5566
 1882SOL    HW117108   4.596   0.516  12.092  0.2095  0.3505 -0.8038
 1882SOL    HW217109   4.611   0.663  12.061 -2.9911  0.7996 -0.0436
 1883SOL     OW17110   0.297   3.726   3.794  0.2986  0.6620 -0.1921
 1883SOL    HW117111   0.368   3.669   3.764  1.0485  0.8940  1.1638
 1883SOL    HW217112   0.288   3.788   3.721 -1.1261  0.6094 -0.0535
 1884SOL     OW17113   2.982   1.113  15.154  0.6049  1.0221 -0.3243
 1884SOL    HW117114   3.049   1.145  15.215  1.2422  1.1050 -1.0640
 1884SOL    HW217115   2.912   1.079  15.208  0.0008  1.9337 -0.5334
 1885SOL     OW17116   1.119   0.159   2.930 -0.5106  0.0099 -0.0459
 1885SOL    HW117117   1.132   0.070   2.899  1.3285 -1.0088  3.7120
 1885SOL    HW217118   1.198   0.204   2.899 -1.4364 -0.0065 -2.3795
 1886SOL     OW17119   4.017   1.880   2.617  0.4739  0.0348 -0.0457
 1886SOL    HW117120   3.923   1.866   2.607  0.2444  1.8296 -0.4234
 1886SOL    HW217121   4.043   1.869   2.526 -1.1699 -1.5311 -0.3102
 1887SOL     OW17122   3.777   1.350  12.047  0.6291  0.4343  0.2765
 1887SOL    HW117123   3.807   1.423  11.993  0.6435 -0.0181 -0.3222
 1887SOL    HW217124   3.722   1.311  11.979  2.9445 -0.1416 -1.2828
 1888SOL     OW17125   4.303   0.294   5.977 -0.3232 -0.3936  0.1366
 1888SOL    HW117126   4.243   0.362   5.945  0.4722  0.3375  0.1746
 1888SOL    HW217127   4.274   0.219   5.926  0.3339 -0.4967 -0.0838
 1889SOL     OW17128   2.197   3.180  11.521 -0.4769 -0.2590  0.2223
 1889SOL    HW117129   2.205   3.129  11.602  1.8322 -0.4501 -0.1228
 1889SOL    HW217130   2.238   3.258  11.559 -0.4636 -0.5204  0.7480
 1890SOL     OW17131   0.338   1.788   4.634  0.6052 -0.5985 -0.5191
 1890SOL    HW117132   0.397   1.791   4.559  0.6338 -3.1630 -0.5719
 1890SOL    HW217133   0.317   1.695   4.630 -1.8169 -0.0743 -0.1538
 1891SOL     OW17134   2.867   1.888  17.674  0.1405  0.1779 -0.5859
 1891SOL    HW117135   2.944   1.920   0.027  1.1376 -4.4816  1.0751
 1891SOL    HW217136   2.883   1.794  17.686 -1.0202 -0.0936 -1.1188
 1892SOL     OW17137   0.738   2.786   5.355 -0.2717 -0.6217 -0.0186
 1892SOL    HW117138   0.714   2.782   5.447  0.3189  0.1728  0.1702
 1892SOL    HW217139   0.746   2.692   5.339  1.1704 -0.3304 -1.0055
 1893SOL     OW17140   2.805   3.372   1.463 -0.5864 -0.5455  0.5279
 1893SOL    HW117141   2.758   3.438   1.513 -1.0592 -2.4481  2.5684
 1893SOL    HW217142   2.756   3.291   1.475  0.3978 -1.3179 -0.6051
 1894SOL     OW17143   4.375   1.975   6.315 -0.1215  0.2875  0.5946
 1894SOL    HW117144   4.298   2.028   6.337  0.4849  2.0656 -1.4544
 1894SOL    HW217145   4.433   2.041   6.276  0.1836 -1.1528 -1.3917
 1895SOL     OW17146   3.202   0.366   1.760  0.2507  0.0570 -0.3905
 1895SOL    HW117147   3.127   0.335   1.708  0.2645  1.9416 -1.5368
 1895SOL    HW217148   3.245   0.281   1.750  1.6770  0.7898 -0.3205
 1896SOL     OW17149   4.527   1.871   9.738  0.1418  0.4602 -0.1802
 1896SOL    HW117150   4.580   1.867   9.658  2.1289 -1.8601  1.2897
 1896SOL    HW217151   4.496   1.781   9.730  0.9677  0.0839  1.0131
 1897SOL     OW17152   0.699   3.096  12.236  0.0959 -0.2155 -0.0699
 1897SOL    HW117153   0.679   3.049  12.155  0.6576 -0.9046  0.1967
 1897SOL    HW217154   0.793   3.080  12.245  0.1873 -0.1999 -1.0360
 1898SOL     OW17155   1.089   2.572  17.680 -0.2986 -0.1403  0.0691
 1898SOL    HW117156   1.060   2.637   0.052  1.8125  1.3932 -0.5254
 1898SOL    HW217157   1.177   2.546   0.015 -0.0283  0.5006 -0.1862
 1899SOL     OW17158   2.475   2.436  15.230  0.0401  0.0911 -0.2054
 1899SOL    HW117159   2.522   2.448  15.312 -0.4651 -0.7176  0.2133
 1899SOL    HW217160   2.545   2.444  15.166 -0.7151  1.7387 -0.8243
 1900SOL     OW17161   2.485   1.726   3.394  0.0957  0.1254 -0.0934
 1900SOL    HW117162   2.557   1.664   3.384  0.5593  0.7792 -0.8332
 1900SOL    HW217163   2.434   1.661   3.442  0.6937  0.5560  1.1142
 1901SOL     OW17164   2.000   4.111  16.495  0.1948  0.0419  0.0445
 1901SOL    HW117165   2.051   4.031  16.477 -0.9071 -1.0882  1.9713
 1901SOL    HW217166   1.938   4.075  16.558  0.4604  1.7485  1.2770
 1902SOL     OW17167   0.109   2.160   8.533  0.5259 -0.0338 -0.2305
 1902SOL    HW117168   0.083   2.115   8.613 -0.4984  0.4156 -0.3113
 1902SOL    HW217169   0.029   2.142   8.484  0.2963  2.0397 -0.6420
 1903SOL     OW17170   2.984   0.771  10.320 -0.3361 -0.1637  0.0691
 1903SOL    HW117171   3.078   0.790  10.322 -0.3318 -0.0893 -0.7566
 1903SOL    HW217172   2.955   0.845  10.267 -2.4817 -1.6322 -0.7729
 1904SOL     OW17173   4.674   4.509   2.291 -0.5591  0.0445  0.7336
 1904SOL    HW117174   4.586   4.490   2.322 -0.9961  0.9771  0.0781
 1904SOL    HW217175   0.002   4.497   2.371  0.2337 -0.4278  0.1687
 1905SOL     OW17176   2.109   2.312   8.246 -0.2767 -0.1298  0.8407
 1905SOL    HW117177   2.123   2.375   8.176  0.7902 -0.6710  0.5633
 1905SOL    HW217178   2.167   2.238   8.226  0.8853  1.0518 -0.1913
 1906SOL     OW17179   3.709   3.188   5.608  0.7403 -0.1729  0.5520
 1906SOL    HW117180   3.758   3.114   5.644 -2.0169 -1.8644  0.8199
 1906SOL    HW217181   3.786   3.243   5.593 -0.7233  1.1113 -2.2577
 1907SOL     OW17182   2.497   1.077   3.427  0.4676  0.1124  0.2134
 1907SOL    HW117183   2.585   1.102   3.401  0.6673 -0.1429  0.6534
 1907SOL    HW217184   2.465   1.160   3.463  0.5310  0.5391 -0.7056
 1908SOL     OW17185   2.368   2.833   7.443  0.7533 -0.3032 -0.0197
 1908SOL    HW117186   2.380   2.831   7.538  0.2772 -0.5070  0.0387
 1908SOL    HW217187   2.457   2.863   7.427 -0.8591  3.6045 -1.4647
 1909SOL     OW17188   1.665   3.483  14.334  0.0937 -0.2298  0.5537
 1909SOL    HW117189   1.573   3.476  14.360  0.4989  1.1470  2.3616
 1909SOL    HW217190   1.662   3.440  14.249  0.0623 -0.0039  0.4410
 1910SOL     OW17191   1.540   3.380   7.127  0.2949  0.0171  0.2020
 1910SOL    HW117192   1.572   3.426   7.049 -0.0655 -0.1968 -0.0717
 1910SOL    HW217193   1.620   3.339   7.160 -0.5438  0.8143  3.1748
 1911SOL     OW17194   3.580   1.378   1.936  0.4659  0.6598 -0.2426
 1911SOL    HW117195   3.504   1.346   1.984  0.5227  0.8356 -0.0348
 1911SOL    HW217196   3.621   1.438   1.999  1.6329  0.1002 -0.4749
 1912SOL     OW17197   2.418   4.413   2.187 -0.9191  0.5169 -0.4627
 1912SOL    HW117198   2.447   4.482   2.247  3.4359 -1.9520  0.2854
 1912SOL    HW217199   2.406   4.344   2.253 -0.5654  0.1734 -0.7537
 1913SOL     OW17200   3.263   2.498   1.230 -0.0224 -0.5961  0.0174
 1913SOL    HW117201   3.315   2.446   1.291  2.4835  1.5319 -0.3355
 1913SOL    HW217202   3.260   2.447   1.149 -1.5891  1.2196 -1.0766
 1914SOL     OW17203   4.461   4.341   5.183  0.4121 -0.5422 -0.2531
 1914SOL    HW117204   4.387   4.344   5.122 -0.5390 -3.1087  0.7644
 1914SOL    HW217205   4.417   4.347   5.268 -0.3997  2.9578 -0.9152
 1915SOL     OW17206   3.986   3.020   8.573 -0.4000 -0.4792 -0.2230
 1915SOL    HW117207   3.901   3.035   8.614  0.6201  0.8632  1.3674
 1915SOL    HW217208   3.963   3.047   8.484 -0.9323 -0.7845 -0.1778
 1916SOL     OW17209   2.702   1.153   0.370  0.6380  0.8780 -0.2087
 1916SOL    HW117210   2.660   1.232   0.335 -1.0213  0.4008  0.6852
 1916SOL    HW217211   2.665   1.158   0.458  2.3563 -2.0961  0.6909
 1917SOL     OW17212   4.298   0.565  16.529 -0.0847 -0.1519  0.0270
 1917SOL    HW117213   4.245   0.595  16.456  1.8633  2.0340 -0.4955
 1917SOL    HW217214   4.249   0.596  16.605  2.0055 -2.5348  2.3624
 1918SOL     OW17215   1.489   3.294   8.249  0.0860  0.6420 -0.6782
 1918SOL    HW117216   1.452   3.375   8.283  0.8431  1.3119 -1.4353
 1918SOL    HW217217   1.461   3.227   8.311  0.2219 -0.0820 -1.3936
 1919SOL     OW17218   4.414   2.653   2.843 -0.0056 -0.0463  0.2116
 1919SOL    HW117219   4.364   2.688   2.917 -0.6248 -1.9758  0.6966
 1919SOL    HW217220   4.482   2.720   2.842  2.1861 -2.2733  0.6035
 1920SOL     OW17221   3.416   0.380   8.898  0.3810 -0.0717 -0.0862
 1920SOL    HW117222   3.463   0.378   8.815  1.2905  1.2434  0.3976
 1920SOL    HW217223   3.330   0.349   8.869  0.1411 -2.1969  2.9375
 1921SOL     OW17224   1.897   2.150  12.371 -0.4718  0.5051  0.5187
 1921SOL    HW117225   1.929   2.239  12.386  1.1554 -0.0676  0.4571
 1921SOL    HW217226   1.803   2.168  12.370 -0.6817 -0.5514  1.5452
 1922SOL     OW17227   0.073   1.620   8.957  0.1450 -0.3197 -0.3648
 1922SOL    HW117228   0.112   1.612   9.044 -2.7224 -0.2742  0.9407
 1922SOL    HW217229   0.008   1.689   8.968 -0.5494 -0.9260 -0.6975
 1923SOL     OW17230   2.448   2.897   5.585  0.0563  0.9844  0.0088
 1923SOL    HW117231   2.460   2.825   5.647  2.0055  0.8217 -0.5400
 1923SOL    HW217232   2.541   2.914   5.567  0.3054  1.3870  1.6895
 1924SOL     OW17233   0.497   4.321   6.787 -0.5734 -0.3014 -0.6196
 1924SOL    HW117234   0.487   4.238   6.741  1.1032 -1.9083  1.9889
 1924SOL    HW217235   0.420   4.325   6.844  0.2978 -2.6585  0.7159
 1925SOL     OW17236   4.616   0.103   9.829 -0.2256  0.3970  0.0800
 1925SOL    HW117237   4.558   0.028   9.818 -0.9418  0.6728  1.8808
 1925SOL    HW217238   4.660   0.107   9.744 -1.4399  0.2044 -0.5452
 1926SOL     OW17239   3.284   1.025   8.085  0.4269  0.2486  0.0462
 1926SOL    HW117240   3.299   1.095   8.022  0.3293 -0.3404 -0.6397
 1926SOL    HW217241   3.229   1.066   8.152 -1.4012 -0.3999 -1.0304
 1927SOL     OW17242   3.271   2.666   7.141 -0.1559  0.1536 -0.0909
 1927SOL    HW117243   3.200   2.686   7.081  1.4602 -0.2658 -2.1358
 1927SOL    HW217244   3.308   2.588   7.098  1.5396 -0.1078  1.8446
 1928SOL     OW17245   2.494   1.973  16.556 -0.2908 -0.2180  0.2602
 1928SOL    HW117246   2.557   1.901  16.560 -0.5455 -0.4155  0.6416
 1928SOL    HW217247   2.460   1.955  16.469  1.6137 -0.5008 -0.4343
 1929SOL     OW17248   3.312   2.493   8.260 -0.2540 -0.7774 -0.1281
 1929SOL    HW117249   3.375   2.485   8.332  0.4461 -2.0668 -0.8849
 1929SOL    HW217250   3.321   2.404   8.228 -0.3029 -1.3314  1.4062
 1930SOL     OW17251   1.363   0.152  16.997 -0.0403 -0.3434 -0.0694
 1930SOL    HW117252   1.452   0.179  17.019 -0.4165  1.9917 -1.4222
 1930SOL    HW217253   1.355   0.186  16.908  0.8470 -0.0969 -0.0524
 1931SOL     OW17254   0.191   1.448   7.517  0.1906 -0.6969 -0.5272
 1931SOL    HW117255   0.282   1.432   7.491  0.7080  0.8842  0.3771
 1931SOL    HW217256   0.142   1.415   7.441 -1.1679 -0.0583  0.0679
 1932SOL     OW17257   3.050   0.965   0.379  0.0003 -0.0197  0.5889
 1932SOL    HW117258   3.085   0.965   0.468 -0.9061  0.5654  0.9518
 1932SOL    HW217259   3.002   0.882   0.382  3.6559 -2.1329 -0.5761
 1933SOL     OW17260   4.327   2.692   7.424  0.1625 -0.4497 -0.1508
 1933SOL    HW117261   4.287   2.632   7.361  1.2945 -0.2101 -1.0959
 1933SOL    HW217262   4.291   2.771   7.383  2.4732  0.4330 -0.4695
 1934SOL     OW17263   2.608   1.782  10.487 -0.2632  0.0277 -0.0144
 1934SOL    HW117264   2.561   1.863  10.467 -0.6764 -0.1082  0.4060
 1934SOL    HW217265   2.684   1.801  10.432  1.5563 -0.4065  2.3552
 1935SOL     OW17266   4.705   0.492  11.361 -0.3741 -0.6310  0.0022
 1935SOL    HW117267   0.055   0.437  11.391 -0.6007 -0.7212  0.3806
 1935SOL    HW217268   4.631   0.432  11.370  1.8782 -3.5329 -0.6338
 1936SOL     OW17269   3.831   0.598  16.375 -0.0415 -0.9041  0.3209
 1936SOL    HW117270   3.806   0.553  16.456 -1.2816 -0.8229 -0.0043
 1936SOL    HW217271   3.746   0.609  16.331  0.4444 -1.5079 -0.7487
 1937SOL     OW17272   4.535   0.395   2.239  0.0246 -0.0120  0.4145
 1937SOL    HW117273   4.502   0.402   2.149  2.1246 -0.0131 -0.3573
 1937SOL    HW217274   4.611   0.450   2.222 -1.1965  2.4568  2.8605
 1938SOL     OW17275   3.096   4.608   1.035  0.7280 -0.2124 -0.4534
 1938SOL    HW117276   3.146   4.530   1.060 -0.2615 -0.9228 -0.7079
 1938SOL    HW217277   3.122   4.667   1.106 -1.2398  0.4619 -0.2993
 1939SOL     OW17278   1.843   0.203   6.528 -0.6288 -1.0462  0.3846
 1939SOL    HW117279   1.862   0.203   6.434 -0.9592 -0.9161  0.3164
 1939SOL    HW217280   1.930   0.183   6.563  0.6609  0.3161 -2.0362
 1940SOL     OW17281   3.078   1.292   5.400  0.4391 -0.2958 -0.0705
 1940SOL    HW117282   3.134   1.367   5.381  2.3066 -1.5567  0.4611
 1940SOL    HW217283   3.026   1.339   5.465 -0.1295  1.8541 -2.0939
 1941SOL     OW17284   2.562   0.905  13.778 -0.5297 -0.6921  0.7260
 1941SOL    HW117285   2.553   0.986  13.728  1.3940  0.6856  2.5839
 1941SOL    HW217286   2.528   0.931  13.864  2.7800 -0.2216  1.8836
 1942SOL     OW17287   3.389   2.234  13.850 -0.4212  0.3883 -0.5517
 1942SOL    HW117288   3.328   2.308  13.856 -0.6325  0.1163  0.5920
 1942SOL    HW217289   3.330   2.159  13.848 -0.5172  0.4116  2.2324
 1943SOL     OW17290   2.488   2.463   7.580  0.0612  0.1087  0.4130
 1943SOL    HW117291   2.523   2.436   7.665  1.1156 -1.2214 -0.4595
 1943SOL    HW217292   2.550   2.534   7.562  0.5054  0.0772  1.8014
 1944SOL     OW17293   0.725   1.538   1.777  0.2760 -0.3472  0.0219
 1944SOL    HW117294   0.699   1.552   1.686  0.9184 -1.0876 -0.2712
 1944SOL    HW217295   0.767   1.620   1.801  1.8777 -1.3806  0.7088
 1945SOL     OW17296   4.065   0.602   6.793  0.6785 -0.5027  0.2260
 1945SOL    HW117297   3.977   0.598   6.831 -1.0320  2.1840 -3.3621
 1945SOL    HW217298   4.106   0.544   6.857  1.3324 -2.3077 -1.8006
 1946SOL     OW17299   3.279   4.017   6.506 -0.4650  0.0507  0.3922
 1946SOL    HW117300   3.247   3.979   6.424  1.5738  2.4515 -1.5023
 1946SOL    HW217301   3.278   3.941   6.564 -1.4459  0.4160  0.8426
 1947SOL     OW17302   3.612   0.355   5.354 -0.8760 -0.0755 -0.6967
 1947SOL    HW117303   3.642   0.419   5.419 -0.8843 -0.9641  0.1956
 1947SOL    HW217304   3.533   0.403   5.329  0.0178  2.4637  1.3091
 1948SOL     OW17305   2.577   4.551   6.316  0.4453  0.6223  0.1774
 1948SOL    HW117306   2.565   4.636   6.275 -0.1841 -0.1744 -1.2835
 1948SOL    HW217307   2.520   4.563   6.392 -2.1619  1.7212 -1.9780
 1949SOL     OW17308   0.224   1.194  10.719  0.0719  0.3769  0.2216
 1949SOL    HW117309   0.255   1.106  10.740 -0.2774  0.5147  1.3012
 1949SOL    HW217310   0.259   1.243  10.792  2.3120 -1.1276  0.1436
 1950SOL     OW17311   3.040   2.989   4.427 -0.5367  0.2967 -0.6258
 1950SOL    HW117312   3.060   2.953   4.514 -0.4639  3.3513  0.5957
 1950SOL    HW217313   2.955   3.030   4.437 -0.0731  1.0777  0.0678
 1951SOL     OW17314   1.004   0.831   1.472  0.1959 -0.4764  0.1899
 1951SOL    HW117315   1.011   0.862   1.562 -2.1468  0.4417  0.0555
 1951SOL    HW217316   1.096   0.842   1.449 -0.2649  0.4928 -1.2093
 1952SOL     OW17317   2.602   4.015   1.358  0.8166 -0.9135 -0.1848
 1952SOL    HW117318   2.513   4.050   1.359  1.6316  1.0902  0.5800
 1952SOL    HW217319   2.590   3.932   1.405 -1.1234 -0.0541  0.8598
 1953SOL     OW17320   1.243   2.904  15.191 -0.2871 -0.4284  0.3472
 1953SOL    HW117321   1.325   2.890  15.144  0.7334  1.4102  1.5825
 1953SOL    HW217322   1.229   2.816  15.225 -0.1000  0.2744  2.2944
 1954SOL     OW17323   3.650   2.612   5.356 -0.3718  0.9764  0.0040
 1954SOL    HW117324   3.720   2.602   5.420  2.2372  0.9390 -2.9060
 1954SOL    HW217325   3.601   2.685   5.395  1.3047  1.3895  1.3548
 1955SOL     OW17326   0.108   2.797   9.178  0.4398 -0.4939 -0.1682
 1955SOL    HW117327   0.038   2.782   9.242  1.2377 -0.3052  0.7556
 1955SOL    HW217328   0.118   2.711   9.138 -0.4899 -0.3155 -0.7747
 1956SOL     OW17329   2.093   0.580  12.823 -0.4134 -0.7063 -0.3312
 1956SOL    HW117330   2.169   0.576  12.766 -0.2937 -1.9590 -0.0975
 1956SOL    HW217331   2.041   0.623  12.755  1.7582 -0.2288 -1.6716
 1957SOL     OW17332   3.734   1.968   4.199 -0.7494  0.0794 -0.3679
 1957SOL    HW117333   3.779   1.949   4.116 -0.2414 -0.2607 -0.0135
 1957SOL    HW217334   3.647   1.942   4.170 -0.0459  0.2534 -2.6565
 1958SOL     OW17335   0.431   2.424   8.528  0.1310  0.0720 -0.6546
 1958SOL    HW117336   0.498   2.406   8.593  0.3999 -0.8381 -1.1820
 1958SOL    HW217337   0.350   2.416   8.579  0.2401 -0.5505 -0.5784
 1959SOL     OW17338   3.911   3.291   6.596  0.0466  0.1268 -0.4007
 1959SOL    HW117339   3.866   3.331   6.670  0.3900 -1.7034  0.7925
 1959SOL    HW217340   3.842   3.250   6.545  0.4736 -0.9324 -0.1293
 1960SOL     OW17341   1.221   0.378   1.030 -0.0390 -0.0413 -0.5636
 1960SOL    HW117342   1.307   0.343   1.056 -0.2057  0.4474  0.6363
 1960SOL    HW217343   1.175   0.383   1.113  0.2200  0.1600 -0.4309
 1961SOL     OW17344   4.186   0.006   8.192  0.5320 -0.0207  0.6462
 1961SOL    HW117345   4.240   4.658   8.226  0.1186 -0.5700  0.1652
 1961SOL    HW217346   4.137   0.052   8.260  1.6477  1.4217  0.4810
 1962SOL     OW17347   0.003   2.149   2.466  0.1116 -0.2338  0.0200
 1962SOL    HW117348   0.067   2.141   2.537 -0.2490  0.9290  0.4822
 1962SOL    HW217349   4.698   2.058   2.459 -0.6748 -0.2159  2.6384
 1963SOL     OW17350   2.235   1.190   4.518  0.2091 -0.2055 -0.4627
 1963SOL    HW117351   2.219   1.096   4.511 -1.0504 -0.1103  1.0715
 1963SOL    HW217352   2.246   1.214   4.426 -0.9680  1.1060 -0.2533
 1964SOL     OW17353   1.710   3.250   8.115 -0.2862 -0.0746 -0.1677
 1964SOL    HW117354   1.631   3.275   8.163 -0.4341 -0.3815 -0.2486
 1964SOL    HW217355   1.771   3.235   8.187 -0.6408 -0.2275  0.1045
 1965SOL     OW17356   1.328   3.991   6.046  0.1914  0.2027 -0.4233
 1965SOL    HW117357   1.379   3.935   6.105  0.4814  0.2673 -0.6111
 1965SOL    HW217358   1.335   4.081   6.079  1.9302 -0.1749  0.2557
 1966SOL     OW17359   1.178   1.390   6.741 -0.2621 -0.4220 -0.5379
 1966SOL    HW117360   1.231   1.334   6.685 -2.9665 -1.2146 -2.3032
 1966SOL    HW217361   1.134   1.320   6.790  0.1032  0.0238  0.4356
 1967SOL     OW17362   0.380   3.188   2.189 -0.4307 -0.3664  0.7260
 1967SOL    HW117363   0.341   3.179   2.276  1.7779 -0.7975  1.6579
 1967SOL    HW217364   0.421   3.104   2.169  1.3812 -0.0712  3.2592
 1968SOL     OW17365   4.648   4.648  16.014  0.5110  0.6706 -0.1058
 1968SOL    HW117366   4.592   4.706  16.065  3.1579  1.3476  2.0559
 1968SOL    HW217367   4.647   4.687  15.926  2.0544  1.2632  0.1419
 1969SOL     OW17368   0.853   1.381   5.849  0.1049 -0.0490 -0.0610
 1969SOL    HW117369   0.811   1.398   5.932  2.9764  2.7325  0.8121
 1969SOL    HW217370   0.858   1.459   5.794 -2.7803  0.6922  0.7387
 1970SOL     OW17371   1.879   0.224   1.501 -0.3094  0.6498 -0.0226
 1970SOL    HW117372   1.794   0.239   1.542  0.1546  2.8902  0.1670
 1970SOL    HW217373   1.917   0.312   1.502  0.4115  0.3279  1.3705
 1971SOL     OW17374   0.811   4.375   4.541  0.3360  0.5557  0.0891
 1971SOL    HW117375   0.812   4.280   4.550  0.9154  0.5425 -0.0756
 1971SOL    HW217376   0.790   4.387   4.634 -1.2411  1.2137 -0.3723
 1972SOL     OW17377   0.277   2.770   0.763  0.1475 -0.1849  0.1819
 1972SOL    HW117378   0.291   2.862   0.737  1.0038 -0.7312 -1.3071
 1972SOL    HW217379   0.371   2.751   0.769 -0.0545 -1.0990  0.3139
 1973SOL     OW17380   0.355   0.984   9.363 -0.1444 -0.1651  0.6794
 1973SOL    HW117381   0.320   1.070   9.341 -1.4525  0.0768  3.6734
 1973SOL    HW217382   0.353   0.949   9.274  0.5752  0.1526  0.5401
 1974SOL     OW17383   4.329   1.321   5.965 -0.5775  0.5305  0.2903
 1974SOL    HW117384   4.290   1.237   5.943  0.1321  0.4805 -0.8011
 1974SOL    HW217385   4.298   1.374   5.892  2.0059  1.3216 -0.2506
 1975SOL     OW17386   3.723   1.625   7.700  0.4656 -0.4275 -0.0290
 1975SOL    HW117387   3.659   1.554   7.692 -0.0338 -0.4139  3.9846
 1975SOL    HW217388   3.800   1.582   7.736 -0.1307 -1.5042 -0.0416
 1976SOL     OW17389   4.486   1.522   5.711 -0.0995  0.2230 -0.3241
 1976SOL    HW117390   4.398   1.485   5.711  0.3414 -0.8130 -0.5665
 1976SOL    HW217391   4.466   1.616   5.714  0.5677  0.3522  0.1234
 1977SOL     OW17392   4.443   2.885   5.355  0.0365  0.2389 -0.4392
 1977SOL    HW117393   4.538   2.885   5.353  0.0522 -1.0963  0.2098
 1977SOL    HW217394   4.422   2.976   5.330 -0.5094  0.5362  1.1387
 1978SOL     OW17395   0.216   1.170   1.654  0.2984 -0.2601 -0.4698
 1978SOL    HW117396   0.179   1.174   1.566  0.5185  1.9666 -0.4696
 1978SOL    HW217397   0.289   1.108   1.646  1.5337  1.0047  0.7936
 1979SOL     OW17398   0.584   2.406  16.216 -0.8853  0.1865  0.7403
 1979SOL    HW117399   0.506   2.444  16.175 -2.7668 -2.1298  2.2137
 1979SOL    HW217400   0.555   2.331  16.267  0.0714 -1.5606 -1.3080
 1980SOL     OW17401   1.237   3.015  10.894  0.2251  0.1543 -0.5166
 1980SOL    HW117402   1.179   3.014  10.818 -1.0259 -0.7989  0.4639
 1980SOL    HW217403   1.247   2.920  10.904  1.5000  0.3645  0.3247
 1981SOL     OW17404   3.646   2.299   2.052  0.0535 -0.0748  0.5883
 1981SOL    HW117405   3.649   2.203   2.048 -1.9818 -0.1606  1.0102
 1981SOL    HW217406   3.631   2.324   1.961  2.0408 -0.3732  0.1704
 1982SOL     OW17407   1.303   3.880   2.695 -0.6241 -0.4593 -0.1383
 1982SOL    HW117408   1.335   3.946   2.756  0.2125 -1.3890  0.4279
 1982SOL    HW217409   1.319   3.913   2.606 -3.2008  1.2091  0.0106
 1983SOL     OW17410   3.427   3.793  14.067 -0.3781 -0.2114  0.1800
 1983SOL    HW117411   3.373   3.714  14.071  1.8442 -1.6858  0.5104
 1983SOL    HW217412   3.377   3.837  13.999 -0.8850  0.5222  1.0259
 1984SOL     OW17413   0.161   1.108   8.204 -0.5403  0.1826 -0.3502
 1984SOL    HW117414   0.247   1.136   8.174 -0.1152 -1.6519 -0.8516
 1984SOL    HW217415   0.101   1.142   8.138 -0.2167  2.2433  0.4261
 1985SOL     OW17416   1.772   0.854  12.811  0.9432 -0.2634  0.1056
 1985SOL    HW117417   1.829   0.892  12.878  1.9129  0.1280 -0.9423
 1985SOL    HW217418   1.835   0.798  12.768  0.6681 -0.7805  0.3753
 1986SOL     OW17419   2.376   3.118  17.561 -0.0047  0.1252  0.0694
 1986SOL    HW117420   2.391   3.105  17.655  1.8829  0.2303 -0.2199
 1986SOL    HW217421   2.436   3.050  17.529  0.3812  0.4076  0.1914
 1987SOL     OW17422   3.850   3.492   5.336  0.1943  0.1273  0.1671
 1987SOL    HW117423   3.768   3.445   5.351  0.2723 -0.5729 -1.5056
 1987SOL    HW217424   3.842   3.521   5.245  0.2289  0.1986  0.1864
 1988SOL     OW17425   1.659   2.664   5.734  0.3161 -0.0846  0.7076
 1988SOL    HW117426   1.631   2.752   5.708  0.0667 -0.3580  0.0490
 1988SOL    HW217427   1.691   2.681   5.823 -0.5792 -1.0774  1.2179
 1989SOL     OW17428   0.628   0.682  14.899 -0.2000 -0.4408  0.2513
 1989SOL    HW117429   0.565   0.729  14.845  0.1065  1.6879  1.7525
 1989SOL    HW217430   0.598   0.702  14.987 -1.2089  1.0750 -0.4461
 1990SOL     OW17431   0.292   0.374   3.455  0.2266  0.1834  0.0054
 1990SOL    HW117432   0.326   0.377   3.544  2.3774  0.9650 -0.8434
 1990SOL    HW217433   0.374   0.385   3.406  1.7922  1.3935  2.8907
 1991SOL     OW17434   2.942   0.465   6.417 -0.0448 -0.3901 -0.2460
 1991SOL    HW117435   2.897   0.497   6.339 -2.2577 -1.3404  0.6357
 1991SOL    HW217436   2.942   0.546   6.468 -1.1422 -2.4249  2.9849
 1992SOL     OW17437   3.636   3.866   3.509 -0.8075  0.0621 -0.4312
 1992SOL    HW117438   3.630   3.845   3.603  1.4214  0.7172 -0.1469
 1992SOL    HW217439   3.589   3.791   3.471 -0.5591 -0.0943 -0.4321
 1993SOL     OW17440   1.238   0.874  10.465 -0.3965 -0.5464  0.7992
 1993SOL    HW117441   1.202   0.870  10.554 -1.5470 -1.9649  0.2619
 1993SOL    HW217442   1.247   0.783  10.439  0.2087 -0.3387  0.2819
 1994SOL     OW17443   2.314   0.984  10.558 -1.0293 -0.2743 -0.4621
 1994SOL    HW117444   2.324   1.003  10.464  2.9898 -2.2118 -0.4596
 1994SOL    HW217445   2.219   0.995  10.564 -1.0285 -1.4935  1.4398
 1995SOL     OW17446   4.251   1.270   8.578 -0.3438 -0.0396  0.0016
 1995SOL    HW117447   4.221   1.357   8.552 -0.0565  0.0228 -0.1191
 1995SOL    HW217448   4.327   1.259   8.520  0.0265  1.1808  0.2531
 1996SOL     OW17449   2.494   2.014   8.160 -0.3654 -0.3192  0.0826
 1996SOL    HW117450   2.533   2.099   8.182  1.4686 -0.9326 -0.8193
 1996SOL    HW217451   2.516   2.009   8.067  0.8716 -0.1861  0.3736
 1997SOL     OW17452   3.847   0.586   7.477 -0.2732 -0.4225  1.0139
 1997SOL    HW117453   3.895   0.507   7.502  2.2441  0.3622 -1.4544
 1997SOL    HW217454   3.912   0.640   7.432  1.4651 -1.3164  2.4718
 1998SOL     OW17455   0.975   4.485  15.457 -0.4987 -0.0520  0.1877
 1998SOL    HW117456   1.018   4.424  15.398 -1.5865 -1.2174  0.6100
 1998SOL    HW217457   0.995   4.566  15.410  0.4978  1.5504  3.3212
 1999SOL     OW17458   0.910   3.590  15.905 -0.2016 -0.5422  0.2353
 1999SOL    HW117459   0.870   3.634  15.980  0.1096  0.4327 -0.1640
 1999SOL    HW217460   0.981   3.537  15.940 -0.6609  0.6283  2.9906
 2000SOL     OW17461   3.811   1.574  14.482 -0.5401 -0.2749  0.3123
 2000SOL    HW117462   3.769   1.507  14.429 -1.8340  0.7882  0.0223
 2000SOL    HW217463   3.898   1.535  14.492  0.6766  2.0385 -1.2750
 2001SOL     OW17464   0.100   0.478   3.838 -0.0943  0.5849  0.5413
 2001SOL    HW117465   0.123   0.410   3.774 -1.9114 -0.1955  0.7017
 2001SOL    HW217466   0.135   0.559   3.800  0.1018  0.1040 -0.2988
 2002SOL     OW17467   0.824   1.318   3.995  0.2899  0.1588  0.0785
 2002SOL    HW117468   0.896   1.365   4.037  0.4740 -0.4247  0.4146
 2002SOL    HW217469   0.798   1.248   4.056 -1.0003  0.3194 -0.2746
 2003SOL     OW17470   4.061   2.984   2.066  0.4131  0.3779 -0.3547
 2003SOL    HW117471   4.083   3.074   2.041 -0.2664  1.3288  2.4842
 2003SOL    HW217472   4.142   2.934   2.051  0.1438 -0.0260 -0.4528
 2004SOL     OW17473   4.571   3.457   1.467 -0.6081  0.2449 -0.3267
 2004SOL    HW117474   4.554   3.543   1.508 -0.7307 -0.5025  1.2054
 2004SOL    HW217475   4.660   3.455   1.435 -0.5244  0.9383 -0.1375
 2005SOL     OW17476   2.875   1.855  13.958  0.3061  0.9869  0.3359
 2005SOL    HW117477   2.880   1.941  13.917  2.6878  1.4061  1.4977
 2005SOL    HW217478   2.943   1.866  14.025 -0.6428 -0.4964  1.5598
 2006SOL     OW17479   3.737   4.397   4.335  0.1378  0.1797  0.2423
 2006SOL    HW117480   3.828   4.368   4.343  0.0994 -0.2238 -0.8053
 2006SOL    HW217481   3.744   4.472   4.395 -2.6494  1.7794 -1.4153
 2007SOL     OW17482   4.145   3.236  11.285  0.1353  0.2485  0.3876
 2007SOL    HW117483   4.196   3.231  11.365 -0.7930  1.1087  1.0272
 2007SOL    HW217484   4.118   3.145  11.268  2.5877 -0.5516  0.7606
 2008SOL     OW17485   4.681   0.921  15.254 -0.6222 -0.3553  0.2100
 2008SOL    HW117486   0.025   0.984  15.281 -1.6256  0.3969  0.9316
 2008SOL    HW217487   0.023   0.860  15.218  0.0848  0.5425 -0.0324
 2009SOL     OW17488   1.491   3.193   0.659 -0.0163 -0.1520 -0.4928
 2009SOL    HW117489   1.426   3.180   0.728 -0.0751 -0.5394 -0.6164
 2009SOL    HW217490   1.483   3.288   0.652 -0.0370 -0.0730  0.7270
 2010SOL     OW17491   0.963   3.327   2.019  0.3349 -0.3463 -0.0868
 2010SOL    HW117492   0.990   3.238   2.043  2.4128 -0.4253 -2.7133
 2010SOL    HW217493   1.049   3.368   2.008  0.7683 -0.9218  1.1296
 2011SOL     OW17494   2.427   1.510   7.540 -0.6565 -0.7323  0.0135
 2011SOL    HW117495   2.488   1.540   7.607  0.2539 -1.3454 -0.5442
 2011SOL    HW217496   2.364   1.462   7.593  0.1535 -1.6025  0.1766
 2012SOL     OW17497   2.603   2.302   2.498 -0.0024  0.0851 -0.0206
 2012SOL    HW117498   2.628   2.211   2.513  1.0287  0.6168  1.4821
 2012SOL    HW217499   2.508   2.293   2.492  0.0499 -0.4275 -0.1167
 2013SOL     OW17500   2.890   2.074   5.715  0.5485 -0.5459  0.0083
 2013SOL    HW117501   2.950   2.129   5.665 -0.8219  0.6729 -0.2878
 2013SOL    HW217502   2.835   2.035   5.647  0.6861  0.7262 -0.8247
 2014SOL     OW17503   0.001   4.212   2.621 -0.6606 -0.2229  0.2531
 2014SOL    HW117504   0.087   4.197   2.583 -0.4244 -0.2372  0.7928
 2014SOL    HW217505   4.656   4.155   2.585 -1.4364 -0.0139  1.3667
 2015SOL     OW17506   2.317   1.764   7.846  0.0887 -0.2008  0.2056
 2015SOL    HW117507   2.396   1.775   7.899  0.2031 -2.8367  0.5715
 2015SOL    HW217508   2.263   1.837   7.876  0.8062  0.2390  0.4393
 2016SOL     OW17509   3.917   0.475   5.715 -0.4453  0.2153 -0.2077
 2016SOL    HW117510   3.951   0.507   5.798 -2.8529  2.5831 -0.1299
 2016SOL    HW217511   3.983   0.497   5.649 -1.7278  0.8135 -1.2977
 2017SOL     OW17512   4.126   4.074   3.188 -0.1857  0.0491  0.3595
 2017SOL    HW117513   4.083   4.123   3.258 -2.3863 -0.9763 -0.2653
 2017SOL    HW217514   4.196   4.137   3.174 -1.7832  1.2883 -2.0839
 2018SOL     OW17515   1.814   2.492   4.103 -0.0714  0.1805 -0.2569
 2018SOL    HW117516   1.862   2.410   4.115  0.5103  0.6824  0.8892
 2018SOL    HW217517   1.813   2.517   4.196  1.2901  0.4434 -0.3125
 2019SOL     OW17518   4.507   0.535   7.752  0.8147  0.0695  0.6106
 2019SOL    HW117519   4.434   0.473   7.756 -0.5688  1.6442  0.0809
 2019SOL    HW217520   4.543   0.529   7.840  0.3291  0.1977  0.8215
 2020SOL     OW17521   2.689   4.163   2.636 -0.4516 -0.0493 -0.2853
 2020SOL    HW117522   2.750   4.237   2.628 -0.1220 -0.5236 -2.2171
 2020SOL    HW217523   2.609   4.213   2.650 -0.0346  0.6021 -0.2335
 2021SOL     OW17524   1.644   4.335   0.386 -0.4487  0.1033  0.3424
 2021SOL    HW117525   1.578   4.403   0.373  0.8673  0.9247 -2.1052
 2021SOL    HW217526   1.660   4.344   0.479  2.0391  2.1519 -0.2886
 2022SOL     OW17527   0.393   1.163   7.277 -0.1706  0.1942 -0.2452
 2022SOL    HW117528   0.418   1.240   7.327 -1.7920  1.9881 -2.2070
 2022SOL    HW217529   0.377   1.106   7.351  1.4963 -0.6354 -0.5136
 2023SOL     OW17530   0.478   0.903   3.900 -0.1156  0.6964 -0.3166
 2023SOL    HW117531   0.489   0.808   3.892 -0.3110  0.5236  1.3707
 2023SOL    HW217532   0.511   0.942   3.819  1.2316  1.4562  0.5980
 2024SOL     OW17533   3.639   4.111   0.796 -0.1125  0.3894 -0.2620
 2024SOL    HW117534   3.588   4.167   0.854 -0.4128  0.0090 -0.1607
 2024SOL    HW217535   3.583   4.113   0.718 -0.3832 -1.5020 -0.1120
 2025SOL     OW17536   2.325   1.172  16.543  0.0587  0.4288  1.4039
 2025SOL    HW117537   2.266   1.143  16.613 -0.0245  1.1186  1.6250
 2025SOL    HW217538   2.401   1.117  16.561 -1.3643 -0.9325  3.2828
 2026SOL     OW17539   2.099   4.284   2.251  0.5948  0.0724 -0.1924
 2026SOL    HW117540   2.183   4.245   2.275  0.2301 -0.6549 -0.0760
 2026SOL    HW217541   2.067   4.213   2.195 -1.0052  1.4050 -0.9971
 2027SOL     OW17542   3.721   1.814   4.897 -0.4257 -0.1703 -0.7198
 2027SOL    HW117543   3.692   1.881   4.836 -0.4139 -0.3710 -0.9495
 2027SOL    HW217544   3.781   1.859   4.957 -2.4045  0.2272  0.9550
 2028SOL     OW17545   1.512   1.350  10.007  0.3318 -0.1234  0.7432
 2028SOL    HW117546   1.538   1.298  10.083  1.3962 -0.1866  0.3375
 2028SOL    HW217547   1.592   1.349   9.953 -2.6811 -1.4117 -3.6869
 2029SOL     OW17548   1.218   4.317  16.816 -0.0801  0.1462  0.1886
 2029SOL    HW117549   1.145   4.262  16.785  1.6443 -2.5779  0.9310
 2029SOL    HW217550   1.270   4.257  16.869  0.1537  0.5301  0.3860
 2030SOL     OW17551   3.413   3.311  13.434 -0.5135 -0.7714  0.3152
 2030SOL    HW117552   3.335   3.365  13.418 -0.7433 -0.9080  0.9663
 2030SOL    HW217553   3.486   3.365  13.402 -0.6993  0.5684  2.1971
 2031SOL     OW17554   3.493   4.608   3.527  0.0419  0.0400 -0.2846
 2031SOL    HW117555   3.480   4.593   3.434 -1.7079 -0.8583  0.1149
 2031SOL    HW217556   3.578   4.651   3.521  0.3002 -0.1686  1.8150
 2032SOL     OW17557   1.898   0.791  14.681  0.4731  0.3301  0.0254
 2032SOL    HW117558   1.897   0.696  14.683  1.3841  0.3159 -0.4646
 2032SOL    HW217559   1.804   0.811  14.683  0.8387  2.0678  0.2155
 2033SOL     OW17560   0.345   3.294   5.293  0.0196  0.3626  0.0896
 2033SOL    HW117561   0.335   3.334   5.379 -1.2745  2.9075 -1.2490
 2033SOL    HW217562   0.263   3.244   5.286 -0.1026  0.5293  0.3142
 2034SOL     OW17563   3.592   4.700   8.632 -0.0862  0.4011  0.9556
 2034SOL    HW117564   3.665   0.026   8.596 -0.1693 -1.0354 -1.1731
 2034SOL    HW217565   3.521   0.035   8.605 -1.3936 -1.3878  0.5187
 2035SOL     OW17566   3.037   1.721   5.049  0.0438 -0.0402 -0.3343
 2035SOL    HW117567   2.977   1.732   5.122 -0.2934  2.0702 -0.9276
 2035SOL    HW217568   2.982   1.734   4.971 -0.2415  3.1901  0.3998
 2036SOL     OW17569   2.946   1.716   1.170  0.7045 -0.0619  0.2143
 2036SOL    HW117570   3.037   1.738   1.193  0.4576  1.0971  0.1076
 2036SOL    HW217571   2.904   1.694   1.253 -2.0658 -1.0206 -1.4494
 2037SOL     OW17572   2.367   1.663   6.854 -0.5424  0.8194  0.3357
 2037SOL    HW117573   2.364   1.711   6.937 -2.0220  0.9204  0.2208
 2037SOL    HW217574   2.285   1.694   6.818 -1.2077  0.3969  1.4858
 2038SOL     OW17575   3.005   4.559   9.131 -0.1522 -0.2748 -0.0823
 2038SOL    HW117576   3.068   4.554   9.059 -0.3723  0.9677 -0.3674
 2038SOL    HW217577   3.064   4.521   9.195  2.0242  2.8456 -0.2639
 2039SOL     OW17578   2.155   3.878   4.477  0.2525  0.1177  0.4948
 2039SOL    HW117579   2.161   3.865   4.382  3.0880  2.1848  0.3997
 2039SOL    HW217580   2.160   3.973   4.480  1.0802  0.0870  0.0141
 2040SOL     OW17581   1.628   3.581  14.981  0.1284  0.4337  0.1314
 2040SOL    HW117582   1.540   3.618  14.983  0.2098  0.5226  2.4425
 2040SOL    HW217583   1.670   3.632  14.913  0.1571  0.8165  0.4343
 2041SOL     OW17584   4.325   3.004   3.953 -0.1711 -0.0128 -0.0756
 2041SOL    HW117585   4.386   3.078   3.950 -1.6628  1.2072 -0.4271
 2041SOL    HW217586   4.250   3.042   3.999  1.0557  0.2406  1.6945
 2042SOL     OW17587   4.682   1.335   9.644  0.1326 -0.5184  0.0577
 2042SOL    HW117588   4.640   1.307   9.563 -0.0700 -1.7641  0.5874
 2042SOL    HW217589   4.694   1.250   9.687 -2.0698 -1.8334 -1.9558
 2043SOL     OW17590   1.330   1.120   3.340  0.3550  0.1517 -0.1179
 2043SOL    HW117591   1.255   1.157   3.295  1.3595  0.1428 -1.8026
 2043SOL    HW217592   1.372   1.202   3.368 -0.0805  0.1197  0.6209
 2044SOL     OW17593   4.108   0.115   5.540  0.0890 -0.6268  0.4513
 2044SOL    HW117594   4.142   0.203   5.526 -0.6157 -0.5900 -0.9853
 2044SOL    HW217595   4.037   0.137   5.600  0.5653  1.0622  0.3983
 2045SOL     OW17596   2.551   0.320   4.151 -0.2253  0.2354  0.6748
 2045SOL    HW117597   2.563   0.231   4.184  0.3227 -0.8237 -2.3034
 2045SOL    HW217598   2.604   0.374   4.210  2.2394 -2.0489  0.5769
 2046SOL     OW17599   4.064   4.504   4.451  0.1493  0.3198 -0.7734
 2046SOL    HW117600   4.101   4.455   4.524 -0.9266 -1.3410 -1.3377
 2046SOL    HW217601   3.979   4.527   4.488  0.6247 -0.0978  0.5520
 2047SOL     OW17602   0.883   0.473   3.817 -0.1559 -0.2426  0.0461
 2047SOL    HW117603   0.955   0.411   3.805 -1.5962 -2.0869  0.9728
 2047SOL    HW217604   0.837   0.436   3.892 -0.5659 -1.5156 -0.8326
 2048SOL     OW17605   3.003   4.616   5.226 -0.1339 -0.0597 -0.6279
 2048SOL    HW117606   3.098   4.627   5.231  0.0170 -2.7128  2.4572
 2048SOL    HW217607   2.972   4.694   5.272 -0.5477  0.0267 -1.0449
 2049SOL     OW17608   1.604   4.614  11.803  0.4690  0.4013  1.0560
 2049SOL    HW117609   1.585   4.707  11.809 -1.1022  0.1423  0.1598
 2049SOL    HW217610   1.694   4.603  11.772  0.5299  1.1063  0.9856
 2050SOL     OW17611   3.498   4.690   0.671 -0.3591 -0.7718  0.4395
 2050SOL    HW117612   3.499   4.596   0.689 -1.1561 -0.5801  1.4890
 2050SOL    HW217613   3.501   0.003   0.760  1.0787  1.8290 -0.6514
 2051SOL     OW17614   1.691   3.199   2.990  0.7530  0.5624 -0.1395
 2051SOL    HW117615   1.770   3.152   2.965  0.3250 -0.6225  0.6652
 2051SOL    HW217616   1.635   3.167   2.919  1.4509 -0.5355 -0.2080
 2052SOL     OW17617   3.216   4.085   7.093  0.3414 -0.1568  0.5823
 2052SOL    HW117618   3.163   4.048   7.163 -1.4501  1.2137 -0.0667
 2052SOL    HW217619   3.220   4.175   7.125  1.7711  0.1761 -0.5021
 2053SOL     OW17620   1.186   0.636   4.425 -0.3811 -0.6554  0.1538
 2053SOL    HW117621   1.215   0.682   4.347 -0.6647  0.1659  0.5349
 2053SOL    HW217622   1.269   0.601   4.457  0.1016 -0.0345 -0.4254
 2054SOL     OW17623   2.050   0.611  11.729  0.8107  0.1000  0.6682
 2054SOL    HW117624   1.999   0.559  11.791  1.6376 -3.0741 -1.3074
 2054SOL    HW217625   2.029   0.700  11.755  1.4969 -0.0587  1.7600
 2055SOL     OW17626   2.085   2.289   9.779  0.1466  0.5913  0.4498
 2055SOL    HW117627   2.061   2.208   9.824  0.6251  0.4252  0.4107
 2055SOL    HW217628   1.997   2.323   9.769  0.3445  0.6852 -1.0451
 2056SOL     OW17629   0.264   1.501   5.797  0.1753 -0.3246  0.6760
 2056SOL    HW117630   0.184   1.458   5.828  0.3568 -1.5421 -0.5761
 2056SOL    HW217631   0.325   1.434   5.826  0.5060 -0.2287  0.1939
 2057SOL     OW17632   1.220   2.808  16.290  0.1831  0.3885 -0.1883
 2057SOL    HW117633   1.190   2.779  16.204  0.1230  1.6999 -0.5984
 2057SOL    HW217634   1.315   2.815  16.282  0.1313  2.3994  1.1922
 2058SOL     OW17635   1.403   3.644   7.968  0.3342  0.6527  0.4758
 2058SOL    HW117636   1.344   3.674   8.037 -0.6601  1.3483 -0.6671
 2058SOL    HW217637   1.477   3.620   8.024  1.5571 -0.2461 -1.5223
 2059SOL     OW17638   1.980   0.738  12.187 -0.6139 -0.1026  0.3222
 2059SOL    HW117639   1.894   0.749  12.145 -0.4967 -0.4934 -0.0214
 2059SOL    HW217640   2.032   0.795  12.130 -2.9127  1.0965 -0.5878
 2060SOL     OW17641   1.389   3.023  13.441  0.3319 -0.0407  0.0761
 2060SOL    HW117642   1.431   2.956  13.495  2.4384  1.9408  0.8838
 2060SOL    HW217643   1.460   3.084  13.422  1.5296 -2.0106 -1.7178
 2061SOL     OW17644   1.477   1.368   3.747 -0.4640 -0.7910 -0.5317
 2061SOL    HW117645   1.447   1.454   3.778  1.2332 -0.7464  0.9836
 2061SOL    HW217646   1.569   1.369   3.774 -0.3089 -0.8776 -1.0717
 2062SOL     OW17647   2.275   4.067   2.225  0.5359  0.0014  0.2557
 2062SOL    HW117648   2.265   3.972   2.236  1.6568 -0.2190 -0.6063
 2062SOL    HW217649   2.339   4.061   2.154  0.6917  0.3419  0.3682
 2063SOL     OW17650   0.259   0.203   1.440 -0.2420  0.0863  0.0094
 2063SOL    HW117651   0.251   0.222   1.347 -0.7571 -2.1972 -0.4248
 2063SOL    HW217652   0.353   0.222   1.446 -0.4013  0.1725  2.2078
 2064SOL     OW17653   1.166   0.997  17.422 -0.9780  0.7556 -0.2580
 2064SOL    HW117654   1.073   0.976  17.420 -0.9468  0.6154 -0.2129
 2064SOL    HW217655   1.149   1.077  17.372  0.0654  0.9555 -0.2832
 2065SOL     OW17656   1.500   0.652  11.706  0.2370 -0.5698  0.5154
 2065SOL    HW117657   1.492   0.557  11.720 -0.2465 -0.7724 -1.0767
 2065SOL    HW217658   1.560   0.653  11.632 -0.0626  1.1700  0.2979
 2066SOL     OW17659   2.776   4.548  16.353 -0.2457 -0.0171 -0.6679
 2066SOL    HW117660   2.700   4.591  16.313 -1.3731 -0.3399  1.1428
 2066SOL    HW217661   2.745   4.458  16.348 -1.3983  0.4216 -1.6617
 2067SOL     OW17662   3.074   2.433   0.768 -0.8050  0.7412  0.0013
 2067SOL    HW117663   2.991   2.409   0.808 -0.6796 -0.3711 -0.4142
 2067SOL    HW217664   3.038   2.491   0.700 -1.1719  1.1063  0.5059
 2068SOL     OW17665   4.358   3.351   4.616  0.3657  0.0242 -0.5060
 2068SOL    HW117666   4.308   3.431   4.629 -1.6296 -1.2936  0.0126
 2068SOL    HW217667   4.424   3.368   4.549 -0.5336  2.3932 -0.7858
 2069SOL     OW17668   4.179   2.009   5.103 -0.0099  0.7510  0.2169
 2069SOL    HW117669   4.264   2.033   5.067 -0.7607 -0.2254 -2.2140
 2069SOL    HW217670   4.182   1.914   5.114  3.6700  0.9717  0.9799
 2070SOL     OW17671   3.781   1.996   4.500  0.1158  0.2421 -0.4463
 2070SOL    HW117672   3.852   2.042   4.545 -1.8228  1.3585  1.4668
 2070SOL    HW217673   3.802   1.992   4.407  2.4337  1.0517  0.0408
 2071SOL     OW17674   1.607   1.584  12.066  0.0649 -0.3858  0.4837
 2071SOL    HW117675   1.676   1.605  12.130  0.7932  2.1437 -1.1259
 2071SOL    HW217676   1.627   1.654  12.004 -1.1125 -0.3434  0.1402
 2072SOL     OW17677   0.669   2.645  16.742 -0.2238  0.1706  0.2548
 2072SOL    HW117678   0.661   2.571  16.803 -1.3338  1.7280  1.9785
 2072SOL    HW217679   0.734   2.694  16.792 -0.4089 -1.0962  1.7490
 2073SOL     OW17680   1.283   1.698   3.282 -0.6602  0.1123 -0.1141
 2073SOL    HW117681   1.212   1.739   3.233  0.5206 -0.9605 -2.7329
 2073SOL    HW217682   1.327   1.647   3.214  0.5153  1.5706 -0.4635
 2074SOL     OW17683   2.475   3.709   3.112  0.1175 -0.2271  0.1807
 2074SOL    HW117684   2.570   3.724   3.105 -0.6840  4.3086 -0.7589
 2074SOL    HW217685   2.469   3.619   3.082 -0.4251  0.7180 -2.4799
 2075SOL     OW17686   3.035   0.342   1.081 -0.4305 -0.0811  0.3521
 2075SOL    HW117687   2.962   0.340   1.143  0.3734  0.8818  1.3288
 2075SOL    HW217688   2.984   0.376   1.006  1.0214  1.4026  0.0374
 2076SOL     OW17689   3.647   0.319   8.443 -0.2991 -0.3990 -0.5036
 2076SOL    HW117690   3.606   0.350   8.524  1.4317 -1.7305  0.8732
 2076SOL    HW217691   3.626   0.394   8.388  0.1314  0.3219  0.3202
 2077SOL     OW17692   2.908   4.035   9.776 -0.3161 -0.1586  0.1342
 2077SOL    HW117693   2.822   4.043   9.734 -1.6996  1.6744  3.3830
 2077SOL    HW217694   2.955   4.106   9.732  1.0215 -0.8371  0.4540
 2078SOL     OW17695   3.954   0.092   6.947 -0.1805  1.0033 -0.0983
 2078SOL    HW117696   3.890   0.144   6.899 -1.6154 -1.3122 -0.6483
 2078SOL    HW217697   3.988   0.030   6.882 -0.0243 -1.1559  2.0444
 2079SOL     OW17698   2.614   3.489   7.302 -0.1566 -0.2345 -0.2856
 2079SOL    HW117699   2.594   3.432   7.376  0.3324  1.2404  0.9874
 2079SOL    HW217700   2.619   3.575   7.344  0.4699 -0.0856 -0.6740
 2080SOL     OW17701   3.824   2.383   8.533  0.2073 -1.5324 -0.0131
 2080SOL    HW117702   3.919   2.386   8.523  0.2915  1.1720  1.8490
 2080SOL    HW217703   3.799   2.291   8.536  1.0178 -1.7550 -0.0976
 2081SOL     OW17704   4.375   1.902   8.407  0.1619 -0.2493 -0.1710
 2081SOL    HW117705   4.302   1.958   8.382  1.1006  0.7435 -0.7219
 2081SOL    HW217706   4.401   1.949   8.487 -0.7208  0.4717 -0.3062
 2082SOL     OW17707   4.086   0.577   1.270 -0.1788  0.2791  0.0983
 2082SOL    HW117708   4.043   0.638   1.209 -2.9434 -0.4871  1.2553
 2082SOL    HW217709   4.030   0.500   1.260  0.3576 -0.1195  0.1460
 2083SOL     OW17710   4.677   3.850  12.533 -0.4337  0.1786 -0.8509
 2083SOL    HW117711   4.653   3.914  12.466  2.4425 -0.9573 -2.9695
 2083SOL    HW217712   0.048   3.864  12.545 -0.5301  0.2808 -0.2054
 2084SOL     OW17713   0.546   4.351   0.140  0.3397 -0.4621 -0.2596
 2084SOL    HW117714   0.570   4.290   0.209  0.2579  0.4771  0.6070
 2084SOL    HW217715   0.630   4.368   0.097 -0.1645 -0.1709 -1.1163
 2085SOL     OW17716   4.307   3.504  16.947  0.0891  0.0786 -0.0331
 2085SOL    HW117717   4.334   3.525  16.857 -0.4751  0.6713 -0.0579
 2085SOL    HW217718   4.368   3.434  16.973 -0.8711 -1.2262 -1.2772
 2086SOL     OW17719   2.495   4.070   5.070 -0.4042  0.2193  0.5548
 2086SOL    HW117720   2.467   4.065   4.978 -0.9885  0.4749  0.7239
 2086SOL    HW217721   2.470   3.981   5.094  1.8074  0.3911  3.5335
 2087SOL     OW17722   2.348   2.515   3.280  0.3566 -0.0031  0.3930
 2087SOL    HW117723   2.301   2.496   3.199 -2.4166  2.4507  1.4468
 2087SOL    HW217724   2.370   2.423   3.297  0.5507  0.1114  0.7643
 2088SOL     OW17725   1.204   4.283  11.564  0.2003 -0.2122  0.1369
 2088SOL    HW117726   1.221   4.194  11.532 -0.5159 -0.2670 -0.0766
 2088SOL    HW217727   1.168   4.324  11.486 -0.7592 -0.1322  0.6249
 2089SOL     OW17728   4.528   4.454   0.762  0.6215 -0.2114 -0.3025
 2089SOL    HW117729   4.576   4.511   0.822  1.2526  0.6839 -1.6583
 2089SOL    HW217730   4.435   4.455   0.783  0.9291 -0.2204  1.0601
 2090SOL     OW17731   0.438   0.091   8.061 -0.1671 -0.1449  0.3358
 2090SOL    HW117732   0.348   0.122   8.067  0.5741  2.4626 -2.6481
 2090SOL    HW217733   0.426   4.720   8.042  0.3308 -0.3696  1.1218
 2091SOL     OW17734   4.328   1.695   2.630  0.2584 -0.1281  0.5547
 2091SOL    HW117735   4.363   1.784   2.619  0.3277 -0.1990  0.1996
 2091SOL    HW217736   4.291   1.675   2.544  0.5630  0.2844  0.3279
 2092SOL     OW17737   4.607   2.679  11.710 -0.0406  0.3036 -0.0093
 2092SOL    HW117738   4.609   2.744  11.779 -2.7852 -0.1791  0.5176
 2092SOL    HW217739   4.531   2.707  11.660 -0.1340 -0.4711 -0.3059
 2093SOL     OW17740   2.309   3.236   7.248 -0.0181  0.4159 -0.6839
 2093SOL    HW117741   2.370   3.232   7.174  0.1462 -0.6072 -0.4951
 2093SOL    HW217742   2.359   3.270   7.322  0.1394  1.2777 -1.1763
 2094SOL     OW17743   2.830   2.315  10.241  0.2693  0.1910 -0.4711
 2094SOL    HW117744   2.782   2.268  10.173 -2.0502  2.4156 -0.3482
 2094SOL    HW217745   2.858   2.242  10.297  1.3982  0.6170 -0.4856
 2095SOL     OW17746   0.692   4.434   2.666 -0.3777 -0.1673 -0.0725
 2095SOL    HW117747   0.730   4.355   2.705 -1.9993  0.1640  2.1801
 2095SOL    HW217748   0.769   4.458   2.614  0.3513 -0.1225  0.9995
 2096SOL     OW17749   3.894   0.052  15.766  0.2216 -0.6186 -0.0632
 2096SOL    HW117750   3.968   0.091  15.720 -0.3544  0.1954 -0.2921
 2096SOL    HW217751   3.828   0.118  15.745  0.3852 -0.8257 -1.2397
 2097SOL     OW17752   2.297   1.681  10.655 -0.5337  0.1652  0.6308
 2097SOL    HW117753   2.213   1.703  10.615  0.2625  0.3993 -0.9207
 2097SOL    HW217754   2.318   1.590  10.632 -1.3413  0.4755 -1.3353
 2098SOL     OW17755   0.605   1.716   4.144  0.1060  0.4519  0.2422
 2098SOL    HW117756   0.570   1.699   4.057 -1.2680  4.0082  0.0770
 2098SOL    HW217757   0.667   1.786   4.125 -2.8269  2.8157 -0.6614
 2099SOL     OW17758   0.516   4.671   0.745  0.8241 -0.8563 -0.0144
 2099SOL    HW117759   0.573   4.597   0.768  0.1644 -1.8998 -1.7595
 2099SOL    HW217760   0.559   0.028   0.775  0.7052 -0.7638 -0.0937
 2100SOL     OW17761   3.438   2.579   4.266  0.0983 -0.3327 -0.2963
 2100SOL    HW117762   3.456   2.548   4.355  1.9958 -0.1107 -0.6006
 2100SOL    HW217763   3.452   2.671   4.289  1.1000 -0.7559  0.7755
 2101SOL     OW17764   3.239   0.073  10.668  0.0397 -0.0662 -0.1350
 2101SOL    HW117765   3.298   0.064  10.593  0.1581  2.3008 -0.3264
 2101SOL    HW217766   3.183   4.718  10.664 -2.9305  2.0774 -0.3548
 2102SOL     OW17767   0.018   2.127   3.972  0.0628  0.2623  0.5567
 2102SOL    HW117768   0.098   2.177   3.986 -1.0635  1.3602  3.1941
 2102SOL    HW217769   0.010   2.071   4.049  0.1567  0.8732  1.0112
 2103SOL     OW17770   1.869   0.786   5.056 -0.3761  0.1692  0.3628
 2103SOL    HW117771   1.963   0.792   5.072 -0.9671 -0.7873  4.2929
 2103SOL    HW217772   1.845   0.728   5.128 -1.4846 -1.1184 -1.0310
 2104SOL     OW17773   2.195   3.715   3.679 -0.2121 -0.3630 -0.0435
 2104SOL    HW117774   2.190   3.774   3.604 -2.6448 -1.0395 -0.3988
 2104SOL    HW217775   2.161   3.646   3.621  1.1784 -0.5821 -0.6231
 2105SOL     OW17776   1.933   4.331   3.752 -0.0176  0.1299 -0.3114
 2105SOL    HW117777   1.891   4.274   3.816  1.0075  1.1283  1.2206
 2105SOL    HW217778   1.999   4.378   3.802  0.7528  0.9439 -2.0964
 2106SOL     OW17779   2.762   2.839   8.934 -0.1365  0.5328  0.2354
 2106SOL    HW117780   2.831   2.891   8.977 -1.1376  1.6325  0.5129
 2106SOL    HW217781   2.758   2.870   8.844 -0.3290 -0.2059 -0.0091
 2107SOL     OW17782   1.095   3.225   3.979 -0.1866 -0.3045  0.1998
 2107SOL    HW117783   1.047   3.307   3.972  2.0701  1.0769  0.8362
 2107SOL    HW217784   1.158   3.234   3.908 -2.0636 -0.5918 -1.4889
 2108SOL     OW17785   0.911   3.906   8.016 -0.6432  0.8278  0.1113
 2108SOL    HW117786   0.882   3.943   8.100 -1.8953 -1.0362  0.4853
 2108SOL    HW217787   0.997   3.948   8.015 -0.3534  0.1306 -2.7101
 2109SOL     OW17788   4.576   1.439   0.581 -0.1611  0.3324 -0.0785
 2109SOL    HW117789   4.494   1.404   0.617 -0.2538 -1.5791 -2.1542
 2109SOL    HW217790   4.591   1.510   0.643 -0.7031  0.7543 -0.4407
 2110SOL     OW17791   2.898   3.198  10.974  0.4052  0.1062  0.2221
 2110SOL    HW117792   2.945   3.218  10.893 -3.1465  2.6516 -1.2441
 2110SOL    HW217793   2.973   3.173  11.027 -0.3271 -1.6801  0.3959
 2111SOL     OW17794   0.168   0.915   1.503 -0.7481 -0.4748 -0.3115
 2111SOL    HW117795   0.223   0.836   1.507  0.2619  0.2720  0.5551
 2111SOL    HW217796   0.144   0.920   1.411 -1.4023  0.2427 -0.1041
 2112SOL     OW17797   0.971   0.408   9.999 -0.8990  0.1269 -0.1928
 2112SOL    HW117798   0.979   0.475  10.066  1.4335  0.1795 -0.5280
 2112SOL    HW217799   1.051   0.358  10.014  0.2911  1.7318 -1.1995
 2113SOL     OW17800   1.528   4.016   4.980 -0.2569  0.0420  0.1379
 2113SOL    HW117801   1.548   3.965   5.059 -1.5436  2.1357  1.8267
 2113SOL    HW217802   1.601   4.003   4.920 -2.2383 -3.1660 -1.5710
 2114SOL     OW17803   0.005   1.360  15.556 -0.0096 -0.3335 -0.1299
 2114SOL    HW117804   0.026   1.267  15.566  1.7028  0.0800  0.2243
 2114SOL    HW217805   0.093   1.398  15.554 -0.7143  1.3340  1.9080
 2115SOL     OW17806   0.403   1.069   4.094 -0.0592 -0.9548  0.5703
 2115SOL    HW117807   0.402   1.151   4.044 -1.8171 -2.1137 -1.2723
 2115SOL    HW217808   0.419   1.008   4.022 -1.1546 -0.3246 -0.2054
 2116SOL     OW17809   3.538   1.319   6.320  0.0273  0.3124  0.1251
 2116SOL    HW117810   3.445   1.314   6.296  0.1252  2.4021 -0.6532
 2116SOL    HW217811   3.543   1.397   6.375 -1.9867  1.0349 -0.7007
 2117SOL     OW17812   1.184   3.455   7.330 -0.0940  0.0285  0.0480
 2117SOL    HW117813   1.100   3.495   7.353  0.1717  1.9329 -2.2463
 2117SOL    HW217814   1.226   3.446   7.416 -1.5950  0.1012  0.7863
 2118SOL     OW17815   2.220   0.268   1.569  0.2479 -0.1100  0.1838
 2118SOL    HW117816   2.288   0.300   1.628  0.0737  0.2413  0.1961
 2118SOL    HW217817   2.194   0.351   1.528 -1.0843 -0.9717 -0.7166
 2119SOL     OW17818   1.033   0.869   5.290 -0.0436  0.3244 -0.2845
 2119SOL    HW117819   1.038   0.964   5.280 -3.2393  0.7660  2.1560
 2119SOL    HW217820   1.102   0.846   5.228 -0.5591 -1.1269 -0.3252
 2120SOL     OW17821   1.637   0.713  14.105  0.4773 -0.5539 -1.0212
 2120SOL    HW117822   1.705   0.736  14.043  0.2227 -4.2831 -2.6500
 2120SOL    HW217823   1.607   0.626  14.077 -0.1495 -1.0161  1.0739
 2121SOL     OW17824   4.326   3.647   7.363 -0.4022 -0.5489 -0.1280
 2121SOL    HW117825   4.396   3.593   7.327 -0.2775  0.5282 -1.4866
 2121SOL    HW217826   4.368   3.727   7.396  0.9172 -1.2171 -0.2368
 2122SOL     OW17827   2.951   3.437   5.308  0.1122  0.7475  0.0322
 2122SOL    HW117828   2.879   3.470   5.362 -0.8442  0.3250 -0.9838
 2122SOL    HW217829   3.024   3.491   5.339 -1.4176  2.8361  0.0389
 2123SOL     OW17830   1.583   2.644  15.472  0.3876 -0.4402 -0.6686
 2123SOL    HW117831   1.503   2.693  15.454 -0.2964 -0.9976  0.8448
 2123SOL    HW217832   1.550   2.570  15.521 -3.4032 -0.0086 -2.5864
 2124SOL     OW17833   0.578   2.622  15.572 -0.5651  1.2797 -0.1232
 2124SOL    HW117834   0.540   2.709  15.558 -0.5674  1.1952 -0.6553
 2124SOL    HW217835   0.504   2.563  15.560 -0.6338  0.9147  2.0903
 2125SOL     OW17836   4.341   1.920  15.492  0.0443 -0.1199 -0.1105
 2125SOL    HW117837   4.415   1.917  15.552  2.7417 -2.2794 -3.5884
 2125SOL    HW217838   4.311   1.830  15.493 -0.2713 -0.0170 -0.1360
 2126SOL     OW17839   2.312   2.720   9.971  0.6294  0.2325 -0.4240
 2126SOL    HW117840   2.262   2.655   9.922  1.0833  1.1912 -2.1413
 2126SOL    HW217841   2.326   2.672  10.053  1.4895  2.2724  0.6298
 2127SOL     OW17842   1.499   0.351  12.074 -0.0704  0.3984  0.0958
 2127SOL    HW117843   1.421   0.346  12.018  0.1711 -1.1312 -0.0988
 2127SOL    HW217844   1.468   0.309  12.154 -1.5329 -1.0045 -1.1959
 2128SOL     OW17845   3.308   3.773   3.962  0.5958 -0.3971  0.0295
 2128SOL    HW117846   3.232   3.748   3.910  0.9129  0.5178 -0.8838
 2128SOL    HW217847   3.264   3.840   4.016 -0.2736 -0.6839 -0.3269
 2129SOL     OW17848   1.108   4.569   1.540  0.1296  0.5388  0.1202
 2129SOL    HW117849   1.087   4.493   1.595  1.8589 -0.6604 -0.8944
 2129SOL    HW217850   1.019   4.587   1.511 -0.2896  1.0374  1.6885
 2130SOL     OW17851   2.299   0.781   3.802  0.3910 -0.1356 -0.1974
 2130SOL    HW117852   2.362   0.797   3.872  0.2823  2.1883 -0.6322
 2130SOL    HW217853   2.332   0.812   3.718 -1.3854  0.6127 -0.6127
 2131SOL     OW17854   1.532   2.123   6.951 -1.2173 -0.0219  0.0800
 2131SOL    HW117855   1.480   2.055   6.907  2.7039 -2.6489 -0.4519
 2131SOL    HW217856   1.478   2.150   7.026 -2.8506  0.0236 -1.1121
 2132SOL     OW17857   1.125   1.056   0.583  0.2748  0.1835  0.6226
 2132SOL    HW117858   1.141   1.009   0.501  1.0884  0.0663  0.8471
 2132SOL    HW217859   1.213   1.095   0.589 -0.3017  1.0869  2.9852
 2133SOL     OW17860   3.329   2.753   6.696 -0.0763  0.3030 -0.0371
 2133SOL    HW117861   3.235   2.743   6.709 -0.4058  3.0472 -0.1564
 2133SOL    HW217862   3.352   2.832   6.745 -0.5646 -0.4537  1.4002
 2134SOL     OW17863   2.726   2.916   4.981 -0.3591  0.2165 -0.1220
 2134SOL    HW117864   2.735   2.870   4.898  1.4191  1.0246 -0.3783
 2134SOL    HW217865   2.631   2.924   4.989 -0.5365 -0.4458 -1.5977
 2135SOL     OW17866   4.541   0.853   7.053  0.4122  0.4316 -0.2817
 2135SOL    HW117867   4.453   0.860   7.015  1.2472 -1.7915 -2.5877
 2135SOL    HW217868   4.563   0.946   7.064 -0.4519  0.8813 -2.3633
 2136SOL     OW17869   0.205   2.867  14.266  0.2956  0.6963 -0.0441
 2136SOL    HW117870   0.125   2.917  14.252 -0.3262  0.2268  1.7604
 2136SOL    HW217871   0.216   2.869  14.361  3.3604 -1.0805 -0.3514
 2137SOL     OW17872   2.703   3.667  17.222  0.2610  0.3355  0.2716
 2137SOL    HW117873   2.788   3.636  17.256  0.0845 -1.1408 -0.6473
 2137SOL    HW217874   2.719   3.761  17.219 -1.7900  0.5670 -3.1757
 2138SOL     OW17875   0.805   4.541   1.989  0.2047 -0.0369 -0.1479
 2138SOL    HW117876   0.749   4.613   2.019 -2.1470 -1.6530 -0.6248
 2138SOL    HW217877   0.745   4.468   2.007 -2.0184  1.1296 -2.7629
 2139SOL     OW17878   0.664   0.847   4.556  0.1826  0.9670  0.7147
 2139SOL    HW117879   0.676   0.933   4.515 -0.5465  1.6021  1.8427
 2139SOL    HW217880   0.750   0.805   4.550 -1.1559 -1.8024  0.8873
 2140SOL     OW17881   2.785   0.746  17.378 -0.7664  0.3055 -0.2460
 2140SOL    HW117882   2.817   0.727  17.290 -1.1824 -1.0849 -0.1130
 2140SOL    HW217883   2.812   0.836  17.390 -1.0191  0.3346  0.1210
 2141SOL     OW17884   1.099   0.547  14.626 -0.2730 -0.2170  0.1889
 2141SOL    HW117885   1.005   0.551  14.610 -0.7877 -4.8552  2.1327
 2141SOL    HW217886   1.128   0.581  14.541 -2.6765 -1.8407 -1.2701
 2142SOL     OW17887   0.924   0.036   4.578 -0.6812 -0.1133 -0.0494
 2142SOL    HW117888   0.926   4.681   4.633 -0.6108 -0.2053 -0.1830
 2142SOL    HW217889   0.940   0.000   4.490 -0.6051 -1.8204  0.6671
 2143SOL     OW17890   2.497   2.876  14.179  0.7345  0.2324  0.7625
 2143SOL    HW117891   2.579   2.886  14.227 -0.0525  3.2048  1.5455
 2143SOL    HW217892   2.525   2.846  14.093 -0.4200 -1.4979  0.9953
 2144SOL     OW17893   2.868   2.102   9.810 -0.0568  0.2890 -0.4201
 2144SOL    HW117894   2.963   2.114   9.803  0.1676 -0.2220  1.8891
 2144SOL    HW217895   2.863   2.057   9.894  1.7885 -2.8783 -1.9858
 2145SOL     OW17896   2.823   1.923  16.003  0.7188 -0.1199 -0.2723
 2145SOL    HW117897   2.862   2.009  16.023 -0.2707  0.1855  0.3352
 2145SOL    HW217898   2.892   1.862  16.029  2.1258  2.6484  2.5138
 2146SOL     OW17899   2.207   1.157   8.139 -0.2040 -0.2919 -0.0659
 2146SOL    HW117900   2.192   1.246   8.108  0.8132 -1.0284 -2.6643
 2146SOL    HW217901   2.157   1.156   8.220  1.1321  0.7005  0.7720
 2147SOL     OW17902   3.730   2.146   8.541  0.4948 -0.0602 -0.0588
 2147SOL    HW117903   3.797   2.082   8.563  0.7219  1.1741  2.8750
 2147SOL    HW217904   3.653   2.091   8.555 -0.2429  0.6959 -1.0871
 2148SOL     OW17905   0.619   0.898   3.066  0.3328 -0.3934 -0.1275
 2148SOL    HW117906   0.637   0.812   3.102  0.3055  0.8594  2.8933
 2148SOL    HW217907   0.706   0.938   3.069 -0.5285  1.5351 -0.5016
 2149SOL     OW17908   3.976   2.107   0.518  0.0838 -0.0522  0.4830
 2149SOL    HW117909   4.037   2.172   0.483 -0.4926 -0.0811 -0.5592
 2149SOL    HW217910   4.015   2.025   0.488 -1.1886 -0.4671 -0.0094
 2150SOL     OW17911   0.552   3.148   7.689 -0.3839  0.1422 -0.0274
 2150SOL    HW117912   0.618   3.079   7.698 -0.7809  0.0616  2.2465
 2150SOL    HW217913   0.515   3.109   7.610 -0.1372 -2.7470  1.2551
 2151SOL     OW17914   4.560   3.439   4.418 -0.1186  0.0392  0.4127
 2151SOL    HW117915   4.646   3.412   4.448  0.8955  1.2560 -1.4237
 2151SOL    HW217916   4.588   3.529   4.402  0.0277 -0.3280 -1.4074
 2152SOL     OW17917   4.260   4.009   3.893 -0.5743  0.2627  0.0644
 2152SOL    HW117918   4.318   3.935   3.877  1.4617  2.1150 -1.2081
 2152SOL    HW217919   4.268   4.038   3.802 -0.0781 -0.7559 -0.2087
 2153SOL     OW17920   2.251   0.390   8.374 -0.1626 -0.9372 -0.7516
 2153SOL    HW117921   2.334   0.344   8.364  0.5828  0.6512 -1.8524
 2153SOL    HW217922   2.181   0.332   8.345  0.1047 -0.8761 -1.5061
 2154SOL     OW17923   0.369   1.426  16.581 -0.1625 -0.1654 -0.1907
 2154SOL    HW117924   0.290   1.406  16.531 -0.1387  1.4555 -0.8563
 2154SOL    HW217925   0.363   1.368  16.657  0.3326 -0.8994 -0.7028
 2155SOL     OW17926   3.672   2.911  16.356 -0.0811  0.0433 -0.1935
 2155SOL    HW117927   3.754   2.958  16.339 -0.5628  0.4983 -1.2378
 2155SOL    HW217928   3.699   2.832  16.404 -1.8573 -1.0954 -1.0615
 2156SOL     OW17929   1.736   2.447   1.889  0.1412  0.1919 -0.1444
 2156SOL    HW117930   1.750   2.446   1.984 -1.0253 -3.5243 -0.0247
 2156SOL    HW217931   1.702   2.360   1.867  0.3368  0.5522 -1.8941
 2157SOL     OW17932   0.811   3.327   8.613 -0.4096  0.1520  0.8062
 2157SOL    HW117933   0.759   3.382   8.672 -1.2101  2.3767 -1.9737
 2157SOL    HW217934   0.771   3.346   8.528  0.2763  0.4899  0.5588
 2158SOL     OW17935   3.093   0.903   2.174  0.5058 -0.0422  0.6105
 2158SOL    HW117936   3.037   0.862   2.108  0.4530 -0.0110  0.6364
 2158SOL    HW217937   3.149   0.955   2.116 -1.2922  0.2778 -0.8242
 2159SOL     OW17938   2.670   2.580   6.964 -0.2065  0.3517 -0.2984
 2159SOL    HW117939   2.693   2.636   7.037 -1.4780  0.2152  0.2202
 2159SOL    HW217940   2.665   2.640   6.890 -2.9460  0.6369  0.1116
 2160SOL     OW17941   4.399   2.953   9.074 -0.2594  0.3712 -0.0090
 2160SOL    HW117942   4.420   2.965   8.982  1.1952  2.8915  0.6220
 2160SOL    HW217943   4.478   2.982   9.121 -1.1374  0.6709  1.2736
 2161SOL     OW17944   2.526   3.723   4.211 -0.1802 -0.3798 -0.4915
 2161SOL    HW117945   2.432   3.722   4.191 -0.2335 -1.7506 -0.1915
 2161SOL    HW217946   2.531   3.636   4.251  0.8761  0.9108  2.1778
 2162SOL     OW17947   0.656   2.177  17.047  0.0188  0.4563 -1.3616
 2162SOL    HW117948   0.703   2.240  17.102 -2.1731  0.1831  0.8241
 2162SOL    HW217949   0.615   2.241  16.988 -2.2927 -2.2079 -2.6514
 2163SOL     OW17950   3.506   1.381   4.245 -0.0228  0.1419  0.2195
 2163SOL    HW117951   3.547   1.295   4.238 -1.6126 -0.6083  0.1366
 2163SOL    HW217952   3.436   1.389   4.181 -0.9069 -0.1080  1.1536
 2164SOL     OW17953   2.750   0.832   4.054  0.0610 -0.1819 -0.1354
 2164SOL    HW117954   2.805   0.856   3.979  0.7646 -0.6884  0.2243
 2164SOL    HW217955   2.754   0.919   4.094 -3.6510  0.2864 -0.7689
 2165SOL     OW17956   0.626   0.770  10.384  0.1810 -0.4028  0.1542
 2165SOL    HW117957   0.588   0.855  10.402  1.5760  0.5624 -1.4463
 2165SOL    HW217958   0.551   0.711  10.378 -0.3811  0.3064  0.1977
 2166SOL     OW17959   0.871   2.673   7.721  0.1622 -0.3264 -0.1147
 2166SOL    HW117960   0.832   2.691   7.635  2.0317  0.1423 -0.8555
 2166SOL    HW217961   0.939   2.740   7.727  1.4982 -1.6637 -0.5643
 2167SOL     OW17962   0.232   0.970   9.829 -0.3341  0.3199  0.5018
 2167SOL    HW117963   0.313   0.919   9.820 -0.3513 -0.3758  4.3928
 2167SOL    HW217964   0.179   0.900   9.869  0.0333  0.4294  1.1760
 2168SOL     OW17965   1.396   0.331   4.578  0.3723 -0.3071 -0.1734
 2168SOL    HW117966   1.395   0.417   4.538 -1.3004 -0.1830  0.1101
 2168SOL    HW217967   1.339   0.352   4.653 -0.5485  1.9363 -1.5090
 2169SOL     OW17968   4.570   2.285  15.713  0.0473  0.3190  0.4633
 2169SOL    HW117969   4.651   2.274  15.763  1.8169 -2.2462 -3.0406
 2169SOL    HW217970   4.583   2.379  15.699  0.3336 -0.1890 -2.5622
 2170SOL     OW17971   1.542   0.246   1.331 -0.3126 -0.0194 -0.0521
 2170SOL    HW117972   1.567   0.336   1.353  0.0160  0.1357 -1.0163
 2170SOL    HW217973   1.469   0.229   1.390 -0.9230 -0.4158 -0.9131
 2171SOL     OW17974   4.131   4.645  14.614 -0.9903 -0.0861  0.0869
 2171SOL    HW117975   4.087   0.002  14.583  2.5289  1.3503 -1.2891
 2171SOL    HW217976   4.211   4.649  14.560 -0.4497 -0.9827  0.8221
 2172SOL     OW17977   2.572   1.817   3.161  0.0333  0.9453 -0.6690
 2172SOL    HW117978   2.526   1.787   3.240  2.6590  0.2807  0.5892
 2172SOL    HW217979   2.540   1.907   3.153  0.2293  1.1289  0.4755
 2173SOL     OW17980   3.165   3.159   3.315  0.4219  0.1341 -0.2301
 2173SOL    HW117981   3.110   3.163   3.237  1.9857  0.3126 -1.3266
 2173SOL    HW217982   3.175   3.064   3.324  0.6469  0.1492 -0.3103
 2174SOL     OW17983   1.481   0.453   6.501 -0.2434 -0.7585 -0.6903
 2174SOL    HW117984   1.408   0.412   6.546  0.7623  0.4417  2.0227
 2174SOL    HW217985   1.463   0.547   6.490 -3.6971 -1.1649  1.5771
 2175SOL     OW17986   0.505   2.593   3.405 -0.1898 -0.4843  0.4105
 2175SOL    HW117987   0.581   2.589   3.346 -0.2634  3.2619  0.0822
 2175SOL    HW217988   0.535   2.647   3.478  2.3895 -0.3302 -0.7565
 2176SOL     OW17989   2.989   0.155  14.308 -0.7917  0.5262 -0.1005
 2176SOL    HW117990   3.017   0.100  14.381 -0.8280  1.2831  0.4795
 2176SOL    HW217991   2.917   0.105  14.269 -2.0814  0.6652  2.1498
 2177SOL     OW17992   2.955   2.869   2.498  0.1846 -0.1690  0.3779
 2177SOL    HW117993   2.961   2.930   2.571 -0.5296  1.7863 -1.2136
 2177SOL    HW217994   3.034   2.880   2.445 -0.7323  1.0207 -0.7228
 2178SOL     OW17995   4.433   2.242   1.378  0.4023 -0.3316  0.5151
 2178SOL    HW117996   4.341   2.238   1.352  0.3904 -2.6491  0.8676
 2178SOL    HW217997   4.444   2.324   1.426 -1.8878 -0.7828  1.8392
 2179SOL     OW17998   4.644   2.296   6.462  0.1438 -0.1949 -0.0241
 2179SOL    HW117999   4.693   2.376   6.444  0.0485 -0.4687 -1.5239
 2179SOL    HW218000   4.561   2.339   6.483  0.6306  0.8225 -0.1688
 2180SOL     OW18001   1.016   2.345  11.128  0.0192  0.8433 -0.0467
 2180SOL    HW118002   0.947   2.391  11.176 -0.2525 -0.1585  0.5175
 2180SOL    HW218003   1.055   2.417  11.078  0.7626  1.1923  1.0356
 2181SOL     OW18004   4.096   3.662   5.137  0.0827 -0.3030  0.5970
 2181SOL    HW118005   4.008   3.624   5.138 -0.1712  0.0861 -4.0630
 2181SOL    HW218006   4.118   3.656   5.230  0.2837 -0.3454  0.5475
 2182SOL     OW18007   2.379   1.010   9.003  0.4236 -0.6418  0.6967
 2182SOL    HW118008   2.473   1.017   9.018  1.0032 -0.6805 -3.0269
 2182SOL    HW218009   2.373   1.039   8.912  0.7519  0.1836  0.9363
 2183SOL     OW18010   2.224   2.302   2.225 -0.6741 -0.0667 -0.5643
 2183SOL    HW118011   2.224   2.380   2.170 -0.6459 -0.5393 -1.2347
 2183SOL    HW218012   2.184   2.236   2.168  0.8487 -0.6158 -0.9814
 2184SOL     OW18013   2.988   0.619   9.580 -0.1678 -0.0793 -0.1632
 2184SOL    HW118014   3.067   0.601   9.632 -1.8416 -1.0685  2.0361
 2184SOL    HW218015   3.040   0.648   9.505  2.1329 -1.7995  0.7753
 2185SOL     OW18016   1.091   4.069  13.003  0.2161  0.0193  0.2795
 2185SOL    HW118017   1.177   4.073  12.962 -0.3578 -0.6237 -0.9876
 2185SOL    HW218018   1.096   3.987  13.051  0.6748 -0.1504 -0.0594
 2186SOL     OW18019   2.226   3.208   4.039 -0.3677 -0.4892  0.1968
 2186SOL    HW118020   2.230   3.297   4.002 -1.2232 -0.3972  0.3297
 2186SOL    HW218021   2.303   3.167   4.000 -0.4455 -0.0711 -0.3967
 2187SOL     OW18022   1.926   3.349  12.863  0.0539  0.1702 -0.1889
 2187SOL    HW118023   1.855   3.340  12.927 -0.7492  0.6535 -1.0254
 2187SOL    HW218024   1.985   3.279  12.892  0.2910  0.7321  0.6857
 2188SOL     OW18025   0.813   2.399  12.105  0.1577  0.5759 -0.4363
 2188SOL    HW118026   0.896   2.356  12.125  0.7343  1.0327 -1.8849
 2188SOL    HW218027   0.756   2.324  12.088 -0.4538  1.6724 -3.2508
 2189SOL     OW18028   2.702   2.530   9.970  0.3193 -0.5954 -0.1048
 2189SOL    HW118029   2.740   2.580  10.042 -2.1757 -0.3219  1.0444
 2189SOL    HW218030   2.693   2.601   9.908  1.6657 -0.9848 -0.7394
 2190SOL     OW18031   4.573   3.315   6.401 -0.2401 -0.1599 -0.1816
 2190SOL    HW118032   4.482   3.343   6.400 -0.3562 -0.4874  0.8255
 2190SOL    HW218033   4.562   3.220   6.399 -1.2352 -0.0269 -0.7836
 2191SOL     OW18034   3.312   4.576   7.254  0.2759  0.7462  0.1896
 2191SOL    HW118035   3.343   4.666   7.265  3.7792 -0.5360  0.8625
 2191SOL    HW218036   3.395   4.528   7.245 -0.6054 -1.1948  2.4332
 2192SOL     OW18037   0.261   2.789   1.908 -0.6474  0.4361 -0.1010
 2192SOL    HW118038   0.329   2.829   1.963  0.3565 -0.4578 -0.6956
 2192SOL    HW218039   0.304   2.764   1.826  0.9555  0.4241  0.7282
 2193SOL     OW18040   2.546   2.152   4.508 -0.4907  0.1885 -0.4019
 2193SOL    HW118041   2.506   2.238   4.519  2.3946  1.5029 -0.0995
 2193SOL    HW218042   2.554   2.147   4.412  0.4975  1.2386 -0.3683
 2194SOL     OW18043   2.355   4.209  10.422 -0.1255  0.8646 -0.1647
 2194SOL    HW118044   2.269   4.245  10.401  0.1890  1.8254  0.1437
 2194SOL    HW218045   2.383   4.190  10.333 -2.3039 -0.9491 -0.4511
 2195SOL     OW18046   0.624   3.580   3.007  0.0858  0.5988  0.8929
 2195SOL    HW118047   0.649   3.500   3.054 -2.1144 -0.0076  1.0572
 2195SOL    HW218048   0.699   3.584   2.948 -0.5177  1.0457  0.1621
 2196SOL     OW18049   2.796   2.470   2.252  0.0678 -0.2826 -0.1921
 2196SOL    HW118050   2.760   2.384   2.232  1.6549 -0.2842 -3.1006
 2196SOL    HW218051   2.776   2.517   2.171  1.4789  1.9295  0.7093
 2197SOL     OW18052   0.066   2.334   3.692  0.3719 -0.3620 -0.1814
 2197SOL    HW118053   0.052   2.241   3.713 -0.6241 -0.7713 -2.6246
 2197SOL    HW218054   0.144   2.334   3.637  1.4573  0.3901  1.3681
 2198SOL     OW18055   2.589   2.885   3.983  0.2743  0.4055 -0.2220
 2198SOL    HW118056   2.629   2.798   3.987  2.2338  1.3452  0.3423
 2198SOL    HW218057   2.566   2.893   3.890  0.0617  1.2425 -0.0900
 2199SOL     OW18058   3.439   3.321   8.198  0.3052  0.2605  0.0283
 2199SOL    HW118059   3.431   3.400   8.144 -0.9128 -0.8954 -1.4877
 2199SOL    HW218060   3.515   3.279   8.157  1.1027 -0.2638  2.0824
 2200SOL     OW18061   3.806   2.069  10.068  0.6010  0.4506  0.0699
 2200SOL    HW118062   3.835   2.020  10.145 -4.1795  0.1667  1.7135
 2200SOL    HW218063   3.892   2.085  10.028  0.2585 -1.5587 -1.5028
 2201SOL     OW18064   2.777   4.482  17.439  0.2228  0.6531  0.3067
 2201SOL    HW118065   2.838   4.436  17.498  0.8275 -0.3733 -1.1171
 2201SOL    HW218066   2.796   4.572  17.466  2.3661  0.2698  0.1034
 2202SOL     OW18067   3.600   0.265  14.170  0.1358  0.3149 -0.0151
 2202SOL    HW118068   3.616   0.251  14.263 -1.8849  0.8982  0.4260
 2202SOL    HW218069   3.659   0.334  14.141  1.0055  0.5706  2.4003
 2203SOL     OW18070   2.857   1.490   9.018 -1.0243 -0.8028  0.1236
 2203SOL    HW118071   2.826   1.542   9.092  1.9339  0.1673  0.6950
 2203SOL    HW218072   2.785   1.430   9.003 -0.0223 -2.0319  0.2057
 2204SOL     OW18073   2.981   2.829   0.891  0.7801  0.1817 -0.2418
 2204SOL    HW118074   3.066   2.786   0.896  0.2135 -0.7370  1.6542
 2204SOL    HW218075   2.919   2.762   0.919  1.0347 -1.3626 -3.3821
 2205SOL     OW18076   3.965   2.075  14.373 -0.2417 -0.2095 -0.4456
 2205SOL    HW118077   4.002   2.040  14.455 -0.6692  0.5456  0.0629
 2205SOL    HW218078   3.983   2.167  14.394  1.4948 -0.1769 -2.0611
 2206SOL     OW18079   1.119   4.350  15.271 -0.1687  0.3104 -0.7853
 2206SOL    HW118080   1.058   4.278  15.255  0.2106 -0.1056 -0.3881
 2206SOL    HW218081   1.205   4.308  15.266  0.2894  1.1406  0.0150
 2207SOL     OW18082   4.534   0.807  10.824 -0.1475 -0.1625  0.0105
 2207SOL    HW118083   4.499   0.874  10.883  2.9536  1.2982  0.2153
 2207SOL    HW218084   4.603   0.847  10.772 -0.8994 -0.3214 -1.0998
 2208SOL     OW18085   2.105   1.878   9.305  0.1939  0.1305  0.0291
 2208SOL    HW118086   2.061   1.793   9.313  0.4457  0.1016  1.0843
 2208SOL    HW218087   2.179   1.858   9.246  0.6348  0.1300  0.5807
 2209SOL     OW18088   3.401   2.783   6.011 -0.4751 -0.2633  0.2335
 2209SOL    HW118089   3.342   2.712   6.036  1.0294 -0.9853  1.7161
 2209SOL    HW218090   3.448   2.751   5.934 -1.1878  1.4491 -0.9184
 2210SOL     OW18091   0.653   3.671  14.169 -0.3594 -0.2824  0.5051
 2210SOL    HW118092   0.684   3.748  14.216 -0.5917  0.3335 -0.3493
 2210SOL    HW218093   0.733   3.621  14.181  0.0387  1.1198  3.5510
 2211SOL     OW18094   2.194   0.654   8.231 -0.6558  0.6170 -0.3716
 2211SOL    HW118095   2.189   0.570   8.277 -0.1584  0.1498 -1.1750
 2211SOL    HW218096   2.223   0.710   8.303  0.7234 -1.8043  0.9418
 2212SOL     OW18097   3.005   1.194   0.266  0.6228 -0.1849  0.1875
 2212SOL    HW118098   2.946   1.150   0.205  1.8000  0.2787 -1.2734
 2212SOL    HW218099   3.035   1.121   0.320  1.4229 -0.7582 -1.0371
 2213SOL     OW18100   1.103   3.484   7.999 -0.8733 -0.2198 -0.4082
 2213SOL    HW118101   1.109   3.391   8.018  0.6055 -0.0012  0.2666
 2213SOL    HW218102   1.032   3.510   8.057 -0.5932  1.4609 -0.8063
 2214SOL     OW18103   2.690   1.226   0.715  0.5546 -0.0929  0.0730
 2214SOL    HW118104   2.750   1.299   0.728 -0.6476  0.8293  0.3922
 2214SOL    HW218105   2.607   1.273   0.724  0.3351 -0.6406  0.8704
 2215SOL     OW18106   4.229   2.230   8.590 -0.2391 -0.0719 -0.3345
 2215SOL    HW118107   4.308   2.262   8.634 -0.4298 -0.0991  0.0246
 2215SOL    HW218108   4.192   2.310   8.553  1.5890 -0.2587 -2.5910
 2216SOL     OW18109   3.721   4.645  14.589  0.1608  0.1376  0.2277
 2216SOL    HW118110   3.803   4.690  14.567  0.1801 -0.3517 -0.7117
 2216SOL    HW218111   3.745   4.552  14.584 -1.1752 -0.3601  2.9913
 2217SOL     OW18112   2.715   4.589   4.686  0.2969 -0.2110  0.0888
 2217SOL    HW118113   2.749   4.534   4.757 -0.4881 -1.2464 -0.3260
 2217SOL    HW218114   2.757   4.539   4.615 -0.6321  0.0834 -0.6658
 2218SOL     OW18115   4.345   1.785   5.348  0.2739 -0.4058 -0.3273
 2218SOL    HW118116   4.259   1.746   5.337 -0.1438  0.5607 -0.4789
 2218SOL    HW218117   4.334   1.849   5.418  1.5412 -0.1545 -0.3560
 2219SOL     OW18118   0.890   3.820   6.577 -0.2051  0.4015  0.4420
 2219SOL    HW118119   0.840   3.827   6.496  0.1846  2.1631  0.3557
 2219SOL    HW218120   0.821   3.835   6.642 -0.9576  1.2923 -0.5538
 2220SOL     OW18121   3.841   0.602   7.866 -0.4751  0.0823 -0.8138
 2220SOL    HW118122   3.882   0.656   7.799  0.0208 -0.5468 -1.0078
 2220SOL    HW218123   3.893   0.522   7.858  0.2870  0.4191  0.8641
 2221SOL     OW18124   4.332   0.816   8.339 -0.4426 -0.0003  0.1126
 2221SOL    HW118125   4.241   0.821   8.369 -0.0807 -0.4481  1.2989
 2221SOL    HW218126   4.345   0.910   8.329  1.5857 -0.2617  0.3151
 2222SOL     OW18127   1.444   0.426   6.856 -0.3803 -0.0404  0.0535
 2222SOL    HW118128   1.468   0.338   6.884  0.9049  0.3194  0.0841
 2222SOL    HW218129   1.398   0.403   6.775 -0.1851 -0.8010  0.1547
 2223SOL     OW18130   3.218   3.436   4.135  0.1657 -0.1833  0.1326
 2223SOL    HW118131   3.122   3.438   4.128  0.1074 -0.5749  0.7269
 2223SOL    HW218132   3.221   3.364   4.199  0.4255  1.7397  2.3063
 2224SOL     OW18133   3.206   1.593   4.809 -0.3591  0.7691 -0.1213
 2224SOL    HW118134   3.155   1.593   4.890  0.4407  0.1635  0.3723
 2224SOL    HW218135   3.294   1.568   4.838 -0.5489 -1.0243 -1.0925
 2225SOL     OW18136   4.295   0.072   4.827  0.0477  0.5567  0.6962
 2225SOL    HW118137   4.336   0.063   4.740  1.5568 -0.0790  1.4776
 2225SOL    HW218138   4.304   4.703   4.854 -0.6732  0.4801  0.6638
 2226SOL     OW18139   4.407   2.606   6.322  0.1230 -0.1370 -0.0854
 2226SOL    HW118140   4.427   2.648   6.406  1.9966 -0.0150 -0.5901
 2226SOL    HW218141   4.402   2.520   6.363 -0.3626 -0.8049 -1.5711
 2227SOL     OW18142   3.811   0.349   1.234  0.3308  0.5636  0.6913
 2227SOL    HW118143   3.803   0.342   1.329 -1.9996  3.5565  0.7107
 2227SOL    HW218144   3.880   0.283   1.227  1.2981  1.8770 -2.1588
 2228SOL     OW18145   2.257   3.124  17.259  0.0739 -0.1549 -0.0846
 2228SOL    HW118146   2.341   3.083  17.236  0.2981 -1.1804  2.5519
 2228SOL    HW218147   2.243   3.101  17.352 -1.5199 -2.1185 -0.7989
 2229SOL     OW18148   0.428   3.087   1.886  0.0542  0.0212  0.3148
 2229SOL    HW118149   0.449   3.024   1.954  0.6910 -0.0866  0.0150
 2229SOL    HW218150   0.513   3.126   1.865  0.7962 -0.1209  3.0283
 2230SOL     OW18151   1.937   2.263  14.723  0.6055  0.3472  0.0728
 2230SOL    HW118152   1.986   2.230  14.799  0.0092 -0.9020 -0.0840
 2230SOL    HW218153   1.888   2.184  14.701  0.7356  0.3294 -0.1463
 2231SOL     OW18154   3.065   0.315  10.152  0.4037 -0.0901  0.2648
 2231SOL    HW118155   2.988   0.308  10.208 -0.0326 -0.4505 -0.3865
 2231SOL    HW218156   3.141   0.306  10.210  0.0747 -1.4852  0.4700
 2232SOL     OW18157   2.557   4.533  15.225 -0.6888 -0.1733 -0.2799
 2232SOL    HW118158   2.603   4.524  15.309 -2.8586 -1.5773  0.7788
 2232SOL    HW218159   2.467   4.511  15.249 -1.0033 -0.0212 -1.3353
 2233SOL     OW18160   0.923   3.565   5.055  0.4543  0.0328 -0.1578
 2233SOL    HW118161   0.910   3.487   5.109 -0.1489 -0.1817 -0.6112
 2233SOL    HW218162   0.913   3.626   5.128 -3.1142  0.4765 -1.0195
 2234SOL     OW18163   0.477   0.034   7.365 -0.6928 -0.2001 -0.4729
 2234SOL    HW118164   0.529   0.021   7.286  0.9343  2.6065  0.1248
 2234SOL    HW218165   0.549   0.049   7.427 -0.0443  1.6926 -1.6925
 2235SOL     OW18166   2.400   3.368   7.481 -0.1022 -0.5118 -0.8896
 2235SOL    HW118167   2.417   3.460   7.499  0.9706 -1.3251  2.1736
 2235SOL    HW218168   2.404   3.323   7.565 -0.9832 -0.6564 -0.9240
 2236SOL     OW18169   0.896   0.260  15.136  0.6900 -0.0050  0.1963
 2236SOL    HW118170   0.842   0.215  15.201 -0.8718  1.2005 -0.2650
 2236SOL    HW218171   0.899   0.201  15.061 -0.1851  1.8968 -1.3520
 2237SOL     OW18172   4.660   0.305   1.766 -0.1966 -0.0269  0.0202
 2237SOL    HW118173   4.696   0.307   1.677 -1.1538 -0.1338 -0.3720
 2237SOL    HW218174   4.708   0.229   1.800 -0.8112 -0.2486  0.3841
 2238SOL     OW18175   3.357   1.254   9.977 -0.1920  0.2076  0.5783
 2238SOL    HW118176   3.311   1.176  10.008  0.4529  0.0248  1.0673
 2238SOL    HW218177   3.329   1.248   9.885  0.4950  1.2169  0.3136
 2239SOL     OW18178   3.610   0.570   3.125 -0.1024  0.1769  0.1373
 2239SOL    HW118179   3.573   0.546   3.210 -2.0037  0.2530 -0.6747
 2239SOL    HW218180   3.696   0.602   3.152  0.4498 -0.7286 -0.5265
 2240SOL     OW18181   0.888   4.504  15.827  0.2575  0.1373  0.1378
 2240SOL    HW118182   0.845   4.567  15.886 -1.2203 -0.1680 -0.6247
 2240SOL    HW218183   0.834   4.516  15.749  0.2250 -0.6421  0.0436
 2241SOL     OW18184   3.007   2.000   6.791  0.0882  0.1080 -0.4080
 2241SOL    HW118185   2.912   1.994   6.796  0.3236 -1.6918  2.2136
 2241SOL    HW218186   3.015   1.986   6.697  3.8507 -0.1087 -0.0795
 2242SOL     OW18187   4.029   2.119   7.237 -0.4543 -0.1422 -0.3061
 2242SOL    HW118188   3.945   2.098   7.279  0.5534 -3.6186 -0.0031
 2242SOL    HW218189   3.994   2.155   7.156  1.8249  0.6834 -0.9096
 2243SOL     OW18190   3.784   2.507   3.804  0.7932 -0.0176  0.4262
 2243SOL    HW118191   3.724   2.467   3.742 -1.6452  0.3978  2.5191
 2243SOL    HW218192   3.724   2.514   3.879  1.3811 -1.7108  1.0658
 2244SOL     OW18193   0.246   2.314  10.218  0.0804  0.4748  0.1136
 2244SOL    HW118194   0.215   2.350  10.135 -0.7793  0.5537  0.4774
 2244SOL    HW218195   0.175   2.341  10.276  1.5746  1.4793  1.4885
 2245SOL     OW18196   0.314   4.243  17.422 -0.3163 -0.3572 -0.7247
 2245SOL    HW118197   0.289   4.267  17.333 -0.2327 -2.9858 -1.4653
 2245SOL    HW218198   0.281   4.318  17.471 -1.3746 -0.3025 -1.5181
 2246SOL     OW18199   4.412   0.052   1.924  0.4901 -0.0991  0.0339
 2246SOL    HW118200   4.432   0.049   2.018  2.0707  0.5496 -0.2871
 2246SOL    HW218201   4.367   4.691   1.908 -1.4989  0.9923 -0.1626
 2247SOL     OW18202   3.340   1.041   2.696 -0.4378 -0.5396  0.5159
 2247SOL    HW118203   3.288   0.961   2.698 -0.2417 -0.6805 -0.3583
 2247SOL    HW218204   3.337   1.071   2.605  0.6358 -2.1074 -0.0312
 2248SOL     OW18205   3.270   0.834   3.148 -0.3708 -0.1147  1.1633
 2248SOL    HW118206   3.286   0.905   3.210 -1.0242 -1.4543  2.8915
 2248SOL    HW218207   3.187   0.849   3.104 -1.4330  1.2818  3.6977
 2249SOL     OW18208   4.172   1.168   1.991 -0.1251  0.4337 -0.0822
 2249SOL    HW118209   4.214   1.253   1.979  1.2121 -0.0330  1.3012
 2249SOL    HW218210   4.229   1.113   1.937  0.6434 -0.5948  1.7899
 2250SOL     OW18211   3.737   4.361  12.223  0.1210  0.0993  0.1175
 2250SOL    HW118212   3.683   4.381  12.300 -2.0830  0.0322 -1.4193
 2250SOL    HW218213   3.775   4.276  12.246  0.7418 -0.6263 -3.6793
 2251SOL     OW18214   2.154   3.624   2.652  0.0326  0.2874 -0.3548
 2251SOL    HW118215   2.246   3.648   2.647  0.1132  0.3079  1.4821
 2251SOL    HW218216   2.159   3.543   2.602  1.4936  0.3883 -0.3651
 2252SOL     OW18217   0.286   2.079   4.356  0.5591 -0.1145  0.2181
 2252SOL    HW118218   0.366   2.115   4.318 -1.3218  1.8053 -1.9242
 2252SOL    HW218219   0.256   2.156   4.405  1.0910  1.2984 -1.6631
 2253SOL     OW18220   1.910   1.666   5.868 -0.4448 -0.0753 -0.4110
 2253SOL    HW118221   1.908   1.607   5.793 -0.6723 -0.2703 -0.2521
 2253SOL    HW218222   1.827   1.710   5.849 -1.1032 -0.8462  0.7058
 2254SOL     OW18223   3.949   1.711   7.355  0.3197 -0.3946 -0.0263
 2254SOL    HW118224   4.036   1.712   7.315  0.7525  1.1725  0.9697
 2254SOL    HW218225   3.901   1.668   7.285  0.3881 -0.5179  0.0018
 2255SOL     OW18226   2.467   4.049   4.785  0.7001  0.0992 -0.3636
 2255SOL    HW118227   2.450   4.103   4.708 -0.1989  0.7324  0.2859
 2255SOL    HW218228   2.396   3.987   4.768  1.0508 -0.5751  0.5891
 2256SOL     OW18229   3.545   4.402   4.746  0.2807  0.3125  0.1361
 2256SOL    HW118230   3.616   4.366   4.692 -0.6043 -1.4208  0.1043
 2256SOL    HW218231   3.589   4.480   4.777  1.2970  0.6258 -2.0426
 2257SOL     OW18232   0.066   2.842   6.539  0.0623 -0.3012 -0.0721
 2257SOL    HW118233   0.128   2.863   6.469 -0.2468  0.9081  0.0265
 2257SOL    HW218234   0.094   2.906   6.605 -0.3719 -0.0968 -0.0929
 2258SOL     OW18235   0.961   3.357   6.978 -0.1566 -0.0117 -1.2337
 2258SOL    HW118236   1.053   3.385   6.983 -0.4470  1.0054 -1.7390
 2258SOL    HW218237   0.944   3.357   7.073  0.9139  1.7943 -1.0326
 2259SOL     OW18238   4.019   0.018   9.241  0.4843  0.0237 -0.5643
 2259SOL    HW118239   3.974   0.091   9.198 -1.8778  0.1767  2.1443
 2259SOL    HW218240   4.108   0.027   9.208  0.7529  0.2933  0.2181
 2260SOL     OW18241   1.881   0.541   3.770  0.3597  0.0194 -0.1008
 2260SOL    HW118242   1.958   0.547   3.712  0.8095 -0.5816  0.4264
 2260SOL    HW218243   1.915   0.578   3.851 -1.9900  2.2961 -0.1862
 2261SOL     OW18244   0.943   1.103  15.851  0.2002 -0.3679 -0.1178
 2261SOL    HW118245   1.034   1.132  15.853  0.4352 -1.1684  0.7182
 2261SOL    HW218246   0.909   1.147  15.773  0.6652  1.4446  0.6783
 2262SOL     OW18247   1.223   0.098   7.432 -0.5425  0.2613 -0.3517
 2262SOL    HW118248   1.227   0.011   7.392 -0.4303 -0.0339  0.2940
 2262SOL    HW218249   1.143   0.101   7.485 -0.9598  0.5324 -1.0016
 2263SOL     OW18250   0.622   1.557  10.799  0.0571  0.6646  0.8128
 2263SOL    HW118251   0.607   1.547  10.893 -0.4112  1.2947  0.8049
 2263SOL    HW218252   0.536   1.573  10.761  1.4082  2.2556 -1.5681
 2264SOL     OW18253   4.253   3.360  13.916 -0.8630  0.0423 -0.0054
 2264SOL    HW118254   4.343   3.337  13.895 -1.9219 -3.4126 -0.7735
 2264SOL    HW218255   4.241   3.324  14.004  1.4480  1.0960  0.7496
 2265SOL     OW18256   1.477   0.650   3.475 -0.4335 -0.1418 -0.3222
 2265SOL    HW118257   1.550   0.604   3.515 -1.6749 -2.2478 -0.4621
 2265SOL    HW218258   1.512   0.682   3.392  2.6660 -4.5860 -0.7220
 2266SOL     OW18259   2.881   1.974   5.424 -1.0727 -0.2630  0.1793
 2266SOL    HW118260   2.879   2.070   5.414 -0.6911 -0.0875  1.8683
 2266SOL    HW218261   2.811   1.948   5.364 -0.5183 -0.0381 -0.5743
 2267SOL     OW18262   4.555   1.471  15.377  0.3733 -0.3085  0.0793
 2267SOL    HW118263   4.592   1.559  15.380 -1.4868  0.3746  2.3639
 2267SOL    HW218264   4.616   1.423  15.433  1.2543  0.8346  0.0972
 2268SOL     OW18265   2.057   0.709   3.879  0.3421  0.8877 -0.4657
 2268SOL    HW118266   2.147   0.736   3.859  1.1058  0.5809  2.5811
 2268SOL    HW218267   2.016   0.795   3.878 -0.2938  0.6047  3.2433
 2269SOL     OW18268   0.887   1.300   3.712 -0.5047  0.3666 -0.2336
 2269SOL    HW118269   0.813   1.251   3.677 -0.9891 -0.1349  1.4536
 2269SOL    HW218270   0.849   1.320   3.798  1.5584  1.6657  0.3816
 2270SOL     OW18271   4.010   1.027  10.179 -0.1511  0.0440 -0.0614
 2270SOL    HW118272   3.993   1.012  10.272 -0.7679 -1.2885 -0.3986
 2270SOL    HW218273   4.031   0.941  10.145 -0.6605 -0.4770  0.9460
 2271SOL     OW18274   2.298   3.771   6.840  0.4589 -0.4023  0.4556
 2271SOL    HW118275   2.282   3.763   6.746 -2.7135 -0.0663  0.9451
 2271SOL    HW218276   2.301   3.679   6.866  0.3486 -0.4899  0.1598
 2272SOL     OW18277   3.671   4.427  11.636  0.0949  0.3971 -0.4117
 2272SOL    HW118278   3.614   4.441  11.712 -1.8321 -2.5645 -1.3339
 2272SOL    HW218279   3.755   4.401  11.676  0.2533  2.4665  0.6275
 2273SOL     OW18280   3.576   2.345   1.069 -0.1893 -0.0111 -0.3925
 2273SOL    HW118281   3.537   2.432   1.058  2.0822  1.0057 -0.3068
 2273SOL    HW218282   3.569   2.331   0.974  1.5256  1.0113 -0.6689
 2274SOL     OW18283   0.434   1.807   2.141  0.1691  0.2670 -0.3311
 2274SOL    HW118284   0.463   1.884   2.190  3.8244  0.1717 -2.3816
 2274SOL    HW218285   0.500   1.809   2.072  0.8208  0.0857  0.3010
 2275SOL     OW18286   1.533   2.215   6.404  0.1921  0.0029 -0.4290
 2275SOL    HW118287   1.625   2.200   6.382 -0.5701 -0.8480 -3.0863
 2275SOL    HW218288   1.521   2.304   6.372 -0.5482 -0.3387 -1.1166
 2276SOL     OW18289   1.503   2.906   5.710 -0.2558  0.0983 -0.1701
 2276SOL    HW118290   1.475   2.873   5.795 -0.3395 -2.2566 -1.1042
 2276SOL    HW218291   1.425   2.923   5.658  1.3907  1.2106 -2.2758
 2277SOL     OW18292   2.532   4.712   8.844  0.4987  0.3832  0.1917
 2277SOL    HW118293   2.622   4.678   8.844 -0.5523 -2.3695 -1.5025
 2277SOL    HW218294   2.490   4.669   8.919 -0.6555  0.0563 -0.6560
 2278SOL     OW18295   1.522   0.835   8.196  0.1083 -0.2600 -0.3353
 2278SOL    HW118296   1.592   0.788   8.241  0.3530 -1.1533 -1.6558
 2278SOL    HW218297   1.499   0.764   8.136  0.8277  1.4343 -2.5909
 2279SOL     OW18298   1.502   0.160   2.779  0.7169  0.0689  0.1608
 2279SOL    HW118299   1.589   0.174   2.740  0.0222 -1.0697 -1.7978
 2279SOL    HW218300   1.525   0.185   2.869 -0.5358  2.1090 -0.0731
 2280SOL     OW18301   3.966   3.170  13.400 -0.3441 -0.3186 -0.3015
 2280SOL    HW118302   3.894   3.148  13.341 -0.5535  0.8760 -0.4825
 2280SOL    HW218303   4.028   3.176  13.328  0.0551  0.1816  0.0859
 2281SOL     OW18304   0.308   3.099   2.436 -0.3060  0.1952 -0.0414
 2281SOL    HW118305   0.346   3.025   2.485  0.4149  1.0874  0.7552
 2281SOL    HW218306   0.319   3.166   2.504  1.5359  1.5938 -1.7341
 2282SOL     OW18307   3.703   4.428   7.353 -0.2993 -0.1929 -0.0697
 2282SOL    HW118308   3.742   4.468   7.275 -1.2967  0.4432 -0.2372
 2282SOL    HW218309   3.653   4.502   7.386 -3.4203 -2.3401  0.0852
 2283SOL     OW18310   4.436   0.235   6.315  0.3156  0.1184 -0.2632
 2283SOL    HW118311   4.453   0.306   6.254 -1.5964  0.3784 -0.5156
 2283SOL    HW218312   4.478   0.273   6.392 -1.7550  0.8182  0.5435
 2284SOL     OW18313   0.156   3.165   5.153  0.8208  0.1705 -0.4513
 2284SOL    HW118314   0.222   3.126   5.096  1.9248  1.6729 -0.1950
 2284SOL    HW218315   0.088   3.191   5.090  0.6822  0.5940 -0.1281
 2285SOL     OW18316   0.149   2.556   7.223 -0.2048 -0.1434  0.0053
 2285SOL    HW118317   0.111   2.513   7.300 -2.5926 -0.0710 -1.1200
 2285SOL    HW218318   0.238   2.526   7.207 -0.3451  0.2578 -1.4947
 2286SOL     OW18319   4.230   2.901   7.283  0.2859 -0.5930 -0.1126
 2286SOL    HW118320   4.162   2.942   7.337 -0.9527 -3.3638  0.4673
 2286SOL    HW218321   4.306   2.952   7.311  0.0917 -0.6920  0.5895
 2287SOL     OW18322   2.017   0.818  12.969  0.2706 -0.0568 -0.0591
 2287SOL    HW118323   2.013   0.729  12.934  0.4990  0.3360 -1.0725
 2287SOL    HW218324   2.019   0.807  13.064 -1.5149 -1.0002 -0.1272
 2288SOL     OW18325   3.179   1.675  11.832  0.0704  0.4129  0.2606
 2288SOL    HW118326   3.152   1.738  11.764  3.0321  0.3939 -0.9780
 2288SOL    HW218327   3.134   1.695  11.913 -0.1532  2.6781 -0.4133
 2289SOL     OW18328   0.262   0.054   0.821 -0.1687 -0.2572  0.0691
 2289SOL    HW118329   0.348   0.011   0.818  1.0631  2.1268  1.2317
 2289SOL    HW218330   0.235   0.037   0.731  0.3060 -3.1611  0.4764
 2290SOL     OW18331   2.589   0.853   6.473 -0.0099 -0.2693  0.0290
 2290SOL    HW118332   2.508   0.886   6.512  0.0642 -1.4690  1.2007
 2290SOL    HW218333   2.613   0.932   6.424  0.1029 -0.5714 -0.4068
 2291SOL     OW18334   0.684   1.263   5.282  0.4833 -0.1970 -0.0278
 2291SOL    HW118335   0.662   1.248   5.190  0.9109 -1.6299  0.0970
 2291SOL    HW218336   0.752   1.198   5.302  2.0368  1.1182 -1.0778
 2292SOL     OW18337   0.728   4.652   5.531  0.1737 -0.7051 -0.0679
 2292SOL    HW118338   0.716   0.002   5.469 -0.4148 -2.3202 -1.8321
 2292SOL    HW218339   0.636   4.649   5.557  0.5585 -1.6880  1.1558
 2293SOL     OW18340   0.990   2.038   2.142 -0.3148  0.2211 -0.6209
 2293SOL    HW118341   1.001   1.951   2.104 -2.5498 -0.2053 -0.2517
 2293SOL    HW218342   1.072   2.063   2.098 -0.8404 -0.5375 -2.0403
 2294SOL     OW18343   3.743   2.977   3.532  0.5183 -0.0329 -0.1478
 2294SOL    HW118344   3.649   2.984   3.517  0.5408 -2.1017 -1.1909
 2294SOL    HW218345   3.745   2.918   3.607  1.3173 -0.9967 -0.9405
 2295SOL     OW18346   1.976   0.468   9.310  0.1264 -0.2126 -0.3450
 2295SOL    HW118347   1.909   0.409   9.279  0.6548 -0.2968 -1.3076
 2295SOL    HW218348   2.006   0.511   9.230 -0.7925  0.2129 -0.4524
 2296SOL     OW18349   0.512   0.565  13.111  0.2951  0.1964 -0.2035
 2296SOL    HW118350   0.591   0.514  13.100 -0.7235 -1.3411 -0.3588
 2296SOL    HW218351   0.445   0.506  13.147 -1.3434  2.4088  0.3918
 2297SOL     OW18352   3.461   0.106   8.438  0.0347 -0.8928  0.3188
 2297SOL    HW118353   3.494   0.195   8.431  1.9457 -1.6880 -0.9761
 2297SOL    HW218354   3.394   0.115   8.370  1.4657 -0.2542 -1.0064
 2298SOL     OW18355   2.912   2.789  13.041 -0.5155 -0.0432 -0.1378
 2298SOL    HW118356   2.885   2.710  13.088 -0.3550  0.5482  0.9304
 2298SOL    HW218357   2.990   2.818  13.088  1.3666 -2.4314 -1.7439
 2299SOL     OW18358   3.334   3.239   9.570 -0.0628  0.0289 -0.0536
 2299SOL    HW118359   3.238   3.237   9.578 -0.1247  0.9666 -0.5198
 2299SOL    HW218360   3.346   3.273   9.481  1.6154 -1.2967 -0.3416
 2300SOL     OW18361   1.757   0.631   3.045  0.7239  0.1092 -0.2849
 2300SOL    HW118362   1.825   0.616   2.979 -0.6550  3.6551 -2.4773
 2300SOL    HW218363   1.781   0.722   3.057 -4.0089  0.9738  2.5173
 2301SOL     OW18364   3.984   4.314   5.004 -0.3999 -0.1084 -0.0135
 2301SOL    HW118365   4.046   4.253   5.045 -0.0841  0.9156  1.0317
 2301SOL    HW218366   3.906   4.278   5.047  0.8348 -0.9908  1.5086
 2302SOL     OW18367   3.369   3.509   7.989 -0.0315 -0.3704 -0.2971
 2302SOL    HW118368   3.419   3.591   7.991 -0.7406 -0.0162  2.6517
 2302SOL    HW218369   3.332   3.504   7.900 -0.3055  0.1563 -0.2127
 2303SOL     OW18370   2.057   3.054   3.263  0.1484 -0.1104 -0.0974
 2303SOL    HW118371   2.074   2.970   3.220 -4.9084 -1.1891 -0.0110
 2303SOL    HW218372   1.990   3.032   3.327  1.1701 -1.0610  0.6462
 2304SOL     OW18373   0.071   0.219   7.193 -0.0235  0.3901 -0.5086
 2304SOL    HW118374   4.709   0.176   7.200  0.8883 -1.2366  0.5784
 2304SOL    HW218375   0.124   0.193   7.269  2.1813 -2.3587 -3.0065
 2305SOL     OW18376   0.880   2.626   3.547 -0.4949  0.0829 -0.0516
 2305SOL    HW118377   0.803   2.683   3.556 -1.1085 -0.5545 -1.2624
 2305SOL    HW218378   0.838   2.542   3.565  0.0791 -0.1578  0.1706
 2306SOL     OW18379   1.613   3.582  11.928  0.1537  0.0432  0.6901
 2306SOL    HW118380   1.630   3.488  11.935 -0.2678  0.0008  1.0731
 2306SOL    HW218381   1.679   3.618  11.988  1.3076  1.4716 -1.4175
 2307SOL     OW18382   4.521   4.170   4.904 -0.0599  0.1458 -0.0515
 2307SOL    HW118383   4.492   4.260   4.917 -0.5662 -0.2816  1.8045
 2307SOL    HW218384   4.534   4.167   4.809  1.1460 -1.1051  0.1448
 2308SOL     OW18385   2.686   1.740   4.186 -0.2004  0.0156 -0.0860
 2308SOL    HW118386   2.651   1.756   4.098  1.4723 -0.1244 -0.7892
 2308SOL    HW218387   2.721   1.653   4.165 -0.4643  0.1904 -1.2884
 2309SOL     OW18388   0.756   1.408   3.160  0.2782  0.1088  0.1312
 2309SOL    HW118389   0.763   1.456   3.077 -0.8819  0.1827  0.0840
 2309SOL    HW218390   0.665   1.426   3.182  0.6378  1.2237  0.7135
 2310SOL     OW18391   4.285   2.404   2.864 -0.0137  0.1453 -0.4221
 2310SOL    HW118392   4.328   2.337   2.811  0.8593  0.0368  0.4046
 2310SOL    HW218393   4.333   2.485   2.845  1.2247 -0.6423 -0.7031
 2311SOL     OW18394   0.861   3.845   2.748 -0.0504 -0.4248  0.6236
 2311SOL    HW118395   0.922   3.905   2.705 -0.8188 -1.7897 -2.3632
 2311SOL    HW218396   0.793   3.840   2.681  1.6772 -0.1897 -1.1196
 2312SOL     OW18397   0.242   1.291  12.177 -0.1372  0.1951 -0.4130
 2312SOL    HW118398   0.338   1.296  12.181 -0.3004  2.5889  1.1763
 2312SOL    HW218399   0.230   1.197  12.172 -1.6511  0.3590  0.3173
 2313SOL     OW18400   1.188   2.173   1.949 -0.2564  0.2365 -0.4395
 2313SOL    HW118401   1.269   2.122   1.954  0.4282  1.3757  0.1452
 2313SOL    HW218402   1.229   2.254   1.920  0.7224 -0.4303 -0.9107
 2314SOL     OW18403   2.988   2.613  12.607 -0.0268 -0.2958 -0.7826
 2314SOL    HW118404   3.026   2.691  12.565  0.9722  0.2440  1.0925
 2314SOL    HW218405   3.034   2.537  12.571  0.2480 -0.2335 -0.5713
 2315SOL     OW18406   2.449   0.009   4.223  0.6173 -0.6699 -0.5506
 2315SOL    HW118407   2.386   0.026   4.293  0.5848  0.2647 -0.8045
 2315SOL    HW218408   2.531   0.001   4.271  0.6444  0.8175 -0.3345
 2316SOL     OW18409   3.072   4.025  14.201  0.1304  0.2892 -0.0924
 2316SOL    HW118410   3.075   4.112  14.240 -1.4044 -0.2271  1.1976
 2316SOL    HW218411   3.162   4.015  14.169  0.3041 -0.0243  0.5058
 2317SOL     OW18412   1.633   3.892  15.806 -0.0550 -0.2848  0.4586
 2317SOL    HW118413   1.597   3.918  15.891 -1.2127 -1.6086  0.3709
 2317SOL    HW218414   1.728   3.889  15.818  0.2073 -0.6391 -1.8341
 2318SOL     OW18415   0.303   4.480   1.595 -0.1213  0.0213  0.3600
 2318SOL    HW118416   0.262   4.567   1.588 -2.9269 -1.1548  2.5870
 2318SOL    HW218417   0.318   4.478   1.689 -0.9203  0.2752  0.4938
 2319SOL     OW18418   2.805   0.539  11.749  0.0962 -0.0696  0.0709
 2319SOL    HW118419   2.791   0.593  11.672 -0.1705 -0.0740  0.1151
 2319SOL    HW218420   2.791   0.452  11.711 -0.0018 -0.1323  0.2468
 2320SOL     OW18421   3.520   2.529  13.698 -1.1321 -0.4008  0.0191
 2320SOL    HW118422   3.606   2.493  13.716 -0.1591  1.7079 -0.4181
 2320SOL    HW218423   3.502   2.557  13.788  1.7642  0.0850  0.4427
 2321SOL     OW18424   2.836   0.622   5.837 -0.1371  0.1750 -0.0932
 2321SOL    HW118425   2.870   0.708   5.810  1.2989  1.1929  5.0185
 2321SOL    HW218426   2.912   0.589   5.885 -1.0682 -1.0842  0.4924
 2322SOL     OW18427   4.394   3.145   4.326 -0.1716  0.7127 -0.0674
 2322SOL    HW118428   4.332   3.136   4.399  0.2763 -2.3480 -0.0649
 2322SOL    HW218429   4.472   3.122   4.377 -0.0128  1.3882 -0.0034
 2323SOL     OW18430   1.755   4.005   2.564  0.3573 -0.2920 -0.0646
 2323SOL    HW118431   1.827   3.953   2.527 -0.0982 -0.7371 -0.3152
 2323SOL    HW218432   1.707   3.941   2.616  1.6023 -1.3268 -0.1746
 2324SOL     OW18433   3.517   2.786   7.276  0.1932 -0.2757 -0.4623
 2324SOL    HW118434   3.450   2.756   7.214  0.2561 -0.6493 -0.3511
 2324SOL    HW218435   3.579   2.825   7.214 -0.8720  1.4788 -0.4305
 2325SOL     OW18436   1.085   4.162  11.135 -0.0004 -0.0966  0.4193
 2325SOL    HW118437   1.066   4.249  11.100 -3.9313 -0.9556  0.4829
 2325SOL    HW218438   1.154   4.137  11.073 -1.3568  0.6591 -1.3930
 2326SOL     OW18439   4.648   3.104  11.760 -0.3163  0.4098  0.0620
 2326SOL    HW118440   4.645   3.124  11.854  1.1394  0.8843  0.0111
 2326SOL    HW218441   4.674   3.191  11.730  0.8305 -0.6649 -2.1242
 2327SOL     OW18442   2.216   4.278  12.110 -0.8286 -0.5272 -0.3377
 2327SOL    HW118443   2.191   4.339  12.179  1.6664  0.0217  0.0830
 2327SOL    HW218444   2.250   4.197  12.147 -0.2454  0.0025  0.2784
 2328SOL     OW18445   3.229   2.017   8.218 -0.3134 -0.2673 -0.4311
 2328SOL    HW118446   3.322   2.013   8.200  0.1014  1.7784  1.1974
 2328SOL    HW218447   3.211   2.003   8.312 -0.6684  2.3401 -0.1037
 2329SOL     OW18448   4.040   4.700   6.711 -0.3980  0.0138  0.1279
 2329SOL    HW118449   4.135   4.709   6.714 -0.1458 -2.4632  0.0725
 2329SOL    HW218450   4.010   0.044   6.650  0.9446  0.2925 -0.2215
 2330SOL     OW18451   4.188   2.080   8.837 -0.5360  0.9465  0.5349
 2330SOL    HW118452   4.118   2.052   8.777 -1.1441  0.7263  1.3480
 2330SOL    HW218453   4.248   2.111   8.769 -1.6105 -0.5835 -1.1204
 2331SOL     OW18454   4.142   0.376   8.202 -0.3307  0.3617  0.1015
 2331SOL    HW118455   4.079   0.419   8.260  0.2927 -0.3899  1.3371
 2331SOL    HW218456   4.098   0.302   8.161 -1.7470  1.3640 -0.1646
 2332SOL     OW18457   1.789   0.107   4.341  0.1557  0.0714  0.4426
 2332SOL    HW118458   1.753   0.019   4.341  0.2414  0.0370  0.3286
 2332SOL    HW218459   1.725   0.142   4.405 -0.4785  1.6453 -1.0427
 2333SOL     OW18460   0.963   2.679  10.966  0.7726  0.1271  0.0149
 2333SOL    HW118461   1.042   2.656  10.916  1.4568 -0.5038  1.3905
 2333SOL    HW218462   1.006   2.723  11.039 -0.9788  1.5314  0.2023
 2334SOL     OW18463   2.199   3.248   1.301 -0.2680  0.1785  0.0633
 2334SOL    HW118464   2.257   3.185   1.344  0.2824  1.4227  1.1457
 2334SOL    HW218465   2.114   3.207   1.318  1.5502 -3.4981  0.2375
 2335SOL     OW18466   1.182   2.934   5.708  0.0837  0.7388 -0.1771
 2335SOL    HW118467   1.102   2.985   5.698 -0.2440 -0.4291 -3.4489
 2335SOL    HW218468   1.213   2.924   5.619  0.7750  0.2225  0.1231
 2336SOL     OW18469   0.424   4.063  13.654  0.0776 -0.1607  0.0061
 2336SOL    HW118470   0.421   4.093  13.745 -2.1469  0.3718 -0.2491
 2336SOL    HW218471   0.457   3.975  13.674 -0.2935 -0.4084 -0.4694
 2337SOL     OW18472   2.888   4.639   1.369 -0.3924 -0.1733 -0.2742
 2337SOL    HW118473   2.945   4.713   1.346  1.9381 -1.5605  1.0945
 2337SOL    HW218474   2.912   4.613   1.458 -0.7599 -2.3236 -0.8075
 2338SOL     OW18475   3.406   1.264   2.492 -0.2610  0.2343 -0.1168
 2338SOL    HW118476   3.411   1.265   2.396 -2.2541  0.5964 -0.2044
 2338SOL    HW218477   3.489   1.235   2.531 -1.8154 -1.2595  2.0517
 2339SOL     OW18478   4.646   2.572   9.801  0.2631  0.5113  0.1587
 2339SOL    HW118479   4.570   2.582   9.857  0.8867  2.1374  0.7129
 2339SOL    HW218480   4.631   2.629   9.725  1.8914 -1.3099 -1.5360
 2340SOL     OW18481   1.588   2.640   9.492  0.0223 -0.6282 -0.4224
 2340SOL    HW118482   1.539   2.721   9.482  2.4478  0.9393  0.3377
 2340SOL    HW218483   1.535   2.569   9.456 -0.9894 -0.4826  0.7902
 2341SOL     OW18484   0.723   0.508   9.407 -0.2303  0.1331  0.6962
 2341SOL    HW118485   0.666   0.585   9.406 -0.7487 -0.2627 -1.0274
 2341SOL    HW218486   0.803   0.554   9.381 -0.1379 -0.1306  0.5222
 2342SOL     OW18487   0.753   0.811   5.508  0.0152 -0.3769  0.4127
 2342SOL    HW118488   0.777   0.889   5.559 -0.1897 -0.2552  0.3243
 2342SOL    HW218489   0.837   0.766   5.508  0.2238  0.0163 -1.0466
 2343SOL     OW18490   0.384   3.147   7.146 -0.2433  0.0249 -0.3181
 2343SOL    HW118491   0.382   3.232   7.100  0.3451  0.7860  1.0698
 2343SOL    HW218492   0.451   3.096   7.100  0.7295  1.7423 -0.8024
 2344SOL     OW18493   2.531   2.863   3.721 -0.1377 -0.1135  0.4212
 2344SOL    HW118494   2.583   2.796   3.677  0.6525  1.2565 -0.7184
 2344SOL    HW218495   2.537   2.936   3.660 -0.9509  0.9046  1.5615
 2345SOL     OW18496   0.519   0.194   5.203 -0.0672  0.1280 -0.1322
 2345SOL    HW118497   0.510   0.289   5.208 -0.3712  0.0399  1.1033
 2345SOL    HW218498   0.571   0.192   5.123  2.4335 -1.0486  1.5348
 2346SOL     OW18499   4.524   3.862   5.424 -0.5955  0.0664  0.0912
 2346SOL    HW118500   4.514   3.952   5.394 -1.3009  0.3567  1.1991
 2346SOL    HW218501   4.569   3.866   5.509 -1.9509  1.0241  0.7594
 2347SOL     OW18502   0.153   4.556   3.857  0.1252 -0.3523 -0.2697
 2347SOL    HW118503   0.189   4.582   3.941 -0.1484 -1.4747  0.2001
 2347SOL    HW218504   0.152   4.460   3.850 -0.5302 -0.4214  0.7465
 2348SOL     OW18505   0.171   3.040  16.571 -0.3008 -0.5066 -0.0012
 2348SOL    HW118506   0.224   3.052  16.492  2.3359  0.7364  1.9244
 2348SOL    HW218507   0.084   3.027  16.535 -0.2567  0.5819 -0.5205
 2349SOL     OW18508   0.423   2.518   9.242 -0.2099  0.0790 -0.3895
 2349SOL    HW118509   0.345   2.483   9.286 -0.8219 -0.1427 -1.6721
 2349SOL    HW218510   0.487   2.543   9.309 -0.0602  1.9488 -1.2347
 2350SOL     OW18511   4.436   2.673   4.246 -0.0751  0.5664  0.6177
 2350SOL    HW118512   4.476   2.588   4.229 -1.4844  0.4012 -1.9459
 2350SOL    HW218513   4.345   2.646   4.229  0.1923 -0.0703  0.1806
 2351SOL     OW18514   0.523   2.025   2.293 -0.1863  0.3728 -0.1042
 2351SOL    HW118515   0.594   2.030   2.229 -2.1387  2.7503 -2.1037
 2351SOL    HW218516   0.561   2.077   2.363 -0.3685 -0.0287  0.2899
 2352SOL     OW18517   4.476   2.459   3.984 -0.2730  0.2111  0.5069
 2352SOL    HW118518   4.504   2.421   3.900  2.5855 -1.2575  2.1508
 2352SOL    HW218519   4.460   2.384   4.041  1.3837  0.2031  0.9645
 2353SOL     OW18520   4.474   3.526   7.063 -0.0400  0.2584  0.0850
 2353SOL    HW118521   4.526   3.591   7.017  1.5746  0.2455  1.8960
 2353SOL    HW218522   4.449   3.472   6.988 -1.1533  2.5411 -1.1597
 2354SOL     OW18523   0.444   1.647   8.495 -0.0514  0.2750 -0.0476
 2354SOL    HW118524   0.470   1.679   8.408  2.0510  0.9599  0.8347
 2354SOL    HW218525   0.372   1.707   8.516 -0.9881 -0.8531 -0.0359
 2355SOL     OW18526   0.950   3.116   6.244  0.2419  0.4410 -0.1404
 2355SOL    HW118527   1.029   3.168   6.230  0.4957 -0.1289 -0.7873
 2355SOL    HW218528   0.974   3.068   6.324 -1.5260 -2.1183 -1.1639
 2356SOL     OW18529   2.173   0.575   5.257 -0.0382 -0.3984 -0.4941
 2356SOL    HW118530   2.128   0.491   5.269 -0.1912 -0.2895 -0.2922
 2356SOL    HW218531   2.264   0.548   5.270  0.2410 -0.1606 -1.9732
 2357SOL     OW18532   4.411   1.847   9.371 -0.5300  0.0408 -0.0131
 2357SOL    HW118533   4.423   1.896   9.453 -2.7003  3.3788 -1.7081
 2357SOL    HW218534   4.478   1.890   9.318 -1.0632  0.8538 -0.0125
 2358SOL     OW18535   4.336   4.456   7.653 -0.4044  0.3373  0.1800
 2358SOL    HW118536   4.362   4.410   7.732 -1.6091 -0.0263  0.3695
 2358SOL    HW218537   4.391   4.533   7.664  0.8331 -0.2530 -1.7721
 2359SOL     OW18538   2.796   1.373  14.001  0.2177  0.3751  0.1391
 2359SOL    HW118539   2.763   1.460  14.024 -1.3236 -0.2627  0.3051
 2359SOL    HW218540   2.847   1.353  14.080  0.8348  1.5359  0.0306
 2360SOL     OW18541   2.636   0.681  12.037 -0.6128 -0.2649  0.2751
 2360SOL    HW118542   2.670   0.646  11.955 -2.0932  4.2688 -2.2757
 2360SOL    HW218543   2.576   0.753  12.017  1.5758  2.0157  1.9985
 2361SOL     OW18544   2.694   1.258   8.970 -0.0869  0.1291  0.5611
 2361SOL    HW118545   2.741   1.175   8.963 -0.2436  0.1624 -0.9699
 2361SOL    HW218546   2.660   1.245   9.058 -1.7229 -0.8613 -0.2239
 2362SOL     OW18547   1.585   0.381   3.264 -0.0220  0.3454  0.4653
 2362SOL    HW118548   1.620   0.470   3.274  1.7621 -0.2452 -0.4807
 2362SOL    HW218549   1.533   0.378   3.344 -0.6288 -1.0570  0.0109
 2363SOL     OW18550   0.943   3.839   1.961 -0.4233 -0.1034  0.0457
 2363SOL    HW118551   1.023   3.810   1.916 -0.2503  0.0637  0.2483
 2363SOL    HW218552   0.905   3.752   1.973 -1.1403  0.2837  0.5737
 2364SOL     OW18553   3.215   1.221   9.267  0.3933  0.4022 -0.8356
 2364SOL    HW118554   3.159   1.290   9.300 -0.1211 -1.5509  2.3667
 2364SOL    HW218555   3.207   1.219   9.171  0.7032 -4.3402 -0.7744
 2365SOL     OW18556   0.197   2.402   5.450 -0.1611  0.5922 -0.1087
 2365SOL    HW118557   0.161   2.464   5.387 -0.2925 -0.8566 -1.4402
 2365SOL    HW218558   0.277   2.450   5.473  0.9041  0.4442 -3.5317
 2366SOL     OW18559   3.165   3.191   1.140  0.0864  0.7799 -0.7035
 2366SOL    HW118560   3.160   3.281   1.108  0.1799  1.0272 -0.0118
 2366SOL    HW218561   3.251   3.167   1.106 -1.1261 -0.9799 -2.5531
 2367SOL     OW18562   3.704   1.740   2.569 -0.1018 -0.7704 -0.4495
 2367SOL    HW118563   3.739   1.663   2.524  1.8317 -0.5162  0.6050
 2367SOL    HW218564   3.613   1.737   2.539  0.3799 -0.0644 -1.9757
 2368SOL     OW18565   1.571   0.460   8.242 -0.1521 -0.2365 -0.3220
 2368SOL    HW118566   1.546   0.512   8.166  2.9575  0.7156 -0.6680
 2368SOL    HW218567   1.631   0.518   8.289  1.0015 -1.1707 -0.6436
 2369SOL     OW18568   4.465   4.652   9.088  0.3216  0.0461  0.7078
 2369SOL    HW118569   4.539   4.709   9.108 -0.1449  0.2073  1.9745
 2369SOL    HW218570   4.510   4.572   9.060 -0.2036  0.3562 -1.0037
 2370SOL     OW18571   0.105   1.008   2.853  0.0783  0.2178 -0.5810
 2370SOL    HW118572   0.167   0.966   2.793 -0.7579 -2.0795  0.1971
 2370SOL    HW218573   0.138   1.099   2.849 -2.4987  1.1197 -1.1067
 2371SOL     OW18574   3.686   4.580   5.890 -0.0066 -0.5119 -0.4649
 2371SOL    HW118575   3.647   4.655   5.844  0.9296 -0.0960 -0.5770
 2371SOL    HW218576   3.715   4.519   5.822  1.1040  0.6522 -1.0458
 2372SOL     OW18577   3.423   0.331  13.864 -0.8059  0.2815 -0.3072
 2372SOL    HW118578   3.377   0.316  13.782  0.4156 -0.2178 -0.9031
 2372SOL    HW218579   3.356   0.323  13.932  0.1027 -0.9386  0.4415
 2373SOL     OW18580   0.639   4.563  17.575  0.7906 -0.2405 -0.2915
 2373SOL    HW118581   0.562   4.595  17.528  1.1347  0.3019 -0.4815
 2373SOL    HW218582   0.695   4.640  17.586 -1.3769  1.4825 -1.3089
 2374SOL     OW18583   2.262   3.148   4.748  0.4734 -0.4004  0.0876
 2374SOL    HW118584   2.187   3.154   4.689  1.3566 -2.2578 -1.2606
 2374SOL    HW218585   2.217   3.169   4.830  0.0084 -0.8233 -0.0617
 2375SOL     OW18586   4.004   2.325   6.271 -0.5007 -0.0175 -0.1878
 2375SOL    HW118587   4.037   2.407   6.234 -0.2444  0.9573  2.2341
 2375SOL    HW218588   3.944   2.310   6.198 -0.5551  1.5590 -0.4644
 2376SOL     OW18589   1.334   1.165  14.265  0.1377  0.2365  0.8299
 2376SOL    HW118590   1.418   1.178  14.222  0.1693 -1.9404  0.2257
 2376SOL    HW218591   1.356   1.084  14.311  0.3685 -0.1963 -0.0444
 2377SOL     OW18592   3.288   1.605   3.599  0.5062 -0.4296  0.2570
 2377SOL    HW118593   3.360   1.625   3.540  0.3617 -1.9189 -0.4187
 2377SOL    HW218594   3.217   1.652   3.555 -1.2427 -1.6219  1.7907
 2378SOL     OW18595   2.007   1.997   2.872  0.3006  0.4875 -0.1797
 2378SOL    HW118596   2.039   2.082   2.902 -0.0951  0.1553  1.1980
 2378SOL    HW218597   1.960   2.024   2.793  2.6241  1.6044 -1.1740
 2379SOL     OW18598   2.739   3.994  16.307 -0.6793  0.6069 -0.4041
 2379SOL    HW118599   2.709   4.084  16.318 -1.1962  0.2648  1.0298
 2379SOL    HW218600   2.665   3.960  16.256 -1.3449 -1.2139  1.7582
 2380SOL     OW18601   2.703   4.521   8.041  0.0469 -0.5409 -0.1165
 2380SOL    HW118602   2.774   4.565   8.088  0.7295 -0.7920 -0.9059
 2380SOL    HW218603   2.712   4.541   7.948  1.8193  2.0925  0.6181
 2381SOL     OW18604   0.212   2.842   8.193 -0.2446  0.4019  0.0330
 2381SOL    HW118605   0.134   2.881   8.232 -1.0149 -0.6856 -0.4140
 2381SOL    HW218606   0.276   2.913   8.200 -0.8280  0.9030  0.2621
 2382SOL     OW18607   0.402   1.093   3.062  0.0591  0.0320  0.7512
 2382SOL    HW118608   0.424   1.131   2.976  0.2121 -0.5929  0.5111
 2382SOL    HW218609   0.474   1.031   3.073  2.5296  2.3526 -2.0863
 2383SOL     OW18610   2.763   3.376   6.791 -0.0372  0.2818 -0.1326
 2383SOL    HW118611   2.745   3.470   6.781  3.0953  0.7938 -0.9892
 2383SOL    HW218612   2.818   3.365   6.714  0.7431 -0.2893  0.4995
 2384SOL     OW18613   4.296   1.057   3.195  0.0124 -0.6611 -0.1836
 2384SOL    HW118614   4.370   1.022   3.145  1.0232 -0.4907  1.2124
 2384SOL    HW218615   4.226   1.015   3.145 -0.9756 -0.6468  1.1938
 2385SOL     OW18616   3.197   0.217   4.323 -0.4242  0.2946 -0.1701
 2385SOL    HW118617   3.258   0.163   4.272 -0.6574 -1.1322  1.0560
 2385SOL    HW218618   3.236   0.303   4.307  0.5959  0.2057  1.8082
 2386SOL     OW18619   2.807   1.708   1.401 -0.0286  0.4563 -0.0395
 2386SOL    HW118620   2.717   1.686   1.378 -0.3090  1.3790  0.1662
 2386SOL    HW218621   2.795   1.794   1.442  1.3260  0.3297  0.6071
 2387SOL     OW18622   0.402   2.413   6.470  0.0018 -0.2325 -0.4801
 2387SOL    HW118623   0.416   2.405   6.376 -0.8633  1.9262 -0.8031
 2387SOL    HW218624   0.314   2.378   6.485 -0.4355  0.4376 -1.4923
 2388SOL     OW18625   2.722   1.631  14.044  0.4232  0.5205 -0.4234
 2388SOL    HW118626   2.645   1.681  14.072  1.5663  1.1486  1.6369
 2388SOL    HW218627   2.781   1.706  14.040 -0.0327  0.8561 -0.8647
 2389SOL     OW18628   4.682   3.237  15.740  0.5726  0.0563  0.3392
 2389SOL    HW118629   4.668   3.161  15.684  1.1942 -0.0533  0.3277
 2389SOL    HW218630   0.012   3.292  15.682  2.7140  0.9146  3.1107
 2390SOL     OW18631   0.864   1.215   5.539  0.3157 -0.0299 -0.0289
 2390SOL    HW118632   0.871   1.310   5.545  0.6374 -0.0565  0.0041
 2390SOL    HW218633   0.932   1.198   5.474  0.9521  0.5033  0.4894
 2391SOL     OW18634   1.195   3.572  17.542 -0.2958 -0.0515 -0.1104
 2391SOL    HW118635   1.122   3.624  17.507  0.6714  1.0437 -0.5043
 2391SOL    HW218636   1.163   3.482  17.537 -1.2740  0.2238  1.5201
 2392SOL     OW18637   4.038   2.982   6.853  0.4616  0.0247 -0.5907
 2392SOL    HW118638   4.104   3.008   6.788 -0.6069  1.6757 -1.0061
 2392SOL    HW218639   3.989   2.927   6.792 -0.5264 -1.0905  1.2015
 2393SOL     OW18640   0.175   1.836   6.880  0.0715 -0.7313 -0.2224
 2393SOL    HW118641   0.259   1.793   6.861  1.3242  0.7993  1.9888
 2393SOL    HW218642   0.134   1.784   6.949  0.0224 -0.9997 -0.4503
 2394SOL     OW18643   1.754   1.326   9.880 -0.4013 -0.7576  0.0053
 2394SOL    HW118644   1.819   1.385   9.842 -1.2234 -0.4236 -0.9160
 2394SOL    HW218645   1.795   1.241   9.866  1.5904 -0.2014  2.4889
 2395SOL     OW18646   0.417   0.622  10.893 -0.3905 -0.0291 -0.1181
 2395SOL    HW118647   0.509   0.606  10.874 -0.7953 -0.7239 -1.5127
 2395SOL    HW218648   0.368   0.590  10.817 -0.1679  2.2125 -1.2181
 2396SOL     OW18649   0.538   2.344   2.199 -0.1024 -0.2984 -0.2720
 2396SOL    HW118650   0.553   2.253   2.222  0.6535  0.1507  1.0216
 2396SOL    HW218651   0.549   2.399   2.277  0.8350 -1.2443  0.2565
 2397SOL     OW18652   1.064   1.668   4.565 -0.3408  0.1919 -0.1103
 2397SOL    HW118653   1.060   1.704   4.654 -0.7956 -1.0924  0.3850
 2397SOL    HW218654   1.140   1.717   4.534 -0.8952 -0.5219 -2.5845
 2398SOL     OW18655   4.140   2.615   3.179  0.2564 -0.1522  0.0084
 2398SOL    HW118656   4.092   2.546   3.226  0.1566  0.2722  0.5231
 2398SOL    HW218657   4.163   2.563   3.102 -0.9206 -0.7087  0.0319
 2399SOL     OW18658   1.583   0.946  14.248 -0.1373  0.0381  0.9260
 2399SOL    HW118659   1.594   0.855  14.223 -1.0748 -0.3635  1.9810
 2399SOL    HW218660   1.613   0.990  14.168 -1.0706 -2.8339 -0.9961
 2400SOL     OW18661   3.965   0.007   5.116 -0.1000 -0.3097 -0.1893
 2400SOL    HW118662   3.941   0.096   5.090  0.2372  0.1450  1.0557
 2400SOL    HW218663   4.042   0.023   5.171 -0.7682 -1.8145  1.1548
 2401SOL     OW18664   1.497   3.656  13.251 -0.2450  0.0347  0.0248
 2401SOL    HW118665   1.502   3.710  13.330  0.7168 -0.2590  0.1644
 2401SOL    HW218666   1.514   3.568  13.285  1.2415  0.4845  0.4483
 2402SOL     OW18667   1.890   2.403  14.185  0.3765 -0.0883 -0.4804
 2402SOL    HW118668   1.893   2.498  14.173 -2.6805  0.1332  0.5259
 2402SOL    HW218669   1.951   2.376  14.117 -0.2534 -0.5600 -0.8568
 2403SOL     OW18670   1.845   2.506   6.239 -0.1005 -0.1951  0.0715
 2403SOL    HW118671   1.750   2.505   6.223 -0.3166 -2.7714  1.5333
 2403SOL    HW218672   1.861   2.418   6.207 -0.3481 -0.7666  1.4905
 2404SOL     OW18673   2.133   1.982  13.959 -0.6964  0.5613 -0.7601
 2404SOL    HW118674   2.173   1.959  13.875  1.6678 -2.3035  1.1612
 2404SOL    HW218675   2.133   2.078  13.961  2.3300  0.5442 -0.1287
 2405SOL     OW18676   3.795   4.468   8.288  0.4314 -0.2380 -0.2042
 2405SOL    HW118677   3.726   4.526   8.255 -0.5194  0.7867  3.5974
 2405SOL    HW218678   3.831   4.508   8.367 -0.6345  0.4685 -0.0763
 2406SOL     OW18679   3.316   3.991  13.916  0.7020  0.1342  0.0649
 2406SOL    HW118680   3.273   4.047  13.851  0.4330 -1.5731 -1.2333
 2406SOL    HW218681   3.293   4.038  13.995  0.4755  3.1093 -1.7735
 2407SOL     OW18682   2.465   3.156   3.861  0.2724 -0.1009 -0.3144
 2407SOL    HW118683   2.426   3.189   3.780  1.0109  1.3890 -0.0688
 2407SOL    HW218684   2.477   3.062   3.850  2.0189  0.0681  0.1087
 2408SOL     OW18685   3.403   2.559   7.606  0.0610 -0.6436  0.0352
 2408SOL    HW118686   3.488   2.514   7.611  0.1613 -0.2125  1.8859
 2408SOL    HW218687   3.371   2.558   7.696 -0.1314 -0.9895 -0.0371
 2409SOL     OW18688   3.542   2.476   2.884 -0.1553 -0.6895 -0.1379
 2409SOL    HW118689   3.613   2.531   2.917 -0.5295 -1.4920  1.9975
 2409SOL    HW218690   3.576   2.477   2.795 -1.4790  1.0484 -0.6286
 2410SOL     OW18691   0.447   0.330  15.170  0.2956 -0.1479  0.1890
 2410SOL    HW118692   0.529   0.380  15.176 -0.7055  1.5270  0.0207
 2410SOL    HW218693   0.439   0.299  15.080 -1.1698 -1.5616  0.8030
 2411SOL     OW18694   4.123   1.538   1.960  0.6010  0.3396  0.3754
 2411SOL    HW118695   4.187   1.610   1.963 -0.3603  1.1482  1.6397
 2411SOL    HW218696   4.167   1.472   1.906  0.7295  0.7255  0.0100
 2412SOL     OW18697   4.713   1.503   8.200  0.0495  0.1003  0.2071
 2412SOL    HW118698   4.679   1.591   8.213 -1.6360 -0.6338  0.7049
 2412SOL    HW218699   4.673   1.477   8.118  0.6705  0.1963 -0.1315
 2413SOL     OW18700   4.633   1.632   0.781 -0.0718  0.2508 -0.6794
 2413SOL    HW118701   0.006   1.630   0.774  0.0146  0.8630  0.2712
 2413SOL    HW218702   4.616   1.716   0.823  1.1241  0.1929 -0.0804
 2414SOL     OW18703   4.375   2.048   5.976  0.6217 -0.3441 -0.7962
 2414SOL    HW118704   4.381   2.122   6.037  0.5142  0.2414 -1.5014
 2414SOL    HW218705   4.395   2.087   5.891  1.7974 -0.3425 -0.5131
 2415SOL     OW18706   3.290   3.497   2.044 -0.2633 -0.0210  0.6593
 2415SOL    HW118707   3.336   3.501   2.128  0.3122  3.0684  0.2271
 2415SOL    HW218708   3.368   3.487   1.989 -0.2579 -2.2378  1.0636
 2416SOL     OW18709   4.345   0.315   2.441 -0.2298 -0.4057  0.1439
 2416SOL    HW118710   4.275   0.329   2.377 -1.0546 -0.8495  0.9515
 2416SOL    HW218711   4.425   0.341   2.396  0.3699  2.5402  2.9396
 2417SOL     OW18712   2.333   1.684   2.163 -0.2245  0.3621 -0.0122
 2417SOL    HW118713   2.405   1.649   2.110 -0.1616  3.0084 -1.6720
 2417SOL    HW218714   2.354   1.777   2.159  0.3890  0.2212 -0.0254
 2418SOL     OW18715   1.359   1.383   2.288  0.6947  0.2453 -0.5711
 2418SOL    HW118716   1.439   1.332   2.304 -0.7931 -2.2638 -1.1527
 2418SOL    HW218717   1.325   1.351   2.205 -1.4366 -3.3055  1.6471
 2419SOL     OW18718   4.679   3.256   5.445  0.7778 -0.1942  0.3802
 2419SOL    HW118719   0.019   3.328   5.445 -0.2934  0.7365 -0.2047
 2419SOL    HW218720   4.599   3.303   5.422  1.2308  0.0492 -0.6984
 2420SOL     OW18721   4.513   0.016   9.501 -0.4890 -0.1499  0.1662
 2420SOL    HW118722   4.585   4.710   9.446 -0.9671 -0.4777 -0.2937
 2420SOL    HW218723   4.508   0.111   9.487  0.3065 -0.0819  0.3788
 2421SOL     OW18724   1.706   3.353   9.273 -0.4458  0.0465  0.4843
 2421SOL    HW118725   1.743   3.433   9.236  2.0447 -0.5947  1.5864
 2421SOL    HW218726   1.707   3.295   9.197  2.4411 -1.0824  1.3838
 2422SOL     OW18727   1.806   3.697  13.105 -0.3345  0.2707  0.2841
 2422SOL    HW118728   1.758   3.754  13.165 -0.9146  0.8920 -0.7708
 2422SOL    HW218729   1.845   3.629  13.160  0.2462  0.9290  0.6894
 2423SOL     OW18730   0.607   2.236   4.534  0.4970 -0.9013 -0.4427
 2423SOL    HW118731   0.559   2.234   4.451 -0.8158 -1.1844  0.3137
 2423SOL    HW218732   0.688   2.190   4.514  1.5213  0.3837  0.7429
 2424SOL     OW18733   4.632   2.888   0.824 -0.3893  0.2172 -0.2369
 2424SOL    HW118734   4.619   2.965   0.769  2.0047 -0.7697 -2.1811
 2424SOL    HW218735   4.560   2.897   0.887 -1.3719 -1.5337 -1.1183
 2425SOL     OW18736   4.653   1.643   8.556  0.5400  0.5483 -0.0693
 2425SOL    HW118737   4.651   1.656   8.461  3.0385 -0.1389 -0.2032
 2425SOL    HW218738   0.022   1.621   8.573  0.4040  0.6165  0.7623
 2426SOL     OW18739   0.793   4.022   4.320  0.2253  0.0874 -0.1755
 2426SOL    HW118740   0.781   4.068   4.403 -0.9791 -2.3860  1.0358
 2426SOL    HW218741   0.780   3.929   4.339 -0.5305  0.4684  1.1503
 2427SOL     OW18742   3.599   3.777   5.080  0.5211 -0.1952  0.0412
 2427SOL    HW118743   3.539   3.852   5.075  0.0511 -0.6020 -0.5563
 2427SOL    HW218744   3.554   3.733   5.152 -2.0599 -0.4875 -1.7303
 2428SOL     OW18745   1.977   2.586   9.571 -0.0015  0.4884  0.2336
 2428SOL    HW118746   2.007   2.502   9.536  0.8797  0.9885 -0.2147
 2428SOL    HW218747   2.039   2.653   9.543 -1.0985  0.8453 -1.3377
 2429SOL     OW18748   4.287   3.444  13.619  0.4811 -0.3977 -0.4120
 2429SOL    HW118749   4.251   3.463  13.705  2.0027 -1.3194  0.4176
 2429SOL    HW218750   4.280   3.349  13.611 -1.0572 -0.1814 -1.6571
 2430SOL     OW18751   0.305   3.591  13.936  0.1786 -0.1276 -0.0889
 2430SOL    HW118752   0.321   3.599  13.842 -0.3686 -0.9502 -0.2463
 2430SOL    HW218753   0.210   3.601  13.946  0.2154  0.1365 -0.0055
 2431SOL     OW18754   0.048   1.102   0.296  0.2550  0.0802 -0.1393
 2431SOL    HW118755   0.039   1.012   0.264  1.1192  0.1388 -0.5349
 2431SOL    HW218756   4.705   1.146   0.242  1.7953  0.6514 -1.5430
 2432SOL     OW18757   1.712   2.948   0.016 -0.0622 -0.3507  0.2622
 2432SOL    HW118758   1.784   2.913   0.068  0.0757 -1.4986 -0.7038
 2432SOL    HW218759   1.762   3.016  17.664  1.8056 -1.7602  0.2438
 2433SOL     OW18760   3.192   4.527   4.325 -0.4131  0.2357 -0.3427
 2433SOL    HW118761   3.183   4.465   4.253  0.4604 -0.4555  0.1506
 2433SOL    HW218762   3.282   4.510   4.353 -0.3198 -0.9233 -1.3622
 2434SOL     OW18763   0.850   3.039   4.595  0.1134 -0.5560  0.4124
 2434SOL    HW118764   0.939   3.073   4.599 -0.8021  1.7403  1.0244
 2434SOL    HW218765   0.847   2.990   4.512 -0.1176  0.7244 -0.3360
 2435SOL     OW18766   1.788   3.961  15.323 -0.6467 -0.0472 -0.7535
 2435SOL    HW118767   1.774   3.873  15.287 -0.2685 -0.4861  0.1642
 2435SOL    HW218768   1.770   4.010  15.243 -0.6020  0.3193 -0.5388
 2436SOL     OW18769   2.854   2.325  12.431  0.1637 -0.0767 -0.5383
 2436SOL    HW118770   2.934   2.298  12.476  0.8500  0.4456 -1.4526
 2436SOL    HW218771   2.895   2.365  12.354  1.2580  0.1171  0.1383
 2437SOL     OW18772   3.885   1.252  12.269 -0.2943  0.1769  0.3988
 2437SOL    HW118773   3.838   1.284  12.192  0.7705 -2.0970 -1.1678
 2437SOL    HW218774   3.835   1.303  12.333 -1.7214  0.7640 -1.2046
 2438SOL     OW18775   1.553   1.652   8.246  0.1621  0.4972 -0.0729
 2438SOL    HW118776   1.508   1.567   8.249 -0.4942  0.8134 -0.8042
 2438SOL    HW218777   1.486   1.718   8.265 -0.9851 -0.4581 -0.7775
 2439SOL     OW18778   0.080   0.761  15.080 -0.3161  0.0581  0.8270
 2439SOL    HW118779   0.138   0.729  15.011 -0.6474 -0.8126  0.9589
 2439SOL    HW218780   0.030   0.683  15.105  1.0072 -2.1357 -3.4064
 2440SOL     OW18781   0.694   1.121   1.912  0.6540 -1.0568 -0.6625
 2440SOL    HW118782   0.763   1.135   1.848  0.5384  1.4133 -0.2341
 2440SOL    HW218783   0.639   1.197   1.896  0.1856 -1.9302 -3.0786
 2441SOL     OW18784   0.132   1.202  10.456 -0.0716 -0.1973  0.2842
 2441SOL    HW118785   0.172   1.169  10.537  2.8666 -0.3645 -1.2354
 2441SOL    HW218786   0.144   1.124  10.402  1.2364 -0.5110  1.0215
 2442SOL     OW18787   3.407   2.209   8.382  0.4031 -0.2937 -0.2514
 2442SOL    HW118788   3.490   2.255   8.368 -0.4435  1.1114 -0.6417
 2442SOL    HW218789   3.405   2.215   8.478  0.0319  0.1366 -0.2838
 2443SOL     OW18790   0.755   2.818   5.690  0.2292  0.7098  0.4197
 2443SOL    HW118791   0.804   2.800   5.770  0.7500  0.3636  0.0241
 2443SOL    HW218792   0.783   2.904   5.657  0.8641 -0.8673 -3.1266
 2444SOL     OW18793   2.601   3.735  12.508 -0.0191  0.2436 -0.7066
 2444SOL    HW118794   2.687   3.772  12.529  0.6835 -0.0822 -3.0966
 2444SOL    HW218795   2.614   3.640  12.511 -2.3634 -0.0461  0.6934
 2445SOL     OW18796   4.401   0.616   3.760 -0.2153 -0.0055 -0.2075
 2445SOL    HW118797   4.424   0.704   3.792 -0.0778 -0.5897  1.2806
 2445SOL    HW218798   4.410   0.565   3.840 -0.8576  0.0160 -0.1223
 2446SOL     OW18799   4.172   0.855   3.029 -0.1207  0.2417  0.8709
 2446SOL    HW118800   4.110   0.850   2.956  0.8857  2.0249 -0.0988
 2446SOL    HW218801   4.224   0.781   3.000 -1.1200 -0.8041  1.7241
 2447SOL     OW18802   0.906   2.280  13.963  0.3242 -0.2198 -0.0962
 2447SOL    HW118803   0.956   2.354  13.997 -0.3550 -0.3217  1.1016
 2447SOL    HW218804   0.818   2.295  13.996  0.9180 -1.4837  2.0281
 2448SOL     OW18805   0.850   1.617   9.786 -0.1341 -0.6688 -0.2827
 2448SOL    HW118806   0.765   1.590   9.823 -0.7482 -0.1707 -1.3203
 2448SOL    HW218807   0.850   1.709   9.812  1.5562 -0.8575  0.3324
 2449SOL     OW18808   2.254   1.956   6.502 -0.3344  0.2203 -0.2958
 2449SOL    HW118809   2.262   2.051   6.508  2.9498 -0.2151  1.9595
 2449SOL    HW218810   2.217   1.952   6.414  2.2185 -2.1943 -1.2489
 2450SOL     OW18811   1.552   1.473   8.862  0.5193  0.3815 -0.3218
 2450SOL    HW118812   1.637   1.512   8.884  1.0664 -1.0484  0.1596
 2450SOL    HW218813   1.486   1.536   8.890  0.8130 -0.7939  2.9705
 2451SOL     OW18814   2.328   2.791   3.889 -0.3071  0.0211 -0.0806
 2451SOL    HW118815   2.271   2.731   3.842  1.6260 -2.1264  0.2537
 2451SOL    HW218816   2.399   2.801   3.825  1.8717 -2.7839  1.8461
 2452SOL     OW18817   0.338   2.866  16.714  0.0055 -0.2742 -0.2871
 2452SOL    HW118818   0.264   2.915  16.678  0.5756 -0.0543 -1.1469
 2452SOL    HW218819   0.342   2.796  16.649 -1.0760 -0.8499  0.2539
 2453SOL     OW18820   3.969   3.861  14.558 -0.2934 -0.4935 -0.9414
 2453SOL    HW118821   3.991   3.905  14.476 -1.0272  2.5291  0.4860
 2453SOL    HW218822   3.935   3.780  14.520 -0.0992 -1.5201  1.1099
 2454SOL     OW18823   3.530   3.101   5.818  0.3963 -0.6690 -0.4072
 2454SOL    HW118824   3.589   3.151   5.761  0.2210  0.2821  0.2345
 2454SOL    HW218825   3.453   3.098   5.761 -1.6137  1.0286  2.2544
 2455SOL     OW18826   2.458   0.055   6.678 -0.4052 -0.6338 -0.1933
 2455SOL    HW118827   2.455   0.123   6.746  1.1879 -0.1587 -0.6110
 2455SOL    HW218828   2.484   4.701   6.730 -0.0851 -1.2010 -1.1885
 2456SOL     OW18829   0.943   1.787   5.031  0.0783  0.7773  0.8092
 2456SOL    HW118830   0.849   1.769   5.038  0.4460 -0.8731  1.5535
 2456SOL    HW218831   0.967   1.871   5.071 -0.7389  2.4182 -2.1325
 2457SOL     OW18832   1.170   2.064   1.188  1.0019 -0.4780  0.3830
 2457SOL    HW118833   1.075   2.050   1.180  1.3352 -1.6845 -1.4874
 2457SOL    HW218834   1.204   2.112   1.113 -1.0320 -2.3953 -1.7906
 2458SOL     OW18835   2.796   2.726   5.488  0.4736 -0.4216  0.5639
 2458SOL    HW118836   2.753   2.665   5.549  0.2658 -2.4032 -1.5622
 2458SOL    HW218837   2.789   2.810   5.532 -0.3856  0.0408 -0.4559
 2459SOL     OW18838   0.402   1.987   4.821  0.2557 -0.6441  0.0117
 2459SOL    HW118839   0.384   1.928   4.895  2.3115 -2.5473 -0.9799
 2459SOL    HW218840   0.375   1.947   4.739  1.0035 -0.7601 -0.1787
 2460SOL     OW18841   1.115   1.590   9.710 -0.3378 -0.1918  0.0326
 2460SOL    HW118842   1.023   1.579   9.735 -0.1001  0.7405  1.2878
 2460SOL    HW218843   1.109   1.685   9.699 -1.9393 -0.6281 -2.8002
 2461SOL     OW18844   4.686   3.765   9.462 -0.1863 -0.2348  0.7876
 2461SOL    HW118845   4.714   3.743   9.373  1.9226 -0.2412  1.4493
 2461SOL    HW218846   4.638   3.846   9.443  1.4199  0.5307 -0.0465
 2462SOL     OW18847   3.195   0.868   6.125 -0.0233  0.0955  0.0637
 2462SOL    HW118848   3.216   0.827   6.041  0.4021 -0.2106  0.3181
 2462SOL    HW218849   3.100   0.858   6.131 -0.2097  1.1227 -1.3856
 2463SOL     OW18850   0.251   4.291   2.226 -0.2180  0.1747 -0.3137
 2463SOL    HW118851   0.309   4.224   2.190 -0.2763 -0.2888  0.4578
 2463SOL    HW218852   0.311   4.363   2.243  1.4408 -0.5339 -3.1976
 2464SOL     OW18853   3.179   0.172   9.268 -0.1654  0.0416  0.3521
 2464SOL    HW118854   3.252   0.218   9.225 -2.7070  1.1949 -2.7107
 2464SOL    HW218855   3.206   0.178   9.360 -0.6238 -0.8892  0.5487
 2465SOL     OW18856   4.718   1.971   3.612  0.4514 -0.3567  0.0809
 2465SOL    HW118857   4.669   1.919   3.549 -0.7867  0.6774  0.1846
 2465SOL    HW218858   0.067   1.998   3.555  2.4180 -0.6394  2.3740
 2466SOL     OW18859   4.253   3.954   5.243  0.2290 -0.2159 -0.1301
 2466SOL    HW118860   4.260   4.011   5.319  1.1521 -0.2460 -0.1879
 2466SOL    HW218861   4.284   3.867   5.271  2.6422  0.2265 -1.3812
 2467SOL     OW18862   1.740   3.061   0.648  0.6315  0.2435 -0.2530
 2467SOL    HW118863   1.770   3.076   0.738 -0.2541 -0.4409  0.1561
 2467SOL    HW218864   1.663   3.118   0.649  0.9384  0.6450  0.5933
 2468SOL     OW18865   0.547   2.714   1.904  0.4018 -0.3937  0.6318
 2468SOL    HW118866   0.547   2.716   1.808  0.6840  2.9233  0.7098
 2468SOL    HW218867   0.627   2.665   1.919  0.8503  0.2083  0.2009
 2469SOL     OW18868   2.632   4.026   6.247 -0.3209  0.3049 -0.0612
 2469SOL    HW118869   2.611   3.991   6.333  1.1029 -1.8449 -0.6033
 2469SOL    HW218870   2.619   4.115   6.280 -0.2724 -0.5553  2.2933
 2470SOL     OW18871   4.570   0.756   0.806  0.5742 -0.9013  0.4083
 2470SOL    HW118872   4.509   0.809   0.857 -0.4320 -0.7144 -0.9881
 2470SOL    HW218873   4.519   0.681   0.775  1.0883 -2.0093  2.2582
 2471SOL     OW18874   1.304   2.745   2.965 -0.0752  0.0468 -0.1811
 2471SOL    HW118875   1.273   2.801   3.036  1.1130  0.7809 -0.2428
 2471SOL    HW218876   1.391   2.726   2.999 -0.6016  1.2831  1.8378
 2472SOL     OW18877   0.984   0.046   4.937 -0.2409  0.1333 -0.0158
 2472SOL    HW118878   1.004   4.701   4.872  2.5783 -0.0815  1.0550
 2472SOL    HW218879   0.956   0.115   4.878  0.0986  0.8815  0.6967
 2473SOL     OW18880   2.255   1.051   6.854  0.7846 -0.1351 -0.0684
 2473SOL    HW118881   2.341   1.060   6.893  1.4990 -1.0102 -1.4315
 2473SOL    HW218882   2.250   1.130   6.799 -1.1436  0.3365  0.7863
 2474SOL     OW18883   4.143   1.260   0.965 -0.1298  0.3209  0.0820
 2474SOL    HW118884   4.142   1.176   1.012  0.8822  0.1915 -0.1359
 2474SOL    HW218885   4.168   1.233   0.877 -1.3362 -0.3241 -0.0657
 2475SOL     OW18886   0.209   2.977   5.641 -0.8834 -0.5038  0.0055
 2475SOL    HW118887   0.131   2.967   5.696 -0.3300  0.5542  0.9818
 2475SOL    HW218888   0.240   2.887   5.633 -1.0522 -0.5639  0.0330
 2476SOL     OW18889   0.233   0.258   1.890 -0.4950 -0.0440 -0.5882
 2476SOL    HW118890   0.151   0.212   1.873 -0.8713  0.8538 -1.2145
 2476SOL    HW218891   0.228   0.284   1.982 -1.0665 -0.4458 -0.5060
 2477SOL     OW18892   3.523   0.167   2.574 -0.3141  0.4316  0.3514
 2477SOL    HW118893   3.484   0.187   2.489 -1.9549  1.2773  1.3121
 2477SOL    HW218894   3.611   0.199   2.554  0.1148  0.2866  2.0292
 2478SOL     OW18895   1.180   1.831  13.427  0.3343 -0.4004 -0.1002
 2478SOL    HW118896   1.097   1.816  13.382 -0.7869 -0.5138  2.0112
 2478SOL    HW218897   1.168   1.768  13.498  0.3053  1.8994  1.9432
 2479SOL     OW18898   0.809   2.981   7.935 -0.5291 -0.4290 -0.0190
 2479SOL    HW118899   0.782   2.966   7.845 -0.4259  0.5722 -0.2159
 2479SOL    HW218900   0.733   2.949   7.984  0.5504 -2.0753  0.5815
 2480SOL     OW18901   2.347   1.605   2.652 -0.2712  0.0020  0.1617
 2480SOL    HW118902   2.346   1.697   2.679 -1.9359 -0.7315  2.7338
 2480SOL    HW218903   2.296   1.608   2.571 -0.2902 -2.6231  0.0997
 2481SOL     OW18904   0.166   0.347  11.554 -0.3066 -0.1635 -0.3871
 2481SOL    HW118905   0.198   0.263  11.520  0.6936  0.7752 -1.7802
 2481SOL    HW218906   0.083   0.324  11.595  0.4202 -0.1294  1.1050
 2482SOL     OW18907   4.313   0.835  16.278  0.5698  0.0287 -0.1001
 2482SOL    HW118908   4.296   0.904  16.342 -0.6351 -0.2220 -0.1483
 2482SOL    HW218909   4.248   0.768  16.299  0.0344 -0.0182 -1.8601
 2483SOL     OW18910   2.203   0.078  13.875 -0.5492  0.3650  0.7580
 2483SOL    HW118911   2.242   0.154  13.832  1.0184 -0.6392  0.3968
 2483SOL    HW218912   2.134   0.061  13.811 -1.3358  3.5518  0.7513
 2484SOL     OW18913   3.559   1.161   6.764 -0.2919  0.6856 -0.1059
 2484SOL    HW118914   3.573   1.256   6.759 -0.5971  0.6970 -0.7672
 2484SOL    HW218915   3.551   1.136   6.672 -0.4128  1.1967 -0.2360
 2485SOL     OW18916   3.700   3.822   6.883  0.2196 -0.1319 -0.4672
 2485SOL    HW118917   3.619   3.859   6.918 -1.2315 -0.7701 -3.1133
 2485SOL    HW218918   3.751   3.795   6.959  0.3348 -0.6087 -0.7123
 2486SOL     OW18919   3.068   0.405   5.147  0.1548 -0.2031  0.0240
 2486SOL    HW118920   3.004   0.361   5.092  0.7611 -3.1297  1.6892
 2486SOL    HW218921   3.116   0.438   5.071 -2.3675  2.4231 -0.4480
 2487SOL     OW18922   4.101   1.190   8.229 -0.0179  0.1047 -0.0103
 2487SOL    HW118923   4.034   1.257   8.232 -1.1264 -1.1474  3.0417
 2487SOL    HW218924   4.064   1.139   8.157 -0.5663 -1.4109  1.3488
 2488SOL     OW18925   4.587   0.084   8.110 -0.0289 -0.0977 -0.2659
 2488SOL    HW118926   4.581   0.030   8.189  0.4740 -1.1682 -0.9633
 2488SOL    HW218927   4.585   0.167   8.158 -1.5012 -0.9934  1.2446
 2489SOL     OW18928   0.221   0.572  17.111  0.5352  0.2292  0.1112
 2489SOL    HW118929   0.258   0.581  17.023  1.6737  1.8153  0.7509
 2489SOL    HW218930   0.283   0.510  17.149  1.8053  1.5609  0.2071
 2490SOL     OW18931   1.389   0.888   8.667  0.3370  0.4408  0.3708
 2490SOL    HW118932   1.341   0.806   8.672 -0.2484  0.7102 -0.8300
 2490SOL    HW218933   1.474   0.858   8.698  0.3576 -0.4550 -0.5601
 2491SOL     OW18934   0.241   1.084   4.763  0.0730  0.8984  0.0380
 2491SOL    HW118935   0.296   1.110   4.836  2.0274 -0.5889 -0.9046
 2491SOL    HW218936   0.304   1.065   4.693 -1.3155 -0.5251 -0.8135
 2492SOL     OW18937   4.303   4.230   2.672  0.4100  0.1263 -0.0183
 2492SOL    HW118938   4.298   4.203   2.580  4.2078  1.2839 -0.5670
 2492SOL    HW218939   4.250   4.310   2.671  0.8826  0.4287 -1.5414
 2493SOL     OW18940   0.553   4.183   0.716 -0.6141 -0.0922  0.7277
 2493SOL    HW118941   0.470   4.230   0.724 -0.8530 -0.3317 -0.2560
 2493SOL    HW218942   0.614   4.256   0.700  1.4110 -2.2723 -1.5949
 2494SOL     OW18943   3.544   2.145   0.219 -0.0868 -0.8992  0.7186
 2494SOL    HW118944   3.525   2.193   0.300 -0.5862 -1.2507  0.8113
 2494SOL    HW218945   3.475   2.079   0.229 -2.1429  1.2020  0.3721
 2495SOL     OW18946   2.373   0.516   2.922  0.4975 -0.0443  0.2188
 2495SOL    HW118947   2.315   0.494   2.995  1.7395  1.7059  1.7250
 2495SOL    HW218948   2.409   0.599   2.953  1.8843 -0.5985  0.1146
 2496SOL     OW18949   4.310   1.779  15.022 -0.0585  0.6225 -0.4407
 2496SOL    HW118950   4.354   1.707  15.067 -1.1013 -0.2965 -0.8854
 2496SOL    HW218951   4.335   1.853  15.078 -0.3878  0.1940  0.2608
 2497SOL     OW18952   2.890   1.932   2.863  0.2478  0.0041 -0.1908
 2497SOL    HW118953   2.870   1.844   2.834 -2.1517  1.1933 -2.1508
 2497SOL    HW218954   2.978   1.920   2.900  0.3816  2.4523  0.2956
 2498SOL     OW18955   4.113   4.237   8.330 -0.6195 -0.8022 -0.0469
 2498SOL    HW118956   4.153   4.300   8.391 -2.0477  1.0682 -1.0535
 2498SOL    HW218957   4.086   4.170   8.393  1.4088 -2.3514 -0.8235
 2499SOL     OW18958   1.742   1.985   3.006 -0.1493  0.3312 -0.7413
 2499SOL    HW118959   1.768   2.053   2.943 -1.9681  0.6664 -1.1257
 2499SOL    HW218960   1.754   1.901   2.962 -1.3877  0.6804 -1.7647
 2500SOL     OW18961   4.130   3.810   9.424  0.1563 -0.1082  0.0195
 2500SOL    HW118962   4.223   3.795   9.442  0.2466 -1.4250 -1.5981
 2500SOL    HW218963   4.118   3.882   9.486 -1.8937  0.8617 -1.4980
 2501SOL     OW18964   0.409   1.706   1.735  0.0766  0.3200 -0.2610
 2501SOL    HW118965   0.384   1.742   1.820  0.9729 -0.7680  0.4624
 2501SOL    HW218966   0.331   1.716   1.681  0.7574 -0.5136 -1.4091
 2502SOL     OW18967   0.257   2.414   9.678  0.3446  0.0080  0.8120
 2502SOL    HW118968   0.338   2.428   9.727 -0.0046 -1.7232  1.8602
 2502SOL    HW218969   0.244   2.501   9.640  0.3424 -0.0865  0.5966
 2503SOL     OW18970   0.044   3.006  15.601  0.1216 -0.0679  0.3171
 2503SOL    HW118971   0.002   2.952  15.668 -0.5827 -0.8349 -0.7409
 2503SOL    HW218972   0.020   2.953  15.524  1.0961  0.8407 -0.6163
 2504SOL     OW18973   2.425   2.493  10.185 -0.2673  0.1343  0.1053
 2504SOL    HW118974   2.466   2.476  10.270  4.1166 -0.0937 -2.0665
 2504SOL    HW218975   2.496   2.518  10.125  0.4888 -3.1991 -0.3512
 2505SOL     OW18976   3.876   4.458   3.566 -0.4880  0.1283  0.4367
 2505SOL    HW118977   3.889   4.549   3.540  2.1967 -0.8642 -1.6835
 2505SOL    HW218978   3.937   4.449   3.640 -0.0919 -0.7702 -0.0037
 2506SOL     OW18979   1.210   0.092   6.777 -0.7887  0.4725 -0.0946
 2506SOL    HW118980   1.297   0.089   6.816 -0.1089  0.0850 -1.6326
 2506SOL    HW218981   1.191   4.722   6.760 -1.1399  1.2616 -4.0921
 2507SOL     OW18982   3.040   2.763  11.541 -0.1740 -0.7380 -0.0632
 2507SOL    HW118983   3.066   2.793  11.455  0.8559  1.1477  0.9143
 2507SOL    HW218984   2.996   2.681  11.518  0.5831 -1.7267  1.9784
 2508SOL     OW18985   0.719   1.012   6.073  0.0418  0.0628  0.0812
 2508SOL    HW118986   0.689   1.038   5.986  1.4131  0.9570 -0.1364
 2508SOL    HW218987   0.704   0.918   6.068  0.6426 -0.1689  2.6775
 2509SOL     OW18988   3.489   1.654   4.867 -0.5596 -0.4688 -0.2649
 2509SOL    HW118989   3.565   1.711   4.877  0.3029 -1.5366 -0.6874
 2509SOL    HW218990   3.467   1.628   4.956  0.3352  0.8774  0.3355
 2510SOL     OW18991   0.731   2.833   5.003 -0.2181  0.2132  0.3500
 2510SOL    HW118992   0.769   2.807   5.087 -1.8030  0.7065  1.2232
 2510SOL    HW218993   0.722   2.928   5.015  1.2012  0.0998  2.3217
 2511SOL     OW18994   1.651   3.777  17.097 -0.3883 -0.0257  0.0045
 2511SOL    HW118995   1.577   3.824  17.058  0.2582  0.1225 -1.0329
 2511SOL    HW218996   1.628   3.766  17.189  0.8696  0.0735  0.3346
 2512SOL     OW18997   2.466   3.025  11.479  0.2824 -0.5381 -0.1423
 2512SOL    HW118998   2.553   3.011  11.517  0.4867  0.1898 -0.3358
 2512SOL    HW218999   2.403   2.997  11.545  0.6077 -1.0515 -0.0486
 2513SOL     OW19000   2.348   0.873  10.807 -0.2278 -0.3503  0.0251
 2513SOL    HW119001   2.356   0.953  10.859 -2.3547  1.3562 -2.2315
 2513SOL    HW219002   2.339   0.911  10.719 -1.4727 -1.8249 -0.4742
 2514SOL     OW19003   3.625   0.748   5.158  0.3983  0.2826 -0.4596
 2514SOL    HW119004   3.705   0.738   5.107  0.8699 -1.0100  0.5394
 2514SOL    HW219005   3.650   0.766   5.248  0.9853 -1.8094 -0.1986
 2515SOL     OW19006   3.915   0.776   1.178  0.5253  0.1947 -0.1759
 2515SOL    HW119007   3.922   0.852   1.120  0.7395  0.4672  0.2148
 2515SOL    HW219008   3.824   0.746   1.174  0.4698  0.4762 -1.1935
 2516SOL     OW19009   0.004   0.081  10.102  0.2244 -0.1912  0.2111
 2516SOL    HW119010   4.674   0.090  10.023 -0.2918  1.9868  0.7921
 2516SOL    HW219011   0.062   0.010  10.075 -0.0297 -0.3816  0.1717
 2517SOL     OW19012   2.918   4.391   5.445 -0.3030  0.0209  0.7396
 2517SOL    HW119013   2.977   4.454   5.485 -2.0255  2.8201 -1.0899
 2517SOL    HW219014   2.841   4.449   5.444 -1.9873 -2.2168 -1.0183
 2518SOL     OW19015   2.694   2.794   4.704 -0.2893  0.0107  0.4640
 2518SOL    HW119016   2.630   2.748   4.759 -1.8491  1.6429  0.0066
 2518SOL    HW219017   2.652   2.862   4.651 -0.1373  0.4773  0.9403
 2519SOL     OW19018   4.489   4.308  17.379  0.4512 -0.0919 -0.0478
 2519SOL    HW119019   4.401   4.318  17.341  1.1584  1.7189 -1.2057
 2519SOL    HW219020   4.498   4.214  17.393  2.4164  0.5348  2.7960
 2520SOL     OW19021   0.817   4.033   8.221 -0.3793 -0.2175 -0.6688
 2520SOL    HW119022   0.724   4.052   8.234 -0.4895  0.7093 -2.8591
 2520SOL    HW219023   0.847   3.983   8.297  2.3829 -0.8251 -2.1557
 2521SOL     OW19024   0.823   3.743   8.760  0.1467  0.1030  0.5869
 2521SOL    HW119025   0.896   3.804   8.768  0.9021 -0.6651 -0.4707
 2521SOL    HW219026   0.843   3.729   8.667 -1.1461  0.8904  0.1904
 2522SOL     OW19027   4.239   3.713   8.197 -0.1810  0.1633  0.3464
 2522SOL    HW119028   4.144   3.705   8.190 -0.3480  1.2826  1.5543
 2522SOL    HW219029   4.270   3.690   8.109 -1.8269  2.8308 -0.9164
 2523SOL     OW19030   3.951   2.367  10.108  0.1529 -0.3884 -0.0363
 2523SOL    HW119031   3.975   2.299  10.044  0.6228 -1.1293  0.9171
 2523SOL    HW219032   3.972   2.450  10.065  0.1215 -1.8101 -2.7972
 2524SOL     OW19033   1.902   2.012  14.107 -0.3725  0.2046 -0.2651
 2524SOL    HW119034   1.991   2.007  14.072  0.3699 -0.3086  1.7217
 2524SOL    HW219035   1.873   1.934  14.059  0.4014 -0.4456  0.3289
 2525SOL     OW19036   4.211   1.433   5.734  0.1427  0.1244 -0.6183
 2525SOL    HW119037   4.131   1.386   5.709  0.1512 -1.4370  2.2574
 2525SOL    HW219038   4.175   1.521   5.743  1.3620  0.6752 -1.2426
 2526SOL     OW19039   4.458   1.108   6.398  0.1096  0.3250 -0.8555
 2526SOL    HW119040   4.374   1.081   6.436  1.6928  0.5483  2.8732
 2526SOL    HW219041   4.470   1.179   6.462  0.5320 -1.8893  1.5367
 2527SOL     OW19042   4.476   2.576  13.754 -0.0043 -0.4069 -0.3360
 2527SOL    HW119043   4.407   2.593  13.689 -0.0595 -0.1922 -0.2193
 2527SOL    HW219044   4.450   2.645  13.814 -0.7878  0.4626 -1.6685
 2528SOL     OW19045   2.625   4.149  10.959  0.6096  0.0453 -0.0795
 2528SOL    HW119046   2.554   4.119  10.902 -1.8131 -0.9920  3.5273
 2528SOL    HW219047   2.677   4.069  10.954 -2.4406 -1.8464 -1.6608
 2529SOL     OW19048   2.370   1.214  13.661 -0.3052 -0.1003 -0.2467
 2529SOL    HW119049   2.357   1.297  13.707  1.4526  0.2004 -0.2871
 2529SOL    HW219050   2.290   1.167  13.682  0.4947 -0.8961  1.0157
 2530SOL     OW19051   2.734   0.273   2.891  0.0499  0.0747 -0.1457
 2530SOL    HW119052   2.709   0.331   2.963 -0.0431 -0.5931  0.3599
 2530SOL    HW219053   2.811   0.230   2.927  1.3720  2.4467 -0.1693
 2531SOL     OW19054   3.088   1.303   9.051 -0.2373  0.1349 -0.6607
 2531SOL    HW119055   3.018   1.366   9.038  0.5535  0.9940 -0.7761
 2531SOL    HW219056   3.156   1.341   8.996  2.7724  0.1519  3.0335
 2532SOL     OW19057   0.868   4.246  13.194  0.8216  0.1531 -0.1845
 2532SOL    HW119058   0.922   4.230  13.271  1.3481 -1.3219 -0.8551
 2532SOL    HW219059   0.792   4.193  13.218  0.3648  1.3433  0.9635
 2533SOL     OW19060   1.537   2.684   7.562 -0.3838 -0.4301  0.0844
 2533SOL    HW119061   1.507   2.593   7.572  1.0254 -0.6341  2.5501
 2533SOL    HW219062   1.530   2.693   7.467 -0.2542 -0.6457  0.0548
 2534SOL     OW19063   1.900   2.762   6.188  0.0719 -0.3301  0.1882
 2534SOL    HW119064   1.877   2.807   6.270  0.8421 -0.3558  0.4190
 2534SOL    HW219065   1.902   2.669   6.207 -3.4786 -0.6489 -1.0244
 2535SOL     OW19066   1.479   4.457   6.799 -0.0527  0.2330 -0.3750
 2535SOL    HW119067   1.432   4.418   6.725 -0.8954 -2.5965  1.6507
 2535SOL    HW219068   1.569   4.456   6.767 -0.2938  3.9551 -1.1192
 2536SOL     OW19069   1.892   4.174   7.158 -0.1167  0.4873  0.0964
 2536SOL    HW119070   1.866   4.084   7.178  1.0586  0.4620  1.5216
 2536SOL    HW219071   1.821   4.200   7.099  0.6157 -0.8870 -1.3675
 2537SOL     OW19072   4.003   0.169   2.026  0.8466 -0.0729 -0.2919
 2537SOL    HW119073   4.047   0.115   2.092 -0.6503 -0.4304  0.3968
 2537SOL    HW219074   3.948   0.102   1.986  1.3591 -0.6239 -0.0803
 2538SOL     OW19075   0.345   3.440   7.139 -0.1219  0.2550  0.1524
 2538SOL    HW119076   0.320   3.508   7.077 -1.8547 -0.1497  0.3989
 2538SOL    HW219077   0.350   3.490   7.221  0.8827 -0.7045  0.6825
 2539SOL     OW19078   1.075   4.423  17.405  0.5074  0.4865  0.0700
 2539SOL    HW119079   1.001   4.383  17.361 -0.5414  1.7170  0.7232
 2539SOL    HW219080   1.131   4.433  17.328 -0.2922  1.5716 -0.3655
 2540SOL     OW19081   2.697   4.365   2.894 -0.2342 -0.2548 -0.0088
 2540SOL    HW119082   2.762   4.348   2.826  0.4590  2.5737 -0.0287
 2540SOL    HW219083   2.666   4.450   2.863 -1.9829 -0.1744  2.0250
 2541SOL     OW19084   1.445   3.860  16.927  0.0738  0.3324 -0.2057
 2541SOL    HW119085   1.378   3.803  16.890 -0.0617 -0.8907  1.9004
 2541SOL    HW219086   1.502   3.869  16.851 -1.1631  1.2067 -1.0227
 2542SOL     OW19087   2.671   2.838  14.432 -1.2658  0.2230 -0.1134
 2542SOL    HW119088   2.763   2.863  14.440 -0.9976 -1.3720  1.6977
 2542SOL    HW219089   2.653   2.846  14.525 -1.5875 -1.8076 -0.0081
 2543SOL     OW19090   1.051   2.093   6.400  0.2749 -0.5684 -0.6569
 2543SOL    HW119091   1.138   2.120   6.373 -0.2130 -0.1359 -1.7973
 2543SOL    HW219092   1.010   2.063   6.319 -0.4161  0.1459 -0.5760
 2544SOL     OW19093   0.040   4.129   1.888 -0.1421 -0.4358  0.0706
 2544SOL    HW119094   0.007   4.040   1.875  0.7562 -0.6356 -0.8863
 2544SOL    HW219095   0.095   4.121   1.966  0.1283  0.1894 -0.0573
 2545SOL     OW19096   0.924   4.217   2.608 -0.0976  0.1336 -0.1605
 2545SOL    HW119097   0.990   4.231   2.676  0.2243  1.4348 -0.7337
 2545SOL    HW219098   0.938   4.124   2.591  0.3608  0.2495 -0.4100
 2546SOL     OW19099   1.775   3.221   4.919 -0.1248 -0.1105  0.0665
 2546SOL    HW119100   1.759   3.130   4.895  0.2778 -0.6802  1.9911
 2546SOL    HW219101   1.692   3.266   4.903  1.3866  2.8808  0.6444
 2547SOL     OW19102   1.276   0.357   5.949  0.2316  0.0558 -0.5678
 2547SOL    HW119103   1.277   0.339   6.043 -0.3981 -0.9668 -0.7483
 2547SOL    HW219104   1.191   0.323   5.919 -1.3843  1.6056  2.3394
 2548SOL     OW19105   0.040   3.981   6.424 -0.3340 -0.2604 -0.3409
 2548SOL    HW119106   4.720   4.065   6.408  1.3976  0.3651 -1.7363
 2548SOL    HW219107   4.693   3.925   6.387  0.3371 -1.3376  0.0243
 2549SOL     OW19108   0.599   2.790  17.067  0.1290  0.4173  0.4502
 2549SOL    HW119109   0.533   2.844  17.022 -0.8639 -1.2744 -0.1260
 2549SOL    HW219110   0.674   2.834  17.027 -0.9169  1.9074  0.1285
 2550SOL     OW19111   3.676   2.051  15.420  0.5678  0.3641  0.0882
 2550SOL    HW119112   3.656   1.967  15.377 -2.5403  2.3444 -2.3268
 2550SOL    HW219113   3.593   2.098  15.421  1.5304  2.0284  0.5244
 2551SOL     OW19114   4.211   4.154   7.972 -0.1600  0.2533 -0.0619
 2551SOL    HW119115   4.230   4.094   8.044 -0.2587 -0.1461 -0.3717
 2551SOL    HW219116   4.237   4.231   8.022  1.2284 -0.0687 -0.2822
 2552SOL     OW19117   2.262   4.713  17.175 -0.0624 -0.0625  0.0306
 2552SOL    HW119118   2.355   0.014  17.180 -0.2288  0.7950 -0.8528
 2552SOL    HW219119   2.218   0.075  17.160  2.2449  1.2543  0.6995
 2553SOL     OW19120   0.576   4.547  16.356  0.0164  0.4226 -0.0425
 2553SOL    HW119121   0.601   4.569  16.446 -0.8532  0.4459  0.1978
 2553SOL    HW219122   0.488   4.584  16.369 -0.1862 -0.1593  0.2670
 2554SOL     OW19123   3.548   4.571   6.198 -0.0396 -0.1846 -0.3552
 2554SOL    HW119124   3.488   4.500   6.221 -1.0598  0.0737 -2.2088
 2554SOL    HW219125   3.497   4.621   6.134  0.0512  1.4845  0.8791
 2555SOL     OW19126   3.780   4.067   0.112 -0.3517 -0.6126  0.3102
 2555SOL    HW119127   3.767   4.150   0.158  4.7403  0.7087 -0.6027
 2555SOL    HW219128   3.867   4.077   0.073 -0.0432 -1.6366  0.7537
 2556SOL     OW19129   3.224   4.298   1.398 -0.3741 -0.2430 -0.0901
 2556SOL    HW119130   3.144   4.280   1.447 -0.9314  0.4800 -0.7223
 2556SOL    HW219131   3.275   4.341   1.466 -1.5339  1.8654 -0.5448
 2557SOL     OW19132   0.917   2.266   2.247 -0.1967  0.2947 -0.9302
 2557SOL    HW119133   0.934   2.201   2.179  2.0339  0.3058 -0.3890
 2557SOL    HW219134   0.876   2.330   2.189  2.7433 -1.0914 -4.5077
 2558SOL     OW19135   2.633   1.064   8.230 -0.0795 -0.3323  0.8395
 2558SOL    HW119136   2.599   0.991   8.282  0.4197 -1.1500  0.0186
 2558SOL    HW219137   2.565   1.074   8.164  0.1389 -1.6211  0.4335
 2559SOL     OW19138   0.541   3.736   3.464 -0.4214 -0.1134 -0.1780
 2559SOL    HW119139   0.546   3.811   3.523  0.1690 -0.1869 -0.1345
 2559SOL    HW219140   0.635   3.725   3.447  0.1263  3.1971  0.8577
 2560SOL     OW19141   1.306   0.584  14.095 -0.0284 -0.3814  0.2635
 2560SOL    HW119142   1.326   0.491  14.094  2.7042  0.1530  3.4119
 2560SOL    HW219143   1.382   0.614  14.046  0.4005 -3.5601 -0.9859
 2561SOL     OW19144   4.469   2.136   3.777 -0.0259 -0.2221 -0.7595
 2561SOL    HW119145   4.442   2.102   3.691  1.9271 -2.7523 -0.3609
 2561SOL    HW219146   4.466   2.230   3.760 -0.6659 -0.2358 -0.7334
 2562SOL     OW19147   0.881   1.124  12.050  0.5271  0.2272 -0.2743
 2562SOL    HW119148   0.967   1.094  12.077 -0.3880 -0.4910  1.8825
 2562SOL    HW219149   0.834   1.041  12.057  0.6048  0.1545 -0.6769
 2563SOL     OW19150   1.043   3.375   5.565  0.4120 -0.0821 -0.1178
 2563SOL    HW119151   1.018   3.305   5.626 -1.0316  2.1594  1.8800
 2563SOL    HW219152   1.089   3.447   5.608  0.6042 -1.3323  1.7805
 2564SOL     OW19153   0.615   0.528   2.717  0.1730  0.1607  0.3273
 2564SOL    HW119154   0.623   0.524   2.622  4.3025 -1.0587  0.7230
 2564SOL    HW219155   0.522   0.514   2.735  0.1087  2.9479  2.1897
 2565SOL     OW19156   4.252   1.172   7.340 -0.5112 -0.2328 -0.5593
 2565SOL    HW119157   4.157   1.163   7.335 -0.4195 -1.9397  1.1834
 2565SOL    HW219158   4.262   1.209   7.251 -1.9864  1.2067 -0.1229
 2566SOL     OW19159   1.685   0.515   4.085  0.2895 -0.0540  0.1857
 2566SOL    HW119160   1.669   0.423   4.107 -1.8467  0.5051  0.9470
 2566SOL    HW219161   1.599   0.527   4.044  0.2291 -0.5327  0.1733
 2567SOL     OW19162   3.904   2.105   6.505  0.3731 -0.1982 -0.2887
 2567SOL    HW119163   3.868   2.192   6.490 -1.1309 -0.7772 -0.1209
 2567SOL    HW219164   3.881   2.107   6.598 -1.2433 -3.1803 -0.5831
 2568SOL     OW19165   1.318   0.926   7.310 -0.5080 -0.6020 -0.0670
 2568SOL    HW119166   1.348   1.015   7.330 -0.7183 -0.4568 -0.4012
 2568SOL    HW219167   1.255   0.952   7.243  0.7523 -0.3095 -1.1281
 2569SOL     OW19168   2.604   2.721  16.252 -0.3050  0.0626 -0.6049
 2569SOL    HW119169   2.628   2.643  16.202 -1.1461 -0.0846 -0.7776
 2569SOL    HW219170   2.511   2.709  16.273 -0.6761 -0.5913 -2.6570
 2570SOL     OW19171   0.960   0.451   4.400  0.0435 -0.0956 -0.3386
 2570SOL    HW119172   1.020   0.382   4.430 -0.1531 -0.0112  0.2467
 2570SOL    HW219173   1.012   0.528   4.423 -0.5174  0.0022  0.5827
 2571SOL     OW19174   3.443   1.170   2.942  0.3446 -0.4082  0.3405
 2571SOL    HW119175   3.426   1.264   2.934  0.1082 -0.2616  2.7696
 2571SOL    HW219176   3.391   1.135   2.870  0.1793  0.4310  0.0469
 2572SOL     OW19177   2.725   4.062  16.693  0.0149  0.3573  0.2317
 2572SOL    HW119178   2.771   4.134  16.648  0.9457  1.4276  2.8817
 2572SOL    HW219179   2.771   3.988  16.655 -1.6137 -0.3033 -0.4137
 2573SOL     OW19180   2.153   0.667   7.249  0.3497  0.2422  0.0772
 2573SOL    HW119181   2.132   0.578   7.219 -1.8119  0.4986  0.8230
 2573SOL    HW219182   2.247   0.671   7.232  0.1680 -0.1406 -1.0361
 2574SOL     OW19183   1.170   3.161  17.600  0.8265 -0.6128 -0.0943
 2574SOL    HW119184   1.122   3.103  17.541  0.0803 -0.8002  0.6951
 2574SOL    HW219185   1.128   3.243  17.572 -0.2395 -0.4173  2.0463
 2575SOL     OW19186   1.573   4.431   8.696 -0.1135  0.1957 -0.0499
 2575SOL    HW119187   1.555   4.345   8.658 -0.1017  0.0991  0.1591
 2575SOL    HW219188   1.664   4.439   8.667 -0.0025  0.0481  0.2549
 2576SOL     OW19189   3.933   3.463  15.159  0.1848 -0.0103  0.3504
 2576SOL    HW119190   3.880   3.383  15.155 -1.1063  0.8497  0.0532
 2576SOL    HW219191   3.876   3.535  15.131 -1.9472 -0.1464  4.2930
 2577SOL     OW19192   4.482   2.332   4.877  0.5159 -0.2515 -0.0720
 2577SOL    HW119193   4.465   2.425   4.891 -0.4156 -0.4850  0.3153
 2577SOL    HW219194   4.419   2.307   4.809  1.0011  0.9605 -0.9663
 2578SOL     OW19195   2.779   1.374   1.023 -0.2388  0.6871 -0.1932
 2578SOL    HW119196   2.749   1.442   0.962 -0.7108 -0.6704 -1.4671
 2578SOL    HW219197   2.875   1.380   1.022 -0.1686 -0.7099 -1.6017
 2579SOL     OW19198   0.753   1.317   4.734 -0.4824  0.2283 -0.1639
 2579SOL    HW119199   0.823   1.275   4.684 -0.6675  0.2011 -0.3979
 2579SOL    HW219200   0.809   1.378   4.782 -1.1813  0.6800  0.0740
 2580SOL     OW19201   3.559   1.815   6.150  0.4660  0.4703 -0.3182
 2580SOL    HW119202   3.599   1.729   6.140 -0.2693  0.0287  0.5113
 2580SOL    HW219203   3.632   1.875   6.164 -0.8594  2.0450 -0.1405
 2581SOL     OW19204   3.005   1.579  13.318  0.0835 -0.0956  0.4703
 2581SOL    HW119205   2.936   1.640  13.343 -0.7925  0.5810 -3.5365
 2581SOL    HW219206   3.003   1.568  13.223  1.9573  3.6628  0.0170
 2582SOL     OW19207   2.760   4.111   1.158 -0.6017  0.4137  0.3615
 2582SOL    HW119208   2.712   4.090   1.237  2.5587 -0.3466  2.0992
 2582SOL    HW219209   2.701   4.078   1.091 -1.0272  2.8197 -0.4240
 2583SOL     OW19210   2.776   1.257   8.062  0.1533  0.7435  0.5555
 2583SOL    HW119211   2.700   1.314   8.051 -0.1161  0.1692 -0.5385
 2583SOL    HW219212   2.732   1.174   8.045  0.8113  0.7514 -1.2168
 2584SOL     OW19213   0.627   0.495   6.078  0.0452 -0.4678  0.4941
 2584SOL    HW119214   0.563   0.471   6.010 -0.4275  2.8111 -0.2074
 2584SOL    HW219215   0.589   0.451   6.153  2.4347 -0.6599  1.5923
 2585SOL     OW19216   2.360   0.111  15.205  0.2147 -0.0447 -0.4626
 2585SOL    HW119217   2.326   0.197  15.227  0.6857 -0.2030  0.8591
 2585SOL    HW219218   2.453   0.126  15.221  0.0239 -0.8061  1.3030
 2586SOL     OW19219   0.151   1.597   2.842 -0.4346  0.1390 -0.2009
 2586SOL    HW119220   0.078   1.544   2.873  0.6811 -1.5990 -0.4942
 2586SOL    HW219221   0.175   1.632   2.928  2.4280  0.4102 -1.1013
 2587SOL     OW19222   2.112   0.712   4.750 -0.0640 -0.1230  0.2027
 2587SOL    HW119223   2.191   0.758   4.777 -0.0963  0.0330  0.0332
 2587SOL    HW219224   2.114   0.628   4.795  1.5205  0.5515  1.3690
 2588SOL     OW19225   1.360   2.759  14.044 -1.2501  0.3871 -0.4967
 2588SOL    HW119226   1.333   2.690  14.105  1.3048 -0.4513 -0.2908
 2588SOL    HW219227   1.294   2.742  13.977 -0.0713 -0.6758 -1.3999
 2589SOL     OW19228   3.431   0.441   7.052  0.0490 -0.4302  0.2089
 2589SOL    HW119229   3.526   0.436   7.052 -0.0481 -2.5204 -0.1594
 2589SOL    HW219230   3.401   0.351   7.037  1.5508 -1.2724  2.1756
 2590SOL     OW19231   2.999   2.535   5.422  0.4123  0.7380 -0.5496
 2590SOL    HW119232   2.958   2.525   5.336  1.1680  2.0540 -1.0535
 2590SOL    HW219233   2.948   2.606   5.460  0.2458  1.3400 -1.8814
 2591SOL     OW19234   3.442   1.763   4.609  0.2463  0.1655 -0.5889
 2591SOL    HW119235   3.445   1.696   4.541 -0.3252 -0.0858 -0.3691
 2591SOL    HW219236   3.437   1.716   4.692 -0.1809  0.7422 -0.2898
 2592SOL     OW19237   2.765   2.488   4.673 -0.1447  0.4310 -0.7765
 2592SOL    HW119238   2.852   2.489   4.633  0.7077  0.6886  1.1023
 2592SOL    HW219239   2.761   2.579   4.702  1.4445 -0.3414  1.8478
 2593SOL     OW19240   3.989   3.221   0.373  0.2597  0.1294 -0.5761
 2593SOL    HW119241   4.007   3.157   0.441  3.0289  1.0882 -0.3940
 2593SOL    HW219242   4.079   3.223   0.341  0.3610 -0.7777 -0.3506
 2594SOL     OW19243   2.497   4.025  16.988  0.5570  0.4771 -0.3594
 2594SOL    HW119244   2.592   4.016  16.980  0.6291 -1.8620  2.8897
 2594SOL    HW219245   2.472   3.934  17.003  0.6946  0.2659 -1.4608
 2595SOL     OW19246   0.023   0.116  12.985  0.1328  0.1056  0.3145
 2595SOL    HW119247   4.717   0.034  13.026 -0.7969 -0.3233 -1.1958
 2595SOL    HW219248   0.010   0.184  13.050 -1.1243 -0.5225  0.7249
 2596SOL     OW19249   2.209   1.456   8.959  0.4149 -0.5476 -0.2617
 2596SOL    HW119250   2.119   1.484   8.940  1.1700  0.3890 -2.4631
 2596SOL    HW219251   2.261   1.530   8.928  0.8675  0.3293  2.5654
 2597SOL     OW19252   3.316   3.151   2.695 -0.5263 -0.6235  0.5751
 2597SOL    HW119253   3.298   3.080   2.756  1.2447  1.1564  3.1810
 2597SOL    HW219254   3.373   3.107   2.631 -1.4394  0.2838 -0.8712
 2598SOL     OW19255   4.535   2.057  12.158 -0.3595  0.2395  0.1551
 2598SOL    HW119256   4.499   2.143  12.136 -1.6543 -0.1124  0.9160
 2598SOL    HW219257   4.616   2.083  12.203  0.0533 -3.0882  1.3487
 2599SOL     OW19258   4.363   1.130  10.157 -0.0731 -0.0754 -0.2873
 2599SOL    HW119259   4.277   1.105  10.123 -0.6035 -1.7379  2.2891
 2599SOL    HW219260   4.331   1.195  10.219 -1.1586 -0.0945 -0.8189
 2600SOL     OW19261   2.032   0.491   8.952 -0.0776  0.1914 -0.1625
 2600SOL    HW119262   2.023   0.408   8.904  0.6113 -0.0210  0.0746
 2600SOL    HW219263   2.124   0.472   8.969 -0.3935 -0.2825  1.0902
 2601SOL     OW19264   1.426   2.423   7.583  0.1822 -0.1477 -0.4030
 2601SOL    HW119265   1.494   2.365   7.551 -0.0968 -1.5866  1.6166
 2601SOL    HW219266   1.456   2.440   7.672 -0.4462  1.3189 -0.4586
 2602SOL     OW19267   0.123   4.364  11.978  0.6866 -0.6811  0.2109
 2602SOL    HW119268   0.147   4.273  11.998 -0.2669 -1.4208 -2.0150
 2602SOL    HW219269   0.208   4.405  11.963  0.8777 -0.9398  0.6034
 2603SOL     OW19270   3.933   2.158   2.787  0.2242 -0.2807 -0.0716
 2603SOL    HW119271   3.959   2.074   2.748  1.7280 -0.0193  0.3454
 2603SOL    HW219272   3.911   2.199   2.704 -2.1533 -1.1200  0.1427
 2604SOL     OW19273   1.560   2.846  11.447  0.2941  0.2237 -0.1576
 2604SOL    HW119274   1.563   2.823  11.539 -1.7793 -0.4220 -0.2488
 2604SOL    HW219275   1.639   2.899  11.436  1.3420 -0.9342  1.9210
 2605SOL     OW19276   0.652   3.842   5.909 -0.8028 -0.2640  0.4796
 2605SOL    HW119277   0.689   3.914   5.960 -0.5456 -0.3021  0.3496
 2605SOL    HW219278   0.612   3.893   5.839  0.3492  1.9775  1.4394
 2606SOL     OW19279   3.940   1.379   5.640  0.3494  0.8786  0.4799
 2606SOL    HW119280   3.851   1.374   5.674 -1.3914  0.8490 -4.0411
 2606SOL    HW219281   3.916   1.424   5.559 -1.6799 -1.1396 -0.0390
 2607SOL     OW19282   1.162   3.097  11.843 -0.0094  0.3086  0.0910
 2607SOL    HW119283   1.076   3.139  11.847 -0.1636  0.1337 -1.2325
 2607SOL    HW219284   1.220   3.167  11.873 -0.7922  0.5165  1.1258
 2608SOL     OW19285   2.217   2.413   5.620  0.0790 -1.0790 -0.5138
 2608SOL    HW119286   2.178   2.467   5.552  1.0076 -0.6961 -0.7472
 2608SOL    HW219287   2.142   2.371   5.662  0.4699 -2.1210 -0.8616
 2609SOL     OW19288   2.824   4.154   3.174 -0.5365  0.7421  0.1568
 2609SOL    HW119289   2.785   4.207   3.105 -1.4054 -0.3542 -0.1817
 2609SOL    HW219290   2.908   4.191   3.204 -0.4716  1.4069 -0.8395
 2610SOL     OW19291   2.404   0.710   7.175  0.4017 -0.1953 -0.2342
 2610SOL    HW119292   2.441   0.638   7.124  0.0971  0.2110 -1.0350
 2610SOL    HW219293   2.478   0.739   7.228  0.1591 -1.8636  1.0397
 2611SOL     OW19294   4.338   1.104   4.022  0.3525  0.2791 -0.1907
 2611SOL    HW119295   4.322   1.198   4.013 -0.0558  0.0880 -1.4996
 2611SOL    HW219296   4.409   1.112   4.085 -0.5115 -0.5734  0.8923
 2612SOL     OW19297   3.420   1.757   5.333  0.4061 -0.8985 -0.0065
 2612SOL    HW119298   3.344   1.795   5.289  1.5202 -0.4790 -1.5701
 2612SOL    HW219299   3.399   1.771   5.425  1.9476 -0.1675  0.2268
 2613SOL     OW19300   2.704   1.885   8.296 -0.5194 -0.1611  0.3975
 2613SOL    HW119301   2.683   1.859   8.386 -1.9406 -0.3660  0.0034
 2613SOL    HW219302   2.618   1.919   8.274  0.0298  0.1759 -1.2127
 2614SOL     OW19303   0.459   0.287   2.086  0.2452  0.0203  0.3619
 2614SOL    HW119304   0.522   0.359   2.091  0.0389  0.1384  1.3971
 2614SOL    HW219305   0.388   0.304   2.149 -0.0851 -2.4356  0.6542
 2615SOL     OW19306   0.860   2.679   9.566  0.5980  0.7290 -1.0021
 2615SOL    HW119307   0.932   2.633   9.610 -1.7702 -1.8206  0.2102
 2615SOL    HW219308   0.906   2.762   9.555 -1.4816  1.9012 -0.6090
 2616SOL     OW19309   0.990   1.222   6.868 -0.2692 -0.9447  0.3001
 2616SOL    HW119310   0.945   1.145   6.900 -0.1049 -0.7735  0.9474
 2616SOL    HW219311   1.034   1.252   6.948  0.3355  1.0803 -0.7797
 2617SOL     OW19312   0.141   3.492   8.941 -0.2709  0.3962  0.5482
 2617SOL    HW119313   0.160   3.502   9.034 -1.3445  0.8005  0.7229
 2617SOL    HW219314   0.061   3.439   8.944  0.0928 -0.1920 -0.2671
 2618SOL     OW19315   4.642   1.017   8.290  0.0195 -0.0619  0.2956
 2618SOL    HW119316   4.722   1.020   8.238  0.1689  1.7546  0.6414
 2618SOL    HW219317   4.681   1.042   8.374 -0.6832  0.3818  0.4865
 2619SOL     OW19318   0.718   0.617   3.198 -0.3368 -0.6909 -0.6218
 2619SOL    HW119319   0.797   0.631   3.251  0.1670 -0.2467 -1.4866
 2619SOL    HW219320   0.757   0.594   3.113 -0.5905 -0.0773 -0.9013
 2620SOL     OW19321   1.710   2.837   3.857  0.0597 -0.1074  0.8885
 2620SOL    HW119322   1.617   2.854   3.873 -0.2835  1.1232 -2.2768
 2620SOL    HW219323   1.738   2.928   3.870 -3.1896  1.0859 -0.5733
 2621SOL     OW19324   1.758   2.023   6.090 -0.0863  0.5350 -0.1420
 2621SOL    HW119325   1.777   1.930   6.097 -2.1192  0.2418  1.2443
 2621SOL    HW219326   1.832   2.058   6.140 -0.6856  0.6250  0.6701
 2622SOL     OW19327   2.239   1.745   8.384 -0.6917  0.0522  0.2585
 2622SOL    HW119328   2.176   1.808   8.350  1.2997  1.1889 -1.3248
 2622SOL    HW219329   2.325   1.786   8.390  0.2794 -1.5915 -2.3582
 2623SOL     OW19330   2.406   3.508   8.660  0.1649 -0.2121 -0.3364
 2623SOL    HW119331   2.314   3.485   8.668 -0.2482  1.4566 -0.3659
 2623SOL    HW219332   2.445   3.448   8.595  0.7056  0.9603 -1.0903
 2624SOL     OW19333   4.268   2.054   4.262  0.3070  0.0473  0.4323
 2624SOL    HW119334   4.181   2.090   4.242  0.1285 -2.2274 -2.9124
 2624SOL    HW219335   4.262   1.960   4.241 -3.1137  0.2157  0.6180
 2625SOL     OW19336   2.733   3.657   1.053  0.0490 -0.0445 -0.5108
 2625SOL    HW119337   2.746   3.597   1.126  2.3653 -0.7713 -1.5349
 2625SOL    HW219338   2.778   3.736   1.084  0.2189 -0.2689 -0.1922
 2626SOL     OW19339   0.891   3.946   9.261  0.1509 -0.1047 -0.5552
 2626SOL    HW119340   0.964   3.888   9.241 -0.5156 -0.8704 -0.7799
 2626SOL    HW219341   0.936   4.030   9.250 -0.5503  0.0925 -1.9432
 2627SOL     OW19342   0.775   2.125  14.917  0.1842 -0.2103 -1.2714
 2627SOL    HW119343   0.840   2.120  14.848 -1.4453  0.8656 -2.8892
 2627SOL    HW219344   0.698   2.098  14.868 -0.5181 -0.5912  0.0286
 2628SOL     OW19345   4.131   1.723   5.125 -0.3130  0.3728 -0.5311
 2628SOL    HW119346   4.151   1.679   5.042 -3.4872 -1.1047 -0.5131
 2628SOL    HW219347   4.055   1.676   5.159 -0.4050  0.9597  0.0703
 2629SOL     OW19348   0.098   4.439   7.565 -0.3647 -0.2335  0.3931
 2629SOL    HW119349   0.108   4.521   7.614 -2.8859 -0.7353  1.7089
 2629SOL    HW219350   0.031   4.466   7.502 -1.1548  0.6979  1.6515
 2630SOL     OW19351   4.014   2.399   2.938  0.2854  0.0323  0.0100
 2630SOL    HW119352   3.952   2.326   2.932 -0.7885  1.0565 -1.1529
 2630SOL    HW219353   4.093   2.365   2.897  1.2604  2.2955  0.0305
 2631SOL     OW19354   3.603   0.739   2.569  0.7442 -1.0081 -0.1539
 2631SOL    HW119355   3.572   0.761   2.657 -0.2708 -1.1632 -0.4664
 2631SOL    HW219356   3.625   0.822   2.527  1.6454 -0.5857  1.1582
 2632SOL     OW19357   2.563   4.428  12.282  0.5865  0.1800  0.4073
 2632SOL    HW119358   2.472   4.446  12.306  0.2223 -1.0345 -0.0713
 2632SOL    HW219359   2.608   4.378  12.349 -0.8984 -0.8494  0.6365
 2633SOL     OW19360   4.660   2.940  15.072 -0.0145  0.4683  0.0205
 2633SOL    HW119361   4.706   2.856  15.079  0.9662  1.0438  0.4377
 2633SOL    HW219362   4.614   2.934  14.988  0.3618  1.0503 -0.2258
 2634SOL     OW19363   2.263   4.058   6.194  0.5743  0.3694  0.2143
 2634SOL    HW119364   2.295   4.125   6.134  1.9902  0.1053  0.6713
 2634SOL    HW219365   2.293   4.105   6.272 -2.5202  0.4414  1.3726
 2635SOL     OW19366   3.074   2.700   8.617  0.2797 -0.0058  0.1626
 2635SOL    HW119367   3.152   2.737   8.575 -0.9086  0.9742 -1.1837
 2635SOL    HW219368   3.080   2.731   8.708  0.6774 -1.0342  0.4868
 2636SOL     OW19369   3.900   4.401   2.624 -0.8449  0.2665 -0.3936
 2636SOL    HW119370   3.807   4.417   2.640 -0.7336  2.9004 -2.3455
 2636SOL    HW219371   3.901   4.326   2.564 -0.5838  0.0196 -0.0792
 2637SOL     OW19372   3.292   2.854   8.550 -0.0722  0.1594  0.1566
 2637SOL    HW119373   3.387   2.853   8.558  0.0530 -1.8306 -1.4767
 2637SOL    HW219374   3.277   2.898   8.466  0.2646  0.8905  0.4826
 2638SOL     OW19375   0.891   2.944   9.240  0.0295  0.4513 -0.1759
 2638SOL    HW119376   0.898   2.864   9.188  0.7542 -0.6490  1.6126
 2638SOL    HW219377   0.916   2.907   9.325  1.8243 -0.7765 -1.2462
 2639SOL     OW19378   2.188   0.017   4.795 -0.2483  0.0487 -0.4347
 2639SOL    HW119379   2.231   0.095   4.830  0.2717  0.1293 -1.2530
 2639SOL    HW219380   2.100   0.047   4.772 -1.3579 -1.9227  1.2663
 2640SOL     OW19381   1.603   1.206   7.937  0.2794 -0.0754  0.1743
 2640SOL    HW119382   1.567   1.287   7.902 -0.4534  0.1661  1.4769
 2640SOL    HW219383   1.642   1.175   7.855 -1.7207  0.8229 -1.1088
 2641SOL     OW19384   0.071   1.847   3.863  0.3742  0.2543  0.0081
 2641SOL    HW119385   0.140   1.866   3.927  1.3466  0.6402 -1.1583
 2641SOL    HW219386   0.112   1.868   3.779  2.4289  0.1851  0.9931
 2642SOL     OW19387   1.166   1.504  16.173  0.5448  0.4241 -0.2467
 2642SOL    HW119388   1.119   1.426  16.203  0.4154  0.8785  0.7409
 2642SOL    HW219389   1.209   1.465  16.096 -1.4651 -0.6011 -0.8758
 2643SOL     OW19390   0.836   2.811   8.321  0.3171 -0.2856 -0.7946
 2643SOL    HW119391   0.885   2.735   8.351  1.1249  0.4167 -0.3163
 2643SOL    HW219392   0.897   2.883   8.339 -1.9340  1.6210 -0.7544
 2644SOL     OW19393   2.536   2.709   9.173 -0.1466 -0.0742  0.6982
 2644SOL    HW119394   2.514   2.665   9.255 -0.2304 -0.9611  0.2077
 2644SOL    HW219395   2.614   2.662   9.142  0.1991 -1.0734  3.0798
 2645SOL     OW19396   2.702   0.355  11.548  0.3335  0.1782  0.2907
 2645SOL    HW119397   2.622   0.317  11.586 -0.4275  1.2213 -0.2837
 2645SOL    HW219398   2.728   0.288  11.485 -0.6146  0.6183 -0.5594
 2646SOL     OW19399   2.040   3.728   5.327 -0.2433 -0.3209  0.3061
 2646SOL    HW119400   1.984   3.751   5.253  0.4447 -0.4425 -0.2580
 2646SOL    HW219401   2.019   3.804   5.382 -0.8266 -0.3588  0.1275
 2647SOL     OW19402   4.553   4.190   7.854 -0.4217  0.7697  0.2076
 2647SOL    HW119403   4.608   4.227   7.923 -1.4649  0.1807  1.3535
 2647SOL    HW219404   4.471   4.236   7.874 -0.0751  1.2429  0.5290
 2648SOL     OW19405   3.770   1.459   5.362  0.0741  0.3675 -0.0910
 2648SOL    HW119406   3.777   1.549   5.394 -1.4461  0.7799 -0.9043
 2648SOL    HW219407   3.808   1.465   5.275  0.7233 -1.9127  0.0364
 2649SOL     OW19408   0.137   1.619   1.928  0.1269  0.2029  0.1906
 2649SOL    HW119409   0.198   1.553   1.962 -1.8268 -2.1255 -0.8107
 2649SOL    HW219410   0.156   1.605   1.835 -2.9021  1.6088 -0.6424
 2650SOL     OW19411   3.937   4.542   4.840 -0.2926 -0.1676  0.1260
 2650SOL    HW119412   3.994   4.619   4.831  0.0578 -0.3854  0.4821
 2650SOL    HW219413   3.980   4.484   4.902  2.0493  2.5499  1.0403
 2651SOL     OW19414   3.899   2.724   9.511 -0.9605 -0.0109  0.0833
 2651SOL    HW119415   3.972   2.772   9.472 -1.6178 -0.2286 -1.3970
 2651SOL    HW219416   3.947   2.653   9.555 -0.1889 -0.5908 -1.6577
 2652SOL     OW19417   2.225   1.382   7.008 -0.3532 -0.4078  0.7058
 2652SOL    HW119418   2.183   1.333   7.079 -0.8752 -0.9077  0.0574
 2652SOL    HW219419   2.306   1.415   7.045 -0.7458  1.4920 -0.1690
 2653SOL     OW19420   1.771   4.313  15.789  0.0374  0.9472  0.1595
 2653SOL    HW119421   1.776   4.284  15.881  1.9059 -0.1486 -0.2893
 2653SOL    HW219422   1.701   4.258  15.753  1.4119 -0.3239 -0.5671
 2654SOL     OW19423   2.947   0.848   6.386 -0.2818  0.2760  0.1788
 2654SOL    HW119424   2.902   0.805   6.314  2.3955  0.0273 -1.3479
 2654SOL    HW219425   2.894   0.927   6.395  0.1813  0.7947 -1.6322
 2655SOL     OW19426   2.656   2.791   2.665  0.4688  0.4171  0.0705
 2655SOL    HW119427   2.709   2.858   2.622 -1.4422  2.9011  1.5422
 2655SOL    HW219428   2.657   2.718   2.604 -1.5666 -0.3149  0.9122
 2656SOL     OW19429   1.833   3.073   2.484  0.3948  0.4083  0.5164
 2656SOL    HW119430   1.881   3.048   2.405 -0.5984 -0.4415  0.1938
 2656SOL    HW219431   1.895   3.130   2.530 -0.2470  3.1516 -2.0464
 2657SOL     OW19432   2.992   0.483   2.944 -0.1575  0.1016  0.3556
 2657SOL    HW119433   2.967   0.474   2.852 -1.0163  0.3354  0.5604
 2657SOL    HW219434   3.064   0.542   2.923  0.5497 -0.1735  1.9996
 2658SOL     OW19435   4.183   1.393  16.077 -0.4282 -0.1519  0.2933
 2658SOL    HW119436   4.199   1.472  16.025  1.2475  0.4244  1.6743
 2658SOL    HW219437   4.126   1.343  16.019  1.6153 -3.0021  0.7353
 2659SOL     OW19438   2.207   1.338  16.835 -0.1640 -0.0537 -0.2848
 2659SOL    HW119439   2.161   1.422  16.833 -2.8898 -1.5651 -1.3771
 2659SOL    HW219440   2.285   1.356  16.782  0.0382 -1.4945 -0.4839
 2660SOL     OW19441   1.664   2.532  12.095  0.1847  0.2679  0.1187
 2660SOL    HW119442   1.757   2.512  12.106  0.1747  1.1427  1.8951
 2660SOL    HW219443   1.649   2.582  12.176  1.8096 -0.7021  1.0145
 2661SOL     OW19444   4.440   4.543   1.757  0.2294  0.6347  0.3696
 2661SOL    HW119445   4.429   4.548   1.662 -1.7282 -1.2174  0.5028
 2661SOL    HW219446   4.521   4.492   1.758 -0.6547 -0.7300  1.6441
 2662SOL     OW19447   2.948   1.127   6.135  0.6611 -0.4189 -0.5778
 2662SOL    HW119448   2.957   1.221   6.122  0.7006 -0.3511 -0.0301
 2662SOL    HW219449   2.987   1.118   6.222  0.7853 -1.7365 -0.7657
 2663SOL     OW19450   4.331   2.796  14.713  0.4320  0.9664 -0.3974
 2663SOL    HW119451   4.303   2.870  14.659  2.4174  1.4428 -0.7531
 2663SOL    HW219452   4.253   2.740  14.709 -1.1561  3.0766  0.9849
 2664SOL     OW19453   0.794   3.806  11.715 -0.6207  0.1064 -0.0220
 2664SOL    HW119454   0.875   3.756  11.718 -2.2363 -2.4871  0.1603
 2664SOL    HW219455   0.822   3.895  11.694  0.6145 -0.2049  0.3169
 2665SOL     OW19456   4.255   0.527   6.987  0.3098  0.0700  0.1107
 2665SOL    HW119457   4.281   0.616   6.963 -0.1917  0.4019  0.7950
 2665SOL    HW219458   4.272   0.519   7.081 -0.7376  1.6087  0.4398
 2666SOL     OW19459   3.513   3.098   3.229  0.0027 -0.6706  0.4349
 2666SOL    HW119460   3.477   3.143   3.153 -0.3207  1.4381  1.8416
 2666SOL    HW219461   3.445   3.037   3.256  1.6686 -1.9347  1.7865
 2667SOL     OW19462   2.066   0.657   5.554 -0.2603 -0.3350  0.1373
 2667SOL    HW119463   2.059   0.562   5.560  1.8814 -0.6499 -2.1446
 2667SOL    HW219464   2.159   0.650   5.531  0.0788 -1.1435  1.7495
 2668SOL     OW19465   0.893   3.975  16.326 -0.1079 -0.5818  0.4913
 2668SOL    HW119466   0.817   4.020  16.290 -0.4971  0.0692  2.1496
 2668SOL    HW219467   0.962   3.986  16.261 -0.6655  1.2440  0.1981
 2669SOL     OW19468   3.826   1.387   3.384 -0.2583  0.0510  0.2526
 2669SOL    HW119469   3.857   1.394   3.475  2.7849 -1.5596 -0.6521
 2669SOL    HW219470   3.846   1.296   3.360 -2.5456 -0.0814 -1.1546
 2670SOL     OW19471   1.178   4.439  13.866 -0.5803  0.1568 -0.1628
 2670SOL    HW119472   1.140   4.512  13.818 -0.4964  0.7163  0.6100
 2670SOL    HW219473   1.255   4.408  13.819 -1.0637  0.7827 -1.3472
 2671SOL     OW19474   2.689   3.920   7.388 -0.4609 -0.3590  0.5568
 2671SOL    HW119475   2.642   3.968   7.456 -0.6749 -0.0033  0.1585
 2671SOL    HW219476   2.718   3.846   7.441 -0.1425 -0.3157  0.4428
 2672SOL     OW19477   3.276   2.292   7.928 -0.0815  0.5774  0.0199
 2672SOL    HW119478   3.298   2.288   7.835  0.9440  1.2025  0.2407
 2672SOL    HW219479   3.367   2.291   7.958 -0.1724  3.3990  0.4634
 2673SOL     OW19480   4.439   0.321   6.966  0.7545 -0.0645  0.0877
 2673SOL    HW119481   4.386   0.398   6.987  1.2165  0.3699 -0.3591
 2673SOL    HW219482   4.365   0.261   6.967  0.1242  0.7067  0.4966
 2674SOL     OW19483   1.966   4.433  14.761 -0.2357  0.0857 -0.3516
 2674SOL    HW119484   2.000   4.433  14.671  0.0929  0.9697 -0.2261
 2674SOL    HW219485   2.006   4.355  14.799  0.3824  0.6790  0.2069
 2675SOL     OW19486   2.111   2.240   6.391 -0.1201 -0.0889 -0.2221
 2675SOL    HW119487   2.189   2.241   6.446 -0.1150  1.0940 -0.2365
 2675SOL    HW219488   2.048   2.223   6.460 -0.4457  0.5588 -0.3579
 2676SOL     OW19489   2.075   1.715  14.101  0.0653  0.7018  0.1681
 2676SOL    HW119490   1.986   1.729  14.068 -0.5012 -1.3923  0.7880
 2676SOL    HW219491   2.134   1.773  14.053 -0.5827  1.6528  0.5243
 2677SOL     OW19492   2.798   1.080   1.674  0.2084  0.4165 -0.2135
 2677SOL    HW119493   2.865   1.036   1.622 -0.1912  0.0315 -0.4025
 2677SOL    HW219494   2.824   1.171   1.660  0.9143  0.8100  3.6382
 2678SOL     OW19495   3.128   4.374   6.956 -0.0474  0.0725  0.2592
 2678SOL    HW119496   3.092   4.453   6.997 -2.6890  0.5763 -2.9884
 2678SOL    HW219497   3.072   4.307   6.994  1.3554 -0.2670  1.6710
 2679SOL     OW19498   0.377   4.228   2.779 -0.1610  0.3998  0.3682
 2679SOL    HW119499   0.412   4.297   2.723  0.4066 -1.3870 -1.4837
 2679SOL    HW219500   0.417   4.252   2.862 -1.7584  1.9668  0.7017
 2680SOL     OW19501   0.853   2.782   1.466  0.2370  0.2228  0.7146
 2680SOL    HW119502   0.879   2.841   1.537 -0.6416 -0.8669  1.9374
 2680SOL    HW219503   0.900   2.822   1.393 -1.5100  0.7687 -0.0896
 2681SOL     OW19504   0.592   1.202  12.776  0.7369 -0.1836 -0.2835
 2681SOL    HW119505   0.507   1.180  12.813 -0.1189  1.7495 -1.1129
 2681SOL    HW219506   0.568   1.266  12.709  1.5412 -0.5158 -0.8840
 2682SOL     OW19507   2.298   4.045  10.198  0.2892 -0.2734 -0.2874
 2682SOL    HW119508   2.262   3.980  10.137 -0.7192  0.4403 -0.4569
 2682SOL    HW219509   2.310   4.121  10.141 -1.0610  0.9560  1.0547
 2683SOL     OW19510   1.086   2.658  17.185  0.7666 -0.3477 -0.2355
 2683SOL    HW119511   1.094   2.563  17.188 -0.6345 -0.5219 -1.6383
 2683SOL    HW219512   1.045   2.679  17.269  1.1041 -0.3405 -0.0747
 2684SOL     OW19513   0.809   1.032   1.487  0.0417  0.3940 -0.0080
 2684SOL    HW119514   0.853   1.109   1.522  0.8574 -1.1595  2.3233
 2684SOL    HW219515   0.885   0.988   1.449  0.2899  0.5374  0.3277
 2685SOL     OW19516   3.409   1.191  14.419 -0.0753  0.2446  0.2080
 2685SOL    HW119517   3.427   1.233  14.335  1.0937 -1.6978 -0.5396
 2685SOL    HW219518   3.382   1.104  14.388 -0.9079 -0.5605  3.2474
 2686SOL     OW19519   1.597   4.252   7.463  0.0768  0.3111  0.1917
 2686SOL    HW119520   1.616   4.160   7.482  0.3771  0.4516  0.5715
 2686SOL    HW219521   1.578   4.281   7.552  2.5235  1.0689  0.4476
 2687SOL     OW19522   1.025   4.256   9.798  0.5273 -0.2040  0.1451
 2687SOL    HW119523   0.947   4.201   9.793  0.8925 -0.7737  0.7010
 2687SOL    HW219524   1.042   4.262   9.704  1.3550  1.4118  0.4046
 2688SOL     OW19525   0.331   3.986   2.704  0.0812 -1.0756  0.1700
 2688SOL    HW119526   0.351   4.076   2.731  0.9165 -1.1037 -0.3313
 2688SOL    HW219527   0.360   3.986   2.613 -0.5700  1.0502 -0.0385
 2689SOL     OW19528   3.524   3.106  16.205 -0.6153 -0.5805  0.0201
 2689SOL    HW119529   3.463   3.042  16.166 -0.8347 -0.8251  0.7754
 2689SOL    HW219530   3.589   3.042  16.234 -1.0928 -0.7288  0.7457
 2690SOL     OW19531   2.049   2.543  16.785  0.2899 -0.1331  0.3209
 2690SOL    HW119532   2.115   2.537  16.716 -1.9993  0.7129 -1.9216
 2690SOL    HW219533   2.006   2.627  16.770 -0.6623 -0.8548 -0.9039
 2691SOL     OW19534   1.894   3.390  11.634  0.1096 -1.0425  0.3308
 2691SOL    HW119535   1.856   3.428  11.713  0.6764  2.1139 -0.9098
 2691SOL    HW219536   1.964   3.455  11.628 -0.1764 -0.8583 -0.9488
 2692SOL     OW19537   3.119   2.134   4.461 -0.4275 -0.5570 -0.8454
 2692SOL    HW119538   3.081   2.075   4.526  0.8521 -0.5175 -0.0702
 2692SOL    HW219539   3.043   2.187   4.438 -0.4614 -0.2032  0.0964
 2693SOL     OW19540   1.285   4.532   3.776  0.4678 -0.0693 -0.2737
 2693SOL    HW119541   1.365   4.494   3.738  1.1431 -0.8864  1.9446
 2693SOL    HW219542   1.224   4.526   3.702  0.1769  1.5622 -0.1681
 2694SOL     OW19543   2.868   1.861   2.371  0.2840 -0.4030 -0.0196
 2694SOL    HW119544   2.815   1.813   2.307  2.4162  0.4202 -2.4115
 2694SOL    HW219545   2.842   1.833   2.459 -0.4307 -2.4585 -0.9008
 2695SOL     OW19546   2.508   2.086  17.268  0.2308 -0.5595  0.2070
 2695SOL    HW119547   2.582   2.129  17.226  0.6408  1.7256  3.3667
 2695SOL    HW219548   2.473   2.033  17.196  1.3782 -1.1315  0.0738
 2696SOL     OW19549   0.636   0.120  13.029  0.0960 -0.3424 -0.0295
 2696SOL    HW119550   0.655   0.214  13.028  2.4190 -0.8369 -1.5216
 2696SOL    HW219551   0.541   0.126  13.026 -0.0265 -1.6068  1.0456
 2697SOL     OW19552   2.832   4.294   6.929 -0.6720  0.2313  0.2768
 2697SOL    HW119553   2.760   4.254   6.977 -2.7817  1.2627 -2.0231
 2697SOL    HW219554   2.825   4.233   6.855  0.4054  0.7138 -0.2200
 2698SOL     OW19555   3.265   0.101  12.927  0.4994  0.1850  0.3433
 2698SOL    HW119556   3.314   0.115  12.846 -1.0267  1.4232 -0.3554
 2698SOL    HW219557   3.187   0.058  12.891 -0.3941  1.7786  0.3534
 2699SOL     OW19558   2.763   3.016   4.425 -0.4429 -0.0020 -0.5156
 2699SOL    HW119559   2.728   3.095   4.467  0.2812  0.1169 -0.1445
 2699SOL    HW219560   2.724   3.039   4.340  0.1097 -0.5360 -0.9210
 2700SOL     OW19561   1.339   1.519  14.185  0.6586 -0.3751 -0.0500
 2700SOL    HW119562   1.397   1.581  14.142 -1.3649  0.4726 -1.5626
 2700SOL    HW219563   1.311   1.565  14.265  2.9730 -0.8299  1.0110
 2701SOL     OW19564   0.755   1.618   7.919 -0.1359  0.1687 -0.0779
 2701SOL    HW119565   0.754   1.527   7.947  2.2117  0.4752  1.0162
 2701SOL    HW219566   0.846   1.640   7.938 -0.0989  0.0158 -0.0795
 2702SOL     OW19567   2.584   2.022   3.751  0.1244  0.1615 -0.4473
 2702SOL    HW119568   2.512   2.023   3.688 -1.2157  5.9852  1.1854
 2702SOL    HW219569   2.643   1.967   3.700 -1.0187 -2.5660  1.1343
 2703SOL     OW19570   3.407   0.592   9.843 -0.0844  0.3834 -0.0775
 2703SOL    HW119571   3.469   0.623   9.908  0.5500 -0.2065 -0.3948
 2703SOL    HW219572   3.360   0.522   9.888  0.7221  0.1275  0.3527
 2704SOL     OW19573   1.396   0.835   2.914 -0.4097  0.4520 -0.4894
 2704SOL    HW119574   1.310   0.829   2.873 -0.0855  1.0192 -1.2660
 2704SOL    HW219575   1.452   0.790   2.850  1.0651  0.9413  0.4409
 2705SOL     OW19576   1.987   2.509   3.348  0.3679  0.0207  0.4226
 2705SOL    HW119577   2.033   2.534   3.267 -1.4434 -2.3713 -1.3448
 2705SOL    HW219578   2.047   2.447   3.390 -0.0980 -0.4453  0.4001
 2706SOL     OW19579   2.548   3.661   2.208 -0.0878 -0.2289  0.2225
 2706SOL    HW119580   2.587   3.632   2.290  0.3256 -0.0413  0.0873
 2706SOL    HW219581   2.593   3.601   2.149  0.8971  0.9367 -0.1896
 2707SOL     OW19582   0.343   2.701   3.043  0.4382  0.3130  0.3784
 2707SOL    HW119583   0.276   2.656   2.992  1.5940  0.5037 -1.3074
 2707SOL    HW219584   0.364   2.633   3.106 -3.9222  0.9142  2.5226
 2708SOL     OW19585   0.369   3.403   6.577 -0.2238 -0.2421 -0.3118
 2708SOL    HW119586   0.447   3.439   6.618 -0.1245 -0.7195 -0.0813
 2708SOL    HW219587   0.296   3.465   6.587 -0.7515 -0.8434 -0.4023
 2709SOL     OW19588   4.258   3.240  13.241 -0.3324 -0.0376 -0.3713
 2709SOL    HW119589   4.330   3.194  13.284  0.9784  1.1960 -1.2248
 2709SOL    HW219590   4.278   3.223  13.149  0.8527 -1.5391  0.1702
 2710SOL     OW19591   3.324   0.593  17.391  0.5631 -0.2732  0.1046
 2710SOL    HW119592   3.341   0.577  17.484  0.8873 -1.9615 -0.2470
 2710SOL    HW219593   3.403   0.646  17.376  1.4787 -1.5943  0.2680
 2711SOL     OW19594   2.977   3.581   4.517 -0.1477 -0.2990 -0.5439
 2711SOL    HW119595   3.027   3.612   4.592 -2.2591 -3.3517  2.1463
 2711SOL    HW219596   2.887   3.589   4.550 -0.4439 -0.5207 -1.2920
 2712SOL     OW19597   0.776   1.424   8.140  0.1153  0.6326  0.1864
 2712SOL    HW119598   0.838   1.493   8.163  1.2215 -1.2336  2.8481
 2712SOL    HW219599   0.730   1.416   8.224 -1.7134  1.9712 -0.7043
 2713SOL     OW19600   3.611   2.146   0.504 -0.3499  0.4013 -0.2530
 2713SOL    HW119601   3.627   2.198   0.583 -2.8883 -3.1513  2.5692
 2713SOL    HW219602   3.674   2.077   0.525 -0.0074  0.5610 -0.7689
 2714SOL     OW19603   1.426   0.281   4.968 -0.1343  0.5445 -0.3401
 2714SOL    HW119604   1.402   0.350   4.907 -1.0491 -0.2781 -0.9087
 2714SOL    HW219605   1.413   0.324   5.053  0.8926 -1.5866  0.8741
 2715SOL     OW19606   2.237   4.585   8.068 -0.6885 -0.4120  0.1649
 2715SOL    HW119607   2.233   4.489   8.071 -0.0993 -0.4611 -0.6736
 2715SOL    HW219608   2.181   4.598   8.145  1.1512 -0.1046  1.4305
 2716SOL     OW19609   2.851   3.782   2.173  0.6060  0.1565  0.0447
 2716SOL    HW119610   2.849   3.847   2.243 -0.7749  0.2737 -0.1121
 2716SOL    HW219611   2.853   3.829   2.090 -3.2048  2.1554  1.0846
 2717SOL     OW19612   3.787   4.132   4.758 -0.0420  0.0685 -0.2018
 2717SOL    HW119613   3.735   4.066   4.712  1.2906  0.3410 -2.1143
 2717SOL    HW219614   3.747   4.121   4.844  0.3115  0.5309  0.0249
 2718SOL     OW19615   1.081   1.632   9.194 -0.6047 -0.3753 -0.4356
 2718SOL    HW119616   1.042   1.591   9.271 -1.7879 -0.2127 -0.9583
 2718SOL    HW219617   1.140   1.692   9.241 -0.0338 -0.2227 -1.3557
 2719SOL     OW19618   1.835   1.898   6.545 -0.2248 -0.5388 -0.6627
 2719SOL    HW119619   1.740   1.891   6.556  0.0063 -3.1718 -0.3885
 2719SOL    HW219620   1.862   1.808   6.564  0.2817 -0.1243  0.6079
 2720SOL     OW19621   2.467   3.867  15.105 -0.3365 -0.3592 -0.6718
 2720SOL    HW119622   2.467   3.962  15.094 -0.0634 -0.3522 -0.6039
 2720SOL    HW219623   2.446   3.877  15.198 -2.0103  1.0676 -1.1839
 2721SOL     OW19624   3.563   1.979  16.520 -0.3463  0.1514  0.6010
 2721SOL    HW119625   3.568   1.946  16.610  1.7664 -2.3366 -0.4524
 2721SOL    HW219626   3.484   1.938  16.485 -0.7514  0.8911  0.6513
 2722SOL     OW19627   2.538   2.553  14.377 -0.2622 -0.1892 -0.5867
 2722SOL    HW119628   2.568   2.542  14.287 -3.6795  0.7854 -1.8266
 2722SOL    HW219629   2.566   2.644  14.388 -0.9656  0.1708 -1.7814
 2723SOL     OW19630   0.257   0.765   3.289  0.0546  1.1784 -0.3242
 2723SOL    HW119631   0.269   0.854   3.323  1.4744  1.0463 -0.4492
 2723SOL    HW219632   0.202   0.735   3.361 -1.2453  0.3364 -1.6817
 2724SOL     OW19633   3.333   1.990   6.222 -0.2979  0.4103 -0.7888
 2724SOL    HW119634   3.408   1.932   6.211 -1.7575 -1.5446 -0.4168
 2724SOL    HW219635   3.335   2.046   6.145  0.7045  0.4098 -0.7672
 2725SOL     OW19636   3.636   3.640   4.869 -0.5142  0.1944 -0.0346
 2725SOL    HW119637   3.558   3.587   4.852 -1.0602  0.6813  0.9494
 2725SOL    HW219638   3.607   3.686   4.948 -1.1965 -0.1366 -0.0851
 2726SOL     OW19639   0.863   3.285   7.837 -0.2067 -0.0313  0.4757
 2726SOL    HW119640   0.780   3.242   7.817  1.3097 -2.8886  0.3885
 2726SOL    HW219641   0.918   3.263   7.762 -2.9352 -2.0016 -0.9353
 2727SOL     OW19642   2.383   2.311  12.589 -0.1370  0.1009 -0.1707
 2727SOL    HW119643   2.427   2.375  12.532 -0.4989  0.2908 -0.2352
 2727SOL    HW219644   2.357   2.241  12.530  1.9094 -0.8243  0.0048
 2728SOL     OW19645   2.163   2.326   7.378 -0.1551  0.1667 -0.7707
 2728SOL    HW119646   2.168   2.401   7.437  1.5075  0.8242 -1.7207
 2728SOL    HW219647   2.086   2.281   7.411  1.5138 -2.0670  0.0357
 2729SOL     OW19648   3.449   1.134   1.777  0.6795 -0.5553 -0.2064
 2729SOL    HW119649   3.404   1.124   1.861 -0.0584  1.0712 -0.4090
 2729SOL    HW219650   3.413   1.061   1.726  0.0877  0.3942 -1.1667
 2730SOL     OW19651   2.785   0.095   6.174  0.1673  0.2948  0.0094
 2730SOL    HW119652   2.804   0.087   6.267 -2.5161  0.1725  0.5686
 2730SOL    HW219653   2.764   0.005   6.149 -0.9071  0.5543 -0.0438
 2731SOL     OW19654   1.149   4.599   6.421 -0.5550  0.4919  0.4056
 2731SOL    HW119655   1.121   4.583   6.331  0.1751 -0.6211  0.3710
 2731SOL    HW219656   1.160   4.694   6.425 -0.9177  0.5742 -0.8435
 2732SOL     OW19657   0.128   4.048   4.704  0.1147  0.4361  0.1945
 2732SOL    HW119658   0.060   3.983   4.719 -0.3910  0.8475 -0.3351
 2732SOL    HW219659   0.125   4.104   4.782  0.0986  1.0471 -0.2472
 2733SOL     OW19660   0.228   3.760   2.796  0.1049  0.0045 -0.4540
 2733SOL    HW119661   0.255   3.845   2.764 -0.2184 -0.1835 -1.2225
 2733SOL    HW219662   0.223   3.709   2.715  1.0727 -1.7868  0.6018
 2734SOL     OW19663   1.721   1.272   3.398 -0.0434  0.0282  0.0064
 2734SOL    HW119664   1.640   1.321   3.406  0.9712  1.6045  0.6788
 2734SOL    HW219665   1.742   1.298   3.308  2.8362 -5.3441 -0.8354
 2735SOL     OW19666   0.077   0.494  10.795  0.4436  0.4930 -0.8106
 2735SOL    HW119667   0.119   0.488  10.880  1.1911 -0.6147 -1.2619
 2735SOL    HW219668   0.131   0.558  10.747  1.8902 -0.6107 -0.6397
 2736SOL     OW19669   4.666   3.984   7.069  0.0711  0.0789  0.0994
 2736SOL    HW119670   4.655   4.071   7.106 -1.2820  0.4205 -1.1132
 2736SOL    HW219671   0.037   3.973   7.056  0.2175  0.5424  0.7513
 2737SOL     OW19672   3.877   4.280  11.748  0.0017  1.0824  0.2850
 2737SOL    HW119673   3.968   4.279  11.719  0.0018  2.4413  0.2794
 2737SOL    HW219674   3.843   4.198  11.711  2.4770  0.8614 -1.4668
 2738SOL     OW19675   3.967   0.168   6.552 -0.0774  0.2767  0.4932
 2738SOL    HW119676   4.057   0.174   6.520  0.0389  0.1424  0.8010
 2738SOL    HW219677   3.913   0.206   6.482 -2.5653 -1.2877  1.5761
 2739SOL     OW19678   2.802   2.906   0.106 -0.7174 -0.1376 -0.1890
 2739SOL    HW119679   2.850   2.906   0.189 -0.1795  2.0589 -0.5097
 2739SOL    HW219680   2.722   2.868   0.143  0.2860  0.0365  2.1868
 2740SOL     OW19681   3.684   1.004   7.189 -0.5694  0.5934 -0.2508
 2740SOL    HW119682   3.634   0.979   7.111 -2.6230 -1.8320  1.8420
 2740SOL    HW219683   3.624   0.990   7.263  1.0613 -0.4580  0.8641
 2741SOL     OW19684   2.586   1.472   3.362  0.3237 -0.1321  0.0948
 2741SOL    HW119685   2.512   1.416   3.338  0.1610  0.2785 -0.3624
 2741SOL    HW219686   2.650   1.407   3.391 -0.2389  0.1463  1.9722
 2742SOL     OW19687   4.033   0.653   4.832  0.4013  0.3959  0.3560
 2742SOL    HW119688   3.999   0.566   4.853 -0.6434  0.2407 -2.0333
 2742SOL    HW219689   4.093   0.631   4.761 -0.9493  0.7620 -0.9052
 2743SOL     OW19690   1.312   2.782  17.129 -0.1359 -0.3553  0.6457
 2743SOL    HW119691   1.245   2.730  17.173 -0.0785  0.1050  1.2744
 2743SOL    HW219692   1.260   2.818  17.057  1.1446 -0.3047 -0.2572
 2744SOL     OW19693   4.691   0.616   2.144  0.5149  0.2093  0.3321
 2744SOL    HW119694   0.006   0.574   2.067 -1.0341 -1.4825  0.4823
 2744SOL    HW219695   0.048   0.647   2.188 -0.3922  1.6786  0.9560
 2745SOL     OW19696   1.257   3.413   0.814  0.0457 -0.4583 -0.3610
 2745SOL    HW119697   1.329   3.428   0.875  1.9015 -1.6786 -2.2726
 2745SOL    HW219698   1.186   3.443   0.871  0.1360  0.6982 -0.8552
 2746SOL     OW19699   3.760   1.901  12.797 -0.3351  0.5978  0.4975
 2746SOL    HW119700   3.818   1.976  12.802  0.4634 -0.1230  1.9013
 2746SOL    HW219701   3.826   1.836  12.820 -0.1336  0.9905  1.0213
 2747SOL     OW19702   0.132   0.627   5.929  0.4646  0.4232  0.2359
 2747SOL    HW119703   0.220   0.649   5.897 -0.3403  1.1022 -1.5050
 2747SOL    HW219704   0.129   0.692   5.999 -1.8048 -1.7204  2.1076
 2748SOL     OW19705   0.737   1.131   5.808  0.3478  0.4459 -0.5675
 2748SOL    HW119706   0.789   1.194   5.857 -0.8179  0.4064  0.7477
 2748SOL    HW219707   0.781   1.130   5.723  0.1667 -1.3037 -0.6468
 2749SOL     OW19708   3.114   2.289   6.596  0.5657  0.4326  0.3288
 2749SOL    HW119709   3.046   2.294   6.529 -0.0113 -0.2654  0.8580
 2749SOL    HW219710   3.193   2.280   6.543 -0.7603 -3.0333 -1.0784
 2750SOL     OW19711   2.595   2.913   6.181 -0.1096 -0.1828  0.5595
 2750SOL    HW119712   2.607   3.000   6.219 -1.0486 -0.6408  1.9318
 2750SOL    HW219713   2.574   2.926   6.089 -1.6130  0.9370  1.0558
 2751SOL     OW19714   1.341   3.712   2.140  0.1046  0.2201  0.3963
 2751SOL    HW119715   1.421   3.664   2.159 -1.1795 -2.5891 -1.4636
 2751SOL    HW219716   1.336   3.719   2.045 -0.0605  1.3394  0.4780
 2752SOL     OW19717   1.813   1.401   1.634 -0.3142  0.4437  0.0872
 2752SOL    HW119718   1.783   1.405   1.725  0.1157  0.6127  0.2198
 2752SOL    HW219719   1.751   1.337   1.599 -1.2034  2.2087 -1.5950
 2753SOL     OW19720   0.493   2.287   6.748  0.0177 -0.3901  0.2393
 2753SOL    HW119721   0.487   2.195   6.772  0.4817  0.4256  3.5089
 2753SOL    HW219722   0.547   2.276   6.669 -0.3601 -0.8699  0.0541
 2754SOL     OW19723   1.853   1.837   6.857  0.2418  0.0872 -0.3648
 2754SOL    HW119724   1.833   1.930   6.846  0.1734  0.2963  1.5933
 2754SOL    HW219725   1.765   1.817   6.826 -0.1356 -0.6323  1.1888
 2755SOL     OW19726   1.542   0.652   0.501  0.2958 -0.2342  0.3385
 2755SOL    HW119727   1.573   0.706   0.428 -0.5812  0.7262  0.6739
 2755SOL    HW219728   1.613   0.597   0.534  0.4375 -0.4277 -0.2887
 2756SOL     OW19729   3.127   3.164   8.086 -0.1598  0.1362  0.4346
 2756SOL    HW119730   3.174   3.160   8.003 -2.5356 -0.7175 -0.8685
 2756SOL    HW219731   3.142   3.254   8.115 -4.0171  0.7738  0.4810
 2757SOL     OW19732   1.263   3.853  14.076 -1.0723 -0.3154 -0.2593
 2757SOL    HW119733   1.199   3.865  14.146 -1.5767 -0.1245 -0.7540
 2757SOL    HW219734   1.334   3.887  14.130 -2.7419  2.1246  0.4036
 2758SOL     OW19735   4.233   4.470   4.937  0.3417  0.1141  0.1071
 2758SOL    HW119736   4.157   4.421   4.903  0.7161  0.5423 -1.3431
 2758SOL    HW219737   4.299   4.429   4.881  0.7644 -0.8165  1.2838
 2759SOL     OW19738   3.605   3.091  10.909  0.0808  0.3428  0.1746
 2759SOL    HW119739   3.612   3.001  10.941  1.7712  1.0625  1.7885
 2759SOL    HW219740   3.687   3.122  10.946  1.0260 -1.0200 -0.7675
 2760SOL     OW19741   4.566   1.645   4.357  0.0814 -0.2025 -0.6323
 2760SOL    HW119742   4.594   1.590   4.284  0.5365 -3.0277  1.6719
 2760SOL    HW219743   4.605   1.600   4.432 -1.6756  2.0702  1.6545
 2761SOL     OW19744   3.150   4.210  15.848 -0.0536 -0.1592  0.4974
 2761SOL    HW119745   3.164   4.248  15.935 -1.5351 -1.9096  1.4839
 2761SOL    HW219746   3.058   4.234  15.841  0.0708  0.1228 -0.1674
 2762SOL     OW19747   4.693   1.931   9.516 -0.6749 -0.4123  0.0077
 2762SOL    HW119748   0.018   2.003   9.475 -0.2900  0.5192  2.1173
 2762SOL    HW219749   4.719   1.859   9.458  2.0084  2.0165 -1.7936
 2763SOL     OW19750   2.125   4.529   4.978 -0.5071  0.1795 -0.0805
 2763SOL    HW119751   2.134   4.602   4.917  2.9014 -1.2400 -1.2929
 2763SOL    HW219752   2.136   4.566   5.066  1.9930  0.9703 -0.7269
 2764SOL     OW19753   0.491   1.292   3.945  0.1181  0.1208  1.0345
 2764SOL    HW119754   0.585   1.303   3.931  0.1491  0.5266  1.5802
 2764SOL    HW219755   0.441   1.313   3.865  2.2124 -0.4595 -0.4218
 2765SOL     OW19756   4.226   4.086   9.173  0.8450  0.4752  0.7198
 2765SOL    HW119757   4.169   4.054   9.103  2.4079 -0.6195 -0.0469
 2765SOL    HW219758   4.151   4.115   9.226  0.1889 -1.9465  1.0954
 2766SOL     OW19759   2.235   4.490  17.023  0.6913 -0.0821  0.3255
 2766SOL    HW119760   2.257   4.569  17.072  1.7177  0.1203 -0.4435
 2766SOL    HW219761   2.292   4.505  16.947  0.5772 -0.9361  0.0638
 2767SOL     OW19762   1.728   4.026   0.475 -0.5035  0.4707 -0.1925
 2767SOL    HW119763   1.663   4.037   0.406  0.6928  1.2458 -1.1914
 2767SOL    HW219764   1.785   3.967   0.425 -0.6922  0.7122 -0.6932
 2768SOL     OW19765   3.903   0.862   9.342  0.4457 -0.2225 -0.0673
 2768SOL    HW119766   3.876   0.849   9.433  1.0552  0.4576  0.2040
 2768SOL    HW219767   3.859   0.782   9.311 -0.5751 -0.5671  2.2828
 2769SOL     OW19768   0.398   0.738   8.152 -0.2775 -0.0035 -0.4475
 2769SOL    HW119769   0.383   0.714   8.060 -0.3879 -0.0026 -0.4287
 2769SOL    HW219770   0.312   0.776   8.166 -0.2619 -0.4236  0.7536
 2770SOL     OW19771   3.210   0.765   8.118  0.1999 -0.3021 -0.2216
 2770SOL    HW119772   3.191   0.735   8.029  2.0784 -2.0109 -0.0380
 2770SOL    HW219773   3.222   0.859   8.106  1.4552 -0.2637  1.4595
 2771SOL     OW19774   0.575   0.576  11.684  0.2525 -0.3643  0.8124
 2771SOL    HW119775   0.534   0.581  11.770  0.1627 -3.5900  0.9484
 2771SOL    HW219776   0.512   0.521  11.638 -0.1892  2.1672 -1.6421
 2772SOL     OW19777   2.164   0.898  12.005  0.7915  0.2108 -0.0156
 2772SOL    HW119778   2.259   0.894  12.009  0.6233 -0.9182  3.0015
 2772SOL    HW219779   2.169   0.881  11.911 -0.8905  1.9399 -0.4159
 2773SOL     OW19780   2.911   1.395   7.025  0.0155 -0.4188  0.2811
 2773SOL    HW119781   2.990   1.443   7.000 -0.7468  1.1524  0.9235
 2773SOL    HW219782   2.911   1.393   7.121 -1.0121 -0.3026  0.2831
 2774SOL     OW19783   4.224   0.415   8.908 -0.5506 -0.4450 -0.5047
 2774SOL    HW119784   4.277   0.358   8.852  2.1555  3.0520 -1.4778
 2774SOL    HW219785   4.132   0.403   8.883 -0.5619 -1.0926 -0.1299
 2775SOL     OW19786   2.360   0.233  16.126 -0.3321 -0.1431 -0.1280
 2775SOL    HW119787   2.438   0.213  16.178  0.8262 -1.3643 -2.2916
 2775SOL    HW219788   2.325   0.309  16.171  0.5052 -0.3340  0.8543
 2776SOL     OW19789   2.150   2.106  13.106  0.2645  0.2640 -0.5107
 2776SOL    HW119790   2.081   2.047  13.076 -0.6781  0.9959  0.2103
 2776SOL    HW219791   2.132   2.113  13.200  1.0815 -0.1007 -0.3269
 2777SOL     OW19792   1.663   3.321   4.239 -0.1390  0.1711  0.4361
 2777SOL    HW119793   1.634   3.234   4.266 -2.0766 -0.1816 -2.7636
 2777SOL    HW219794   1.713   3.350   4.315  1.8904 -0.0860 -0.8000
 2778SOL     OW19795   0.246   4.184   4.477 -0.0811 -0.4534  0.0052
 2778SOL    HW119796   0.195   4.154   4.552 -1.5663 -0.1939 -0.8870
 2778SOL    HW219797   0.231   4.111   4.417 -1.2758  0.0523 -0.3167
 2779SOL     OW19798   0.107   1.454  16.054  0.1796  0.5555 -0.2993
 2779SOL    HW119799   0.148   1.392  15.993 -0.4986 -1.2525  1.0611
 2779SOL    HW219800   0.089   1.530  15.999 -1.0159  0.1510 -0.4488
 2780SOL     OW19801   3.064   1.013   0.714 -0.5058 -0.0675  0.3079
 2780SOL    HW119802   2.973   1.037   0.732  0.1704  2.9045 -0.1473
 2780SOL    HW219803   3.100   1.097   0.742  0.9774 -0.9859  1.1339
 2781SOL     OW19804   2.445   1.011   8.036  0.4188 -0.1199 -0.2485
 2781SOL    HW119805   2.376   1.055   8.085  1.3094  1.0875 -0.0932
 2781SOL    HW219806   2.401   0.932   8.004 -0.0551 -0.0549  0.2375
 2782SOL     OW19807   2.992   4.691   6.699 -0.0074  0.5907 -0.2745
 2782SOL    HW119808   2.907   4.721   6.731  0.3818  1.0159  0.3696
 2782SOL    HW219809   3.046   0.044   6.723  2.0071 -0.9265 -0.0793
 2783SOL     OW19810   0.247   2.523   0.488  0.3310 -1.0349 -0.4268
 2783SOL    HW119811   0.261   2.500   0.396 -0.1696  2.2585 -1.3217
 2783SOL    HW219812   0.338   2.542   0.514 -0.1911  0.3751  0.4090
 2784SOL     OW19813   2.376   3.191  16.536 -0.4533  0.0258  0.6239
 2784SOL    HW119814   2.332   3.134  16.599  0.8836  0.0357  1.5594
 2784SOL    HW219815   2.388   3.268  16.591  0.1347 -1.4580  2.5608
 2785SOL     OW19816   3.230   0.799   4.030 -0.5828  0.6152  0.2958
 2785SOL    HW119817   3.234   0.852   4.109 -2.4045 -2.0303  2.1511
 2785SOL    HW219818   3.165   0.857   3.990 -0.3020  0.8033  0.1066
 2786SOL     OW19819   4.158   1.231   1.474 -0.1304  0.3152  0.0930
 2786SOL    HW119820   4.123   1.187   1.551  2.0295 -1.1894  0.2296
 2786SOL    HW219821   4.169   1.320   1.509 -1.8401  0.1983  0.9007
 2787SOL     OW19822   0.903   3.053  10.905 -0.3363 -0.2161  0.2263
 2787SOL    HW119823   0.946   3.028  10.823 -0.8918 -0.7608  0.0973
 2787SOL    HW219824   0.859   3.137  10.893  1.5296  0.7189 -0.0566
 2788SOL     OW19825   3.017   2.338   1.146  0.5967  0.0288  0.4385
 2788SOL    HW119826   3.002   2.428   1.117 -2.6152 -1.1167 -1.5669
 2788SOL    HW219827   2.952   2.299   1.087  1.7099 -1.6738  0.3457
 2789SOL     OW19828   4.120   2.485   8.541  0.3804 -0.5032 -0.5280
 2789SOL    HW119829   4.195   2.504   8.485 -1.1016 -1.0577 -2.6946
 2789SOL    HW219830   4.087   2.574   8.544  0.7034 -0.3796 -0.7279
 2790SOL     OW19831   1.460   3.290   9.373  0.0499  0.5741 -0.1289
 2790SOL    HW119832   1.475   3.199   9.396 -0.7371  0.4907  0.0488
 2790SOL    HW219833   1.550   3.320   9.356  0.3072  0.0402  0.2720
 2791SOL     OW19834   0.883   1.915   2.997 -0.0529 -0.0787  0.3417
 2791SOL    HW119835   0.845   2.001   3.014 -2.9934 -1.7496  2.2364
 2791SOL    HW219836   0.873   1.912   2.902  2.8801  2.0419 -0.0295
 2792SOL     OW19837   1.884   4.569  13.865  0.1758 -0.0154  0.4387
 2792SOL    HW119838   1.895   4.578  13.960  0.3244  3.1036  0.1150
 2792SOL    HW219839   1.966   4.603  13.830 -0.5957  0.9917 -0.3909
 2793SOL     OW19840   0.293   2.099  14.603 -0.1995 -0.4368  0.2943
 2793SOL    HW119841   0.310   2.005  14.595  1.3016 -0.0721 -0.8766
 2793SOL    HW219842   0.240   2.118  14.526 -3.1734  0.9433  2.6984
 2794SOL     OW19843   1.552   0.717   2.732 -0.4950 -0.1491  0.1174
 2794SOL    HW119844   1.547   0.698   2.638  1.5068 -0.0261 -0.0008
 2794SOL    HW219845   1.645   0.704   2.751 -0.7416 -2.0503  0.0979
 2795SOL     OW19846   4.379   4.028   8.481 -0.3512 -0.3945 -0.2107
 2795SOL    HW119847   4.407   4.056   8.394  2.0254  0.4667  0.8445
 2795SOL    HW219848   4.464   4.025   8.525 -1.7575  0.4019  2.5672
 2796SOL     OW19849   1.280   3.082   4.163 -0.1793 -0.1437  0.1504
 2796SOL    HW119850   1.222   3.090   4.087 -0.4665  0.8309  0.4692
 2796SOL    HW219851   1.364   3.049   4.132 -0.0889 -0.2009  0.4542
 2797SOL     OW19852   1.980   3.915   5.509  0.3680  0.8193  0.3110
 2797SOL    HW119853   1.900   3.967   5.499 -0.4337 -0.8138 -1.8528
 2797SOL    HW219854   2.014   3.960   5.586  2.1763  0.8238 -0.4779
 2798SOL     OW19855   3.822   1.369   2.841 -0.2359 -0.2685 -0.5202
 2798SOL    HW119856   3.903   1.318   2.850  0.6713  1.8024  3.5356
 2798SOL    HW219857   3.850   1.457   2.816  0.1975  0.0869  1.1441
 2799SOL     OW19858   3.890   1.576   5.147 -0.3988  0.7593 -0.6209
 2799SOL    HW119859   3.867   1.533   5.065  0.5691  1.2776 -1.1692
 2799SOL    HW219860   3.818   1.640   5.152 -1.0772 -0.1329  0.7752
 2800SOL     OW19861   2.208   2.877   8.907 -0.4689  0.6401 -0.0142
 2800SOL    HW119862   2.289   2.866   8.857 -0.2385  1.4465  0.1856
 2800SOL    HW219863   2.209   2.973   8.912  1.5509  0.6982 -1.4287
 2801SOL     OW19864   2.155   3.960   7.786  0.6828 -0.2330  0.0752
 2801SOL    HW119865   2.099   3.988   7.714  1.9370  0.9232 -0.4610
 2801SOL    HW219866   2.118   3.872   7.782 -0.2716  0.1212  1.2731
 2802SOL     OW19867   2.946   4.403   3.557  0.3843  0.4216 -0.5857
 2802SOL    HW119868   2.959   4.319   3.600  1.5193  0.4850 -0.8152
 2802SOL    HW219869   2.956   4.463   3.631 -1.1579 -0.5683  0.4199
 2803SOL     OW19870   0.466   3.516   4.696  0.0672  0.2748  0.2808
 2803SOL    HW119871   0.375   3.500   4.721  0.2415  2.6522  2.4468
 2803SOL    HW219872   0.482   3.609   4.713 -0.5783  0.1845  1.3631
 2804SOL     OW19873   1.551   2.461   6.255 -0.1794 -0.1811  0.3514
 2804SOL    HW119874   1.526   2.538   6.306  1.3205 -0.1394  1.0217
 2804SOL    HW219875   1.513   2.488   6.171 -1.7965 -1.2665  0.7389
 2805SOL     OW19876   0.802   2.622  13.930  0.5047 -0.4131  0.1970
 2805SOL    HW119877   0.753   2.595  13.852 -0.6227  1.5029  0.2517
 2805SOL    HW219878   0.864   2.549  13.935  0.6066 -0.3395 -0.0338
 2806SOL     OW19879   0.018   0.404  10.230  0.2882 -0.1612 -0.2709
 2806SOL    HW119880   0.027   0.499  10.221 -1.5526 -0.1129 -1.6307
 2806SOL    HW219881   4.707   0.375  10.145 -1.5510 -1.0270  0.7508
 2807SOL     OW19882   1.152   0.529  17.256 -0.5026  0.0385  0.1534
 2807SOL    HW119883   1.244   0.542  17.278 -0.2455  1.5123 -1.7391
 2807SOL    HW219884   1.153   0.439  17.222  2.8574  0.1953 -0.1540
 2808SOL     OW19885   2.683   1.700   1.720 -0.2050 -0.1102  0.4287
 2808SOL    HW119886   2.648   1.697   1.631  0.6164 -1.7000  0.1725
 2808SOL    HW219887   2.766   1.653   1.715 -0.2546 -0.0832 -0.6912
 2809SOL     OW19888   2.150   4.322   5.307 -0.6707 -0.5049 -0.1398
 2809SOL    HW119889   2.172   4.415   5.297 -0.1571 -0.3652  2.2470
 2809SOL    HW219890   2.160   4.313   5.402  1.2166 -1.9363 -0.4794
 2810SOL     OW19891   1.402   4.126  11.264 -0.3762 -0.0793 -0.2712
 2810SOL    HW119892   1.456   4.060  11.308 -0.6135  0.3014  0.5802
 2810SOL    HW219893   1.327   4.129  11.323 -0.5991 -1.1373 -0.4992
 2811SOL     OW19894   2.743   4.706   8.247  0.1782 -0.5588 -0.1730
 2811SOL    HW119895   2.725   4.645   8.318  1.7249 -1.4986 -0.5809
 2811SOL    HW219896   2.799   0.046   8.292  0.7432 -1.8338  0.9030
 2812SOL     OW19897   0.672   3.474   5.220 -0.5173 -0.2000  0.1857
 2812SOL    HW119898   0.688   3.458   5.313 -0.9591 -3.1653 -0.2578
 2812SOL    HW219899   0.624   3.558   5.225 -1.2488 -0.6150  0.1376
 2813SOL     OW19900   0.194   2.251   2.201  0.3292 -0.0099  0.0718
 2813SOL    HW119901   0.267   2.227   2.145  1.2923  3.9122 -0.2982
 2813SOL    HW219902   0.209   2.190   2.273 -1.1616  1.7369  1.8610
 2814SOL     OW19903   1.454   2.830   3.426 -0.4784 -0.2668  0.4776
 2814SOL    HW119904   1.505   2.906   3.451  0.9461 -0.8484 -0.6261
 2814SOL    HW219905   1.512   2.766   3.467  0.5978  0.0744 -0.5174
 2815SOL     OW19906   4.258   0.106   7.664 -0.1668 -0.6433 -0.6072
 2815SOL    HW119907   4.204   0.139   7.735 -0.6875 -1.3494 -0.6786
 2815SOL    HW219908   4.332   0.067   7.711  1.0010  1.0550 -1.0071
 2816SOL     OW19909   4.444   4.066   8.902  0.1383  0.2057 -0.3227
 2816SOL    HW119910   4.528   4.053   8.945 -0.2731 -0.0772  0.4021
 2816SOL    HW219911   4.381   4.030   8.965 -0.8178  0.9671 -0.8477
 2817SOL     OW19912   1.600   0.030   8.563  0.0299 -0.0608  0.1113
 2817SOL    HW119913   1.553   0.099   8.516 -0.3104 -1.0111 -0.9439
 2817SOL    HW219914   1.518   4.712   8.590 -0.8649  1.2860 -0.5627
 2818SOL     OW19915   2.635   2.563  13.713  0.0865 -0.3251 -0.0017
 2818SOL    HW119916   2.620   2.484  13.764  0.3315 -0.6140 -0.3788
 2818SOL    HW219917   2.728   2.583  13.728  0.0312 -0.6478  0.7910
 2819SOL     OW19918   4.261   2.698   5.436 -0.1831  0.2787 -0.1572
 2819SOL    HW119919   4.338   2.755   5.441  0.9011 -0.9513 -2.5585
 2819SOL    HW219920   4.195   2.755   5.396 -1.1613 -0.8349 -0.1267
 2820SOL     OW19921   4.631   1.535  12.154 -0.4510 -0.1399  0.2181
 2820SOL    HW119922   4.597   1.608  12.103  0.8126 -0.6153 -1.2974
 2820SOL    HW219923   4.554   1.479  12.145 -0.2728 -0.4779  0.7798
 2821SOL     OW19924   2.557   1.549  13.834 -0.3792  0.6769  0.2981
 2821SOL    HW119925   2.640   1.573  13.875  0.1335  0.5028 -0.6316
 2821SOL    HW219926   2.516   1.530  13.918 -0.3506 -1.2250 -0.1214
 2822SOL     OW19927   3.759   3.279  15.915 -0.2669  0.0396 -0.0907
 2822SOL    HW119928   3.836   3.272  15.858  0.3295  1.1083  0.5733
 2822SOL    HW219929   3.733   3.188  15.924 -0.3733 -0.1769 -2.7214
 2823SOL     OW19930   3.793   2.577   2.991  0.3998 -0.0919 -0.8348
 2823SOL    HW119931   3.816   2.663   2.955  3.3250 -0.9286 -0.9452
 2823SOL    HW219932   3.862   2.523   2.953  0.4818 -1.3798  1.1229
 2824SOL     OW19933   0.510   1.044   5.256 -0.3468 -0.2252  0.3348
 2824SOL    HW119934   0.441   1.043   5.190  0.2453  2.1141 -0.2975
 2824SOL    HW219935   0.580   1.091   5.211 -0.7629  0.0868  0.0188
 2825SOL     OW19936   1.290   2.466   3.874  0.4407 -0.5383 -0.2195
 2825SOL    HW119937   1.359   2.421   3.922  1.4745 -1.2184 -2.3343
 2825SOL    HW219938   1.245   2.390   3.838 -0.8838  0.6656 -1.1432
 2826SOL     OW19939   2.587   0.911   4.932 -0.3034  0.2129  0.2619
 2826SOL    HW119940   2.635   0.885   4.853  1.2214  0.1016  1.2365
 2826SOL    HW219941   2.625   0.862   5.005  1.0301  0.5442 -0.2046
 2827SOL     OW19942   4.346   3.609   8.656  0.2038  0.4609 -0.2911
 2827SOL    HW119943   4.417   3.671   8.673  2.0016 -2.0750  1.4899
 2827SOL    HW219944   4.345   3.566   8.742 -2.0240  0.1903 -0.4377
 2828SOL     OW19945   4.651   3.073   4.570  0.1136 -0.1146 -0.7996
 2828SOL    HW119946   4.660   3.052   4.662  1.7409 -1.4761 -1.2800
 2828SOL    HW219947   4.651   3.169   4.571  0.5208 -0.0869 -2.9827
 2829SOL     OW19948   2.332   1.508   5.896 -0.1987  0.1215  0.0726
 2829SOL    HW119949   2.325   1.593   5.853 -0.9737  0.9685  1.8983
 2829SOL    HW219950   2.424   1.501   5.923 -0.0993  1.7292  0.1266
 2830SOL     OW19951   2.107   0.460   4.886  0.0819  0.5955 -0.6206
 2830SOL    HW119952   2.059   0.438   4.966  2.2377  0.4816  0.6555
 2830SOL    HW219953   2.149   0.377   4.863  0.2039  0.7387 -0.9126
 2831SOL     OW19954   1.129   3.202   7.934 -0.4765  0.2055  0.4707
 2831SOL    HW119955   1.155   3.151   7.858  1.9205 -1.4693  2.4079
 2831SOL    HW219956   1.034   3.206   7.921 -0.6866 -1.5586  1.3698
 2832SOL     OW19957   1.704   1.442  12.555  0.5529  0.6944  0.1766
 2832SOL    HW119958   1.631   1.452  12.493 -1.6215 -0.8945  2.4941
 2832SOL    HW219959   1.762   1.389  12.500  1.0746 -0.9970  2.3671
 2833SOL     OW19960   1.474   2.122   8.228  0.1312 -0.0014 -0.2673
 2833SOL    HW119961   1.412   2.099   8.297  0.2961  1.3019  0.3232
 2833SOL    HW219962   1.423   2.188   8.181  2.1495  0.8588 -1.2800
 2834SOL     OW19963   3.082   3.716  16.639 -0.4980  0.0960  0.0921
 2834SOL    HW119964   3.100   3.666  16.559  0.1842 -1.0116  0.9434
 2834SOL    HW219965   3.132   3.665  16.702  0.3219  1.7914  0.7955
 2835SOL     OW19966   1.135   4.624   0.009  0.4999 -0.4263  0.7400
 2835SOL    HW119967   1.193   4.644   0.083 -0.9084 -0.9971  1.9890
 2835SOL    HW219968   1.129   4.529   0.018 -1.4198 -0.6142 -2.4305
 2836SOL     OW19969   2.395   4.209  17.476  0.2860 -0.2653  0.0579
 2836SOL    HW119970   2.406   4.282  17.537 -2.1881  0.8974 -0.8752
 2836SOL    HW219971   2.312   4.231  17.432  0.6146  2.0907  0.6114
 2837SOL     OW19972   3.730   4.308  16.598  0.5256 -0.5730 -0.1064
 2837SOL    HW119973   3.641   4.280  16.619  0.3430  1.5186  1.9391
 2837SOL    HW219974   3.732   4.402  16.615 -0.8764 -0.8236  1.3774
 2838SOL     OW19975   2.070   2.320   4.365  0.4252 -0.2803 -0.6573
 2838SOL    HW119976   2.084   2.232   4.402  1.7949 -0.6464 -2.0710
 2838SOL    HW219977   2.036   2.365   4.443  0.0583 -1.3339 -0.1926
 2839SOL     OW19978   2.027   3.275   2.231 -0.1105  0.8525 -0.3032
 2839SOL    HW119979   2.067   3.268   2.144  2.5794  1.0441  0.9094
 2839SOL    HW219980   2.092   3.221   2.276 -0.0644  0.0916 -1.2675
 2840SOL     OW19981   1.209   4.379   6.082 -0.5050 -0.2307 -0.0867
 2840SOL    HW119982   1.210   4.322   6.005 -0.1914 -2.7450  1.7639
 2840SOL    HW219983   1.265   4.323   6.136  0.5630 -0.7707 -1.7528
 2841SOL     OW19984   0.736   3.839   3.052  0.6467 -0.5260  0.1436
 2841SOL    HW119985   0.664   3.889   3.013  0.1013 -0.0918  1.6955
 2841SOL    HW219986   0.693   3.754   3.062  1.1010 -0.9295 -1.3645
 2842SOL     OW19987   4.439   3.507   5.662 -0.7490 -0.3158  0.2698
 2842SOL    HW119988   4.437   3.502   5.566  0.4746 -0.2535  0.2486
 2842SOL    HW219989   4.527   3.540   5.675 -0.3321 -1.6443  0.8638
 2843SOL     OW19990   3.316   2.875  15.186 -0.1708 -0.0187  0.3698
 2843SOL    HW119991   3.271   2.953  15.153 -1.7609 -0.3795  1.6522
 2843SOL    HW219992   3.385   2.914  15.238 -3.1278  2.1886  2.6622
 2844SOL     OW19993   2.138   2.374   0.624  0.1408 -0.0145 -0.0457
 2844SOL    HW119994   2.139   2.371   0.720  2.8206 -1.0567 -0.1047
 2844SOL    HW219995   2.045   2.394   0.617 -0.4465 -3.2076 -1.4102
 2845SOL     OW19996   3.570   0.240   4.025 -0.7373 -0.2915 -0.2814
 2845SOL    HW119997   3.657   0.268   4.052 -1.5541 -0.3863  2.4363
 2845SOL    HW219998   3.596   0.162   3.976  1.1421  0.4938 -0.5414
 2846SOL     OW19999   3.235   1.619   6.220  0.3084  0.2706 -0.1943
 2846SOL    HW120000   3.216   1.688   6.156  0.9029 -1.4108 -2.1796
 2846SOL    HW220001   3.298   1.584   6.157 -0.6417  0.6247 -1.3594
 2847SOL     OW20002   0.406   2.879  15.645 -0.0251  0.3376  0.0540
 2847SOL    HW120003   0.372   2.964  15.673 -2.8878 -0.9541  0.5717
 2847SOL    HW220004   0.422   2.903  15.554  0.8156  0.7356  0.3087
 2848SOL     OW20005   4.381   1.910   7.202  0.8039  0.8873  0.5475
 2848SOL    HW120006   4.471   1.880   7.197  0.3255 -0.2725 -1.1233
 2848SOL    HW220007   4.400   1.996   7.166 -0.8757  0.6561 -0.9239
 2849SOL     OW20008   0.945   1.883  11.493 -0.5492  0.0326  0.1387
 2849SOL    HW120009   1.035   1.904  11.466 -1.2300  0.4150 -1.7950
 2849SOL    HW220010   0.940   1.790  11.476  2.0137  0.1172 -1.0408
 2850SOL     OW20011   4.562   2.786  14.103  0.0389  0.0050 -0.9624
 2850SOL    HW120012   4.652   2.817  14.093  0.3482 -0.4667  0.4280
 2850SOL    HW220013   4.535   2.838  14.179  1.6243 -0.5958 -0.0002
 2851SOL     OW20014   1.066   2.862  12.722 -0.6200  0.6985 -0.3054
 2851SOL    HW120015   1.130   2.899  12.661  0.0366  0.6320  0.3437
 2851SOL    HW220016   1.105   2.892  12.804 -2.5846 -0.4961  1.0561
 2852SOL     OW20017   2.574   0.921   7.622 -0.1149 -0.6779 -0.1914
 2852SOL    HW120018   2.559   0.990   7.686  0.5051  0.5635 -1.3991
 2852SOL    HW220019   2.660   0.945   7.589 -0.4501  1.6247  0.6314
 2853SOL     OW20020   3.987   0.184   8.848  0.0652  0.7724 -0.0431
 2853SOL    HW120021   3.970   0.185   8.943 -0.3861 -0.0757 -0.1204
 2853SOL    HW220022   4.067   0.132   8.842 -0.4984 -0.1451  0.3264
 2854SOL     OW20023   0.289   1.864   8.535 -0.4427 -0.3662  0.0031
 2854SOL    HW120024   0.331   1.926   8.595 -1.1552  1.2809 -1.2035
 2854SOL    HW220025   0.223   1.827   8.595 -1.0012  1.2096  0.3520
 2855SOL     OW20026   0.732   2.663  11.192 -0.2243 -0.3916  0.1866
 2855SOL    HW120027   0.825   2.679  11.176 -0.0327 -3.5470 -1.6262
 2855SOL    HW220028   0.734   2.583  11.244 -1.1567 -0.2553  0.4391
 2856SOL     OW20029   2.109   1.775   3.000  0.0841 -0.1376  0.7544
 2856SOL    HW120030   2.190   1.783   2.950 -0.7527  1.9421 -0.2525
 2856SOL    HW220031   2.058   1.837   2.948  3.1283  0.9814 -0.8641
 2857SOL     OW20032   4.713   0.258   4.806 -0.1629 -0.3114  0.4688
 2857SOL    HW120033   0.076   0.295   4.825  1.5814 -2.9127 -2.2589
 2857SOL    HW220034   4.693   0.294   4.719  2.3501 -0.1525 -0.0284
 2858SOL     OW20035   2.492   4.400   5.031 -0.2317  0.4540  0.0308
 2858SOL    HW120036   2.577   4.402   4.987  0.3691  0.3238  1.1806
 2858SOL    HW220037   2.519   4.431   5.117  4.2029 -2.3370 -0.3484
 2859SOL     OW20038   4.721   0.986   9.095  0.2847 -0.1432 -0.1684
 2859SOL    HW120039   4.657   0.922   9.064  0.3641 -0.2191 -0.1757
 2859SOL    HW220040   4.685   1.066   9.056  0.2916  0.0824  0.2880
 2860SOL     OW20041   1.463   0.589   7.064  0.0912  0.3466  0.2192
 2860SOL    HW120042   1.485   0.527   7.134 -1.3248 -0.6820 -0.2623
 2860SOL    HW220043   1.447   0.524   6.996 -0.3943  0.2973  0.3789
 2861SOL     OW20044   4.394   2.900   3.110  0.4151 -0.0917  0.2850
 2861SOL    HW120045   4.315   2.909   3.058  0.8940  0.0298 -0.4156
 2861SOL    HW220046   4.356   2.873   3.194 -0.9079  1.5361  0.2083
 2862SOL     OW20047   3.837   2.131   4.759  0.2370  0.9445 -0.9189
 2862SOL    HW120048   3.858   2.066   4.826 -2.2902  0.5269 -0.5060
 2862SOL    HW220049   3.895   2.201   4.787 -0.1453  1.1575 -0.6595
 2863SOL     OW20050   0.605   0.056   2.000  0.4672  0.3175  0.5581
 2863SOL    HW120051   0.547   0.019   1.933  0.8756  1.5045 -0.4470
 2863SOL    HW220052   0.539   0.110   2.044  0.6567  1.9419 -1.1211
 2864SOL     OW20053   4.367   4.387   5.885 -0.4246 -0.1345  0.1614
 2864SOL    HW120054   4.420   4.350   5.956  0.1699 -1.4213 -0.9453
 2864SOL    HW220055   4.284   4.346   5.911 -1.7931  2.3307 -0.3886
 2865SOL     OW20056   4.442   1.033  10.921  0.3097 -0.3015 -0.2055
 2865SOL    HW120057   4.493   1.071  10.993  1.2955 -0.4408 -0.8258
 2865SOL    HW220058   4.476   1.080  10.845 -0.3874 -1.1601 -1.0493
 2866SOL     OW20059   0.690   2.416   7.030 -0.6771 -0.4113  0.1069
 2866SOL    HW120060   0.746   2.460   7.095  1.7905 -0.2336 -2.1380
 2866SOL    HW220061   0.745   2.354   6.983 -0.9345  0.2149 -1.0096
 2867SOL     OW20062   4.436   4.695   5.355 -0.4393  0.2514  0.5295
 2867SOL    HW120063   4.344   4.693   5.328 -0.3707  0.3706  0.2885
 2867SOL    HW220064   4.455   0.066   5.350 -0.5968  0.1813 -1.2797
 2868SOL     OW20065   4.073   4.314   5.436  0.1586 -0.1803 -0.0892
 2868SOL    HW120066   4.038   4.387   5.487  1.3910  1.5229 -1.6576
 2868SOL    HW220067   4.144   4.360   5.390 -1.1478  3.1867  1.2538
 2869SOL     OW20068   0.899   0.833   8.299 -0.2201 -0.2016  0.1302
 2869SOL    HW120069   0.934   0.851   8.212 -0.9439 -1.6633 -0.4682
 2869SOL    HW220070   0.811   0.795   8.292  0.2083 -1.3610  0.9291
 2870SOL     OW20071   0.477   1.224   8.669 -0.0424  0.9378  0.1164
 2870SOL    HW120072   0.400   1.278   8.686  0.3862  1.3364  0.8180
 2870SOL    HW220073   0.480   1.210   8.575 -1.6108  1.6303 -0.0376
 2871SOL     OW20074   3.088   4.577   7.497 -0.3954 -0.2278  0.2841
 2871SOL    HW120075   3.052   4.503   7.449  0.3898 -0.4729  0.0768
 2871SOL    HW220076   3.180   4.559   7.511 -1.0936 -1.7826  2.8308
 2872SOL     OW20077   3.468   3.013   2.507  0.4210 -0.2960 -0.1011
 2872SOL    HW120078   3.519   3.082   2.466 -0.0991 -0.3349 -0.8070
 2872SOL    HW220079   3.518   2.938   2.475  1.3551  0.3929 -0.2565
 2873SOL     OW20080   2.395   0.303   2.756 -0.9292  0.7182  0.2672
 2873SOL    HW120081   2.394   0.379   2.815 -2.5003  0.0880  1.0280
 2873SOL    HW220082   2.312   0.309   2.708 -0.5844 -0.9480 -0.5235
 2874SOL     OW20083   1.911   0.901   4.728 -0.3378  0.1814 -0.0208
 2874SOL    HW120084   1.983   0.839   4.734  0.8799  1.6568  0.4603
 2874SOL    HW220085   1.923   0.952   4.648  0.1701  0.0110 -0.0539
 2875SOL     OW20086   2.559   3.012   9.470  0.2739 -0.3457  0.2884
 2875SOL    HW120087   2.553   3.018   9.375 -0.4593  0.9108  0.4012
 2875SOL    HW220088   2.468   3.000   9.498  0.3334  0.9899  1.0999
 2876SOL     OW20089   2.398   2.775   8.282 -0.3853 -0.1425  0.1576
 2876SOL    HW120090   2.441   2.725   8.351 -0.7047 -3.1748 -1.8298
 2876SOL    HW220091   2.314   2.728   8.284  0.0510 -1.0147 -1.6415
 2877SOL     OW20092   0.659   3.285  14.337 -0.3745 -0.9631  0.4912
 2877SOL    HW120093   0.645   3.211  14.278  0.4581  1.4769 -2.7833
 2877SOL    HW220094   0.731   3.330  14.291 -0.5173 -1.5671 -0.3209
 2878SOL     OW20095   2.288   1.215  17.678  0.2477  0.2455  0.4102
 2878SOL    HW120096   2.278   1.146   0.051 -1.8169  0.0938 -0.0707
 2878SOL    HW220097   2.311   1.167  17.598  1.2535  0.5948  0.4960
 2879SOL     OW20098   1.513   1.320   5.391 -0.2052 -0.8379 -0.3080
 2879SOL    HW120099   1.492   1.292   5.302 -2.0934  0.2848 -0.2012
 2879SOL    HW220100   1.522   1.234   5.432  1.4541 -1.2306 -1.5368
 2880SOL     OW20101   2.638   3.509   0.667 -0.0698  0.4747 -0.5382
 2880SOL    HW120102   2.582   3.508   0.745  0.3620  0.2284 -0.2287
 2880SOL    HW220103   2.644   3.415   0.653 -0.1492  0.3741  0.1154
 2881SOL     OW20104   0.360   0.347   4.534  0.5156  0.3350 -0.0684
 2881SOL    HW120105   0.381   0.420   4.476  1.1866 -0.1411 -0.4243
 2881SOL    HW220106   0.411   0.279   4.489 -0.5880 -0.1308 -0.6252
 2882SOL     OW20107   2.381   2.013  13.253  0.5729 -0.3123  0.4850
 2882SOL    HW120108   2.386   1.918  13.244  3.4067 -0.2289  1.2306
 2882SOL    HW220109   2.314   2.027  13.186  0.4050 -0.7314  0.5635
 2883SOL     OW20110   1.444   3.191   6.573 -0.9104 -0.1491 -0.2435
 2883SOL    HW120111   1.419   3.273   6.615 -0.3069 -0.0556 -0.0753
 2883SOL    HW220112   1.405   3.192   6.485 -1.6127 -1.1132  0.0532
 2884SOL     OW20113   2.088   0.140   3.464  0.4340  0.1995  0.3696
 2884SOL    HW120114   2.115   0.182   3.545  1.7134 -1.1296  0.6350
 2884SOL    HW220115   2.161   0.155   3.404  0.2973 -1.1805 -0.1504
 2885SOL     OW20116   0.804   2.454   1.741 -0.7597  0.2687  0.1556
 2885SOL    HW120117   0.764   2.530   1.699 -0.8654 -0.7273 -1.5588
 2885SOL    HW220118   0.730   2.414   1.786 -0.2617  0.9609  1.5746
 2886SOL     OW20119   1.255   3.488   4.101  0.6864 -0.2876  0.3928
 2886SOL    HW120120   1.269   3.502   4.194  2.3040 -1.5762  0.3424
 2886SOL    HW220121   1.181   3.427   4.095 -1.2907  1.9927  1.6649
 2887SOL     OW20122   0.281   0.642   4.912 -0.2767  0.8238 -0.1683
 2887SOL    HW120123   0.354   0.611   4.965 -1.8106 -0.6125  1.1076
 2887SOL    HW220124   0.322   0.657   4.828  0.1903 -1.1066 -0.2737
 2888SOL     OW20125   4.716   1.182   4.522 -0.2677 -0.1007  0.6194
 2888SOL    HW120126   4.650   1.158   4.587 -0.1383  1.8065  1.4533
 2888SOL    HW220127   0.053   1.107   4.526 -1.2123 -0.8833  0.0874
 2889SOL     OW20128   2.516   3.440   3.030 -0.1677  0.4799 -0.1162
 2889SOL    HW120129   2.427   3.431   3.062  0.6490  0.7654  2.2407
 2889SOL    HW220130   2.539   3.347   3.034 -2.1927 -0.0463 -1.2241
 2890SOL     OW20131   2.466   3.504   3.380  0.2628  0.7144 -0.6220
 2890SOL    HW120132   2.415   3.509   3.299  0.1773  1.5135 -0.5152
 2890SOL    HW220133   2.415   3.460   3.448  0.8297 -0.5379 -0.9925
 2891SOL     OW20134   2.185   1.692   8.100 -0.6244  0.1825 -0.4306
 2891SOL    HW120135   2.263   1.707   8.047  0.4977 -0.5808  1.0114
 2891SOL    HW220136   2.217   1.667   8.187 -0.2021 -2.8141 -1.4526
 2892SOL     OW20137   3.734   1.066   9.899  0.2143 -0.2387  0.1748
 2892SOL    HW120138   3.697   1.148   9.930  2.8052  1.2343 -0.6741
 2892SOL    HW220139   3.654   1.018   9.879 -0.4184  1.6846 -1.8682
 2893SOL     OW20140   2.776   1.832  10.818 -0.3143  0.1904  0.6058
 2893SOL    HW120141   2.746   1.854  10.906 -0.7575  1.5959  0.1026
 2893SOL    HW220142   2.695   1.855  10.772  0.9307 -1.5856 -2.4721
 2894SOL     OW20143   4.637   1.114   7.104  0.1726  0.2354 -0.1549
 2894SOL    HW120144   4.716   1.125   7.051  0.2622 -2.9273 -0.6732
 2894SOL    HW220145   4.573   1.177   7.071 -1.6032 -1.5266 -0.0751
 2895SOL     OW20146   4.496   3.350  11.311  0.4946  0.0350  0.3744
 2895SOL    HW120147   4.503   3.430  11.362  1.5552  0.7077 -0.8399
 2895SOL    HW220148   4.589   3.346  11.286  0.2108 -0.0453 -0.6604
 2896SOL     OW20149   2.894   2.743   5.173 -0.1260 -0.1678 -0.0115
 2896SOL    HW120150   2.859   2.656   5.192 -0.7268 -0.0906 -0.8019
 2896SOL    HW220151   2.822   2.786   5.127  0.1637  0.8098  0.4422
 2897SOL     OW20152   4.579   2.550  15.647 -0.3121  0.3144  0.4706
 2897SOL    HW120153   4.614   2.601  15.721 -1.1838  0.3082  0.8863
 2897SOL    HW220154   4.563   2.627  15.592  0.9238 -0.5151 -1.0303
 2898SOL     OW20155   4.441   3.325   0.698  0.3416 -0.1856 -0.4404
 2898SOL    HW120156   4.529   3.356   0.718  0.9118 -0.8551 -1.9152
 2898SOL    HW220157   4.442   3.361   0.609 -3.9888  1.2412  0.0733
 2899SOL     OW20158   0.579   2.861   8.353 -0.1458  0.3964  0.1374
 2899SOL    HW120159   0.666   2.844   8.317 -0.0927 -0.2140  0.5486
 2899SOL    HW220160   0.603   2.912   8.430 -0.6132  0.7029  0.0831
 2900SOL     OW20161   0.983   3.149   5.757  0.0302 -0.6075  0.0088
 2900SOL    HW120162   0.925   3.154   5.834  2.5052  3.7237  1.5873
 2900SOL    HW220163   0.918   3.110   5.698 -0.8169  2.9620 -1.4465
 2901SOL     OW20164   4.129   3.498   4.787  0.2020  0.1843 -0.3260
 2901SOL    HW120165   4.056   3.549   4.822  0.5633 -1.1657  2.3614
 2901SOL    HW220166   4.171   3.568   4.737 -0.6214  0.5289 -0.5423
 2902SOL     OW20167   3.264   2.999   4.021  0.2786  0.2729  0.0049
 2902SOL    HW120168   3.178   2.987   4.061  0.5219 -0.7495  0.2311
 2902SOL    HW220169   3.307   2.934   4.077 -0.4783 -3.1419 -3.3704
 2903SOL     OW20170   2.726   2.416   6.560  0.3067 -0.0643 -0.0924
 2903SOL    HW120171   2.630   2.418   6.551  0.3198  0.5788 -0.0484
 2903SOL    HW220172   2.732   2.389   6.651  1.0322 -1.5790 -0.5903
 2904SOL     OW20173   1.698   1.497   5.311 -0.3570 -0.1165  0.6059
 2904SOL    HW120174   1.675   1.558   5.382  0.2688  1.4826 -0.5531
 2904SOL    HW220175   1.621   1.443   5.327 -0.5037 -0.4685 -1.3704
 2905SOL     OW20176   3.160   0.580  13.673 -0.0952  0.0296 -0.1782
 2905SOL    HW120177   3.247   0.588  13.712 -1.4423 -1.8268  3.2915
 2905SOL    HW220178   3.175   0.500  13.622  0.0688  0.3018 -0.5526
 2906SOL     OW20179   2.211   1.985   7.240 -0.0335  0.0547  0.3309
 2906SOL    HW120180   2.140   2.028   7.192  0.0805  0.4346  0.5028
 2906SOL    HW220181   2.180   2.013   7.327  0.0795  2.2935 -0.3620
 2907SOL     OW20182   4.008   3.812   7.712 -0.2536  0.2187 -0.2511
 2907SOL    HW120183   4.068   3.884   7.733  1.9082 -1.6274 -0.1197
 2907SOL    HW220184   4.027   3.804   7.618  1.0442 -0.4591  0.0709
 2908SOL     OW20185   3.294   2.328   0.283 -0.1727  0.5386  0.0703
 2908SOL    HW120186   3.287   2.379   0.364 -3.5710 -0.8658  0.6554
 2908SOL    HW220187   3.206   2.313   0.250 -0.3388  2.3192 -0.2794
 2909SOL     OW20188   4.362   1.982  15.188 -0.2824  0.0096 -0.2427
 2909SOL    HW120189   4.331   1.960  15.276  0.9011 -3.3842 -0.6512
 2909SOL    HW220190   4.310   2.055  15.155 -1.0940 -0.2483  0.4886
 2910SOL     OW20191   3.678   1.097   0.563  0.1944 -0.4543  0.5822
 2910SOL    HW120192   3.635   1.041   0.627 -2.8508  0.5644 -0.5964
 2910SOL    HW220193   3.652   1.052   0.482 -0.2327  3.7060 -1.5589
 2911SOL     OW20194   2.733   2.713   4.374  0.1448  0.1702  0.0037
 2911SOL    HW120195   2.740   2.804   4.400 -0.7426  0.3111 -0.2470
 2911SOL    HW220196   2.642   2.707   4.400  0.2363 -2.5636 -0.2717
 2912SOL     OW20197   1.831   2.379   2.137 -0.0549 -0.4040 -0.3445
 2912SOL    HW120198   1.909   2.420   2.174  0.0396 -1.3449  0.5090
 2912SOL    HW220199   1.795   2.347   2.220  1.0679 -0.4750  0.1211
 2913SOL     OW20200   3.870   3.425   2.489 -0.1417 -0.0135 -0.1891
 2913SOL    HW120201   3.861   3.369   2.412  0.0301  0.5540 -0.6259
 2913SOL    HW220202   3.822   3.504   2.462  1.5480  1.5170  1.2732
 2914SOL     OW20203   0.013   4.385  16.346 -0.1881  0.3096 -0.0435
 2914SOL    HW120204   0.000   4.457  16.408  0.4350  0.6019 -0.2515
 2914SOL    HW220205   4.682   4.407  16.270  0.3524  0.0031 -0.5143
 2915SOL     OW20206   4.455   0.516   3.042  0.1317  0.0333 -0.1563
 2915SOL    HW120207   4.546   0.495   3.066 -0.2539  0.0007  1.2679
 2915SOL    HW220208   4.452   0.458   2.966 -1.9751  1.8251 -1.4088
 2916SOL     OW20209   1.303   3.917   6.739  0.0771  0.2220  0.4366
 2916SOL    HW120210   1.299   3.831   6.696 -0.3514  0.6199 -0.3105
 2916SOL    HW220211   1.217   3.953   6.716 -0.4605  0.0335  2.1487
 2917SOL     OW20212   1.329   3.927   2.420  0.5067 -0.7032 -0.1192
 2917SOL    HW120213   1.372   3.992   2.365  1.2634 -1.6984 -0.7016
 2917SOL    HW220214   1.304   3.863   2.354 -0.3812 -1.9941  1.4665
 2918SOL     OW20215   2.695   3.275  17.331  0.1591  0.2958  0.1856
 2918SOL    HW120216   2.739   3.195  17.360 -1.0993 -0.8445 -1.0130
 2918SOL    HW220217   2.613   3.275  17.379  0.1133  0.1869  0.1090
 2919SOL     OW20218   2.303   1.186   8.461  0.1129  0.8246 -0.5566
 2919SOL    HW120219   2.317   1.184   8.556 -0.4415  2.6382 -0.4477
 2919SOL    HW220220   2.303   1.281   8.452 -0.6184  0.7071 -1.8134
 2920SOL     OW20221   1.023   0.636   4.766 -0.2625 -0.0699 -0.2487
 2920SOL    HW120222   1.116   0.642   4.745  0.0355 -0.3287  0.9954
 2920SOL    HW220223   1.009   0.723   4.802  1.0956  0.6456 -1.4831
 2921SOL     OW20224   1.341   4.012  16.598  0.2404  0.0329 -0.0206
 2921SOL    HW120225   1.337   4.091  16.544  2.2105 -0.1866 -0.5059
 2921SOL    HW220226   1.270   4.026  16.660  0.6664 -0.6664  0.6235
 2922SOL     OW20227   0.208   2.399   8.656  0.1720  0.5740  0.1905
 2922SOL    HW120228   0.162   2.331   8.606  0.5352  0.4296  0.0476
 2922SOL    HW220229   0.207   2.377   8.749  1.7154 -0.2693  0.0103
 2923SOL     OW20230   0.374   0.591   9.292 -0.3657 -0.7177 -0.5751
 2923SOL    HW120231   0.304   0.647   9.327  1.7147  1.6804 -0.2437
 2923SOL    HW220232   0.383   0.531   9.365  2.8407 -0.6516 -0.9239
 2924SOL     OW20233   0.222   0.250   5.351  0.4732 -0.0807  0.1775
 2924SOL    HW120234   0.258   0.175   5.303 -0.9846  0.1184 -1.1973
 2924SOL    HW220235   0.282   0.260   5.425 -0.2909 -0.4811  0.8467
 2925SOL     OW20236   0.692   0.343   6.545 -0.1892  0.5309 -0.4752
 2925SOL    HW120237   0.637   0.406   6.500  0.7929  1.2621 -0.6615
 2925SOL    HW220238   0.681   0.268   6.486 -0.8065 -0.3418  0.7575
 2926SOL     OW20239   1.914   4.030   1.300 -0.0387  0.0628  0.3543
 2926SOL    HW120240   1.990   4.011   1.245  0.7228 -0.7680  1.6874
 2926SOL    HW220241   1.897   4.124   1.291 -1.4562 -0.3571 -1.0875
 2927SOL     OW20242   1.667   4.521   3.986 -0.0585 -0.0747 -0.0049
 2927SOL    HW120243   1.746   4.574   4.000 -0.4516  0.2080  1.1746
 2927SOL    HW220244   1.705   4.450   3.934 -3.2271  0.2037 -2.7272
 2928SOL     OW20245   0.352   1.435  15.492  0.1393 -0.3820 -0.5945
 2928SOL    HW120246   0.351   1.449  15.587 -0.5436 -0.6277 -0.5708
 2928SOL    HW220247   0.424   1.493  15.468  0.6157 -0.7692 -0.1112
 2929SOL     OW20248   1.595   4.192   4.287 -0.5120 -0.9643  0.2089
 2929SOL    HW120249   1.556   4.169   4.372  2.0873  1.4344  2.0546
 2929SOL    HW220250   1.666   4.129   4.290  0.1982 -0.1353  0.9667
 2930SOL     OW20251   1.283   0.856  13.494 -0.1114  0.4777 -0.5237
 2930SOL    HW120252   1.262   0.880  13.403  0.7852 -1.7120 -1.3138
 2930SOL    HW220253   1.365   0.899  13.518  0.1596 -0.0253 -0.5560
 2931SOL     OW20254   1.140   4.135   7.747 -0.5696  0.0854 -0.2251
 2931SOL    HW120255   1.207   4.189   7.704  1.3715 -2.8585 -0.9363
 2931SOL    HW220256   1.108   4.078   7.677 -1.6324  1.3515 -0.7731
 2932SOL     OW20257   3.450   0.888   2.008  0.2828  0.1349 -0.5051
 2932SOL    HW120258   3.378   0.909   1.948 -1.2164  0.7742  1.5198
 2932SOL    HW220259   3.513   0.841   1.954 -1.9251  0.6464 -3.5542
 2933SOL     OW20260   1.496   2.109  16.623  0.4964 -0.1643  0.6299
 2933SOL    HW120261   1.501   2.021  16.660 -0.3226 -0.1201  0.8472
 2933SOL    HW220262   1.550   2.165  16.679  0.5406  0.9759 -0.5564
 2934SOL     OW20263   1.829   0.203   1.905 -0.0115  0.2052  0.1482
 2934SOL    HW120264   1.919   0.205   1.873  0.6404  0.9079  2.0553
 2934SOL    HW220265   1.828   0.297   1.924  0.2376 -0.5762  4.0652
 2935SOL     OW20266   4.245   3.426   0.237  0.8961  0.4493  0.1284
 2935SOL    HW120267   4.250   3.413   0.142  1.3741 -0.6203  0.2975
 2935SOL    HW220268   4.172   3.487   0.245 -0.1282 -0.6931 -0.4905
 2936SOL     OW20269   3.147   0.747  10.005 -0.0143  0.3473  0.2883
 2936SOL    HW120270   3.195   0.739   9.922 -2.1519 -1.0060 -0.8117
 2936SOL    HW220271   3.097   0.666  10.006  3.0351 -1.5525  0.1954
 2937SOL     OW20272   2.474   1.716   5.317 -0.0617  0.0238 -0.5240
 2937SOL    HW120273   2.511   1.738   5.232 -0.7247  2.1813 -0.2561
 2937SOL    HW220274   2.388   1.688   5.285  0.9418 -0.7724 -2.5141
 2938SOL     OW20275   2.877   1.678   8.008 -0.1650 -0.3332 -0.1063
 2938SOL    HW120276   2.890   1.621   8.084 -3.3182  0.9077  1.3404
 2938SOL    HW220277   2.910   1.751   8.060 -0.6424 -0.9807  1.1151
 2939SOL     OW20278   3.755   1.851   6.785 -0.0914  0.2441 -0.3726
 2939SOL    HW120279   3.663   1.844   6.760 -0.4889  0.7790  0.9895
 2939SOL    HW220280   3.746   1.822   6.875  1.1243 -0.3703 -0.4472
 2940SOL     OW20281   4.498   0.643   2.378 -0.7053  0.0479 -0.2807
 2940SOL    HW120282   4.550   0.579   2.426  1.7903 -0.8291 -4.0920
 2940SOL    HW220283   4.490   0.582   2.305 -3.0881 -0.1358  0.1622
 2941SOL     OW20284   0.965   3.788   3.197  0.1549 -0.1099  0.3300
 2941SOL    HW120285   0.909   3.801   3.121  0.4895  1.7011  0.4003
 2941SOL    HW220286   1.048   3.781   3.149  1.0043 -1.6599  2.0442
 2942SOL     OW20287   3.955   3.355   8.220 -0.0208 -0.3278  0.5633
 2942SOL    HW120288   3.864   3.369   8.192  0.7334  0.0522 -1.7019
 2942SOL    HW220289   3.956   3.262   8.241 -1.8095 -0.7560 -1.2431
 2943SOL     OW20290   4.166   3.990   2.792 -0.3030 -0.3856  0.7254
 2943SOL    HW120291   4.241   4.046   2.771 -1.8379  0.5721 -2.2424
 2943SOL    HW220292   4.093   4.052   2.782 -0.2744 -0.3381  0.8173
 2944SOL     OW20293   4.339   1.082   8.290 -0.1180 -0.1069 -0.5308
 2944SOL    HW120294   4.259   1.135   8.282 -1.2276 -1.7515 -0.3590
 2944SOL    HW220295   4.394   1.137   8.345  0.5174 -0.1993 -1.0785
 2945SOL     OW20296   3.462   4.333   7.394 -0.1630 -0.0988  0.0951
 2945SOL    HW120297   3.550   4.352   7.363 -0.3276  0.0151 -0.3080
 2945SOL    HW220298   3.478   4.250   7.440 -1.6259 -0.3947  0.0675
 2946SOL     OW20299   2.408   3.149   9.814 -0.9000 -0.0299  0.3617
 2946SOL    HW120300   2.446   3.073   9.858 -0.9036  0.0798  0.5576
 2946SOL    HW220301   2.330   3.171   9.865 -0.7257 -1.2056  1.1217
 2947SOL     OW20302   3.154   4.118   3.966  0.0693  0.0426 -0.2243
 2947SOL    HW120303   3.239   4.129   3.924  1.2177 -3.0953  1.3252
 2947SOL    HW220304   3.106   4.081   3.891 -0.0703  1.0750 -0.6464
 2948SOL     OW20305   4.490   1.573   9.813 -0.3958  0.5077  0.1803
 2948SOL    HW120306   4.483   1.514   9.739 -0.0963 -0.5386  0.9962
 2948SOL    HW220307   4.399   1.586   9.838 -0.5394 -1.1886  0.5397
 2949SOL     OW20308   3.741   0.497   1.011 -0.2688 -0.4544 -0.4644
 2949SOL    HW120309   3.721   0.410   0.976  1.8915  0.0422 -2.9981
 2949SOL    HW220310   3.781   0.474   1.094 -0.5015 -1.5753 -0.6671
 2950SOL     OW20311   3.230   4.309   7.233 -0.4493 -0.0363 -0.1720
 2950SOL    HW120312   3.224   4.404   7.221 -1.9585  0.0842  1.4874
 2950SOL    HW220313   3.308   4.300   7.289  0.0540  0.5539 -0.7726
 2951SOL     OW20314   2.336   2.042  15.506  0.1574  0.1249 -0.5958
 2951SOL    HW120315   2.310   2.088  15.586  0.1660 -0.4760 -0.2475
 2951SOL    HW220316   2.343   1.948  15.526  0.4049 -0.6262 -4.1325
 2952SOL     OW20317   2.359   4.300   6.012  0.3535  0.0456  0.4222
 2952SOL    HW120318   2.432   4.240   6.005  0.9189  1.1301 -2.8073
 2952SOL    HW220319   2.367   4.359   5.937  0.7565  1.9631  1.9736
 2953SOL     OW20320   0.665   4.316  17.443  0.4561 -0.7494  0.2245
 2953SOL    HW120321   0.734   4.333  17.378 -2.0747  0.1500 -2.2067
 2953SOL    HW220322   0.645   4.404  17.474  0.0335 -1.2593  1.4089
 2954SOL     OW20323   4.651   3.581   0.296  0.2211 -0.0985  0.2816
 2954SOL    HW120324   4.717   3.536   0.348  0.7980 -2.3236 -2.3629
 2954SOL    HW220325   4.684   3.670   0.300  0.2220  0.0047 -1.9641
 2955SOL     OW20326   3.374   3.289  14.041 -0.9004  0.0592 -0.1397
 2955SOL    HW120327   3.344   3.236  14.115  0.3263  0.8040  0.8891
 2955SOL    HW220328   3.457   3.252  14.010  0.5482  1.0952  2.4439
 2956SOL     OW20329   0.073   0.045   2.545 -0.0559  0.4047  0.2766
 2956SOL    HW120330   4.714   0.034   2.593  0.9891 -1.9458  1.4868
 2956SOL    HW220331   0.105   4.678   2.546 -1.7797 -0.1845  1.5644
 2957SOL     OW20332   0.849   2.592  10.254 -0.2182 -0.1949  0.3641
 2957SOL    HW120333   0.836   2.638  10.171  0.4254  1.5190  1.2104
 2957SOL    HW220334   0.911   2.523  10.229  0.3041  0.0756  0.9003
 2958SOL     OW20335   4.073   0.654   5.424 -0.0826  0.0525 -0.2144
 2958SOL    HW120336   4.070   0.736   5.474  1.2415 -0.2030  0.2798
 2958SOL    HW220337   4.000   0.659   5.362 -0.5422  1.0600  0.4087
 2959SOL     OW20338   0.484   4.483   5.048 -0.7327 -0.0354 -0.1946
 2959SOL    HW120339   0.459   4.420   4.980 -1.0091  0.5574 -0.6480
 2959SOL    HW220340   0.483   4.435   5.130 -1.8765  0.6756  0.2144
 2960SOL     OW20341   3.274   1.744   8.731 -0.2869  0.3388  0.3544
 2960SOL    HW120342   3.298   1.658   8.696 -0.4598  0.0837  0.8593
 2960SOL    HW220343   3.187   1.729   8.769  0.0724 -0.1121  0.9921
 2961SOL     OW20344   2.669   3.585   3.567  0.1970  0.1605 -0.4068
 2961SOL    HW120345   2.611   3.606   3.640  0.6839  2.1796 -0.6047
 2961SOL    HW220346   2.613   3.552   3.497 -0.9083  1.1118  0.0313
 2962SOL     OW20347   0.431   0.566   1.819 -0.3359 -0.0218  0.1110
 2962SOL    HW120348   0.464   0.476   1.825  0.4884  0.3257  0.7444
 2962SOL    HW220349   0.358   0.551   1.758 -0.8262  1.0258  0.4432
 2963SOL     OW20350   3.742   1.813   7.924 -0.4564  0.1883  0.1125
 2963SOL    HW120351   3.705   1.737   7.880  2.8965  0.3284 -2.8959
 2963SOL    HW220352   3.696   1.887   7.884  0.9934 -0.3231 -2.4920
 2964SOL     OW20353   2.754   2.994   5.578  0.8505 -0.0892 -0.1456
 2964SOL    HW120354   2.736   3.067   5.519 -0.6529  1.1368  1.8164
 2964SOL    HW220355   2.791   3.044   5.651  0.4968  0.6601 -0.4728
 2965SOL     OW20356   2.821   4.322  17.232 -0.1974 -0.5989 -0.4012
 2965SOL    HW120357   2.815   4.392  17.296  1.4927 -1.0303  0.2130
 2965SOL    HW220358   2.752   4.259  17.253 -0.5296  0.5392  1.8461
 2966SOL     OW20359   2.904   3.208  11.363  0.5914  0.1483 -0.1672
 2966SOL    HW120360   2.813   3.203  11.331  0.5332  1.1107 -0.1415
 2966SOL    HW220361   2.957   3.145  11.313  1.1038  0.5039 -0.0665
 2967SOL     OW20362   4.561   1.966   1.316 -0.1190  0.5360 -0.2281
 2967SOL    HW120363   4.534   2.053   1.343 -2.6900 -0.5691  0.7406
 2967SOL    HW220364   4.595   1.930   1.399  0.1905 -0.0559 -0.6104
 2968SOL     OW20365   3.356   0.046  12.300  0.1045  0.3564 -0.0448
 2968SOL    HW120366   3.267   0.078  12.289  0.6192  2.1970  1.1698
 2968SOL    HW220367   3.347   4.705  12.371 -2.3756 -1.2371 -1.7735
 2969SOL     OW20368   2.477   2.937   9.970 -0.5007 -0.0595  0.2695
 2969SOL    HW120369   2.413   2.868   9.952 -0.9496  0.4796 -0.1927
 2969SOL    HW220370   2.457   2.978  10.054 -1.3481 -0.0680  0.0713
 2970SOL     OW20371   4.213   3.360  17.666  0.8395 -0.3828 -0.6761
 2970SOL    HW120372   4.183   3.270  17.680 -2.4542  0.5050 -2.1088
 2970SOL    HW220373   4.249   3.345  17.579  0.6732 -1.2452 -0.5938
 2971SOL     OW20374   0.032   1.366  12.363  0.4234 -0.2714 -0.6777
 2971SOL    HW120375   0.012   1.435  12.300  1.2903  1.4966  0.9902
 2971SOL    HW220376   0.113   1.339  12.320 -0.9549 -1.4151 -2.5531
 2972SOL     OW20377   1.266   2.777  13.672  0.1368  0.0135  0.0121
 2972SOL    HW120378   1.221   2.805  13.592  2.6789  0.7858 -1.1443
 2972SOL    HW220379   1.355   2.807  13.651  0.3819  0.0886  1.1872
 2973SOL     OW20380   1.820   3.398   2.784  0.7585 -0.5771 -0.2994
 2973SOL    HW120381   1.845   3.467   2.722 -0.2571  0.6062  0.6016
 2973SOL    HW220382   1.872   3.329   2.744 -0.1288 -0.1040 -2.2714
 2974SOL     OW20383   0.340   2.705   1.642  0.4343  0.0754  0.2436
 2974SOL    HW120384   0.289   2.642   1.590  0.5984 -1.3720  1.8214
 2974SOL    HW220385   0.352   2.780   1.585  0.9248  0.1920  0.5007
 2975SOL     OW20386   2.371   4.358  14.987  0.1334 -0.3278  0.2568
 2975SOL    HW120387   2.339   4.425  15.047  0.3132 -1.3504  1.5004
 2975SOL    HW220388   2.449   4.399  14.949 -0.3818 -0.2255 -0.6666
 2976SOL     OW20389   2.452   0.097  15.915  0.0234  0.0804 -0.4170
 2976SOL    HW120390   2.518   0.042  15.956  0.4659  0.7264 -0.2524
 2976SOL    HW220391   2.411   0.145  15.988  0.6630  1.1283 -0.7486
 2977SOL     OW20392   0.774   0.256   3.115  0.1522 -0.3457 -0.3509
 2977SOL    HW120393   0.700   0.309   3.086 -0.5018 -0.9566  0.2002
 2977SOL    HW220394   0.785   0.190   3.046  0.8793 -0.8657  0.2613
 2978SOL     OW20395   0.238   4.097   4.026 -0.3959  0.0251 -0.3159
 2978SOL    HW120396   0.314   4.058   3.982 -0.3536  0.7311 -0.8785
 2978SOL    HW220397   0.208   4.151   3.952 -0.7065 -1.2147 -1.1120
 2979SOL     OW20398   3.324   3.650   4.283 -0.1374 -0.5392 -0.4503
 2979SOL    HW120399   3.406   3.655   4.233  1.3634  0.3012  2.0672
 2979SOL    HW220400   3.268   3.587   4.239 -1.6731  1.2796 -1.1010
 2980SOL     OW20401   3.143   4.072  13.101 -0.1216  0.5070 -0.2749
 2980SOL    HW120402   3.049   4.079  13.087  0.0340  0.3447 -1.4246
 2980SOL    HW220403   3.168   4.161  13.128  0.6019  0.4715 -0.8342
 2981SOL     OW20404   2.764   0.729   3.512 -0.2005  0.3245  0.8095
 2981SOL    HW120405   2.679   0.688   3.532 -0.8257  0.7130 -1.0776
 2981SOL    HW220406   2.816   0.661   3.470  0.9671  1.5730  0.2664
 2982SOL     OW20407   1.964   3.848   5.854 -0.0496 -0.4768  0.2047
 2982SOL    HW120408   2.041   3.882   5.900 -0.7040  0.5662  0.5343
 2982SOL    HW220409   1.990   3.757   5.839  0.1066 -0.3282 -0.4567
 2983SOL     OW20410   1.726   3.674  17.620 -0.6317 -0.3653 -0.4024
 2983SOL    HW120411   1.637   3.679  17.654 -0.6967 -2.7185 -0.2126
 2983SOL    HW220412   1.752   3.588  17.655 -2.8480 -0.5407  0.7770
 2984SOL     OW20413   1.714   2.800   2.272 -0.2685  0.6375  0.9055
 2984SOL    HW120414   1.676   2.832   2.354  0.8696  2.0617  0.8843
 2984SOL    HW220415   1.786   2.863   2.269 -0.9168  1.4207  1.8351
 2985SOL     OW20416   4.012   1.197   2.962  0.2452  0.1090 -0.3557
 2985SOL    HW120417   4.087   1.176   2.906  0.0643 -0.1968 -0.4842
 2985SOL    HW220418   3.956   1.129   2.925 -0.5482  0.1594  0.7458
 2986SOL     OW20419   2.854   3.995   5.076  0.5040  0.0155 -1.0630
 2986SOL    HW120420   2.781   4.035   5.029  0.8252  1.2995 -0.4676
 2986SOL    HW220421   2.879   4.073   5.127  0.5514  0.1272 -1.2559
 2987SOL     OW20422   1.877   2.108   2.646 -0.2871 -0.0332  0.3800
 2987SOL    HW120423   1.784   2.128   2.660  0.2430  0.8965  2.4880
 2987SOL    HW220424   1.918   2.194   2.654  1.7812 -1.0208  0.3859
 2988SOL     OW20425   1.564   4.154  15.688 -0.1163  0.3225  0.8647
 2988SOL    HW120426   1.564   4.058  15.695  3.6509  0.3276  0.9214
 2988SOL    HW220427   1.471   4.180  15.687 -0.0865  0.3547 -0.6593
 2989SOL     OW20428   1.100   3.527  10.869  0.1665 -0.5089 -0.2848
 2989SOL    HW120429   1.102   3.468  10.794  0.5673 -0.7200 -0.1073
 2989SOL    HW220430   1.055   3.474  10.935 -1.1251 -0.0617 -0.8097
 2990SOL     OW20431   1.064   1.227  15.064 -0.0897  0.2075  0.2699
 2990SOL    HW120432   1.141   1.283  15.068  1.7776 -2.2793 -0.7712
 2990SOL    HW220433   1.099   1.139  15.048 -2.3448 -0.4501 -1.1355
 2991SOL     OW20434   2.089   1.515   4.595  0.5493  0.0923  0.4014
 2991SOL    HW120435   2.150   1.446   4.621 -0.4957 -0.6977  0.7401
 2991SOL    HW220436   2.043   1.466   4.527  2.1711 -2.3850  1.0766
 2992SOL     OW20437   1.751   0.816  11.990  0.2235  0.1038  0.3786
 2992SOL    HW120438   1.782   0.793  11.902 -0.7426 -0.6523  0.2361
 2992SOL    HW220439   1.713   0.732  12.017 -0.7737  0.5058  0.2130
 2993SOL     OW20440   4.134   2.789   6.568  0.2380  0.0106  0.4433
 2993SOL    HW120441   4.176   2.860   6.616 -0.1736  0.7066 -0.2252
 2993SOL    HW220442   4.141   2.837   6.485  0.5645  2.3632  1.8221
 2994SOL     OW20443   4.202   3.549   5.816 -0.3905 -0.2469 -0.2131
 2994SOL    HW120444   4.263   3.532   5.744 -0.3096  1.7339 -0.6171
 2994SOL    HW220445   4.258   3.549   5.893  2.0539 -0.2529 -1.9890
 2995SOL     OW20446   4.109   2.711   2.276  0.2560 -0.1376 -0.4263
 2995SOL    HW120447   4.179   2.651   2.251 -1.1545 -1.4006 -1.3470
 2995SOL    HW220448   4.121   2.772   2.204 -2.2726  0.4385 -0.3785
 2996SOL     OW20449   2.880   0.499  13.484  0.6245  0.2045  0.5450
 2996SOL    HW120450   2.849   0.575  13.533 -0.0998  0.1954  0.0873
 2996SOL    HW220451   2.899   0.442  13.559  2.3117  0.2729  0.1845
 2997SOL     OW20452   4.229   2.829   3.324  0.3567  0.1603  0.3380
 2997SOL    HW120453   4.193   2.816   3.412  0.2189 -0.3664  0.2040
 2997SOL    HW220454   4.208   2.742   3.288 -2.7164  1.0646 -0.0128
 2998SOL     OW20455   0.588   0.532   2.411  0.4487  0.4989 -0.4692
 2998SOL    HW120456   0.658   0.598   2.417  0.3763  0.5984 -0.7358
 2998SOL    HW220457   0.627   0.484   2.338 -0.8581 -0.5173 -0.4861
 2999SOL     OW20458   2.963   4.313   1.072 -0.5327  0.0834 -0.8901
 2999SOL    HW120459   2.899   4.246   1.094 -0.6727  0.6653  0.4600
 2999SOL    HW220460   2.917   4.392   1.100 -0.4565  0.0473 -0.6661
 3000SOL     OW20461   3.431   2.067  14.892 -0.3410 -0.1971  0.2323
 3000SOL    HW120462   3.489   2.091  14.964  0.2111 -0.4843 -0.1157
 3000SOL    HW220463   3.489   2.086  14.818 -1.9941  1.0028 -0.7829
 3001SOL     OW20464   0.122   2.083  11.901 -0.0418  0.9783  0.1604
 3001SOL    HW120465   0.028   2.065  11.907  0.0947 -0.7079 -2.7113
 3001SOL    HW220466   0.156   1.994  11.907 -0.6668  0.7192 -0.1968
 3002SOL     OW20467   3.722   4.108  11.918  0.1655 -0.0074 -0.6592
 3002SOL    HW120468   3.805   4.113  11.871  0.5765  0.3764  0.0955
 3002SOL    HW220469   3.696   4.200  11.921 -0.8626 -0.4048  2.9363
 3003SOL     OW20470   3.901   4.245   7.363  1.0463 -0.4855 -0.2358
 3003SOL    HW120471   3.833   4.310   7.373  0.1498 -1.9527  3.3020
 3003SOL    HW220472   3.964   4.280   7.426  0.1398 -1.2848  1.1288
 3004SOL     OW20473   2.300   3.786   7.517  0.0390 -0.1672 -0.2770
 3004SOL    HW120474   2.353   3.845   7.570  0.4460 -0.3351 -0.5003
 3004SOL    HW220475   2.355   3.708   7.518  0.4552  0.1074 -1.4833
 3005SOL     OW20476   0.346   2.226   5.661 -0.2254  0.8084  0.1075
 3005SOL    HW120477   0.259   2.225   5.702  0.2500 -1.1340  1.0784
 3005SOL    HW220478   0.341   2.292   5.592  2.0147  0.5121 -0.3239
 3006SOL     OW20479   0.235   3.723  12.504  0.0054 -0.4552 -0.2387
 3006SOL    HW120480   0.300   3.713  12.573 -0.0127 -0.8715 -0.2791
 3006SOL    HW220481   0.222   3.629  12.492 -1.3157  0.0525 -3.0289
 3007SOL     OW20482   1.932   1.192   7.936 -0.4842  0.2457  0.1132
 3007SOL    HW120483   1.841   1.199   7.908 -0.7824  1.2801  1.3770
 3007SOL    HW220484   1.948   1.285   7.921 -1.2843  0.1189 -1.6090
 3008SOL     OW20485   4.685   4.347   0.221  0.3734  0.0422  0.1204
 3008SOL    HW120486   0.044   4.328   0.268 -0.4056 -0.5735  1.2036
 3008SOL    HW220487   0.002   4.383   0.141  0.8225 -1.0364 -0.1526
 3009SOL     OW20488   4.694   2.754   1.206  0.5639  0.6137 -0.6392
 3009SOL    HW120489   4.617   2.714   1.247  1.9792 -0.8018  0.6252
 3009SOL    HW220490   4.648   2.830   1.170 -3.0628 -1.6214 -0.7915
 3010SOL     OW20491   1.798   2.739  14.363  0.6601  0.0787  0.3094
 3010SOL    HW120492   1.818   2.713  14.274 -1.8480 -1.6009  0.2371
 3010SOL    HW220493   1.883   2.731  14.406  1.5822  0.0542 -1.5550
 3011SOL     OW20494   2.198   1.425  13.164 -0.4943  0.3162  0.5546
 3011SOL    HW120495   2.211   1.407  13.257  1.5288  1.4722  0.4957
 3011SOL    HW220496   2.127   1.488  13.173 -0.2983  0.5682  0.3710
 3012SOL     OW20497   4.496   4.663   7.678  0.1350 -0.1790  0.1681
 3012SOL    HW120498   4.567   4.666   7.741 -0.4827 -3.2840  0.9584
 3012SOL    HW220499   4.523   0.001   7.608  2.8257 -0.8018  0.6668
 3013SOL     OW20500   1.389   3.521   3.268 -0.3726  0.1249  0.0643
 3013SOL    HW120501   1.446   3.496   3.195  2.9885  1.1292  2.3089
 3013SOL    HW220502   1.371   3.614   3.255 -2.0463  0.0983  2.1781
 3014SOL     OW20503   1.979   3.590  14.918 -0.4088  0.6555  0.2803
 3014SOL    HW120504   2.037   3.527  14.875  0.5069  0.3295  2.0135
 3014SOL    HW220505   1.897   3.584  14.868  0.0473  0.5807 -0.4592
 3015SOL     OW20506   0.382   2.298   6.199  0.3499 -0.3404  0.1400
 3015SOL    HW120507   0.458   2.337   6.156  0.4601 -1.1750 -0.4286
 3015SOL    HW220508   0.312   2.305   6.134 -1.1893 -0.3572  1.7841
 3016SOL     OW20509   3.309   2.266   8.865 -0.1864 -0.7313  0.5495
 3016SOL    HW120510   3.394   2.308   8.850  0.2874 -1.9606 -0.1412
 3016SOL    HW220511   3.243   2.335   8.852 -0.7869 -0.9945  2.1305
 3017SOL     OW20512   3.227   0.765   5.859  0.2058 -0.2313  0.2685
 3017SOL    HW120513   3.195   0.742   5.771 -0.5765 -1.8516  0.9782
 3017SOL    HW220514   3.318   0.738   5.855  0.8372  1.8164  0.8744
 3018SOL     OW20515   1.727   0.509   7.755 -0.4056  0.0070  0.4817
 3018SOL    HW120516   1.701   0.573   7.689 -0.0173 -0.1782  0.1558
 3018SOL    HW220517   1.646   0.459   7.767 -0.8881  0.2283 -1.8589
 3019SOL     OW20518   3.731   1.535  15.547  0.2698 -0.3961 -0.5291
 3019SOL    HW120519   3.812   1.488  15.563  0.5846 -0.3125 -1.8426
 3019SOL    HW220520   3.754   1.615  15.593 -1.5690  0.5429 -1.2233
 3020SOL     OW20521   0.851   2.361   7.398 -0.0100 -0.1557  0.1210
 3020SOL    HW120522   0.774   2.322   7.441  0.7918  0.3352  2.0051
 3020SOL    HW220523   0.923   2.341   7.458 -1.1608 -0.8976  1.2743
 3021SOL     OW20524   4.615   3.743   7.846 -0.4671 -0.1649 -0.2695
 3021SOL    HW120525   4.603   3.649   7.840 -0.4367 -0.0875 -1.5578
 3021SOL    HW220526   4.694   3.736   7.900 -0.8821  1.1095  0.5063
 3022SOL     OW20527   3.602   0.726  16.062  0.3653 -0.1427 -0.1891
 3022SOL    HW120528   3.685   0.758  16.095 -1.7158  2.1596  2.8666
 3022SOL    HW220529   3.555   0.809  16.059  2.7057  1.1689 -0.3074
 3023SOL     OW20530   3.792   0.895   7.882 -0.3563  0.1005 -0.0222
 3023SOL    HW120531   3.802   0.804   7.857  1.7305 -0.0445  1.3575
 3023SOL    HW220532   3.707   0.899   7.926 -0.9661 -1.9818 -1.0541
 3024SOL     OW20533   4.476   0.290   7.909  0.6283  0.6636 -0.6463
 3024SOL    HW120534   4.487   0.279   8.004  2.4647 -0.1376 -0.9547
 3024SOL    HW220535   4.544   0.234   7.873  0.1925  0.2298 -0.7883
 3025SOL     OW20536   1.577   3.091  14.933 -0.5135  0.3310  0.4974
 3025SOL    HW120537   1.570   3.051  15.020 -4.3937 -0.1873 -0.0629
 3025SOL    HW220538   1.619   3.175  14.954  3.3520 -1.3140 -0.7667
 3026SOL     OW20539   1.890   3.343   0.642 -0.2786  0.0715  0.3229
 3026SOL    HW120540   1.869   3.301   0.726 -1.2782  0.3952  0.2310
 3026SOL    HW220541   1.966   3.289   0.621 -0.4206 -0.5402  1.3632
 3027SOL     OW20542   3.101   2.423  11.831  0.3259 -0.4106 -0.1271
 3027SOL    HW120543   3.171   2.377  11.784 -0.4947 -0.6437 -1.1266
 3027SOL    HW220544   3.047   2.349  11.861 -0.7095  0.9560  1.3330
 3028SOL     OW20545   1.205   1.895  14.229  0.3567 -0.1157  0.0089
 3028SOL    HW120546   1.252   1.961  14.178 -0.0872 -0.2888 -0.6228
 3028SOL    HW220547   1.270   1.842  14.274 -0.8570 -2.3039 -0.8363
 3029SOL     OW20548   2.179   0.617  10.915  0.2307  0.2336 -0.1860
 3029SOL    HW120549   2.136   0.609  10.829 -1.7307 -0.5850  0.8736
 3029SOL    HW220550   2.236   0.691  10.896  3.1495 -1.7615  0.8386
 3030SOL     OW20551   3.004   0.673  17.195 -0.1515  0.4250 -0.1711
 3030SOL    HW120552   2.967   0.700  17.112  0.2719  2.0300  0.1733
 3030SOL    HW220553   3.064   0.747  17.206  0.0427  0.4229 -1.1884
 3031SOL     OW20554   3.616   1.469   0.412 -0.4066  0.2255  0.5108
 3031SOL    HW120555   3.692   1.519   0.444  0.8451 -0.4392 -1.4325
 3031SOL    HW220556   3.549   1.511   0.466 -0.9269 -0.5325  0.4440
 3032SOL     OW20557   4.674   1.938   1.997  0.1492 -0.5813 -0.4213
 3032SOL    HW120558   4.688   2.025   2.036 -0.4898 -1.5245  1.9367
 3032SOL    HW220559   0.041   1.906   1.997  0.3649  0.0169 -0.1854
 3033SOL     OW20560   1.184   1.264   3.152  0.0291  0.9838  0.0446
 3033SOL    HW120561   1.216   1.225   3.070 -0.4340  1.6529 -0.4605
 3033SOL    HW220562   1.239   1.341   3.143  0.8622  0.3675 -0.0926
 3034SOL     OW20563   1.505   1.400   3.467 -0.3159  0.0464 -0.1182
 3034SOL    HW120564   1.420   1.433   3.438 -0.2779  0.6798  0.5033
 3034SOL    HW220565   1.477   1.390   3.558  0.4601  0.8375  0.2013
 3035SOL     OW20566   3.139   4.231   7.830  0.4600  0.1187 -0.0698
 3035SOL    HW120567   3.075   4.302   7.836 -0.4408 -0.4546 -2.9299
 3035SOL    HW220568   3.193   4.270   7.899  1.8063 -0.7350 -0.6613
 3036SOL     OW20569   4.255   3.753   4.365  0.4481 -0.2584 -0.1689
 3036SOL    HW120570   4.227   3.661   4.366 -0.0654 -0.0834  1.2240
 3036SOL    HW220571   4.253   3.770   4.270  3.9157  2.4767  0.2632
 3037SOL     OW20572   2.558   1.880   5.899  0.0870  0.1409 -0.8790
 3037SOL    HW120573   2.653   1.872   5.898  0.2450  1.9216  0.0714
 3037SOL    HW220574   2.543   1.973   5.879  1.0240  0.3430 -0.6136
 3038SOL     OW20575   0.922   0.733   4.536  0.2608  0.5612  0.3309
 3038SOL    HW120576   0.963   0.693   4.613 -1.1308  2.3250  1.9744
 3038SOL    HW220577   0.997   0.760   4.484 -1.2257  1.2483 -1.4466
 3039SOL     OW20578   0.340   2.690  12.109 -0.2799  0.5340 -0.7475
 3039SOL    HW120579   0.398   2.724  12.040 -2.9387  3.0822 -1.7213
 3039SOL    HW220580   0.385   2.716  12.189  0.6628 -0.1766 -1.0420
 3040SOL     OW20581   0.057   1.542   3.863  0.0084  0.6934 -0.2977
 3040SOL    HW120582   0.085   1.628   3.834  1.6558  0.4562  0.5688
 3040SOL    HW220583   0.010   1.573   3.940  0.0593  1.5904 -0.6259
 3041SOL     OW20584   3.812   1.005   6.718 -0.1823  0.2292 -0.3750
 3041SOL    HW120585   3.751   1.062   6.764 -0.1871 -0.2502  0.2153
 3041SOL    HW220586   3.855   1.071   6.664 -0.3825 -0.9303 -1.9376
 3042SOL     OW20587   0.404   4.388  11.015 -0.2740 -0.2226  0.2583
 3042SOL    HW120588   0.406   4.478  11.048  2.0082  0.4262 -1.6337
 3042SOL    HW220589   0.389   4.341  11.097  0.4576  0.1175  0.5897
 3043SOL     OW20590   1.395   3.669   8.274 -0.1312  0.0326 -0.2392
 3043SOL    HW120591   1.375   3.730   8.203  1.8541  0.8867 -0.0599
 3043SOL    HW220592   1.305   3.638   8.287  0.1287 -0.3706  0.6350
 3044SOL     OW20593   0.767   2.110   7.236 -0.5863  0.3007  0.3419
 3044SOL    HW120594   0.817   2.048   7.289  1.7977  0.0474 -2.1852
 3044SOL    HW220595   0.826   2.180   7.210  0.3883 -0.5903  0.1640
 3045SOL     OW20596   3.999   0.862   5.596  0.5267  0.0043 -0.3096
 3045SOL    HW120597   4.056   0.839   5.669  0.1801  1.4455  0.4215
 3045SOL    HW220598   3.965   0.949   5.620  1.0247  0.2791 -0.6017
 3046SOL     OW20599   2.755   2.943  16.260  0.3463 -0.4862  0.4440
 3046SOL    HW120600   2.685   3.008  16.259  1.4727  0.7246  0.2710
 3046SOL    HW220601   2.707   2.866  16.231  0.1010 -0.7037  1.4070
 3047SOL     OW20602   4.356   3.757   9.576  0.0128 -0.1723  0.5930
 3047SOL    HW120603   4.336   3.689   9.641 -0.3319  1.3824  2.1267
 3047SOL    HW220604   4.436   3.728   9.533  1.1718  1.6351  1.5434
 3048SOL     OW20605   1.668   2.921   7.662 -0.5780  0.0211  0.2639
 3048SOL    HW120606   1.670   2.948   7.754 -1.3376  1.5049 -0.1440
 3048SOL    HW220607   1.645   2.829   7.670  1.3263 -0.6660 -2.0216
 3049SOL     OW20608   0.192   0.483   2.534 -0.3579 -0.3798  0.5421
 3049SOL    HW120609   0.237   0.472   2.617  1.5477 -1.0990 -0.6050
 3049SOL    HW220610   0.232   0.562   2.498  0.4110 -1.0397 -0.0593
 3050SOL     OW20611   1.440   3.887   4.003 -0.4306  0.0811 -0.1457
 3050SOL    HW120612   1.384   3.940   3.947  1.5428  0.0157 -2.1945
 3050SOL    HW220613   1.383   3.860   4.075 -1.2938  3.4200  0.4308
 3051SOL     OW20614   0.246   4.066   7.127 -0.5513 -0.1336  0.1775
 3051SOL    HW120615   0.183   4.116   7.180  2.2363  1.9878  1.4638
 3051SOL    HW220616   0.290   4.016   7.196  1.6702  1.8019  0.1583
 3052SOL     OW20617   0.224   2.427   7.478  0.1339 -0.2504 -0.3758
 3052SOL    HW120618   0.300   2.460   7.527 -0.0971  0.8996 -0.7923
 3052SOL    HW220619   0.154   2.462   7.534  0.1488 -1.9362  0.6809
 3053SOL     OW20620   2.461   0.581   1.251 -0.5291  0.1683 -0.0691
 3053SOL    HW120621   2.474   0.675   1.265 -0.3552  0.0001  0.9003
 3053SOL    HW220622   2.441   0.579   1.157 -0.8410 -2.0744  0.0566
 3054SOL     OW20623   2.521   0.493  10.121  0.1237  0.0252 -0.3855
 3054SOL    HW120624   2.451   0.429  10.108 -0.9471  0.8573  1.1406
 3054SOL    HW220625   2.594   0.461  10.069  0.6806 -0.8423  0.9228
 3055SOL     OW20626   0.278   3.697  17.414  0.0912  0.3018 -0.4057
 3055SOL    HW120627   0.260   3.786  17.445 -0.3657 -0.9388  2.9395
 3055SOL    HW220628   0.351   3.679  17.474  0.5249  1.0210 -0.7196
 3056SOL     OW20629   4.404   1.458   7.826  0.0824  0.0984  0.1497
 3056SOL    HW120630   4.319   1.435   7.789  0.3691  0.7302 -0.8985
 3056SOL    HW220631   4.444   1.483   7.743  3.0140  0.4122  1.6728
 3057SOL     OW20632   0.952   1.649   8.673  0.3731 -0.0308  0.1463
 3057SOL    HW120633   0.862   1.617   8.665  1.2016 -2.8345  1.9843
 3057SOL    HW220634   0.976   1.599   8.750 -0.5815  0.3666  0.7011
 3058SOL     OW20635   3.898   1.192   3.575  0.2422  0.2560 -0.1361
 3058SOL    HW120636   3.913   1.150   3.490 -0.2972 -0.5328  0.1545
 3058SOL    HW220637   3.803   1.194   3.579  0.2575  0.1348  0.2653
 3059SOL     OW20638   1.835   1.634  12.215 -0.0562  0.0629  0.4474
 3059SOL    HW120639   1.836   1.719  12.259  0.6337  1.6149 -2.5557
 3059SOL    HW220640   1.850   1.577  12.290  0.8335 -1.3243 -0.7758
 3060SOL     OW20641   2.820   2.120   1.930  0.0245 -0.2974  0.6002
 3060SOL    HW120642   2.790   2.103   1.840  1.3208 -0.7853  0.2641
 3060SOL    HW220643   2.849   2.030   1.941 -0.2754 -0.1398  2.7151
 3061SOL     OW20644   1.601   1.041  16.255 -0.2568 -0.3581  0.2321
 3061SOL    HW120645   1.664   1.066  16.321  1.7995  2.0693 -2.6678
 3061SOL    HW220646   1.527   1.087  16.293 -0.5738 -0.1265 -0.6480
 3062SOL     OW20647   3.103   3.243   4.832  0.3468 -0.7209  0.0715
 3062SOL    HW120648   3.188   3.200   4.847  0.6852 -0.3914 -0.9256
 3062SOL    HW220649   3.092   3.298   4.910  0.7075  1.8838 -1.6915
 3063SOL     OW20650   2.364   4.108  16.251 -0.1438  0.0909  0.4883
 3063SOL    HW120651   2.299   4.172  16.222 -1.2097  0.2634  3.3559
 3063SOL    HW220652   2.381   4.055  16.173 -1.5703  1.7365 -0.9487
 3064SOL     OW20653   1.603   0.286  16.535 -0.0972 -0.2652 -0.2552
 3064SOL    HW120654   1.565   0.357  16.485 -0.3617  0.0940  0.4579
 3064SOL    HW220655   1.649   0.245  16.461 -1.9083 -0.6867 -1.1435
 3065SOL     OW20656   0.384   3.835   7.620  0.0155 -0.5746  0.1288
 3065SOL    HW120657   0.313   3.887   7.581  1.2253  1.4203  0.5980
 3065SOL    HW220658   0.454   3.844   7.556 -1.0177  0.3344 -0.9004
 3066SOL     OW20659   1.230   2.478   4.226  0.2310  0.4164  0.4834
 3066SOL    HW120660   1.178   2.399   4.215  1.4231  0.2062 -3.8675
 3066SOL    HW220661   1.320   2.453   4.202 -0.0667  0.8518 -1.1060
 3067SOL     OW20662   1.361   0.758   7.728 -0.0990  0.0466 -0.4863
 3067SOL    HW120663   1.288   0.704   7.760  1.7565 -1.1932  1.6925
 3067SOL    HW220664   1.325   0.846   7.719  1.7597  0.8394 -0.2771
 3068SOL     OW20665   4.398   2.812  13.882 -0.4159 -0.4053  0.0371
 3068SOL    HW120666   4.327   2.866  13.915  0.6567 -0.3992  2.3540
 3068SOL    HW220667   4.458   2.809  13.957 -1.4361 -0.1523  0.8616
 3069SOL     OW20668   3.038   3.069   8.657  0.1583 -0.2410 -0.2919
 3069SOL    HW120669   3.122   3.050   8.700 -0.2094 -0.7247  0.2095
 3069SOL    HW220670   3.071   3.114   8.579  2.6113 -2.8945 -0.7935
 3070SOL     OW20671   2.635   3.297   3.456  0.4131  0.6468 -0.6974
 3070SOL    HW120672   2.728   3.293   3.433  0.5521  0.1550 -0.0487
 3070SOL    HW220673   2.595   3.311   3.370  1.8139 -1.7682 -1.7380
 3071SOL     OW20674   4.228   0.775   4.995 -0.2428 -0.1560 -0.2828
 3071SOL    HW120675   4.272   0.795   4.912 -0.8125  0.1337 -0.5161
 3071SOL    HW220676   4.159   0.716   4.965 -0.0138 -0.2426 -0.6450
 3072SOL     OW20677   1.089   3.995   4.712  0.1151 -0.2878 -0.2914
 3072SOL    HW120678   1.106   3.922   4.652 -2.8642 -0.7657 -0.5646
 3072SOL    HW220679   1.137   3.965   4.789 -1.0848  0.4581  0.7495
 3073SOL     OW20680   4.338   4.257   5.589  0.0299  0.4700 -0.1457
 3073SOL    HW120681   4.345   4.288   5.679  1.8115 -1.7615  0.4852
 3073SOL    HW220682   4.383   4.324   5.537  0.3642  0.4781  0.1551
 3074SOL     OW20683   4.306   1.354   2.723  0.0014  0.0130  0.0347
 3074SOL    HW120684   4.214   1.339   2.699 -0.1957  1.4258 -0.0938
 3074SOL    HW220685   4.350   1.282   2.677 -0.6427 -0.1037 -0.4072
 3075SOL     OW20686   1.016   2.333   4.459  0.2758  0.3078 -0.2495
 3075SOL    HW120687   0.978   2.407   4.413  0.3070  0.7325  0.4072
 3075SOL    HW220688   1.034   2.276   4.384 -0.7616  0.7848 -0.8537
 3076SOL     OW20689   4.081   2.139   1.858  0.5162 -0.3996  0.1387
 3076SOL    HW120690   4.100   2.226   1.822  1.4014 -2.0724 -3.4388
 3076SOL    HW220691   4.046   2.165   1.943  1.9314 -0.4030  0.7200
 3077SOL     OW20692   0.909   3.707   5.289 -0.2817 -0.5660 -0.1756
 3077SOL    HW120693   0.951   3.673   5.368  0.3526 -2.4104 -1.2864
 3077SOL    HW220694   0.932   3.799   5.299 -3.0030  0.3280 -2.0862
 3078SOL     OW20695   2.688   1.425   9.409 -0.3350 -0.6361 -0.0105
 3078SOL    HW120696   2.610   1.465   9.450 -1.3925 -1.0586 -1.6127
 3078SOL    HW220697   2.656   1.382   9.330  0.0736  0.0195 -0.5274
 3079SOL     OW20698   0.284   2.758   2.404 -0.2403 -0.5385 -0.3066
 3079SOL    HW120699   0.204   2.763   2.457  1.6783  1.3565  2.3494
 3079SOL    HW220700   0.243   2.781   2.320  0.6147 -0.0616 -0.5943
 3080SOL     OW20701   1.738   0.622   3.343  0.0624  0.0146 -0.2042
 3080SOL    HW120702   1.810   0.595   3.286 -0.5615 -2.9120  0.3834
 3080SOL    HW220703   1.769   0.701   3.386  0.2616 -0.6517  0.8627
 3081SOL     OW20704   1.505   0.705   6.775  0.0740  0.1230 -0.0996
 3081SOL    HW120705   1.473   0.620   6.805  0.2516  0.5588  1.3169
 3081SOL    HW220706   1.600   0.699   6.766 -0.0116 -1.8543  0.3421
 3082SOL     OW20707   4.257   3.417   3.318 -0.4140 -0.3955  0.2636
 3082SOL    HW120708   4.210   3.345   3.361  0.1831 -1.0226 -0.1518
 3082SOL    HW220709   4.192   3.488   3.320  0.7268  0.6379  0.2919
 3083SOL     OW20710   3.733   1.742   8.191 -0.1384  0.4108 -0.4906
 3083SOL    HW120711   3.738   1.828   8.231 -0.7855  0.2985 -0.1740
 3083SOL    HW220712   3.763   1.754   8.100  3.9803  0.7420  0.9149
 3084SOL     OW20713   4.007   1.989   3.615 -0.0418 -0.8176 -0.0266
 3084SOL    HW120714   3.912   1.988   3.626  0.0144  1.0163  0.6368
 3084SOL    HW220715   4.015   1.909   3.563  0.5527 -1.3794  0.9186
 3085SOL     OW20716   2.389   1.845   1.560  0.2196 -0.3037 -0.3286
 3085SOL    HW120717   2.393   1.924   1.506 -1.0741 -0.2371 -0.3416
 3085SOL    HW220718   2.432   1.785   1.499  1.9301 -0.2213  0.7955
 3086SOL     OW20719   0.515   3.400   5.878 -0.3005  0.1931  0.9195
 3086SOL    HW120720   0.469   3.317   5.891  1.6502 -1.2859 -1.7226
 3086SOL    HW220721   0.461   3.456   5.935 -0.0445  0.0868  1.2665
 3087SOL     OW20722   2.396   4.084  14.946 -0.2737 -0.3042  0.3850
 3087SOL    HW120723   2.400   4.179  14.937 -0.7492 -0.5703 -2.6867
 3087SOL    HW220724   2.304   4.063  14.958 -0.6002  0.8206 -0.1990
 3088SOL     OW20725   0.163   4.561  12.162  0.0925 -0.2277  0.1125
 3088SOL    HW120726   0.089   4.622  12.169 -0.7649 -1.5252  2.4013
 3088SOL    HW220727   0.139   4.520  12.079 -0.4969 -0.8387  0.5888
 3089SOL     OW20728   2.380   1.855   5.541  0.2845  0.3148 -0.0591
 3089SOL    HW120729   2.355   1.941   5.507  1.9103  0.4108 -1.0014
 3089SOL    HW220730   2.411   1.814   5.460  1.0106  2.2927 -0.7820
 3090SOL     OW20731   4.492   3.622   3.274 -0.1030 -0.3198 -0.2245
 3090SOL    HW120732   4.437   3.669   3.212  2.0032  1.6628 -0.5800
 3090SOL    HW220733   4.487   3.535   3.233  1.3963 -1.0074  1.0481
 3091SOL     OW20734   2.634   1.375   3.798  0.5929  0.0517  0.1275
 3091SOL    HW120735   2.696   1.320   3.847 -0.8020 -1.2749  0.3837
 3091SOL    HW220736   2.690   1.449   3.773 -1.3038  0.7110 -2.1206
 3092SOL     OW20737   4.126   1.090   8.717 -0.0793 -0.8256 -0.2531
 3092SOL    HW120738   4.122   1.135   8.801 -1.6260  2.1266 -1.8927
 3092SOL    HW220739   4.178   1.154   8.669 -2.1996 -0.2803 -1.8691
 3093SOL     OW20740   2.337   2.820  11.317 -0.5809  0.0264 -0.2475
 3093SOL    HW120741   2.377   2.904  11.339 -1.3749 -0.2449  2.2418
 3093SOL    HW220742   2.406   2.757  11.338  1.5436  0.6866 -5.1539
 3094SOL     OW20743   2.659   3.255  11.125 -0.0405  0.5228 -0.5459
 3094SOL    HW120744   2.744   3.251  11.081 -1.0709  2.2133 -2.6931
 3094SOL    HW220745   2.630   3.165  11.112 -0.0563  0.3970  0.3471
 3095SOL     OW20746   1.384   3.069   2.343 -0.7728 -0.2043  0.6922
 3095SOL    HW120747   1.386   3.152   2.295  1.5112  0.5477  2.0987
 3095SOL    HW220748   1.362   3.096   2.432  1.1692 -2.0813  1.7480
 3096SOL     OW20749   2.702   1.963   1.428 -0.0241  0.6049 -0.1677
 3096SOL    HW120750   2.613   1.994   1.409 -0.8655 -2.8353 -1.9306
 3096SOL    HW220751   2.739   1.965   1.340 -0.2318  1.9287 -0.2252
 3097SOL     OW20752   3.598   1.747   3.707  0.0165  0.1674 -0.3037
 3097SOL    HW120753   3.609   1.658   3.741 -0.6962 -0.2113 -1.0812
 3097SOL    HW220754   3.555   1.730   3.624  2.5646 -2.0111 -1.1988
 3098SOL     OW20755   2.732   0.810   7.999  0.3347  0.2723  0.4013
 3098SOL    HW120756   2.668   0.809   8.070  1.3970 -0.1448  1.3539
 3098SOL    HW220757   2.793   0.746   8.037  0.5089  0.4254  0.3799
 3099SOL     OW20758   0.822   1.285   6.646 -0.7355  0.4159  0.2860
 3099SOL    HW120759   0.889   1.277   6.715 -1.2642  4.7775  1.2703
 3099SOL    HW220760   0.761   1.215   6.668 -0.7336  1.0402  2.2638
 3100SOL     OW20761   0.231   1.482  13.668  0.2325 -0.0158  0.3702
 3100SOL    HW120762   0.210   1.429  13.745 -1.7809  0.3487  0.0581
 3100SOL    HW220763   0.245   1.561  13.719 -0.1254  0.2321  0.0809
 3101SOL     OW20764   1.152   2.732   4.817  0.3994  0.1154  0.1442
 3101SOL    HW120765   1.090   2.803   4.830 -0.9979 -1.3083  1.2551
 3101SOL    HW220766   1.108   2.657   4.856 -0.1325  0.8424  0.9274
 3102SOL     OW20767   2.070   3.713   2.886 -0.3839 -0.2386 -0.0347
 3102SOL    HW120768   2.106   3.652   2.822  1.7729  1.2165 -0.2280
 3102SOL    HW220769   2.071   3.798   2.841  1.0687 -1.4533 -2.3192
 3103SOL     OW20770   1.515   4.136   0.231  0.0666  0.3908 -0.2900
 3103SOL    HW120771   1.574   4.190   0.283  1.3319  0.0566 -1.3681
 3103SOL    HW220772   1.440   4.195   0.226 -1.2080 -1.1616  0.5572
 3104SOL     OW20773   0.170   2.454  13.565  0.5749 -0.2472 -0.0043
 3104SOL    HW120774   0.079   2.462  13.535  0.4933 -2.2145 -0.2984
 3104SOL    HW220775   0.168   2.458  13.660 -0.6677 -1.6248  0.0291
 3105SOL     OW20776   2.912   0.910  13.977  0.0841 -0.0998 -0.4201
 3105SOL    HW120777   2.960   0.836  13.939  0.7604 -0.6584  1.4842
 3105SOL    HW220778   2.826   0.870  13.994 -0.2641  0.6459 -0.4531
 3106SOL     OW20779   4.292   0.132   3.574  0.1123  0.5048 -0.4661
 3106SOL    HW120780   4.231   0.200   3.603  1.1972  1.2853  0.0452
 3106SOL    HW220781   4.331   0.173   3.497 -0.0893  1.8030  0.1171
 3107SOL     OW20782   4.416   1.173   2.499  0.0762 -0.1837  0.6923
 3107SOL    HW120783   4.345   1.186   2.437  2.0916  0.3388 -1.4892
 3107SOL    HW220784   4.403   1.080   2.521 -1.2197 -0.4609 -1.2721
 3108SOL     OW20785   4.544   2.024   4.305 -0.0926  0.1791  0.0336
 3108SOL    HW120786   4.452   2.046   4.321 -0.8299 -2.7143 -0.0938
 3108SOL    HW220787   4.591   2.085   4.362  0.3348 -0.2796  0.1713
 3109SOL     OW20788   1.486   0.818  12.842 -0.0918  0.2263  0.2376
 3109SOL    HW120789   1.498   0.726  12.816 -0.5278  0.3643 -0.4457
 3109SOL    HW220790   1.573   0.855  12.825 -0.5038  1.2415  0.3673
 3110SOL     OW20791   4.452   3.281   2.728  0.1105 -0.2306  0.3727
 3110SOL    HW120792   4.413   3.335   2.797  0.9052 -0.6468  1.1520
 3110SOL    HW220793   4.447   3.203   2.784 -1.2484  0.0620  0.6455
 3111SOL     OW20794   3.955   3.296  15.727 -0.3327 -0.0935 -0.7435
 3111SOL    HW120795   4.039   3.271  15.766  0.9768  2.7070 -1.7663
 3111SOL    HW220796   3.988   3.367  15.672 -2.4333  1.5008  0.0931
 3112SOL     OW20797   1.347   4.411  17.493  0.3264 -0.0247  0.6057
 3112SOL    HW120798   1.418   4.444  17.438 -0.5026  1.9623  0.7377
 3112SOL    HW220799   1.265   4.421  17.446  1.2003  0.1155 -0.8840
 3113SOL     OW20800   0.705   2.138   7.740 -0.0403 -0.5541  0.3519
 3113SOL    HW120801   0.655   2.113   7.818 -2.8725  2.0172 -0.6729
 3113SOL    HW220802   0.669   2.225   7.725  2.0341  0.5452  1.6729
 3114SOL     OW20803   3.364   1.448   0.243 -0.1425  0.2754  0.3887
 3114SOL    HW120804   3.438   1.410   0.290  0.7214 -0.6458 -1.7438
 3114SOL    HW220805   3.341   1.376   0.184  1.8238  0.5254 -0.6834
 3115SOL     OW20806   4.577   1.769   7.884  0.0058 -0.6744  0.3639
 3115SOL    HW120807   4.493   1.761   7.930 -0.2060 -0.4303  0.0205
 3115SOL    HW220808   4.571   1.699   7.820  2.3139 -0.8048  0.3130
 3116SOL     OW20809   2.400   2.728   2.763  0.3342 -0.2028 -0.0837
 3116SOL    HW120810   2.488   2.732   2.727 -0.0035 -1.7907 -1.0557
 3116SOL    HW220811   2.353   2.692   2.688 -0.3928 -1.6038  1.0402
 3117SOL     OW20812   4.152   2.944  17.153  0.5058 -0.5998  0.5832
 3117SOL    HW120813   4.180   2.977  17.239  0.5999 -0.2193  0.4067
 3117SOL    HW220814   4.063   2.921  17.180  0.1241 -0.7304 -0.8110
 3118SOL     OW20815   3.068   3.963  16.783 -0.2359 -0.1217 -0.1419
 3118SOL    HW120816   3.030   3.927  16.863  1.6978  0.3465  0.9716
 3118SOL    HW220817   3.063   3.884  16.729 -0.6753 -1.7937  2.3256
 3119SOL     OW20818   2.528   3.332   7.114  0.1255 -0.0575 -0.0912
 3119SOL    HW120819   2.591   3.310   7.045  0.0623  0.8123 -0.4146
 3119SOL    HW220820   2.584   3.387   7.169  1.6686 -0.1149 -1.6110
 3120SOL     OW20821   0.330   0.627  10.363 -0.3545  0.5653  0.6179
 3120SOL    HW120822   0.351   0.669  10.279 -0.6338  1.0935  0.8154
 3120SOL    HW220823   0.308   0.538  10.337 -0.8415  0.7300  0.4712
 3121SOL     OW20824   2.184   4.139   7.525  0.1906  0.6588 -0.0843
 3121SOL    HW120825   2.273   4.173   7.538  1.8208 -3.1611 -1.1391
 3121SOL    HW220826   2.189   4.089   7.443 -2.1035  3.4596 -1.9373
 3122SOL     OW20827   3.184   2.562   4.149  0.2206 -0.0729 -0.1936
 3122SOL    HW120828   3.112   2.571   4.212  1.3235  0.2634  1.0113
 3122SOL    HW220829   3.266   2.573   4.197  0.2588  2.7947 -0.8896
 3123SOL     OW20830   1.253   2.190  11.042  0.0943 -0.4824 -0.0877
 3123SOL    HW120831   1.168   2.222  11.073  0.3325  1.5378 -1.5441
 3123SOL    HW220832   1.301   2.271  11.057 -0.8210 -0.0808  0.7262
 3124SOL     OW20833   2.328   1.471  12.915  1.2885  0.1916  0.4477
 3124SOL    HW120834   2.301   1.453  13.006  0.0410  0.6484  0.1745
 3124SOL    HW220835   2.268   1.543  12.895 -0.0927 -1.2191 -0.4223
 3125SOL     OW20836   2.900   3.846   4.444  0.0293 -0.1791 -0.6845
 3125SOL    HW120837   2.976   3.802   4.482  0.7466  0.3338 -1.4880
 3125SOL    HW220838   2.902   3.807   4.356 -1.2671  2.3601 -1.8442
 3126SOL     OW20839   1.404   0.571   5.818 -0.1026  0.2199 -0.4353
 3126SOL    HW120840   1.361   0.640   5.868  0.8412 -1.4755  2.6837
 3126SOL    HW220841   1.359   0.498   5.861 -0.7221  2.3221  2.5064
 3127SOL     OW20842   3.840   3.987   7.400 -0.3114 -0.2072  0.3842
 3127SOL    HW120843   3.860   3.956   7.312 -0.8370 -0.4632  0.3513
 3127SOL    HW220844   3.866   4.079   7.400  1.7321 -0.7767  0.6293
 3128SOL     OW20845   2.991   0.780   1.977 -0.6751 -0.3284  0.2675
 3128SOL    HW120846   2.996   0.819   1.890 -0.5155  0.4538  0.6238
 3128SOL    HW220847   3.050   0.706   1.968 -0.4864 -0.0731 -0.6416
 3129SOL     OW20848   3.151   3.974   3.659  0.2143  0.1063 -0.2735
 3129SOL    HW120849   3.193   3.904   3.609  2.6196  2.7073 -1.9036
 3129SOL    HW220850   3.190   4.054   3.625 -1.2015  0.9802  0.1985
 3130SOL     OW20851   1.902   2.869   0.178 -0.3938 -0.9004  0.2381
 3130SOL    HW120852   1.863   2.928   0.243  1.0674 -1.2656  1.4561
 3130SOL    HW220853   1.890   2.780   0.209  1.2830 -1.0780  0.3547
 3131SOL     OW20854   1.974   1.810   5.584  0.1523 -0.1012  0.4284
 3131SOL    HW120855   1.998   1.717   5.578  0.7422  0.1962 -1.7977
 3131SOL    HW220856   1.996   1.830   5.675 -1.7099 -1.7213  1.2336
 3132SOL     OW20857   4.483   0.145   3.816 -0.5238 -0.9899 -0.1150
 3132SOL    HW120858   4.415   0.140   3.749  1.2242  0.2460 -1.9530
 3132SOL    HW220859   4.555   0.118   3.759 -0.3946  3.4952 -2.0316
 3133SOL     OW20860   4.577   2.541  14.207 -0.0117 -0.1898  0.1741
 3133SOL    HW120861   4.594   2.631  14.179 -0.8100 -0.4423 -1.1118
 3133SOL    HW220862   4.574   2.498  14.122  1.8826 -2.0220  1.0265
 3134SOL     OW20863   0.386   1.604  16.076 -0.3833  0.6962 -0.6196
 3134SOL    HW120864   0.311   1.649  16.038 -1.2962 -0.7126 -0.4897
 3134SOL    HW220865   0.369   1.602  16.170 -0.9754  2.1598 -0.6926
 3135SOL     OW20866   0.296   2.277   7.977  0.7788  0.6574  0.0076
 3135SOL    HW120867   0.237   2.241   8.044  0.0448  1.1012 -0.4064
 3135SOL    HW220868   0.234   2.319   7.918  1.5758  0.1498 -1.1864
 3136SOL     OW20869   1.681   0.557  12.068  0.5058  0.6451 -0.3003
 3136SOL    HW120870   1.710   0.514  12.148 -0.5332  0.5072 -0.0002
 3136SOL    HW220871   1.617   0.501  12.024 -0.7033  2.7880 -1.2807
 3137SOL     OW20872   1.900   2.267   8.447 -0.1558 -0.0908  0.3874
 3137SOL    HW120873   1.966   2.267   8.377  0.2008  0.2522  0.7271
 3137SOL    HW220874   1.926   2.326   8.518 -0.4527  0.9954 -0.4077
 3138SOL     OW20875   3.659   2.857   8.349 -0.4998  0.3564  0.3748
 3138SOL    HW120876   3.708   2.802   8.410  1.7865  2.7928  0.7385
 3138SOL    HW220877   3.649   2.935   8.404  0.5475  0.8263 -0.1062
 3139SOL     OW20878   1.551   1.593  14.816  0.1859  0.8531 -0.2352
 3139SOL    HW120879   1.471   1.635  14.787 -0.4173 -0.2840 -0.2370
 3139SOL    HW220880   1.533   1.506  14.852  2.4251  0.2315 -0.6180
 3140SOL     OW20881   0.543   3.890  11.951 -0.2770  0.4092 -0.4064
 3140SOL    HW120882   0.605   3.824  11.982 -0.9568 -0.8010 -1.6494
 3140SOL    HW220883   0.602   3.956  11.916  1.4674 -0.3291  1.1645
 3141SOL     OW20884   4.582   2.889   2.847  0.0952 -0.0755 -0.3041
 3141SOL    HW120885   4.598   2.858   2.937 -1.2791  0.5206  0.1427
 3141SOL    HW220886   4.613   2.979   2.852 -3.4014  1.1905 -1.6307
 3142SOL     OW20887   4.014   0.388   4.787 -0.9994  0.2229  0.0735
 3142SOL    HW120888   4.004   0.314   4.727  0.2815  0.5164 -0.5042
 3142SOL    HW220889   4.107   0.403   4.771 -0.6199  0.2184  2.2269
 3143SOL     OW20890   2.906   2.014   7.536 -0.0057  0.2658 -0.2358
 3143SOL    HW120891   2.907   2.043   7.445  1.2292  4.4962  1.1076
 3143SOL    HW220892   2.864   1.929   7.526  1.6363 -0.8660  2.3558
 3144SOL     OW20893   3.843   0.685   3.256  0.3453  0.0797  0.2508
 3144SOL    HW120894   3.874   0.759   3.204 -2.0401  0.2822 -0.8692
 3144SOL    HW220895   3.913   0.669   3.319  0.9913  2.8811  0.2436
 3145SOL     OW20896   2.372   0.723   9.547  0.1867  0.2847  0.2383
 3145SOL    HW120897   2.461   0.707   9.579 -0.4342 -1.1371  1.2071
 3145SOL    HW220898   2.381   0.686   9.459  0.2357  0.8664 -0.0023
 3146SOL     OW20899   0.482   2.078  10.965  1.0808 -0.0491 -0.0644
 3146SOL    HW120900   0.426   2.150  10.935 -1.1117 -2.3986 -1.6456
 3146SOL    HW220901   0.560   2.085  10.911  0.7370 -0.6548 -0.6444
 3147SOL     OW20902   2.979   2.529  11.467  0.9240  0.8584  0.0079
 3147SOL    HW120903   2.975   2.490  11.380  2.7147 -0.4970  0.5324
 3147SOL    HW220904   3.063   2.504  11.505 -0.5452 -0.3610  2.4401
 3148SOL     OW20905   1.758   3.939   7.301 -0.3880 -0.1924  0.1250
 3148SOL    HW120906   1.830   3.876   7.298 -0.7524 -0.4765 -2.7660
 3148SOL    HW220907   1.712   3.908   7.379  0.7569 -1.0835  0.4496
 3149SOL     OW20908   2.816   3.185   3.074 -0.3751 -0.6227 -0.2092
 3149SOL    HW120909   2.721   3.174   3.069 -0.4597 -0.3302  0.7217
 3149SOL    HW220910   2.852   3.108   3.030 -0.2695  0.6275 -2.3111
 3150SOL     OW20911   2.524   1.268   1.022 -0.5768  0.2757 -0.6143
 3150SOL    HW120912   2.610   1.284   0.984  0.6608  0.0783  2.1730
 3150SOL    HW220913   2.474   1.278   0.941  0.3869  0.5565 -1.1739
 3151SOL     OW20914   3.586   1.804  11.623 -0.5635  0.3401 -0.2194
 3151SOL    HW120915   3.609   1.815  11.715 -0.9087  1.2838 -0.2446
 3151SOL    HW220916   3.668   1.838  11.587 -0.4778  0.6086  0.2361
 3152SOL     OW20917   1.161   1.558  13.184 -0.0259 -0.4406 -0.5375
 3152SOL    HW120918   1.095   1.627  13.173 -1.7510 -1.8651  1.0055
 3152SOL    HW220919   1.116   1.515  13.256 -1.9681 -0.3779 -1.6978
 3153SOL     OW20920   2.907   0.351   3.995 -0.2641  0.3694  0.3637
 3153SOL    HW120921   2.978   0.384   3.940 -2.0990 -0.5361 -2.5735
 3153SOL    HW220922   2.883   0.427   4.047  2.5126  1.0048  0.6906
 3154SOL     OW20923   2.121   4.406   1.373 -0.4569  0.1059 -0.2192
 3154SOL    HW120924   2.136   4.458   1.452 -0.4331  1.3176 -1.0200
 3154SOL    HW220925   2.030   4.378   1.381 -0.4924  0.3874  0.3915
 3155SOL     OW20926   1.741   2.934   8.406 -0.8374  0.3023 -0.1226
 3155SOL    HW120927   1.744   2.866   8.339 -0.7410 -1.1183  1.3065
 3155SOL    HW220928   1.781   2.883   8.477 -1.4761 -3.0202 -2.1742
 3156SOL     OW20929   3.132   3.448   0.703  0.3396  0.0966 -0.1055
 3156SOL    HW120930   3.173   3.534   0.700 -1.3079  0.9776  2.4740
 3156SOL    HW220931   3.181   3.398   0.638  0.6379  2.7185 -1.8863
 3157SOL     OW20932   1.367   2.907   4.435 -0.1489  0.6022 -0.0840
 3157SOL    HW120933   1.308   2.833   4.448 -0.5363  0.8183 -0.5932
 3157SOL    HW220934   1.311   2.983   4.448  0.0359  0.9693 -1.4122
 3158SOL     OW20935   1.884   0.180  11.897  0.1508  0.2234  0.2059
 3158SOL    HW120936   1.905   0.086  11.901  1.2001  0.4177 -0.9460
 3158SOL    HW220937   1.952   0.205  11.835  1.2459 -0.2793  1.1990
 3159SOL     OW20938   3.546   0.676  10.086 -0.2778 -0.3127  0.5935
 3159SOL    HW120939   3.550   0.599  10.144  0.0772  0.0005  0.9787
 3159SOL    HW220940   3.628   0.714  10.116 -0.0951 -0.9272  0.8767
 3160SOL     OW20941   0.502   4.026   3.956  0.0730  0.2853 -0.4128
 3160SOL    HW120942   0.565   4.088   3.993  0.6496 -0.9633  0.6649
 3160SOL    HW220943   0.547   3.966   3.898 -1.2053  2.1153 -3.3445
 3161SOL     OW20944   3.853   2.056   5.980 -0.2416 -1.2008 -1.0388
 3161SOL    HW120945   3.866   2.140   5.936 -1.6701 -0.9557 -1.0001
 3161SOL    HW220946   3.769   2.067   6.024  0.4270 -1.8673  0.3857
 3162SOL     OW20947   1.797   4.012   4.270  0.2771 -0.4200  0.6287
 3162SOL    HW120948   1.760   3.989   4.184 -1.2348 -1.8244  1.6439
 3162SOL    HW220949   1.872   4.056   4.231  0.1372 -1.1810 -0.5121
 3163SOL     OW20950   3.947   0.775  12.483  0.0226 -0.6599 -0.0711
 3163SOL    HW120951   3.899   0.777  12.566  2.2786  1.0556  1.1875
 3163SOL    HW220952   3.878   0.817  12.431  0.7637  2.3088  1.3737
 3164SOL     OW20953   4.488   0.569  11.764 -0.3460  0.4472 -0.2100
 3164SOL    HW120954   4.539   0.492  11.739  0.2009  0.2716  1.4584
 3164SOL    HW220955   4.554   0.607  11.821  0.4016 -1.0122 -0.0984
 3165SOL     OW20956   0.429   0.096  17.647 -0.1044  0.4708  0.6963
 3165SOL    HW120957   0.369   0.050  17.589  0.4655  1.9250 -1.0592
 3165SOL    HW220958   0.479   0.032   0.005 -1.1452 -1.3474 -0.5887
 3166SOL     OW20959   0.726   1.965   4.448  0.0516  0.2343 -0.3643
 3166SOL    HW120960   0.789   1.933   4.513 -1.8755 -2.1065  0.3724
 3166SOL    HW220961   0.645   1.923   4.477  0.4562  0.3928  0.9785
 3167SOL     OW20962   1.710   0.446   6.668 -0.4264 -0.3402 -0.0248
 3167SOL    HW120963   1.749   0.401   6.592 -1.7659  0.5438 -1.2320
 3167SOL    HW220964   1.623   0.458   6.630  0.0739  0.7528 -0.8385
 3168SOL     OW20965   0.099   2.154   2.971 -0.0569  0.3610  0.6234
 3168SOL    HW120966   0.162   2.212   3.014  0.5442 -0.0921  0.3489
 3168SOL    HW220967   0.028   2.216   2.950 -0.8784 -1.2497 -1.3318
 3169SOL     OW20968   4.020   0.931   4.789 -0.0047  0.9634  0.1052
 3169SOL    HW120969   3.937   0.971   4.762 -0.6986 -2.3208 -2.6220
 3169SOL    HW220970   3.990   0.844   4.814 -0.1978  1.4861  1.7289
 3170SOL     OW20971   0.629   0.341   9.097  0.0583 -0.1840 -1.0399
 3170SOL    HW120972   0.632   0.301   9.184 -0.2988 -0.2102 -1.0381
 3170SOL    HW220973   0.723   0.356   9.101  0.0060 -0.0135 -0.4403
 3171SOL     OW20974   3.559   0.038  10.978 -0.1121  0.0045 -0.1448
 3171SOL    HW120975   3.552   4.671  10.944 -0.6584  0.3942 -1.0613
 3171SOL    HW220976   3.619   0.070  10.911  0.0723 -0.2795 -0.1127
 3172SOL     OW20977   2.987   1.085   2.976  0.1690  0.1403 -0.5942
 3172SOL    HW120978   3.041   1.007   2.966 -0.5484 -0.1898 -1.9282
 3172SOL    HW220979   3.029   1.151   2.921 -1.6291  2.2663  0.5831
 3173SOL     OW20980   2.982   2.149  16.060  0.7025 -0.3345 -0.4547
 3173SOL    HW120981   2.946   2.164  16.148  2.5677 -1.8193  0.5640
 3173SOL    HW220982   2.968   2.234  16.018 -0.6755  0.2349  1.1615
 3174SOL     OW20983   3.422   2.313   4.947 -0.3019 -0.1282  0.4887
 3174SOL    HW120984   3.400   2.300   4.855 -1.3807 -2.5999  1.0909
 3174SOL    HW220985   3.418   2.227   4.989  0.8207 -0.0207  0.8010
 3175SOL     OW20986   3.215   1.940   6.460 -0.1963 -0.2612  0.2787
 3175SOL    HW120987   3.180   2.029   6.468 -0.5882 -0.3867  0.0056
 3175SOL    HW220988   3.267   1.947   6.380 -0.2112  0.1912  0.3044
 3176SOL     OW20989   1.116   0.854   6.853 -0.4291  0.1083  0.2158
 3176SOL    HW120990   1.063   0.775   6.841 -1.4186  0.8557 -0.3963
 3176SOL    HW220991   1.146   0.860   6.762  1.8398 -0.1690  0.9425
 3177SOL     OW20992   0.174   2.765   8.832  0.2480 -0.1650 -0.0627
 3177SOL    HW120993   0.197   2.702   8.900  0.4079 -1.1853 -1.0731
 3177SOL    HW220994   0.246   2.752   8.771 -1.4936 -0.5988 -2.0307
 3178SOL     OW20995   1.786   3.233  15.225  0.0023 -0.1569  0.0018
 3178SOL    HW120996   1.794   3.143  15.195  0.7653 -0.5991  1.5017
 3178SOL    HW220997   1.743   3.270  15.149 -0.7558  1.0205  0.9972
 3179SOL     OW20998   0.642   1.760   6.381 -0.2794  0.0575 -0.1949
 3179SOL    HW120999   0.554   1.788   6.358 -0.7232  0.7526  2.3236
 3179SOL    HW221000   0.622   1.679   6.428  0.7592 -1.7672 -2.9404
 3180SOL     OW21001   2.499   0.909  10.247  0.2737  0.6006 -0.3367
 3180SOL    HW121002   2.452   0.939  10.170  0.5958  0.7858 -0.4573
 3180SOL    HW221003   2.534   0.822  10.228 -1.2088 -0.2347  0.7202
 3181SOL     OW21004   1.793   2.564   7.497 -0.0512  0.2817 -0.6982
 3181SOL    HW121005   1.748   2.622   7.559  1.1375  2.2701 -1.6724
 3181SOL    HW221006   1.757   2.478   7.518 -1.5348  0.4294 -2.6417
 3182SOL     OW21007   4.118   1.448   1.171 -0.2330 -0.1523 -0.4146
 3182SOL    HW121008   4.133   1.384   1.102 -0.6458 -1.5895  0.7992
 3182SOL    HW221009   4.036   1.409   1.203  0.6500 -3.6623 -2.4248
 3183SOL     OW21010   2.944   4.680   3.434  0.0265  0.1598 -0.2801
 3183SOL    HW121011   2.918   0.017   3.504  0.4804 -1.6936  1.4677
 3183SOL    HW221012   2.960   4.601   3.485  0.6064 -0.0313 -0.7496
 3184SOL     OW21013   2.376   1.460   1.924 -0.3080  0.0826  0.5842
 3184SOL    HW121014   2.336   1.517   1.859 -0.2036 -1.3105 -0.7023
 3184SOL    HW221015   2.294   1.440   1.969 -1.7148  1.1224 -1.5650
 3185SOL     OW21016   1.455   0.414   7.767 -0.2344 -0.2930 -0.7161
 3185SOL    HW121017   1.393   0.353   7.807  1.7657 -2.5277 -1.0389
 3185SOL    HW221018   1.413   0.434   7.683 -3.0236  1.4023  1.0765
 3186SOL     OW21019   1.493   1.144   8.779 -0.1937 -0.1038  0.3894
 3186SOL    HW121020   1.419   1.130   8.719  0.2043  0.8669 -0.3353
 3186SOL    HW221021   1.543   1.065   8.758 -1.9480 -1.5943  1.8273
 3187SOL     OW21022   2.144   1.914   6.264 -0.2618  0.2627 -0.6139
 3187SOL    HW121023   2.060   1.874   6.240 -1.6229  2.4888  0.4444
 3187SOL    HW221024   2.204   1.844   6.240  1.8842  1.6037  0.8566
 3188SOL     OW21025   1.169   4.555   5.367  0.0741 -0.2706  0.4383
 3188SOL    HW121026   1.086   4.539   5.411 -1.0488  1.9999 -0.8973
 3188SOL    HW221027   1.164   4.492   5.296 -3.2772 -0.7093  1.1066
 3189SOL     OW21028   2.210   4.588  14.036 -0.1660 -0.3716  0.4386
 3189SOL    HW121029   2.193   4.661  13.977  0.5726 -1.1769 -0.7671
 3189SOL    HW221030   2.288   4.618  14.083  0.1701 -0.9423  0.2466
 3190SOL     OW21031   0.539   1.269   1.526 -0.0493 -0.0872  0.1277
 3190SOL    HW121032   0.568   1.301   1.440  0.6438  0.0768  0.4215
 3190SOL    HW221033   0.524   1.176   1.506 -1.0654 -0.1113  1.0528
 3191SOL     OW21034   0.475   0.727   7.539  0.2923  0.1368 -0.2764
 3191SOL    HW121035   0.514   0.759   7.458  2.1988  0.9403  0.9841
 3191SOL    HW221036   0.400   0.679   7.503  0.2922 -0.4619  0.5402
 3192SOL     OW21037   3.576   2.889  13.752  0.0912 -0.1112  0.4208
 3192SOL    HW121038   3.644   2.842  13.800 -0.1709 -1.1054 -0.1791
 3192SOL    HW221039   3.509   2.862  13.814  0.6134 -0.4156  0.8556
 3193SOL     OW21040   2.889   3.968   0.189  0.0661  0.1476 -0.3617
 3193SOL    HW121041   2.921   4.000   0.273  1.0793  0.0859 -0.7284
 3193SOL    HW221042   2.822   3.905   0.215  1.4642 -1.2141 -0.0680
 3194SOL     OW21043   1.657   4.418   2.290  0.4867  0.5783  0.1834
 3194SOL    HW121044   1.673   4.358   2.362  0.8735 -0.3602 -0.6893
 3194SOL    HW221045   1.684   4.366   2.214  2.4377  0.0817  1.2300
 3195SOL     OW21046   4.138   2.948  11.749  0.1633  0.1209  0.1331
 3195SOL    HW121047   4.082   3.004  11.804  0.1085 -0.4500  0.6483
 3195SOL    HW221048   4.104   2.964  11.661 -0.7644 -3.0785 -0.0827
 3196SOL     OW21049   4.615   0.208   5.333 -0.0984  0.3207  0.2541
 3196SOL    HW121050   4.610   0.210   5.238 -0.3080  0.0519  0.2604
 3196SOL    HW221051   4.710   0.213   5.336  0.0119 -0.3416 -2.3137
 3197SOL     OW21052   2.907   3.086   5.094 -0.3322 -0.2411 -0.0690
 3197SOL    HW121053   2.842   3.023   5.065 -1.4695  0.6883  0.4397
 3197SOL    HW221054   2.929   3.139   5.018 -2.2221  0.1337 -0.3510
 3198SOL     OW21055   0.506   3.175   2.639 -0.5067 -0.0739  0.6432
 3198SOL    HW121056   0.588   3.206   2.601  1.9236 -4.5308  2.1710
 3198SOL    HW221057   0.522   3.083   2.617  2.4426  0.6075 -0.0283
 3199SOL     OW21058   0.906   0.640   6.237  0.2271  0.1563  0.1633
 3199SOL    HW121059   0.835   0.659   6.297  0.0851  0.3017 -0.0522
 3199SOL    HW221060   0.969   0.711   6.252  0.7271 -0.2925  0.2179
 3200SOL     OW21061   2.647   0.079   5.642  0.6045 -0.0981  0.2743
 3200SOL    HW121062   2.562   0.058   5.679  0.2473  0.1088 -0.4222
 3200SOL    HW221063   2.697   0.090   5.723 -1.5006  0.3596  1.4941
 3201SOL     OW21064   3.072   3.635   5.635  0.0421 -0.1559  0.5394
 3201SOL    HW121065   3.084   3.549   5.675 -2.4734 -1.1712 -0.8941
 3201SOL    HW221066   2.978   3.648   5.643  0.2687  0.0882  2.7708
 3202SOL     OW21067   0.253   3.752   8.491 -0.0963  0.5853  0.3078
 3202SOL    HW121068   0.234   3.791   8.576  0.0755  1.4093 -0.0267
 3202SOL    HW221069   0.188   3.797   8.436 -1.4300 -1.7565 -0.0227
 3203SOL     OW21070   0.986   2.553   6.558  0.6687 -0.0748  0.1428
 3203SOL    HW121071   1.061   2.523   6.610  0.6864 -0.3133 -0.0192
 3203SOL    HW221072   0.935   2.472   6.556  1.1618 -0.3655 -0.8380
 3204SOL     OW21073   1.565   1.127  16.845 -0.2211 -0.6071  0.2465
 3204SOL    HW121074   1.493   1.067  16.864 -2.5941  1.8903 -0.8689
 3204SOL    HW221075   1.626   1.069  16.800 -0.8608  1.2493 -3.0156
 3205SOL     OW21076   2.043   1.095   7.416 -0.1569 -0.1084 -0.3702
 3205SOL    HW121077   2.013   1.004   7.420  3.5572 -1.2952  0.4960
 3205SOL    HW221078   2.065   1.116   7.507  0.0111  2.2413 -0.9420
 3206SOL     OW21079   1.740   2.144   8.175 -0.0209  0.1448 -0.2077
 3206SOL    HW121080   1.789   2.080   8.227  2.0314  0.6347 -1.5325
 3206SOL    HW221081   1.654   2.108   8.196 -1.1357  1.5001 -2.4521
 3207SOL     OW21082   1.005   2.089  14.441  0.0023 -0.2850 -0.4653
 3207SOL    HW121083   1.025   1.998  14.417  2.0701 -0.2664  1.1670
 3207SOL    HW221084   1.020   2.133  14.357  0.6080  0.5057  0.0585
 3208SOL     OW21085   3.637   4.245   3.038 -0.2321 -0.0098 -0.3503
 3208SOL    HW121086   3.567   4.187   3.068 -0.6713  0.8620  0.2909
 3208SOL    HW221087   3.575   4.315   3.019  2.1174  1.5753 -2.2386
 3209SOL     OW21088   3.295   2.127   0.531 -0.5438 -0.0201  0.1557
 3209SOL    HW121089   3.355   2.123   0.456 -0.9957 -1.1202 -0.1564
 3209SOL    HW221090   3.282   2.221   0.540 -1.1577 -0.2102  1.2673
 3210SOL     OW21091   1.159   0.191   2.456 -0.2476 -0.0981  0.1085
 3210SOL    HW121092   1.085   0.134   2.479  0.6503 -0.6049  1.7917
 3210SOL    HW221093   1.168   0.171   2.363  3.3864  0.8603  0.2521
 3211SOL     OW21094   1.211   0.583   9.902 -0.3092 -0.3747 -0.0833
 3211SOL    HW121095   1.232   0.549   9.815  0.5493  1.1696 -0.4983
 3211SOL    HW221096   1.132   0.635   9.889  0.2778 -0.4897 -4.2074
 3212SOL     OW21097   0.142   0.345   9.701  0.2607  0.3963 -0.7135
 3212SOL    HW121098   0.123   0.260   9.662 -2.9040  0.7794 -0.0360
 3212SOL    HW221099   0.211   0.314   9.760 -1.0198  0.7567  0.9962
 3213SOL     OW21100   2.495   3.175   2.703  0.3165 -0.0356 -0.1722
 3213SOL    HW121101   2.456   3.191   2.617 -1.6486  0.6888  0.8534
 3213SOL    HW221102   2.487   3.265   2.735 -0.3791 -0.4724  0.8677
 3214SOL     OW21103   3.905   0.794   0.820 -0.1256  0.3278  0.1638
 3214SOL    HW121104   3.895   0.850   0.896 -1.0817 -0.5493  0.6831
 3214SOL    HW221105   3.835   0.730   0.835  0.6767 -0.7185 -0.4722
 3215SOL     OW21106   2.470   0.793   2.623  0.0952  0.3652  0.1464
 3215SOL    HW121107   2.510   0.723   2.674 -0.4331  0.3491  0.5339
 3215SOL    HW221108   2.492   0.870   2.675  0.2490  0.5194 -0.1457
 3216SOL     OW21109   2.243   2.375   3.855  0.2472  0.1427 -0.5954
 3216SOL    HW121110   2.281   2.441   3.797 -3.3671  1.4595 -1.4474
 3216SOL    HW221111   2.302   2.376   3.930  1.1346 -1.0569 -1.2703
 3217SOL     OW21112   2.707   2.946   8.101 -0.3594 -0.1338 -0.1281
 3217SOL    HW121113   2.707   2.992   8.017 -0.0806  0.6908  0.3192
 3217SOL    HW221114   2.787   2.894   8.101 -1.2510 -1.5083 -1.0952
 3218SOL     OW21115   3.823   1.714   4.429 -0.2451  0.4430 -0.2896
 3218SOL    HW121116   3.779   1.650   4.485 -2.5746  0.4183 -2.1444
 3218SOL    HW221117   3.803   1.797   4.473 -0.2337 -0.9127  2.2810
 3219SOL     OW21118   2.592   1.478   6.043  0.1792 -0.2751 -0.1737
 3219SOL    HW121119   2.675   1.474   6.090  1.1393  1.2324 -1.7267
 3219SOL    HW221120   2.623   1.507   5.957  1.3711  2.8252  1.2773
 3220SOL     OW21121   1.032   3.040  17.095  0.4403 -0.2090  0.3250
 3220SOL    HW121122   0.989   3.080  17.019 -0.6725 -1.0381  0.5236
 3220SOL    HW221123   0.959   3.004  17.146  0.0975  0.0084 -0.0116
 3221SOL     OW21124   4.500   1.325  12.439 -0.3203 -0.4715 -0.0486
 3221SOL    HW121125   4.584   1.338  12.397 -0.0686  2.0354  1.2350
 3221SOL    HW221126   4.519   1.345  12.531 -0.7675 -1.8594  0.3469
 3222SOL     OW21127   0.891   4.290  16.006  0.0735  0.1576 -0.0250
 3222SOL    HW121128   0.864   4.337  16.085  1.9355  0.2954  0.5314
 3222SOL    HW221129   0.909   4.360  15.943 -0.0918 -0.1847 -0.4487
 3223SOL     OW21130   0.176   4.240   5.236 -0.2295 -0.2494 -0.3725
 3223SOL    HW121131   0.204   4.298   5.308 -1.5270 -0.4993  0.3257
 3223SOL    HW221132   0.145   4.302   5.170 -0.6841 -0.1525 -0.0708
 3224SOL     OW21133   3.886   2.793   0.719  0.0986  0.4440  0.1959
 3224SOL    HW121134   3.927   2.822   0.800  2.1800  0.4636 -0.8792
 3224SOL    HW221135   3.803   2.767   0.759  0.6882 -0.6913  0.6749
 3225SOL     OW21136   0.082   1.691   3.231  0.4144  0.1165 -0.4023
 3225SOL    HW121137   0.003   1.718   3.278  0.8208 -3.6508  2.3922
 3225SOL    HW221138   0.074   1.597   3.213 -0.2306 -0.0065  0.5278
 3226SOL     OW21139   1.288   0.330   6.663 -0.3301 -0.0537 -0.1745
 3226SOL    HW121140   1.221   0.359   6.601 -0.5029 -1.0566 -0.4635
 3226SOL    HW221141   1.250   0.249   6.697 -0.5045 -0.5245 -1.4761
 3227SOL     OW21142   2.537   2.626   8.465 -0.0245  0.1123 -0.3161
 3227SOL    HW121143   2.532   2.577   8.547  1.1129  1.3850  0.5096
 3227SOL    HW221144   2.609   2.686   8.484 -2.0037  3.0165 -1.9241
 3228SOL     OW21145   0.657   3.010   9.174  0.0197  0.2916 -0.1262
 3228SOL    HW121146   0.745   2.995   9.208 -0.1720 -1.4146 -0.4040
 3228SOL    HW221147   0.630   2.922   9.150 -0.1738  0.7263 -1.4763
 3229SOL     OW21148   1.343   0.269  16.745  0.0415  0.8875 -0.3567
 3229SOL    HW121149   1.247   0.273  16.740 -0.2163 -0.3256  3.7307
 3229SOL    HW221150   1.367   0.189  16.698  1.3519  1.0751 -0.0130
 3230SOL     OW21151   0.524   0.842  10.703  0.5946  0.1972  0.5817
 3230SOL    HW121152   0.556   0.912  10.646  1.7360 -0.3339  0.5723
 3230SOL    HW221153   0.605   0.800  10.731  0.2656  0.5592  2.1176
 3231SOL     OW21154   0.581   3.044   6.965 -0.2593  0.6590  0.0309
 3231SOL    HW121155   0.623   2.979   6.908  3.2548  1.5787  1.5247
 3231SOL    HW221156   0.629   3.117   6.926 -3.0133  1.9346 -0.9473
 3232SOL     OW21157   3.310   2.619   2.985  0.3010  0.5818 -0.2519
 3232SOL    HW121158   3.393   2.584   2.951  0.0835  0.6988 -0.9163
 3232SOL    HW221159   3.338   2.633   3.075  0.4652 -2.5762  0.1884
 3233SOL     OW21160   1.694   3.575   5.644  0.1889 -0.2578 -0.2129
 3233SOL    HW121161   1.695   3.479   5.652 -0.2158 -0.3091 -0.7419
 3233SOL    HW221162   1.783   3.589   5.612  0.0569 -0.0937 -0.5058
 3234SOL     OW21163   3.541   2.537   0.592  0.0331 -0.4391  0.4381
 3234SOL    HW121164   3.465   2.579   0.551  1.2223  0.6895 -0.5944
 3234SOL    HW221165   3.603   2.544   0.520  0.9269 -0.6304  1.1900
 3235SOL     OW21166   0.359   3.320   4.371 -0.1618  0.2232 -0.3182
 3235SOL    HW121167   0.306   3.347   4.295 -3.4547 -0.1627  1.8308
 3235SOL    HW221168   0.322   3.237   4.401 -0.2619 -0.1909 -1.5774
 3236SOL     OW21169   4.254   2.230   8.055 -0.3940  0.0224  0.0413
 3236SOL    HW121170   4.343   2.265   8.053 -0.0488 -0.9462 -1.6072
 3236SOL    HW221171   4.278   2.156   7.999  2.0194  1.9464 -1.4501
 3237SOL     OW21172   0.434   3.367  17.081  0.1294  0.1856  0.0690
 3237SOL    HW121173   0.418   3.416  17.162  1.0738  1.2789 -0.4043
 3237SOL    HW221174   0.453   3.440  17.023 -2.2156  1.1184  0.4992
 3238SOL     OW21175   0.093   3.407   0.928 -0.1016  0.1862 -0.0798
 3238SOL    HW121176   0.051   3.492   0.915  1.9310  1.5290  2.1606
 3238SOL    HW221177   0.030   3.355   0.978  2.1967 -3.1022 -0.6440
 3239SOL     OW21178   0.237   4.153  15.582 -0.2122  0.0035 -0.8334
 3239SOL    HW121179   0.159   4.173  15.634 -0.5865  1.3135 -1.9080
 3239SOL    HW221180   0.254   4.063  15.613 -0.2108  1.2353  2.8262
 3240SOL     OW21181   1.604   4.196  17.119  0.5018 -0.0211 -0.0822
 3240SOL    HW121182   1.622   4.198  17.214 -1.7870  2.2924  0.3115
 3240SOL    HW221183   1.642   4.279  17.089  1.9523 -0.7649 -0.3034
 3241SOL     OW21184   2.459   3.366  17.459  0.6151  0.0482 -0.6394
 3241SOL    HW121185   2.417   3.281  17.477 -1.7002  1.3920  0.3713
 3241SOL    HW221186   2.410   3.400  17.384 -1.1137  0.6984  0.7742
 3242SOL     OW21187   1.419   3.126   3.735  0.3886 -0.1032 -0.4376
 3242SOL    HW121188   1.451   3.052   3.787  1.3028  0.6003  0.0102
 3242SOL    HW221189   1.478   3.107   3.662  1.3183 -0.0559  0.3001
 3243SOL     OW21190   1.923   1.894   9.568  0.3509  0.2395 -0.0012
 3243SOL    HW121191   1.901   1.819   9.512  0.8447 -1.1663  1.6812
 3243SOL    HW221192   1.860   1.962   9.546 -0.7016 -0.5251  0.6042
 3244SOL     OW21193   1.225   4.371   3.563 -0.4015 -0.3075  0.7069
 3244SOL    HW121194   1.321   4.368   3.565 -0.4024 -2.3050 -2.9860
 3244SOL    HW221195   1.197   4.310   3.495 -0.4622  1.2817 -0.7103
 3245SOL     OW21196   3.537   2.218   7.936 -0.0548 -0.1598  0.0138
 3245SOL    HW121197   3.547   2.154   7.866 -0.5782 -0.5816  0.3176
 3245SOL    HW221198   3.621   2.263   7.946 -1.2111  1.7860  1.0837
 3246SOL     OW21199   2.220   0.355   7.522 -0.1976 -0.0024  0.0638
 3246SOL    HW121200   2.226   0.380   7.614  0.0858 -3.2650  0.9450
 3246SOL    HW221201   2.144   0.405   7.490  0.2272  0.3412 -0.4049
 3247SOL     OW21202   0.314   3.370   1.469  0.0378  0.1747  0.0891
 3247SOL    HW121203   0.346   3.460   1.480 -1.6840  1.2076 -3.1613
 3247SOL    HW221204   0.263   3.355   1.548 -3.0146  3.0018 -1.3400
 3248SOL     OW21205   3.241   2.925   8.291 -0.3828 -0.0951 -0.3304
 3248SOL    HW121206   3.217   2.832   8.287 -1.3749  0.0210  2.8499
 3248SOL    HW221207   3.324   2.905   8.248 -0.7186 -0.0882 -0.9767
 3249SOL     OW21208   2.618   0.032   3.381  0.1053  0.1524  0.3301
 3249SOL    HW121209   2.663   0.116   3.385 -0.5804  0.6270 -2.0174
 3249SOL    HW221210   2.623   0.029   3.285 -1.2683 -0.5117  0.2740
 3250SOL     OW21211   1.825   4.225   5.540 -0.0280  0.8607  0.3613
 3250SOL    HW121212   1.775   4.304   5.519 -0.2013  0.6306 -0.1039
 3250SOL    HW221213   1.869   4.206   5.457 -2.4478  1.2414 -1.0151
 3251SOL     OW21214   1.570   4.469   8.972 -0.2266  0.5719 -0.1609
 3251SOL    HW121215   1.653   4.422   8.986 -1.4059 -2.2382 -2.6474
 3251SOL    HW221216   1.578   4.464   8.877 -1.1749  1.6127 -0.2875
 3252SOL     OW21217   2.038   2.034  11.587 -0.2000 -0.8306 -0.0748
 3252SOL    HW121218   2.103   2.048  11.518 -1.6957 -0.2285 -1.3652
 3252SOL    HW221219   2.080   2.084  11.657 -2.7925  0.5379  0.5093
 3253SOL     OW21220   4.091   1.024   7.990 -0.1040 -0.1278  1.3962
 3253SOL    HW121221   4.068   0.940   8.030 -1.1532  0.5113  2.1450
 3253SOL    HW221222   4.019   1.024   7.927  0.3245 -1.0505  0.9056
 3254SOL     OW21223   4.000   0.865   8.201 -0.3206 -0.2646  0.0197
 3254SOL    HW121224   4.011   0.826   8.288 -1.2203 -1.2322 -0.2975
 3254SOL    HW221225   4.044   0.805   8.141 -0.2877  2.0704 -2.2875
 3255SOL     OW21226   0.597   2.288   7.449 -0.3605 -0.4609 -0.2216
 3255SOL    HW121227   0.530   2.351   7.423 -1.5172 -1.9358 -0.8523
 3255SOL    HW221228   0.608   2.298   7.543 -2.9123  0.1557  0.0156
 3256SOL     OW21229   4.243   4.318  17.260  0.0997  0.3031 -0.0979
 3256SOL    HW121230   4.161   4.354  17.228  0.2066  2.1232  1.7010
 3256SOL    HW221231   4.214   4.288  17.346 -0.5958 -0.5833 -0.6379
 3257SOL     OW21232   3.325   3.014   7.146 -0.0601  0.0594  0.1724
 3257SOL    HW121233   3.335   3.053   7.059  1.2894  0.4741  0.5237
 3257SOL    HW221234   3.329   2.922   7.120  0.4131  0.2185 -0.3053
 3258SOL     OW21235   4.230   3.149   0.257 -0.2469 -0.1960  0.0664
 3258SOL    HW121236   4.307   3.113   0.212 -2.8463 -4.0763 -1.3168
 3258SOL    HW221237   4.265   3.238   0.262 -0.9845  0.2136 -1.8211
 3259SOL     OW21238   4.481   2.241   8.773  0.2912 -0.0700 -0.4254
 3259SOL    HW121239   4.521   2.242   8.860 -2.6695  0.8880  0.9435
 3259SOL    HW221240   4.503   2.329   8.743 -1.3049  0.1793 -0.9151
 3260SOL     OW21241   0.163   2.673   9.890 -0.1834  0.1172  0.1464
 3260SOL    HW121242   0.140   2.720   9.970  1.1003  0.3189  0.3970
 3260SOL    HW221243   0.081   2.626   9.877  0.6146 -1.4816  0.9685
 3261SOL     OW21244   2.453   2.284  16.923 -0.6816 -0.5613  0.1848
 3261SOL    HW121245   2.415   2.212  16.873 -2.4511 -0.3450  1.2178
 3261SOL    HW221246   2.376   2.330  16.958 -0.0043 -0.4859  1.5818
 3262SOL     OW21247   3.401   4.216  15.763 -0.3557 -0.3897  0.6718
 3262SOL    HW121248   3.317   4.193  15.803 -0.6343  1.0842  0.9147
 3262SOL    HW221249   3.385   4.306  15.735  0.1576  0.1709  2.2355
 3263SOL     OW21250   1.798   4.231   3.968 -0.1999  0.2348  0.5249
 3263SOL    HW121251   1.759   4.144   3.974  0.4218 -0.0575  0.2786
 3263SOL    HW221252   1.876   4.218   4.022 -0.5886 -3.0928  0.2710
 3264SOL     OW21253   3.110   2.541   7.330  0.4782 -0.8602 -0.2329
 3264SOL    HW121254   3.165   2.589   7.393 -0.4934 -0.4708  0.3082
 3264SOL    HW221255   3.127   2.598   7.256  0.1505  0.2143  0.5230
 3265SOL     OW21256   3.766   0.219   6.761 -0.0097  0.5220 -0.3578
 3265SOL    HW121257   3.841   0.191   6.708 -0.4291  0.1762 -0.7624
 3265SOL    HW221258   3.759   0.314   6.747  0.9706  0.8573  1.4172
 3266SOL     OW21259   3.596   4.188   2.541 -0.5347  0.0201  0.0712
 3266SOL    HW121260   3.678   4.213   2.498 -0.8427 -0.9826 -1.1003
 3266SOL    HW221261   3.541   4.255   2.501 -0.1266 -0.4779 -1.3315
 3267SOL     OW21262   0.768   3.994   7.053  0.4819  1.0759  0.2163
 3267SOL    HW121263   0.816   3.926   7.101  0.0560  0.5660 -0.0866
 3267SOL    HW221264   0.719   3.938   6.994 -1.2019  0.2475  2.3932
 3268SOL     OW21265   0.337   3.129  16.362 -0.1249  0.0005  0.3723
 3268SOL    HW121266   0.381   3.213  16.353  0.5984 -0.1491  2.5741
 3268SOL    HW221267   0.351   3.092  16.275  0.9397  0.6251  0.2803
 3269SOL     OW21268   4.677   2.609   6.797 -0.3144  0.2184  0.2712
 3269SOL    HW121269   0.040   2.578   6.768 -0.0388  0.6209  0.6626
 3269SOL    HW221270   4.699   2.627   6.889 -0.5172 -0.0509  0.3721
 3270SOL     OW21271   0.198   3.666  14.601  0.4820  0.0651  0.2976
 3270SOL    HW121272   0.130   3.601  14.583  0.2696  0.7116 -1.2289
 3270SOL    HW221273   0.282   3.624  14.580  0.6540  1.0820 -1.0189
 3271SOL     OW21274   0.077   2.846  10.120  0.3703 -0.5080  0.0738
 3271SOL    HW121275   0.151   2.893  10.082 -0.1528  0.7295  0.5676
 3271SOL    HW221276   0.003   2.903  10.142 -0.9828 -2.1557 -0.2875
 3272SOL     OW21277   4.488   1.032   0.083 -0.0919 -0.2320  0.1691
 3272SOL    HW121278   4.574   0.994   0.100  0.5165  0.6178 -1.0024
 3272SOL    HW221279   4.438   1.002   0.159 -0.8839  0.8583  0.0804
 3273SOL     OW21280   3.899   0.839   7.200  0.1665  0.0782  0.8434
 3273SOL    HW121281   3.890   0.786   7.121 -0.7681  1.5608 -0.0203
 3273SOL    HW221282   3.807   0.862   7.199  0.9760  3.1973 -0.8523
 3274SOL     OW21283   0.809   0.919  14.282 -0.0655  0.1883 -0.2924
 3274SOL    HW121284   0.738   0.877  14.233 -1.8009  2.8515 -0.0631
 3274SOL    HW221285   0.887   0.891  14.233 -0.3924  1.2835 -1.4491
 3275SOL     OW21286   4.057   3.338   7.899  0.0179 -0.4607 -0.2053
 3275SOL    HW121287   3.998   3.270   7.929  1.5833 -1.7603 -0.0525
 3275SOL    HW221288   4.013   3.382   7.827  2.4056  1.6089 -0.4243
 3276SOL     OW21289   1.004   4.114   9.550 -0.1116 -0.8689  0.4881
 3276SOL    HW121290   1.089   4.093   9.511  0.8987  4.8417 -0.3613
 3276SOL    HW221291   0.964   4.173   9.486 -0.6314  0.5079  2.0754
 3277SOL     OW21292   3.474   4.439   2.025 -1.2188  0.5368 -0.0141
 3277SOL    HW121293   3.516   4.353   2.030  4.2718  3.2023  0.1879
 3277SOL    HW221294   3.502   4.490   2.101 -1.3304  0.9804 -0.2780
 3278SOL     OW21295   0.749   1.750   7.167  0.2803 -0.6682 -0.6263
 3278SOL    HW121296   0.822   1.723   7.223 -1.3162  0.8897  2.1925
 3278SOL    HW221297   0.791   1.784   7.088 -0.2517 -0.4103 -0.7981
 3279SOL     OW21298   0.101   2.501   2.730  0.0508 -0.1003 -0.0876
 3279SOL    HW121299   0.011   2.519   2.702  0.4426  1.4663 -0.2961
 3279SOL    HW221300   0.112   2.569   2.797  2.0445  0.4105 -0.9352
 3280SOL     OW21301   0.817   1.454   6.964  0.2459 -0.7143 -0.2390
 3280SOL    HW121302   0.818   1.402   7.044  1.1354 -1.6968 -0.8959
 3280SOL    HW221303   0.888   1.515   6.984  0.4859 -0.8033 -0.8106
 3281SOL     OW21304   4.213   0.978  11.116  0.1516 -0.5190  0.0136
 3281SOL    HW121305   4.141   1.039  11.102 -0.2918 -1.1317 -0.4037
 3281SOL    HW221306   4.180   0.901  11.070  0.8340  0.7420 -2.6341
 3282SOL     OW21307   1.827   3.353  15.557 -0.2905 -0.4359  0.1813
 3282SOL    HW121308   1.807   3.368  15.465  0.2919  0.0569  0.1287
 3282SOL    HW221309   1.842   3.446  15.574  0.9044 -0.4158 -0.9950
 3283SOL     OW21310   1.485   3.275  13.038  0.2286  0.1249  0.0303
 3283SOL    HW121311   1.541   3.198  13.039 -0.5230 -0.4102  0.8842
 3283SOL    HW221312   1.547   3.331  13.086 -1.3199  0.2816  1.8816
 3284SOL     OW21313   1.166   0.723  12.549 -0.1588  0.6996 -0.1350
 3284SOL    HW121314   1.161   0.679  12.634  0.1855  0.7778 -0.0763
 3284SOL    HW221315   1.130   0.651  12.497  0.0319  0.5502 -0.0590
 3285SOL     OW21316   4.174   4.252  11.686 -0.0180 -0.1433 -0.5302
 3285SOL    HW121317   4.176   4.334  11.636  0.0224 -1.2880 -2.4108
 3285SOL    HW221318   4.234   4.275  11.757  0.2018  0.6518 -0.9683
 3286SOL     OW21319   4.386   3.647   4.583  0.0207  0.4196 -0.6508
 3286SOL    HW121320   4.306   3.675   4.625  0.1495 -0.6264  0.2986
 3286SOL    HW221321   4.372   3.683   4.496 -2.1158  0.4406 -0.2858
 3287SOL     OW21322   0.007   0.603   8.005 -0.2279 -0.1403 -0.6367
 3287SOL    HW121323   4.660   0.666   7.986  0.6124  1.1731  0.6586
 3287SOL    HW221324   0.054   0.658   8.067  1.7715 -1.3619 -1.0522
 3288SOL     OW21325   3.931   0.496   2.828 -0.1760  0.2019  0.0141
 3288SOL    HW121326   3.870   0.520   2.758 -1.0865 -0.1310  0.6920
 3288SOL    HW221327   3.947   0.589   2.847  1.7537 -0.5073  1.8232
 3289SOL     OW21328   3.162   1.099  12.542 -0.0548 -0.8385 -0.3167
 3289SOL    HW121329   3.092   1.123  12.604  1.0400 -0.5366  0.7936
 3289SOL    HW221330   3.118   1.024  12.502  1.0784 -0.8501 -1.5151
 3290SOL     OW21331   0.786   3.640   9.817 -0.7139  0.0704 -0.1903
 3290SOL    HW121332   0.780   3.723   9.864 -0.5582  0.3526 -0.6745
 3290SOL    HW221333   0.880   3.627   9.832 -1.1563 -0.6327  2.0425
 3291SOL     OW21334   0.356   4.706   3.324  0.7235  0.1224  0.2103
 3291SOL    HW121335   0.325   0.023   3.243  0.7467 -0.0359  0.1224
 3291SOL    HW221336   0.276   4.695   3.376  0.4551  0.0094 -0.2277
 3292SOL     OW21337   1.824   4.101  15.554  0.2502 -0.1952 -0.0407
 3292SOL    HW121338   1.821   4.045  15.477 -0.7914 -2.1697  1.4115
 3292SOL    HW221339   1.733   4.117  15.580 -0.0085 -0.1589 -0.9702
 3293SOL     OW21340   4.350   1.549  15.926 -0.2748  0.1519  0.4206
 3293SOL    HW121341   4.395   1.511  15.850 -0.6943 -0.2362  0.3700
 3293SOL    HW221342   4.421   1.548  15.990 -2.2962 -4.1445  2.5874
 3294SOL     OW21343   2.343   0.442   5.869  0.2632  0.2958 -0.4803
 3294SOL    HW121344   2.395   0.517   5.899 -0.5378  0.9260 -0.6585
 3294SOL    HW221345   2.366   0.451   5.777  1.6086 -0.2159 -0.2059
 3295SOL     OW21346   4.163   2.927  14.487 -0.8271 -0.1611  0.4008
 3295SOL    HW121347   4.250   2.965  14.473 -0.1509 -2.0156 -0.4213
 3295SOL    HW221348   4.149   2.893  14.399 -1.8118 -0.3160  0.6222
 3296SOL     OW21349   3.828   1.105   9.196 -0.4242  0.4069  0.0670
 3296SOL    HW121350   3.838   1.049   9.273 -0.7774 -1.0757 -0.9677
 3296SOL    HW221351   3.861   1.184   9.238  1.8346 -0.6467  0.2462
 3297SOL     OW21352   2.584   2.672   5.117 -0.0403  0.1682  0.6099
 3297SOL    HW121353   2.519   2.601   5.108 -1.8044  1.8056  0.4276
 3297SOL    HW221354   2.548   2.718   5.041  2.6210 -1.9433 -1.9125
 3298SOL     OW21355   2.504   0.639   3.571  0.5272 -0.8766  0.0665
 3298SOL    HW121356   2.416   0.602   3.576  0.4760 -1.0630 -1.9187
 3298SOL    HW221357   2.482   0.731   3.580 -3.6932 -2.2261  3.1404
 3299SOL     OW21358   0.167   3.882   6.639 -0.1087  0.6456 -0.4978
 3299SOL    HW121359   0.137   3.936   6.565 -1.5101  0.9357  0.2839
 3299SOL    HW221360   0.081   3.887   6.680 -1.1584  3.5223 -3.0046
 3300SOL     OW21361   1.345   0.386   1.870 -0.8566  0.1681 -0.1957
 3300SOL    HW121362   1.408   0.337   1.924 -0.4250 -1.7839 -2.4882
 3300SOL    HW221363   1.279   0.393   1.940 -0.2051  0.0417  0.4310
 3301SOL     OW21364   1.625   4.718  13.483 -0.1941  0.3422 -0.1051
 3301SOL    HW121365   1.683   0.000  13.558 -0.2749 -1.2029  0.0574
 3301SOL    HW221366   1.673   0.051  13.422 -0.5930  1.1654  0.3365
 3302SOL     OW21367   1.370   2.281   8.003  0.3354 -0.5317  0.0451
 3302SOL    HW121368   1.282   2.313   8.025 -0.3677 -1.7385 -1.0368
 3302SOL    HW221369   1.404   2.347   7.943  1.0663  0.4180  1.5009
 3303SOL     OW21370   4.389   1.310   0.732  0.0275  0.8009  0.5525
 3303SOL    HW121371   4.307   1.262   0.736  1.4934 -1.8244 -1.2996
 3303SOL    HW221372   4.430   1.289   0.816 -1.0525  1.2764  1.1964
 3304SOL     OW21373   4.327   4.243   4.379 -0.1426  0.5303  0.3697
 3304SOL    HW121374   4.274   4.178   4.425  0.5753  2.2712  3.6620
 3304SOL    HW221375   4.308   4.226   4.287 -0.3725  1.1853  0.3000
 3305SOL     OW21376   2.847   3.514   7.760  0.0532 -0.4973  0.5126
 3305SOL    HW121377   2.886   3.444   7.813  0.2100 -1.1348 -0.4474
 3305SOL    HW221378   2.915   3.537   7.696 -2.2870  2.1390 -1.0308
 3306SOL     OW21379   2.242   0.935   9.438 -0.2757  0.1311  0.0203
 3306SOL    HW121380   2.225   0.866   9.374  3.4027  2.4310 -3.4312
 3306SOL    HW221381   2.288   0.886   9.506 -0.2025  0.8748  0.5094
 3307SOL     OW21382   0.078   0.099   9.605  0.1172 -0.4436  0.3635
 3307SOL    HW121383   0.056   0.040   9.533  1.3414  1.1089 -1.2992
 3307SOL    HW221384   0.138   0.041   9.652 -0.6681 -0.3980  1.4225
 3308SOL     OW21385   2.772   0.319   8.588 -0.4750  0.4452 -0.3728
 3308SOL    HW121386   2.724   0.242   8.620 -0.0984  0.0724 -0.7207
 3308SOL    HW221387   2.825   0.275   8.522 -1.5266 -0.8255 -0.3602
 3309SOL     OW21388   2.668   0.301   8.252 -0.3217 -0.8235  0.2751
 3309SOL    HW121389   2.729   0.252   8.306 -0.8710 -0.4416  1.2338
 3309SOL    HW221390   2.588   0.272   8.296 -0.7186 -0.6887 -0.3469
 3310SOL     OW21391   0.482   3.250   4.112  0.1075 -0.0981  0.3214
 3310SOL    HW121392   0.446   3.331   4.073  0.2656 -0.0851  0.2039
 3310SOL    HW221393   0.405   3.210   4.152 -1.1592  0.3135 -1.6657
 3311SOL     OW21394   2.537   3.314   8.460 -0.0929  0.0523  0.1022
 3311SOL    HW121395   2.629   3.290   8.454 -0.6045 -2.3686  2.1930
 3311SOL    HW221396   2.505   3.251   8.524  0.0400  0.7801  0.8812
 3312SOL     OW21397   3.946   1.195   0.574 -0.3069  0.1883 -0.0679
 3312SOL    HW121398   3.857   1.226   0.556  0.6512  2.7598 -0.3513
 3312SOL    HW221399   3.943   1.100   0.558  3.2825  0.6922 -3.6659
 3313SOL     OW21400   2.387   4.428   7.712 -0.8042 -0.2687  0.0568
 3313SOL    HW121401   2.452   4.364   7.742  0.5405  0.8823 -0.4257
 3313SOL    HW221402   2.299   4.390   7.719 -0.4913 -1.1223 -0.6209
 3314SOL     OW21403   2.636   2.933   7.369  0.6191  0.4877 -0.0979
 3314SOL    HW121404   2.658   2.920   7.277  0.4972  0.7368 -0.1614
 3314SOL    HW221405   2.633   3.029   7.371  2.5858  0.5638  0.0805
 3315SOL     OW21406   4.173   2.923  14.193  0.0717  0.0833 -0.6827
 3315SOL    HW121407   4.171   3.019  14.186 -0.0435  0.1665  0.5654
 3315SOL    HW221408   4.165   2.894  14.102  0.9908  2.3245 -1.4852
 3316SOL     OW21409   0.629   0.712   2.170  0.1703  0.6419  0.2206
 3316SOL    HW121410   0.652   0.704   2.078 -1.7783  0.3213 -0.2327
 3316SOL    HW221411   0.652   0.622   2.194 -2.9026 -0.2391 -0.1604
 3317SOL     OW21412   4.321   1.703   7.967  0.5157  0.0637 -0.5299
 3317SOL    HW121413   4.270   1.625   7.943 -0.1087  0.1570  0.4942
 3317SOL    HW221414   4.304   1.760   7.892 -1.3501 -0.0775 -0.2087
 3318SOL     OW21415   1.935   3.853   2.444  0.0773  0.0192 -0.0025
 3318SOL    HW121416   1.920   3.844   2.350 -0.0853 -4.0046  0.4278
 3318SOL    HW221417   2.028   3.831   2.447  0.5372  1.8374 -0.4139
 3319SOL     OW21418   3.152   0.664   5.604  0.4925  0.4262 -0.0104
 3319SOL    HW121419   3.168   0.571   5.622 -1.4126 -0.0086 -0.4886
 3319SOL    HW221420   3.124   0.659   5.513 -1.1187 -1.7037  0.5856
 3320SOL     OW21421   1.631   1.714   6.570  0.2415  0.0830 -0.0601
 3320SOL    HW121422   1.536   1.704   6.564  0.2480 -0.3904  0.6096
 3320SOL    HW221423   1.644   1.648   6.638 -3.5936 -2.8354 -2.1676
 3321SOL     OW21424   3.566   2.183   6.068  0.6148 -0.1822  0.3585
 3321SOL    HW121425   3.540   2.126   5.995 -1.9806  0.1727  0.9861
 3321SOL    HW221426   3.548   2.270   6.032  2.1633  0.5460  1.3631
 3322SOL     OW21427   0.002   3.125  16.958 -0.3378  0.7764  0.1910
 3322SOL    HW121428   4.717   3.086  17.045 -1.6706 -3.8780 -1.9633
 3322SOL    HW221429   0.086   3.169  16.960  0.5281 -0.9876  3.0344
 3323SOL     OW21430   0.963   1.588   3.308 -0.2955 -0.0354 -0.2685
 3323SOL    HW121431   0.967   1.609   3.214 -1.5650 -0.2155 -0.3603
 3323SOL    HW221432   0.889   1.528   3.315 -1.6056  1.8153  1.6282
 3324SOL     OW21433   1.604   4.632   4.269 -0.0090 -0.0577 -0.1208
 3324SOL    HW121434   1.608   4.546   4.228  0.8080 -0.5631  1.0388
 3324SOL    HW221435   1.535   4.619   4.334  0.0208  0.6953  0.0647
 3325SOL     OW21436   2.176   1.108   9.729 -0.1259  0.1549  0.3803
 3325SOL    HW121437   2.239   1.035   9.730 -0.0159  0.2528  1.0289
 3325SOL    HW221438   2.209   1.172   9.667  1.8842  1.0158  2.3149
 3326SOL     OW21439   1.125   1.829   6.481  0.6755  0.1967 -0.2711
 3326SOL    HW121440   1.133   1.860   6.571 -1.5965 -0.5299  0.1729
 3326SOL    HW221441   1.069   1.896   6.440 -3.0699 -2.3041  0.7878
 3327SOL     OW21442   0.988   1.554   9.440  0.3717 -0.1388 -0.5170
 3327SOL    HW121443   0.960   1.476   9.489 -2.2047 -0.7201 -2.9065
 3327SOL    HW221444   1.064   1.589   9.486 -0.1998  0.5894 -0.1151
 3328SOL     OW21445   0.669   3.780   4.448 -0.0553 -0.4838  0.5953
 3328SOL    HW121446   0.731   3.791   4.520  0.7476  0.6700 -0.2688
 3328SOL    HW221447   0.589   3.828   4.465  0.8704  1.3337 -0.1871
 3329SOL     OW21448   1.815   0.915   3.116  0.0593 -0.1722 -0.0042
 3329SOL    HW121449   1.725   0.948   3.126 -0.3102 -1.9667  2.6116
 3329SOL    HW221450   1.853   0.945   3.199  1.4254 -3.6991  0.6488
 3330SOL     OW21451   0.312   0.661   4.147  0.5803 -0.0301 -0.0616
 3330SOL    HW121452   0.391   0.693   4.190  0.6810 -1.3610  0.7541
 3330SOL    HW221453   0.334   0.681   4.056 -0.8954 -0.1508 -0.4452
 3331SOL     OW21454   0.117   0.386   8.238  0.7990  0.4332 -0.5546
 3331SOL    HW121455   0.068   0.465   8.259 -0.0354 -0.0583 -0.6769
 3331SOL    HW221456   0.061   0.321   8.280  2.1376 -1.3244 -1.5157
 3332SOL     OW21457   2.758   4.547   3.937 -0.0952 -0.1121  0.7891
 3332SOL    HW121458   2.710   4.467   3.915  0.0307 -0.3112  1.2469
 3332SOL    HW221459   2.823   4.521   4.002  0.2870 -1.4851 -0.1584
 3333SOL     OW21460   2.790   2.763   6.553 -0.2872  0.4516 -0.2156
 3333SOL    HW121461   2.830   2.699   6.612  0.6875  0.7052 -0.5984
 3333SOL    HW221462   2.707   2.771   6.598 -0.5253  0.6716 -0.6970
 3334SOL     OW21463   4.556   3.108   8.555 -0.0169 -0.5009 -0.0116
 3334SOL    HW121464   4.553   3.124   8.461 -0.0695  3.0549  0.6115
 3334SOL    HW221465   4.622   3.039   8.559  0.2848 -0.2207 -0.1555
 3335SOL     OW21466   3.381   2.623  15.821 -0.2410 -0.5739 -0.3877
 3335SOL    HW121467   3.387   2.683  15.895 -1.4850 -0.0438 -0.7102
 3335SOL    HW221468   3.463   2.635  15.774 -0.5654 -1.3744 -1.1730
 3336SOL     OW21469   0.266   0.357   8.669 -1.3046 -0.5012 -0.4052
 3336SOL    HW121470   0.225   0.277   8.701  1.0459 -0.7563  2.0106
 3336SOL    HW221471   0.251   0.412   8.745 -0.8643  0.9637 -1.3797
 3337SOL     OW21472   0.578   0.010  10.934  0.0978  0.0008  0.0388
 3337SOL    HW121473   0.674   0.016  10.929  0.0104 -0.5706 -2.6923
 3337SOL    HW221474   0.548   0.076  10.872  0.1525 -0.3934 -0.4073
 3338SOL     OW21475   2.728   4.550   2.332 -0.2981 -0.5618  0.1598
 3338SOL    HW121476   2.640   4.517   2.353 -1.3170  2.2065  0.3663
 3338SOL    HW221477   2.748   4.592   2.416  1.6992 -1.1989 -0.0120
 3339SOL     OW21478   1.455   2.573   4.698  0.4375  0.5038 -0.1031
 3339SOL    HW121479   1.396   2.518   4.646  0.8216 -2.2195  2.3910
 3339SOL    HW221480   1.432   2.540   4.785 -1.1072 -0.7065 -0.9606
 3340SOL     OW21481   0.752   4.135   1.537  0.2857  0.8131  0.4957
 3340SOL    HW121482   0.743   4.186   1.618  1.6227 -2.3954  2.6981
 3340SOL    HW221483   0.657   4.142   1.528  0.2338  0.5575  0.8210
 3341SOL     OW21484   0.484   3.181   2.911  0.1586 -0.2458  0.2091
 3341SOL    HW121485   0.433   3.172   2.831 -0.7997  2.6602  0.5107
 3341SOL    HW221486   0.457   3.100   2.956  0.1529 -0.6753 -0.5651
 3342SOL     OW21487   1.955   2.840   3.969 -0.2193 -0.0872 -0.1273
 3342SOL    HW121488   2.001   2.773   3.918  0.1470 -1.1492  1.6146
 3342SOL    HW221489   1.867   2.820   3.936 -0.1586  0.6197 -0.7276
 3343SOL     OW21490   3.877   1.475  15.245  0.1653  0.0659 -0.3290
 3343SOL    HW121491   3.910   1.389  15.270 -0.0558 -0.1604 -0.8098
 3343SOL    HW221492   3.845   1.518  15.325 -1.4169 -0.6696 -0.5488
 3344SOL     OW21493   1.443   3.675  11.727  0.4637 -0.0029  0.3409
 3344SOL    HW121494   1.360   3.628  11.736  1.6832 -2.2671 -0.3628
 3344SOL    HW221495   1.483   3.649  11.810 -1.0414 -1.7806  0.4981
 3345SOL     OW21496   2.119   1.370   2.009 -0.1616 -0.3400  0.2227
 3345SOL    HW121497   2.033   1.368   1.967  0.2591  0.2377 -0.6686
 3345SOL    HW221498   2.082   1.352   2.096  1.1953 -0.8988  0.6743
 3346SOL     OW21499   2.164   3.035   4.286 -0.3191 -0.8010  0.1436
 3346SOL    HW121500   2.242   3.037   4.229 -1.1176 -0.6890 -0.9533
 3346SOL    HW221501   2.139   2.943   4.293  0.7111 -1.1140 -0.2459
 3347SOL     OW21502   1.736   4.015  16.958 -0.8316 -0.0349 -0.0436
 3347SOL    HW121503   1.705   3.946  17.017  0.2789 -1.4663 -1.1446
 3347SOL    HW221504   1.719   4.087  17.020 -2.3675 -1.1528  0.8347
 3348SOL     OW21505   4.132   0.523   5.918  0.6507 -0.5345  0.3046
 3348SOL    HW121506   4.081   0.575   5.980  0.2049  0.3705 -0.8294
 3348SOL    HW221507   4.220   0.561   5.924 -0.1142  1.5789 -1.6040
 3349SOL     OW21508   2.816   0.322   9.338  0.2143 -0.5538  0.5985
 3349SOL    HW121509   2.862   0.251   9.383 -0.1465 -1.9071 -1.1545
 3349SOL    HW221510   2.733   0.320   9.386  0.0824 -0.6085  0.3724
 3350SOL     OW21511   1.382   1.564   2.836 -0.3758 -0.0405 -0.0329
 3350SOL    HW121512   1.360   1.527   2.751 -1.5107  2.4474 -0.8171
 3350SOL    HW221513   1.403   1.653   2.809  0.9276 -0.0856  0.7900
 3351SOL     OW21514   1.457   3.676   1.081  0.1673 -0.8003 -0.7817
 3351SOL    HW121515   1.429   3.584   1.088  0.7828 -0.9412 -0.1897
 3351SOL    HW221516   1.428   3.692   0.991 -1.2932 -1.4907 -0.4350
 3352SOL     OW21517   1.242   4.243   4.257 -0.0941 -0.0720 -0.8810
 3352SOL    HW121518   1.261   4.290   4.338  1.3422 -0.7086 -0.8580
 3352SOL    HW221519   1.319   4.267   4.206  0.8616  0.9056  1.0524
 3353SOL     OW21520   3.565   4.643   7.469 -0.0841  0.0962  0.1216
 3353SOL    HW121521   3.491   4.602   7.514  0.2547  0.4549  1.0182
 3353SOL    HW221522   3.534   0.011   7.471 -0.7890 -0.1161 -1.7155
 3354SOL     OW21523   0.574   3.182   3.256 -0.0012 -0.0330 -0.2279
 3354SOL    HW121524   0.511   3.207   3.188 -0.6043  2.3783  1.2203
 3354SOL    HW221525   0.522   3.181   3.336  0.8828 -0.4833  0.3408
 3355SOL     OW21526   0.826   2.813   4.754 -0.2429 -0.0347 -0.6405
 3355SOL    HW121527   0.848   2.903   4.727  1.4703 -0.4825 -0.7602
 3355SOL    HW221528   0.808   2.829   4.846  1.6729 -0.2967 -0.2184
 3356SOL     OW21529   4.555   1.417   5.469 -0.3529  0.2628 -0.2914
 3356SOL    HW121530   4.497   1.439   5.397 -2.2444 -2.9134  0.2591
 3356SOL    HW221531   4.540   1.490   5.529  2.4620  2.1678 -1.9430
 3357SOL     OW21532   3.495   4.451   2.946  0.1237  0.1158 -0.1851
 3357SOL    HW121533   3.569   4.472   2.891 -0.6020 -0.6903 -1.4625
 3357SOL    HW221534   3.418   4.470   2.893  0.5544  1.4838 -0.3051
 3358SOL     OW21535   1.035   2.190   6.684 -0.1465 -0.3202 -0.2807
 3358SOL    HW121536   1.063   2.189   6.592 -0.7171 -1.5582 -0.4455
 3358SOL    HW221537   1.057   2.104   6.719 -1.4164 -1.2104 -1.6682
 3359SOL     OW21538   4.047   4.411  14.743 -0.7734 -1.0667 -0.2436
 3359SOL    HW121539   3.966   4.396  14.695 -1.0271 -1.0838  0.1909
 3359SOL    HW221540   4.074   4.490  14.697  1.6134 -1.8287 -0.2011
 3360SOL     OW21541   3.335   2.588  14.493 -0.5993 -0.3628  0.3861
 3360SOL    HW121542   3.240   2.590  14.478 -0.2107  0.1177 -2.0382
 3360SOL    HW221543   3.343   2.615  14.584  0.6034 -0.5164  0.3255
 3361SOL     OW21544   0.984   2.914   3.392 -0.3519 -0.4337 -0.1731
 3361SOL    HW121545   0.896   2.945   3.412  0.1718  1.7688 -1.2484
 3361SOL    HW221546   1.039   2.935   3.467 -0.1500  2.9680 -1.2883
 3362SOL     OW21547   2.641   0.694   0.921 -0.3604 -0.3455 -0.2804
 3362SOL    HW121548   2.571   0.655   0.973  0.1340  1.8440  1.9973
 3362SOL    HW221549   2.603   0.780   0.899 -3.4023 -1.6406 -0.0954
 3363SOL     OW21550   3.950   2.305   5.872  0.4151 -0.2288  0.3000
 3363SOL    HW121551   3.947   2.309   5.777  0.5984 -0.1044  0.2987
 3363SOL    HW221552   3.899   2.381   5.900 -2.4563 -2.6496  1.7210
 3364SOL     OW21553   4.182   2.769   4.107 -0.5342 -0.1520  0.4261
 3364SOL    HW121554   4.196   2.688   4.057 -1.1843  0.3962 -0.6415
 3364SOL    HW221555   4.254   2.827   4.083 -0.2914 -1.0137 -0.9259
 3365SOL     OW21556   3.325   1.825   1.792 -0.2597 -0.9966  0.2576
 3365SOL    HW121557   3.380   1.804   1.716 -0.7983  0.8080 -0.6206
 3365SOL    HW221558   3.297   1.912   1.765 -0.8006 -1.3107 -0.2059
 3366SOL     OW21559   0.168   3.308   0.056 -0.3630  0.2060  0.4935
 3366SOL    HW121560   0.170   3.402   0.069 -2.0095  0.4345 -0.9250
 3366SOL    HW221561   0.077   3.293   0.029  0.6355 -3.0649 -1.1127
 3367SOL     OW21562   3.666   1.996   8.799  0.1156 -0.5063  0.1785
 3367SOL    HW121563   3.708   1.957   8.876  0.2148 -0.3040  0.2281
 3367SOL    HW221564   3.705   2.083   8.805 -2.2089  0.4443  1.2368
 3368SOL     OW21565   2.649   0.743   9.427  0.1547 -0.6025 -0.7891
 3368SOL    HW121566   2.691   0.829   9.428  2.4252 -1.7277 -1.1394
 3368SOL    HW221567   2.708   0.690   9.480  1.4000 -0.5264 -2.0983
 3369SOL     OW21568   4.133   4.096  12.061 -0.0902  0.7782  0.1020
 3369SOL    HW121569   4.213   4.141  12.033  1.3771 -1.4656  0.6807
 3369SOL    HW221570   4.074   4.170  12.053 -0.6000  0.3460 -0.1165
 3370SOL     OW21571   1.623   2.751   0.272 -0.2725  0.0699 -0.2820
 3370SOL    HW121572   1.601   2.681   0.333 -0.9992  1.9553  1.6292
 3370SOL    HW221573   1.644   2.823   0.331  0.6291  0.1441 -0.6885
 3371SOL     OW21574   3.798   1.916   1.053 -0.2560  0.3408  0.1394
 3371SOL    HW121575   3.771   1.832   1.090  1.2433 -0.6163 -0.9571
 3371SOL    HW221576   3.723   1.933   0.995  0.5572  2.0863 -0.4067
 3372SOL     OW21577   0.954   2.616   2.605 -0.1814  0.0096  0.0317
 3372SOL    HW121578   0.984   2.624   2.696 -1.7393 -2.2606  0.7605
 3372SOL    HW221579   1.010   2.552   2.561  0.0562 -0.3770  0.9031
 3373SOL     OW21580   0.825   1.349  15.105  0.0674  0.0031 -0.0623
 3373SOL    HW121581   0.907   1.300  15.103  1.3774  2.2683 -1.4959
 3373SOL    HW221582   0.797   1.345  15.014 -1.7209 -0.3732  0.4979
 3374SOL     OW21583   1.580   1.003   0.027 -0.2523  0.4847  0.0741
 3374SOL    HW121584   1.655   0.954  17.687  0.5255 -0.1912  2.8857
 3374SOL    HW221585   1.615   1.092   0.017 -0.1825  0.4691  0.1757
 3375SOL     OW21586   4.188   0.333  11.534  0.5186  0.2992 -0.4629
 3375SOL    HW121587   4.143   0.256  11.569 -0.5584  2.1524  2.2788
 3375SOL    HW221588   4.116   0.368  11.480  0.1978 -0.4466 -0.5108
 3376SOL     OW21589   4.707   0.203   8.383 -0.2329  0.0389 -0.2123
 3376SOL    HW121590   4.647   0.249   8.442 -0.8702 -0.5127 -0.4279
 3376SOL    HW221591   4.659   0.124   8.358 -0.5955  0.1611  0.1019
 3377SOL     OW21592   3.478   2.445  17.207 -0.4469  0.5172  0.8714
 3377SOL    HW121593   3.495   2.350  17.211  0.3595  0.6238 -0.0110
 3377SOL    HW221594   3.511   2.474  17.292  1.3402  1.7107 -0.2259
 3378SOL     OW21595   0.464   0.690   6.191  0.5753 -0.5478  0.4674
 3378SOL    HW121596   0.517   0.769   6.198 -0.8091  0.6293 -2.2761
 3378SOL    HW221597   0.520   0.628   6.144  0.2702  1.0242 -1.9598
 3379SOL     OW21598   0.313   1.751   2.987 -0.7594 -0.3371  0.5002
 3379SOL    HW121599   0.361   1.673   2.960  0.6231  1.2292 -1.5472
 3379SOL    HW221600   0.305   1.729   3.080 -1.2810  0.9304  0.7593
 3380SOL     OW21601   1.191   3.174   5.354 -0.0675 -0.1826 -0.1172
 3380SOL    HW121602   1.214   3.264   5.378  1.0467 -0.6885  0.7255
 3380SOL    HW221603   1.172   3.186   5.261  0.6119  3.6472  0.2447
 3381SOL     OW21604   1.647   0.707   6.316 -0.4135  1.1268 -0.3062
 3381SOL    HW121605   1.563   0.706   6.362 -0.0182 -1.0060  0.4012
 3381SOL    HW221606   1.629   0.694   6.223  0.4147  0.3647 -0.3641
 3382SOL     OW21607   0.269   4.505   1.315  0.2566 -0.8209  0.1215
 3382SOL    HW121608   0.299   4.488   1.404  2.2051  1.8665 -0.0038
 3382SOL    HW221609   0.342   4.557   1.281 -0.7878 -0.0383 -0.9084
 3383SOL     OW21610   4.160   3.017   4.473  0.1711 -0.7795 -0.0756
 3383SOL    HW121611   4.198   2.930   4.460  0.1222 -0.6188 -1.2961
 3383SOL    HW221612   4.180   3.027   4.566 -1.7021  1.3810  0.0971
 3384SOL     OW21613   0.379   0.911   7.744  0.4463 -0.1770  0.2756
 3384SOL    HW121614   0.359   0.909   7.650 -0.9032  0.9086  0.5347
 3384SOL    HW221615   0.335   0.992   7.770 -0.9007 -0.3337 -1.4632
 3385SOL     OW21616   0.015   3.643   4.374 -0.3490  0.1664  0.0980
 3385SOL    HW121617   0.084   3.597   4.327  0.5383  0.1869  1.3696
 3385SOL    HW221618   4.722   3.711   4.309  1.1890 -1.3801 -1.8954
 3386SOL     OW21619   0.681   0.999   1.248  0.1294 -0.0550 -0.6273
 3386SOL    HW121620   0.719   1.016   1.335  0.6699 -0.4390 -0.7824
 3386SOL    HW221621   0.746   1.047   1.196 -0.5352  0.7830 -0.6738
 3387SOL     OW21622   4.344   1.830  12.195 -0.0374  0.2668  0.1260
 3387SOL    HW121623   4.399   1.761  12.157 -1.4732 -0.6517 -0.2995
 3387SOL    HW221624   4.402   1.906  12.195  1.0139 -0.5107  2.9058
 3388SOL     OW21625   2.578   1.430  15.528  0.2236 -0.6366 -0.1462
 3388SOL    HW121626   2.562   1.424  15.623 -2.4424  0.6483 -0.4966
 3388SOL    HW221627   2.615   1.517  15.518 -0.0678 -0.4493  0.3876
 3389SOL     OW21628   2.785   3.726   2.845 -0.2798 -0.0779  0.1644
 3389SOL    HW121629   2.788   3.764   2.933 -1.6079 -0.5364  0.3985
 3389SOL    HW221630   2.814   3.635   2.850 -2.8535 -0.9086 -0.0375
 3390SOL     OW21631   0.432   4.413   2.575  0.2589 -0.0771 -0.2204
 3390SOL    HW121632   0.405   4.490   2.624 -1.9455 -0.6811 -0.5084
 3390SOL    HW221633   0.527   4.408   2.590  0.1173 -2.9693 -0.3245
 3391SOL     OW21634   1.298   4.074   3.844  0.0864 -0.1985 -0.0592
 3391SOL    HW121635   1.251   4.147   3.884  0.7162 -0.1176  0.5071
 3391SOL    HW221636   1.377   4.112   3.805  0.9396  0.5325  2.4283
 3392SOL     OW21637   0.738   1.970  10.138 -0.1788  0.5156 -0.2081
 3392SOL    HW121638   0.772   1.939  10.222 -0.1869  0.8403 -0.0860
 3392SOL    HW221639   0.768   2.061  10.137  2.1212 -0.2268  0.7279
 3393SOL     OW21640   2.944   2.218  11.936 -0.1243 -0.2956  0.6963
 3393SOL    HW121641   2.850   2.207  11.944 -0.4290  2.5071  1.0704
 3393SOL    HW221642   2.978   2.167  12.009 -0.5326 -0.1429  0.9937
 3394SOL     OW21643   1.673   3.953   3.010 -0.5719  0.1071  0.1190
 3394SOL    HW121644   1.752   3.933   3.060 -1.1048 -1.0385  0.5075
 3394SOL    HW221645   1.670   4.049   3.021  0.6818 -0.0553  1.7856
 3395SOL     OW21646   1.614   3.328  14.111  0.9877 -0.6510 -0.5228
 3395SOL    HW121647   1.643   3.287  14.029 -0.7160  0.7958 -1.8121
 3395SOL    HW221648   1.554   3.264  14.148  1.2669 -0.6439 -0.0500
 3396SOL     OW21649   1.464   2.247   3.603 -0.6351  0.4856 -0.0231
 3396SOL    HW121650   1.460   2.218   3.694 -0.2731  1.3659  0.2751
 3396SOL    HW221651   1.541   2.205   3.564 -0.6160  0.4155  0.0911
 3397SOL     OW21652   1.898   2.643   2.457 -0.0696  0.0332 -0.5646
 3397SOL    HW121653   1.878   2.703   2.385  3.1291 -0.2909 -1.7201
 3397SOL    HW221654   1.822   2.585   2.450 -0.3273  0.1757  0.9724
 3398SOL     OW21655   0.212   2.610   9.438  0.2522  0.1007 -0.0924
 3398SOL    HW121656   0.264   2.690   9.441 -0.4117  0.5587 -0.9014
 3398SOL    HW221657   0.123   2.643   9.433  0.3377  0.3716  0.2102
 3399SOL     OW21658   0.053   4.378   7.893 -0.0635 -0.1145 -0.6929
 3399SOL    HW121659   4.718   4.448   7.922 -1.0131 -1.6395  1.0506
 3399SOL    HW221660   0.139   4.418   7.879  0.2162 -0.8606 -1.1303
 3400SOL     OW21661   2.447   1.972  10.386 -0.3312 -0.1237 -0.2751
 3400SOL    HW121662   2.375   1.984  10.448  0.3196  0.9159  0.2669
 3400SOL    HW221663   2.445   2.060  10.349  0.7333 -1.0793 -2.6066
 3401SOL     OW21664   0.891   3.858   7.739  0.2793 -0.4133  0.3836
 3401SOL    HW121665   0.888   3.900   7.825 -1.0543 -1.1163  0.6767
 3401SOL    HW221666   0.877   3.765   7.756  1.8196 -0.8969 -1.0577
 3402SOL     OW21667   1.839   0.621   5.262  0.1295  0.1702 -0.2319
 3402SOL    HW121668   1.890   0.650   5.338  0.1528  1.2662 -0.6665
 3402SOL    HW221669   1.769   0.577   5.310 -0.3578  1.8738  0.6205
 3403SOL     OW21670   3.829   3.549   5.069  0.5781  0.1492 -0.1571
 3403SOL    HW121671   3.748   3.554   5.018  1.2015 -1.1379 -1.3086
 3403SOL    HW221672   3.894   3.530   5.001 -0.2036 -0.6343 -0.6807
 3404SOL     OW21673   4.421   1.409   3.156  0.0209  0.4527  0.0091
 3404SOL    HW121674   4.335   1.366   3.151  0.6399 -0.8112  0.1314
 3404SOL    HW221675   4.471   1.328   3.170 -0.3025  0.0681 -1.0708
 3405SOL     OW21676   3.981   1.865   0.169 -0.5229 -0.6193 -0.1490
 3405SOL    HW121677   4.018   1.793   0.220 -3.1312 -1.0225  1.1641
 3405SOL    HW221678   3.898   1.831   0.137 -0.5019  1.3751 -2.3077
 3406SOL     OW21679   4.547   2.641   3.367 -0.0051 -0.1097  0.6392
 3406SOL    HW121680   4.634   2.638   3.406 -0.5941 -0.0810  1.9401
 3406SOL    HW221681   4.501   2.693   3.433 -0.6110 -0.4263  0.4634
 3407SOL     OW21682   3.882   1.876  16.560  0.2059  0.5157 -0.4448
 3407SOL    HW121683   3.817   1.807  16.549 -0.1803  0.7837  0.1763
 3407SOL    HW221684   3.911   1.839  16.644 -0.2441 -0.3058 -0.6507
 3408SOL     OW21685   1.787   0.403  12.269  0.1302 -0.0146  0.3264
 3408SOL    HW121686   1.780   0.309  12.252 -1.1409  0.1435 -0.0277
 3408SOL    HW221687   1.882   0.407  12.279  0.1603  1.1525 -0.4029
 3409SOL     OW21688   4.111   2.949   9.445  0.2647 -0.0618  0.0677
 3409SOL    HW121689   4.162   2.994   9.512 -1.3350  1.4575  0.2590
 3409SOL    HW221690   4.144   2.982   9.361 -3.2481 -0.2087 -1.3808
 3410SOL     OW21691   3.851   0.053   6.261 -0.2523  0.0985 -0.2029
 3410SOL    HW121692   3.927   0.017   6.215  0.1983 -1.7198  1.9641
 3410SOL    HW221693   3.797   0.095   6.194  1.6660  2.6671 -0.1114
 3411SOL     OW21694   4.205   1.803  17.614  0.1961 -0.1634 -0.1901
 3411SOL    HW121695   4.192   1.711  17.635 -0.6601 -0.3547 -1.5409
 3411SOL    HW221696   4.135   1.841  17.667  1.2399 -0.2222  1.2237
 3412SOL     OW21697   2.199   1.465   3.161 -0.1412 -0.0034  0.1368
 3412SOL    HW121698   2.203   1.553   3.200  1.3811 -0.5612  1.2485
 3412SOL    HW221699   2.208   1.486   3.068  0.0557  2.8350  0.7960
 3413SOL     OW21700   2.462   4.645  12.562 -0.3114 -0.3833 -0.5244
 3413SOL    HW121701   2.377   4.680  12.534 -0.9835 -0.6075  1.2460
 3413SOL    HW221702   2.441   4.588  12.636 -0.7399  0.7121  0.1938
 3414SOL     OW21703   4.473   1.015   5.953 -0.1053 -0.1442 -0.2600
 3414SOL    HW121704   4.524   0.998   5.873 -0.7709  1.6896 -1.0784
 3414SOL    HW221705   4.532   1.083   5.986  1.8314 -0.9531 -2.0350
 3415SOL     OW21706   2.865   1.590   7.763  0.1262 -0.3722 -0.0828
 3415SOL    HW121707   2.939   1.536   7.792  0.2642 -1.0715 -1.7038
 3415SOL    HW221708   2.859   1.636   7.846 -0.3610 -0.1499 -0.2441
 3416SOL     OW21709   1.744   4.173   5.799 -0.5859 -0.9256 -0.5483
 3416SOL    HW121710   1.774   4.199   5.713 -0.1038 -1.4906 -0.5557
 3416SOL    HW221711   1.663   4.130   5.770 -1.2970  1.4039 -1.9580
 3417SOL     OW21712   1.997   3.173  11.119  0.0692  0.1902  0.4389
 3417SOL    HW121713   1.927   3.193  11.057  1.0322  1.2281 -0.2912
 3417SOL    HW221714   2.074   3.148  11.069  0.8758 -1.4586  2.4913
 3418SOL     OW21715   2.266   2.898   2.930  0.0167 -0.1251  0.6161
 3418SOL    HW121716   2.314   2.867   2.853  0.8505 -0.8227  1.4209
 3418SOL    HW221717   2.200   2.830   2.934  0.5687 -0.6949  0.1168
 3419SOL     OW21718   0.419   4.716   1.813 -0.4682 -0.1845  0.2644
 3419SOL    HW121719   0.333   4.688   1.783 -1.6262  1.4192  2.0816
 3419SOL    HW221720   0.430   0.082   1.778 -3.6084  0.1368  0.1010
 3420SOL     OW21721   1.853   1.403   2.507  0.4978  0.7710 -0.4859
 3420SOL    HW121722   1.790   1.333   2.486  1.9645 -1.5850  2.9234
 3420SOL    HW221723   1.902   1.350   2.571  1.1981  1.6523 -0.3003
 3421SOL     OW21724   3.110   3.727   7.078 -0.3508 -0.0452 -0.3833
 3421SOL    HW121725   3.048   3.794   7.048 -0.0960 -0.9759 -2.9933
 3421SOL    HW221726   3.180   3.735   7.013  0.9034 -3.2517  0.6064
 3422SOL     OW21727   4.470   0.366  12.873  0.1318  0.0872 -0.4746
 3422SOL    HW121728   4.446   0.274  12.889  0.3750  0.1010 -0.0176
 3422SOL    HW221729   4.558   0.342  12.844  0.6878  1.3801  0.1593
 3423SOL     OW21730   2.533   3.949  12.691 -0.0477 -0.3284 -0.2378
 3423SOL    HW121731   2.506   3.875  12.638  2.8494 -0.0217 -2.1024
 3423SOL    HW221732   2.624   3.926  12.708  0.2782  0.0167 -1.5510
 3424SOL     OW21733   3.264   1.294  14.001 -0.5219 -0.0167  0.5052
 3424SOL    HW121734   3.262   1.290  13.905 -1.1103 -0.7904  0.5467
 3424SOL    HW221735   3.177   1.255  14.013 -1.0307  2.0788  3.5682
 3425SOL     OW21736   2.826   4.429   5.784 -0.1388 -0.0659  0.2113
 3425SOL    HW121737   2.787   4.405   5.869  3.4306 -0.6834  1.6715
 3425SOL    HW221738   2.875   4.503   5.820  0.6974 -0.0136 -1.0476
 3426SOL     OW21739   3.612   2.988   6.045 -0.2185  0.2807  0.4783
 3426SOL    HW121740   3.553   2.914   6.057 -1.0727  0.5555 -1.9178
 3426SOL    HW221741   3.578   3.019   5.961 -0.5661 -0.8786  0.2025
 3427SOL     OW21742   3.153   1.522   6.930 -0.4720  0.2390 -0.7766
 3427SOL    HW121743   3.178   1.505   6.840  1.0934  0.2696 -0.3534
 3427SOL    HW221744   3.081   1.582   6.912  1.1343  2.8227  1.3264
 3428SOL     OW21745   0.858   1.368  12.144 -0.0730  0.4490  0.0556
 3428SOL    HW121746   0.856   1.281  12.103 -0.8817  0.6279 -0.2897
 3428SOL    HW221747   0.884   1.437  12.082 -1.8919  0.5526 -0.6016
 3429SOL     OW21748   4.123   3.706   8.560  0.0669  0.2821  0.0647
 3429SOL    HW121749   4.076   3.641   8.509  2.1925 -0.2834 -1.1418
 3429SOL    HW221750   4.209   3.673   8.587 -0.6304 -2.2829 -0.9332
 3430SOL     OW21751   1.263   4.121  17.271  0.8827  0.8804  0.2933
 3430SOL    HW121752   1.235   4.207  17.238  1.4038  0.3927 -1.4110
 3430SOL    HW221753   1.340   4.150  17.320  0.6174  1.8868  0.1129
 3431SOL     OW21754   1.816   2.992  12.895  0.4980 -0.5844  0.5196
 3431SOL    HW121755   1.791   3.024  12.809 -3.2453  0.7586  2.0931
 3431SOL    HW221756   1.912   2.997  12.892  0.4478  0.9795  1.6234
 3432SOL     OW21757   0.417   2.811   9.455 -0.3697  0.4764 -0.3348
 3432SOL    HW121758   0.355   2.874   9.419  0.6312  0.5631 -1.8908
 3432SOL    HW221759   0.399   2.818   9.549  1.4674 -1.7997  0.1788
 3433SOL     OW21760   3.214   1.480   2.582  0.0388 -0.3763  0.0156
 3433SOL    HW121761   3.279   1.411   2.566  1.1793  0.1899  2.1762
 3433SOL    HW221762   3.148   1.473   2.513 -0.0433  2.2026 -0.1635
 3434SOL     OW21763   2.395   3.597   5.762  0.6631  0.5148 -0.0101
 3434SOL    HW121764   2.368   3.530   5.700 -1.2541  0.6473  0.6763
 3434SOL    HW221765   2.464   3.639   5.711  2.1211 -1.1996  0.5606
 3435SOL     OW21766   0.242   1.090   2.020  0.5414 -0.4518 -0.5910
 3435SOL    HW121767   0.240   1.142   2.101  3.6085  0.6804 -1.2709
 3435SOL    HW221768   0.297   1.015   2.041  0.4664  0.0836  1.5603
 3436SOL     OW21769   4.042   3.176  13.770 -0.0181 -0.3395 -0.0599
 3436SOL    HW121770   4.018   3.247  13.710 -1.1311  1.5296  2.5713
 3436SOL    HW221771   3.959   3.135  13.795 -0.3942  0.5763  0.2320
 3437SOL     OW21772   2.373   0.363  10.582 -0.2044  0.1745  0.1712
 3437SOL    HW121773   2.402   0.454  10.578  0.6520 -0.0679  0.8785
 3437SOL    HW221774   2.432   0.320  10.520 -1.2449  1.4562 -1.6842
 3438SOL     OW21775   4.053   4.471   2.212 -0.0800  0.5248 -0.4263
 3438SOL    HW121776   4.017   4.388   2.244  0.9620  0.7736  1.3924
 3438SOL    HW221777   4.069   4.445   2.122 -1.1009 -3.8231  0.6058
 3439SOL     OW21778   1.204   0.922   0.362 -0.4253 -0.9530 -0.2217
 3439SOL    HW121779   1.232   0.833   0.383 -0.6071 -0.8346  0.5301
 3439SOL    HW221780   1.276   0.940   0.302 -0.4346 -0.0214  0.0467
 3440SOL     OW21781   0.159   4.031   5.416 -0.7987  0.0580  0.3253
 3440SOL    HW121782   0.220   4.085   5.467 -1.6103 -0.0161  1.3824
 3440SOL    HW221783   0.101   4.092   5.370  0.8196  0.4930 -1.1271
 3441SOL     OW21784   2.450   4.163   6.681  0.1132  0.0155 -0.2770
 3441SOL    HW121785   2.361   4.135   6.660  0.5081  0.6794 -2.8483
 3441SOL    HW221786   2.427   4.249   6.716 -0.9967  0.1032 -1.2302
 3442SOL     OW21787   3.815   0.444   6.019 -0.4216  0.4978 -0.0929
 3442SOL    HW121788   3.765   0.435   6.100  0.8520 -0.6960  0.5584
 3442SOL    HW221789   3.867   0.521   6.043  1.0498 -0.2496 -0.9522
 3443SOL     OW21790   4.510   3.681  12.387  0.3343 -0.1238 -0.3318
 3443SOL    HW121791   4.600   3.662  12.359 -0.1511  0.1570 -2.1272
 3443SOL    HW221792   4.534   3.763  12.431  1.7399 -0.1953 -0.9669
 3444SOL     OW21793   4.609   1.863   6.738  0.1072  0.1447  0.1516
 3444SOL    HW121794   4.616   1.933   6.673 -0.3827 -1.4851 -1.6711
 3444SOL    HW221795   4.701   1.844   6.753  0.0638 -0.0718  0.1432
 3445SOL     OW21796   1.825   2.118   3.795 -0.4681  0.5506  0.0363
 3445SOL    HW121797   1.906   2.107   3.747  0.9854 -0.0306  2.6270
 3445SOL    HW221798   1.760   2.072   3.742  1.0634 -0.5466 -0.8751
 3446SOL     OW21799   3.840   2.258  17.253 -0.0379  0.2829 -0.1832
 3446SOL    HW121800   3.899   2.298  17.190  0.5280 -0.6614 -0.2447
 3446SOL    HW221801   3.852   2.319  17.326 -2.0523 -1.2368  1.4552
 3447SOL     OW21802   3.997   1.323  10.723  0.3712 -0.0797 -0.1740
 3447SOL    HW121803   4.043   1.298  10.643 -0.4392  1.7078 -1.2017
 3447SOL    HW221804   4.065   1.326  10.791 -0.1830 -3.0546  0.5484
 3448SOL     OW21805   2.428   4.662   8.229  0.5326 -0.2849 -0.2160
 3448SOL    HW121806   2.505   4.670   8.172  1.2268  0.9834  0.8823
 3448SOL    HW221807   2.352   4.656   8.171  0.5944  0.7140 -0.4163
 3449SOL     OW21808   0.210   4.132  12.275  0.6856  0.0987  0.1214
 3449SOL    HW121809   0.196   4.107  12.184  0.7807  0.2038  0.0766
 3449SOL    HW221810   0.305   4.121  12.274  0.8784  1.5667  2.0142
 3450SOL     OW21811   3.358   0.178   6.947 -0.1271 -0.3712  0.3055
 3450SOL    HW121812   3.430   0.129   6.907 -1.8907 -1.6882 -1.2237
 3450SOL    HW221813   3.292   0.167   6.878 -2.8256 -1.0486  3.0201
 3451SOL     OW21814   0.660   1.885   8.529 -0.0159 -0.4349 -0.2015
 3451SOL    HW121815   0.580   1.870   8.479  0.5274 -1.1640 -0.8591
 3451SOL    HW221816   0.647   1.978   8.547  0.0674 -1.1093  3.4043
 3452SOL     OW21817   3.382   3.235   6.037  0.4640  0.1085 -0.0824
 3452SOL    HW121818   3.463   3.189   6.015  0.3422  0.5667 -1.4654
 3452SOL    HW221819   3.384   3.322   5.999 -1.5075  0.6654  1.1153
 3453SOL     OW21820   0.019   0.015   6.662  0.0588  0.6691 -0.0567
 3453SOL    HW121821   0.108   4.703   6.666 -0.2511 -0.2755 -1.4340
 3453SOL    HW221822   0.013   0.016   6.758 -0.3738  3.8912 -0.1181
 3454SOL     OW21823   2.276   1.951   8.728 -0.3016 -0.1000  0.2121
 3454SOL    HW121824   2.250   2.042   8.711 -1.2642 -0.4398 -0.0789
 3454SOL    HW221825   2.357   1.950   8.779 -1.8307  1.8496  2.6607
 3455SOL     OW21826   2.363   4.358   0.823  0.6141  0.0332 -0.0126
 3455SOL    HW121827   2.291   4.314   0.870  2.3552 -0.7167  1.9635
 3455SOL    HW221828   2.411   4.285   0.786 -0.0983 -0.1964 -0.4758
 3456SOL     OW21829   2.460   1.943   0.222 -0.6287 -0.0610 -0.2785
 3456SOL    HW121830   2.391   1.898   0.174 -3.5279  1.1264  2.7384
 3456SOL    HW221831   2.510   1.867   0.252 -0.8657 -0.3707 -0.6870
 3457SOL     OW21832   2.828   3.375   4.867  0.0175  0.2072  0.3038
 3457SOL    HW121833   2.735   3.363   4.885  0.3540 -1.2348  1.1557
 3457SOL    HW221834   2.820   3.388   4.773 -1.2039 -2.3703  0.0523
 3458SOL     OW21835   3.262   2.453   0.953  0.5847 -0.5156  0.1616
 3458SOL    HW121836   3.191   2.426   0.895  1.2764  0.2508 -1.0380
 3458SOL    HW221837   3.241   2.543   0.976  1.7196 -0.0464 -0.6310
 3459SOL     OW21838   2.987   2.631   6.064  0.1248  0.0568  0.7071
 3459SOL    HW121839   3.053   2.693   6.035 -0.4753 -0.3704 -1.6123
 3459SOL    HW221840   2.950   2.680   6.137 -0.0417  1.5209 -0.3799
 3460SOL     OW21841   2.183   4.054  15.999  0.1993 -0.2424 -0.0248
 3460SOL    HW121842   2.155   3.988  16.061  3.8893 -2.7170 -0.9720
 3460SOL    HW221843   2.182   4.000  15.920 -4.4248 -2.1961  1.4182
 3461SOL     OW21844   4.476   1.745   8.730 -0.3556 -0.1654  0.0500
 3461SOL    HW121845   4.535   1.710   8.664 -0.3645  0.6918 -0.4136
 3461SOL    HW221846   4.460   1.838   8.712  1.3761  0.8782  3.7639
 3462SOL     OW21847   0.213   2.151   8.904 -0.3118  0.2599  0.7109
 3462SOL    HW121848   0.290   2.122   8.953  0.4063  1.2960  0.1942
 3462SOL    HW221849   0.169   2.200   8.973  2.3377  0.9777  1.9024
 3463SOL     OW21850   1.421   3.507   9.170  0.6159 -0.1591  0.1707
 3463SOL    HW121851   1.465   3.462   9.097 -0.1000  2.5536 -1.9553
 3463SOL    HW221852   1.451   3.459   9.247  0.5688 -1.9322 -0.9002
 3464SOL     OW21853   2.612   1.536   2.598  0.1496 -0.0834  0.0453
 3464SOL    HW121854   2.652   1.520   2.684  0.3703 -1.1527 -0.2462
 3464SOL    HW221855   2.524   1.566   2.619 -0.1653 -0.9062 -0.0834
 3465SOL     OW21856   0.322   2.668   4.990  0.1201  0.2452 -0.3197
 3465SOL    HW121857   0.400   2.641   4.942  0.8767  1.2064  0.3876
 3465SOL    HW221858   0.344   2.755   4.959 -0.1060  0.6508  0.6503
 3466SOL     OW21859   1.706   0.483   7.303 -0.1976  0.1976  0.1667
 3466SOL    HW121860   1.657   0.406   7.332  1.0823 -0.7495 -0.1518
 3466SOL    HW221861   1.658   0.559   7.336  0.8869  1.8919 -2.1596
 3467SOL     OW21862   1.178   2.140   3.423 -0.1849 -0.2152 -0.2164
 3467SOL    HW121863   1.266   2.120   3.392 -0.6103 -1.4222 -0.6462
 3467SOL    HW221864   1.182   2.235   3.418 -1.9561 -0.4104 -5.4984
 3468SOL     OW21865   0.928   0.549  15.761 -0.2519  0.5023  0.1039
 3468SOL    HW121866   0.917   0.512  15.674 -2.5958 -1.2522  1.1530
 3468SOL    HW221867   0.904   0.640  15.745  0.1738  0.7778  1.0239
 3469SOL     OW21868   1.322   1.840   1.039  0.1647  0.2563  0.3564
 3469SOL    HW121869   1.270   1.777   0.989  1.7988 -0.1804 -0.8082
 3469SOL    HW221870   1.355   1.888   0.963 -1.1828  1.8719  0.7683
 3470SOL     OW21871   1.253   0.616   6.178  0.1454 -0.2525  0.7734
 3470SOL    HW121872   1.191   0.688   6.171  1.0932  0.5833  0.9291
 3470SOL    HW221873   1.278   0.607   6.086  1.7012  2.2912  0.9317
 3471SOL     OW21874   1.188   3.628   6.883 -0.0379  0.2331  0.5346
 3471SOL    HW121875   1.128   3.668   6.946 -0.5601 -1.9113  1.4111
 3471SOL    HW221876   1.274   3.654   6.916 -0.1076  0.2280  0.7216
 3472SOL     OW21877   0.418   3.466  11.036  0.2502 -0.6452  0.2165
 3472SOL    HW121878   0.364   3.450  11.114 -1.2357  0.8355 -0.5184
 3472SOL    HW221879   0.488   3.404  11.056 -0.2338 -0.8833  1.1948
 3473SOL     OW21880   2.558   1.528  14.862  0.3449  0.5491  0.0605
 3473SOL    HW121881   2.643   1.519  14.818  0.2792 -1.2761  0.2873
 3473SOL    HW221882   2.500   1.522  14.786 -0.7469  0.3348  0.9086
 3474SOL     OW21883   3.411   0.221   0.901 -0.4689 -0.1479 -0.4157
 3474SOL    HW121884   3.372   0.133   0.897 -2.0288  0.6162 -2.4822
 3474SOL    HW221885   3.363   0.267   0.970 -4.1883 -0.7392 -2.5759
 3475SOL     OW21886   0.808   2.789  12.139 -0.0989 -0.3117  0.1925
 3475SOL    HW121887   0.859   2.854  12.186  0.9348  0.7447 -2.3790
 3475SOL    HW221888   0.745   2.847  12.097  0.0281  0.0925  0.5702
 3476SOL     OW21889   2.813   2.287   0.951  0.3964 -0.2496  0.4601
 3476SOL    HW121890   2.731   2.270   0.904  0.2998 -1.5948  1.1136
 3476SOL    HW221891   2.866   2.210   0.934 -1.0351 -1.2297  0.4521
 3477SOL     OW21892   1.754   0.457   5.658  0.2319  0.0085  0.1441
 3477SOL    HW121893   1.769   0.540   5.703  0.4891 -0.5334  1.0602
 3477SOL    HW221894   1.846   0.431   5.663 -0.4901 -2.3669  1.2013
 3478SOL     OW21895   3.256   1.637   7.495 -0.4174  0.2562  0.0706
 3478SOL    HW121896   3.258   1.676   7.583  0.1363 -1.1807  0.7022
 3478SOL    HW221897   3.181   1.685   7.463 -0.8856  0.3458  1.2919
 3479SOL     OW21898   1.903   2.690   7.878  0.1396  0.0271 -0.8036
 3479SOL    HW121899   1.926   2.768   7.928 -1.4541 -0.9809  1.5670
 3479SOL    HW221900   1.966   2.715   7.812  1.0966  0.4423  0.2679
 3480SOL     OW21901   0.970   3.790   5.838 -0.4048  0.2901  0.1940
 3480SOL    HW121902   0.886   3.836   5.836  0.0095  1.0152 -0.5113
 3480SOL    HW221903   0.945   3.716   5.894  0.9499 -1.3322 -1.3706
 3481SOL     OW21904   1.702   0.242   4.096 -0.4151 -0.0552  0.8503
 3481SOL    HW121905   1.651   0.180   4.044 -1.4129  1.6296 -0.1906
 3481SOL    HW221906   1.733   0.175   4.157  0.3672 -1.5513 -1.1796
 3482SOL     OW21907   0.918   4.605   0.750  0.2404  0.2233  0.7392
 3482SOL    HW121908   0.913   4.511   0.769  1.9425  0.2476  1.3400
 3482SOL    HW221909   0.887   4.607   0.660 -2.5551 -2.4672  1.6366
 3483SOL     OW21910   2.946   0.578   4.732 -0.4356  0.3210  0.1332
 3483SOL    HW121911   3.021   0.542   4.780 -0.1611 -0.0068 -0.5434
 3483SOL    HW221912   2.917   0.498   4.687  0.3216  0.8090 -1.2118
 3484SOL     OW21913   1.303   2.071   6.327  0.4723 -0.2018  0.1828
 3484SOL    HW121914   1.385   2.106   6.362  0.5707 -1.9493  1.6948
 3484SOL    HW221915   1.321   2.068   6.233  2.5098 -2.2650  0.6410
 3485SOL     OW21916   2.887   0.486   3.427  0.2061  0.3430 -0.2434
 3485SOL    HW121917   2.959   0.423   3.422  0.2063  0.4644 -1.6131
 3485SOL    HW221918   2.814   0.429   3.450  0.4717  0.7823  1.6832
 3486SOL     OW21919   2.395   2.332   0.548 -0.1921 -0.5109 -0.0181
 3486SOL    HW121920   2.375   2.242   0.524  0.7678 -0.5977 -0.5215
 3486SOL    HW221921   2.306   2.356   0.573  0.3191 -0.0292  1.3777
 3487SOL     OW21922   4.513   1.421   2.361 -0.3923  0.0012 -0.2141
 3487SOL    HW121923   4.495   1.504   2.405  1.3307 -0.4921  1.3874
 3487SOL    HW221924   4.478   1.355   2.420 -0.3629 -0.0035 -0.2018
 3488SOL     OW21925   2.939   2.070   7.233 -0.3342 -0.5847 -0.0505
 3488SOL    HW121926   2.848   2.099   7.239 -0.0486 -0.0241  1.5408
 3488SOL    HW221927   2.977   2.158   7.227 -2.4934  0.4248  1.2286
 3489SOL     OW21928   0.250   3.033   4.405  0.5180  0.0927  0.2139
 3489SOL    HW121929   0.263   2.983   4.485  0.3779  1.8402  1.3176
 3489SOL    HW221930   0.237   2.973   4.331 -1.1794  0.1130  0.4870
 3490SOL     OW21931   2.793   0.103   0.383  0.1889  0.1338 -0.1279
 3490SOL    HW121932   2.878   0.098   0.427  0.1083 -2.6943 -0.2891
 3490SOL    HW221933   2.741   0.134   0.456  0.2613  1.0021 -0.4484
 3491SOL     OW21934   0.664   4.091   4.797 -0.1490 -0.0073 -0.5702
 3491SOL    HW121935   0.713   4.054   4.870  0.2634  0.0940 -0.7962
 3491SOL    HW221936   0.577   4.049   4.800 -0.0346 -0.3079 -1.4763
 3492SOL     OW21937   4.532   2.233   3.041  0.2554  0.2169 -0.4470
 3492SOL    HW121938   4.503   2.308   3.093 -1.9935 -1.2019  0.3710
 3492SOL    HW221939   4.508   2.266   2.955  0.6140  1.2190 -0.1625
 3493SOL     OW21940   2.800   2.265   7.635  0.1509  0.3825 -0.1589
 3493SOL    HW121941   2.855   2.320   7.579 -0.6106  0.4755 -0.8254
 3493SOL    HW221942   2.838   2.180   7.613 -0.8336 -0.0785 -0.0569
 3494SOL     OW21943   0.471   1.064  11.145  0.2506  0.4828  0.3731
 3494SOL    HW121944   0.416   0.992  11.114 -0.2838  1.0212  0.0724
 3494SOL    HW221945   0.412   1.129  11.182  2.5803  1.7488  1.8836
 3495SOL     OW21946   3.274   4.557   6.439 -0.1464  0.1224  0.4076
 3495SOL    HW121947   3.298   4.466   6.455 -0.3745  0.2086  1.2337
 3495SOL    HW221948   3.282   4.592   6.528 -0.9132  0.6533  0.2629
 3496SOL     OW21949   2.621   2.490   1.086 -0.0526  0.1128 -0.2326
 3496SOL    HW121950   2.577   2.478   1.171 -1.1615 -0.1359 -0.8349
 3496SOL    HW221951   2.685   2.424   1.111 -1.6072 -0.4092  2.4839
 3497SOL     OW21952   2.200   3.680  15.276  0.7058  0.7936 -0.3136
 3497SOL    HW121953   2.137   3.616  15.242 -2.1255  2.8658  1.0458
 3497SOL    HW221954   2.175   3.760  15.230  2.7411  0.8953 -1.2675
 3498SOL     OW21955   3.768   0.713  15.189  0.3811 -0.7569  0.3616
 3498SOL    HW121956   3.771   0.744  15.279  1.9933  0.2752 -0.0641
 3498SOL    HW221957   3.763   0.619  15.209 -0.8366 -0.4957  1.2843
 3499SOL     OW21958   0.516   1.387  12.562 -0.0871 -0.3516  0.5001
 3499SOL    HW121959   0.444   1.437  12.524  0.0707  0.3644  1.1368
 3499SOL    HW221960   0.566   1.356  12.487  1.5549  3.0739  0.1900
 3500SOL     OW21961   2.323   4.207   1.097  0.1943  0.2772  0.1888
 3500SOL    HW121962   2.399   4.174   1.049 -0.1599  3.0095 -2.2223
 3500SOL    HW221963   2.356   4.294   1.121  1.3931 -0.0795 -0.1757
 3501SOL     OW21964   0.804   0.885   4.903 -0.2234  0.0431 -0.7316
 3501SOL    HW121965   0.714   0.889   4.871  0.3218  1.7113 -2.1000
 3501SOL    HW221966   0.778   0.876   4.994 -1.3529  0.7305 -0.9896
 3502SOL     OW21967   4.426   0.756  12.757 -0.2051  0.1928 -0.2747
 3502SOL    HW121968   4.486   0.742  12.830 -2.3808  0.0399  1.4998
 3502SOL    HW221969   4.394   0.666  12.749 -0.7769  0.2748  1.1199
 3503SOL     OW21970   3.452   0.561  15.900  0.1472  0.4540  0.1790
 3503SOL    HW121971   3.534   0.604  15.927 -0.3358  0.5461  1.4778
 3503SOL    HW221972   3.387   0.619  15.940 -1.0580  1.0306 -2.6573
 3504SOL     OW21973   1.578   2.888  17.325 -0.3497 -0.3745  0.0109
 3504SOL    HW121974   1.601   2.837  17.402  0.8563  0.1051 -0.0285
 3504SOL    HW221975   1.659   2.935  17.304 -0.3804  0.6972  2.3991
 3505SOL     OW21976   3.650   0.699   1.191  0.2323 -0.3880 -0.2703
 3505SOL    HW121977   3.603   0.666   1.268  0.4875 -1.6410 -0.6528
 3505SOL    HW221978   3.641   0.618   1.141  1.7904 -0.8643  0.2293
 3506SOL     OW21979   3.342   4.192   2.759 -0.0882 -0.0688 -0.5909
 3506SOL    HW121980   3.328   4.112   2.810 -1.1087 -0.2946 -1.2334
 3506SOL    HW221981   3.427   4.166   2.723 -1.6347 -0.7421 -3.6978
 3507SOL     OW21982   1.734   2.970   0.392  0.1400 -0.4239  0.0165
 3507SOL    HW121983   1.756   2.985   0.484 -0.5659  2.2066 -0.2323
 3507SOL    HW221984   1.655   3.022   0.379 -0.0950 -1.3028 -2.0594
 3508SOL     OW21985   0.604   0.765   1.902  0.5643  0.3601 -0.2700
 3508SOL    HW121986   0.547   0.842   1.907 -1.1508 -1.0102  1.4042
 3508SOL    HW221987   0.537   0.701   1.877  0.6513 -0.5078  1.7109
 3509SOL     OW21988   1.942   1.040   4.498  0.0769 -0.7636 -0.5580
 3509SOL    HW121989   2.035   1.023   4.482 -0.1860 -0.5688 -2.2970
 3509SOL    HW221990   1.908   1.027   4.410  1.7962 -1.2672 -1.1449
 3510SOL     OW21991   0.443   3.531   9.290 -0.4665 -0.4619 -0.1809
 3510SOL    HW121992   0.500   3.460   9.319  0.8498  0.9924  0.7679
 3510SOL    HW221993   0.500   3.583   9.233 -2.7385  1.4554 -0.7511
 3511SOL     OW21994   1.758   3.213   7.220  0.0054 -0.1835  0.2378
 3511SOL    HW121995   1.851   3.197   7.210 -0.3130 -1.8887 -0.0414
 3511SOL    HW221996   1.730   3.151   7.288 -0.4177 -1.2038 -0.8714
 3512SOL     OW21997   0.165   3.129   1.831  0.5204 -0.7060 -0.8335
 3512SOL    HW121998   0.153   3.142   1.926 -0.8937 -0.8967 -0.9899
 3512SOL    HW221999   0.260   3.116   1.835  0.7754  1.5340  0.5569
 3513SOL     OW22000   4.448   3.425   5.370 -0.1595  0.2384 -0.3138
 3513SOL    HW122001   4.492   3.426   5.285 -0.3488 -0.4364 -0.4176
 3513SOL    HW222002   4.359   3.442   5.339 -0.6969 -1.6608  0.2353
 3514SOL     OW22003   4.550   4.617  11.760  0.4733  0.4328  0.3122
 3514SOL    HW122004   4.551   4.609  11.665 -0.2970  0.9556  0.2563
 3514SOL    HW222005   4.456   4.617  11.775  0.6448 -1.6408  1.3684
 3515SOL     OW22006   0.583   0.819   2.775 -0.0947 -0.4042 -0.1187
 3515SOL    HW122007   0.588   0.881   2.848  0.9820  0.7636 -1.1740
 3515SOL    HW222008   0.637   0.749   2.812  0.0335 -0.5373 -0.5524
 3516SOL     OW22009   1.200   1.512   5.953 -0.1917 -0.2619 -0.1194
 3516SOL    HW122010   1.107   1.532   5.960 -0.1901 -0.8030  1.4934
 3516SOL    HW222011   1.208   1.512   5.858  1.3624 -1.0657  0.0015
 3517SOL     OW22012   4.708   2.879   8.646  0.4762 -0.1465 -0.1200
 3517SOL    HW122013   4.707   2.805   8.586  2.6395 -0.9549  0.8408
 3517SOL    HW222014   0.041   2.845   8.716  0.1166 -0.5289 -0.0147
 3518SOL     OW22015   3.647   2.138  13.849  0.3696  0.1530  0.0531
 3518SOL    HW122016   3.702   2.196  13.901 -0.0937  0.0136  0.6946
 3518SOL    HW222017   3.558   2.174  13.848  0.4792  0.3935 -2.1506
 3519SOL     OW22018   4.494   4.043  12.954  0.0947 -0.4955 -0.4680
 3519SOL    HW122019   4.518   4.119  12.903  0.1608  0.8099  1.5038
 3519SOL    HW222020   4.562   3.981  12.927  1.4152  0.6128  0.3138
 3520SOL     OW22021   4.388   4.317  10.589 -0.0676 -0.2139 -0.8056
 3520SOL    HW122022   4.354   4.359  10.510 -0.3909  0.9112 -0.0826
 3520SOL    HW222023   4.331   4.241  10.602  0.4564 -0.2210  1.4927
 3521SOL     OW22024   4.245   0.845  12.971 -0.1224  0.5362 -0.1540
 3521SOL    HW122025   4.314   0.803  13.022  0.3510 -1.7800 -2.7188
 3521SOL    HW222026   4.292   0.871  12.892 -1.0507  1.1968 -0.4908
 3522SOL     OW22027   1.838   0.525   2.024 -0.5363  0.5813 -0.8047
 3522SOL    HW122028   1.844   0.541   2.118 -1.6909 -1.2731 -0.4239
 3522SOL    HW222029   1.933   0.531   2.014 -0.3808  2.0533  1.6447
 3523SOL     OW22030   4.022   3.150   2.791 -0.7652  0.1599  0.1737
 3523SOL    HW122031   4.065   3.089   2.851 -0.8293 -0.9567 -0.8925
 3523SOL    HW222032   3.962   3.188   2.854  1.1706  0.3466  1.8820
 3524SOL     OW22033   0.559   0.152   5.475 -0.0153  0.0239 -0.4486
 3524SOL    HW122034   0.615   0.227   5.495  0.5086 -1.1865  2.6577
 3524SOL    HW222035   0.549   0.153   5.380 -2.5055  1.8905 -0.1561
 3525SOL     OW22036   1.988   0.889   2.891 -0.2804  0.0834 -0.0957
 3525SOL    HW122037   1.951   0.902   2.979 -0.2926 -2.8169  0.3230
 3525SOL    HW222038   1.999   0.977   2.856  0.9106 -0.3454 -0.7751
 3526SOL     OW22039   2.291   2.540   6.821  0.5241  0.9268  0.1742
 3526SOL    HW122040   2.232   2.598   6.869 -1.4190 -0.2219 -0.8661
 3526SOL    HW222041   2.365   2.564   6.877  1.2743  1.5386 -1.0683
 3527SOL     OW22042   4.097   1.194   4.858  0.4243  0.2895 -0.5619
 3527SOL    HW122043   4.087   1.101   4.838 -0.7351  0.5734 -1.3060
 3527SOL    HW222044   4.070   1.218   4.769  1.6046  2.6580 -0.2809
 3528SOL     OW22045   0.601   0.694   1.615  0.3994 -0.6868  0.2102
 3528SOL    HW122046   0.539   0.661   1.681  0.8476 -0.5425  0.7046
 3528SOL    HW222047   0.687   0.667   1.645 -0.6278 -1.6629  2.2771
 3529SOL     OW22048   3.055   1.615   3.238  0.5359  0.0978  0.2653
 3529SOL    HW122049   3.010   1.699   3.240 -2.0607 -1.1831 -3.6080
 3529SOL    HW222050   3.073   1.626   3.144  0.7993  0.6167  0.3785
 3530SOL     OW22051   3.369   2.514   2.562 -0.5242  0.1200 -0.2365
 3530SOL    HW122052   3.387   2.468   2.480  1.1089 -0.5487  0.5050
 3530SOL    HW222053   3.446   2.507   2.617 -0.7024 -0.5737 -0.0651
 3531SOL     OW22054   4.536   0.429  13.379 -0.1877 -0.3912 -0.1364
 3531SOL    HW122055   4.595   0.428  13.303 -0.5540  2.9103 -0.4872
 3531SOL    HW222056   4.467   0.489  13.351 -0.7802 -0.7278  0.6347
 3532SOL     OW22057   2.995   0.760   0.621 -0.1991 -0.1463  0.2801
 3532SOL    HW122058   2.901   0.777   0.626  0.4759  3.8879 -0.8098
 3532SOL    HW222059   3.030   0.832   0.673 -0.3408  1.6144 -2.0342
 3533SOL     OW22060   0.470   4.159  12.110  0.7660  0.0471  0.4713
 3533SOL    HW122061   0.564   4.143  12.105  0.7161  0.0789 -0.5362
 3533SOL    HW222062   0.445   4.248  12.082 -0.7713  0.0352  1.7854
 3534SOL     OW22063   4.410   4.215   0.061  0.3150  0.1071 -0.0443
 3534SOL    HW122064   4.451   4.277   0.122 -1.7262 -1.0301  2.4695
 3534SOL    HW222065   4.392   4.139   0.115  1.6872  1.2176  1.9803
 3535SOL     OW22066   0.561   1.348   2.620  0.1918 -0.0934  0.1652
 3535SOL    HW122067   0.482   1.365   2.568  0.6202 -0.7403 -0.6927
 3535SOL    HW222068   0.624   1.320   2.554 -1.1003 -0.0672 -1.0860
 3536SOL     OW22069   1.222   0.675   8.714  0.0597 -0.0873  0.4045
 3536SOL    HW122070   1.152   0.620   8.749 -1.8598  2.5217  0.6985
 3536SOL    HW222071   1.169   0.753   8.696 -1.8927 -0.8702  2.7591
 3537SOL     OW22072   0.342   1.495   4.260 -0.4413  0.8162  0.7031
 3537SOL    HW122073   0.403   1.430   4.225  0.8981  1.4915  1.7880
 3537SOL    HW222074   0.273   1.435   4.290  0.6937 -0.6587  0.3384
 3538SOL     OW22075   0.684   3.420   7.482 -0.0772  0.0482 -0.6652
 3538SOL    HW122076   0.663   3.503   7.440 -0.4413  0.2016 -0.1691
 3538SOL    HW222077   0.629   3.420   7.560 -1.1676  0.4021 -1.4479
 3539SOL     OW22078   4.464   3.933   4.649 -0.3577 -0.8675  0.4954
 3539SOL    HW122079   4.468   3.845   4.685 -2.4793 -1.6221 -1.1765
 3539SOL    HW222080   4.497   3.921   4.560 -2.2174  0.6784 -0.4077
 3540SOL     OW22081   3.389   2.276   2.794 -0.1809 -0.2086 -0.6443
 3540SOL    HW122082   3.415   2.224   2.870 -0.1259 -1.6194 -1.6208
 3540SOL    HW222083   3.418   2.360   2.830  0.0886 -0.3024 -0.6438
 3541SOL     OW22084   0.254   2.372   4.766 -0.6632  0.9269 -0.0452
 3541SOL    HW122085   0.333   2.329   4.797 -0.2776  0.6468 -1.4003
 3541SOL    HW222086   0.193   2.329   4.826  1.1465 -0.6905  0.6229
 3542SOL     OW22087   4.322   3.435   2.906 -0.1755  0.0384  0.0616
 3542SOL    HW122088   4.325   3.528   2.929 -2.4357 -0.0218  0.5677
 3542SOL    HW222089   4.358   3.409   2.991 -0.2765 -2.6178 -0.7279
 3543SOL     OW22090   3.835   3.453   0.418 -0.8623 -0.3213 -0.2920
 3543SOL    HW122091   3.901   3.515   0.388  0.3093 -1.4538 -0.0325
 3543SOL    HW222092   3.877   3.369   0.400 -0.9911 -0.4631  0.0637
 3544SOL     OW22093   0.728   2.950  16.526 -0.1317  0.1660  0.0865
 3544SOL    HW122094   0.694   2.871  16.485  1.4709 -0.6361  0.3164
 3544SOL    HW222095   0.818   2.945  16.492 -0.4561  1.5381 -0.9731
 3545SOL     OW22096   0.001   3.574  10.813  0.7181  0.3108 -0.1039
 3545SOL    HW122097   4.646   3.616  10.776 -0.1331  0.3230  1.7063
 3545SOL    HW222098   4.695   3.586  10.904 -1.2473  0.3254 -0.7205
 3546SOL     OW22099   2.425   4.348  11.947 -0.2366  0.0006  0.2942
 3546SOL    HW122100   2.411   4.319  11.857 -1.2618 -0.7174  0.6907
 3546SOL    HW222101   2.342   4.336  11.991 -0.1042 -1.4138  0.1450
 3547SOL     OW22102   3.357   0.919  15.460 -0.3594 -0.6776 -0.0942
 3547SOL    HW122103   3.431   0.898  15.517 -1.2576 -0.1944  1.2480
 3547SOL    HW222104   3.387   0.863  15.388  4.2425  0.2157  1.1101
 3548SOL     OW22105   4.307   0.694   2.857  0.2235 -0.0310 -0.3263
 3548SOL    HW122106   4.354   0.626   2.905 -0.6962 -0.5560 -0.1782
 3548SOL    HW222107   4.254   0.642   2.797 -0.2659 -0.0576  0.1305
 3549SOL     OW22108   2.237   2.892  17.455 -0.4548 -0.2452  0.6309
 3549SOL    HW122109   2.235   2.973  17.505 -1.5419 -1.5997  2.7863
 3549SOL    HW222110   2.322   2.900  17.411 -0.8022 -0.7550 -0.1392
 3550SOL     OW22111   1.834   3.206   6.527  0.6729  0.1420 -0.3718
 3550SOL    HW122112   1.921   3.196   6.565 -0.0921 -2.1297  0.7881
 3550SOL    HW222113   1.804   3.282   6.576  2.1324  1.4788 -1.5748
 3551SOL     OW22114   1.372   1.655   6.769  0.1863 -0.0177  0.2573
 3551SOL    HW122115   1.341   1.565   6.765 -2.1331  0.7986  0.0079
 3551SOL    HW222116   1.399   1.664   6.860  0.1209 -0.8278  0.3568
 3552SOL     OW22117   3.909   0.044   2.422 -0.6088 -0.8747  0.2246
 3552SOL    HW122118   3.989   4.714   2.414  0.0111 -0.0713  1.0185
 3552SOL    HW222119   3.873   0.017   2.338  3.6806 -2.1679 -1.2009
 3553SOL     OW22120   4.019   2.416   6.972  0.0534 -0.1375 -0.4112
 3553SOL    HW122121   4.100   2.403   6.923 -0.6201 -1.4556 -1.1636
 3553SOL    HW222122   3.993   2.325   6.987  0.0530  0.0465  0.7387
 3554SOL     OW22123   2.989   3.747  16.205  0.4254 -0.5112 -0.1552
 3554SOL    HW122124   3.027   3.828  16.171  0.3549  0.8485  2.9490
 3554SOL    HW222125   2.982   3.779  16.295  0.1474  1.0379 -0.7160
 3555SOL     OW22126   3.977   0.004   3.612  0.0152  0.4057 -0.2056
 3555SOL    HW122127   3.899   0.049   3.646  1.2875  1.5077  1.2731
 3555SOL    HW222128   3.984   0.042   3.525  1.0786  1.0168  0.1445
 3556SOL     OW22129   1.537   0.747   7.329  0.0408 -0.0211  0.4458
 3556SOL    HW122130   1.461   0.804   7.340  2.6950  3.3140  1.3072
 3556SOL    HW222131   1.559   0.734   7.236  2.0430  3.8752  0.3903
 3557SOL     OW22132   2.275   0.067  11.809  0.4482 -0.4030 -0.0314
 3557SOL    HW122133   2.342   0.113  11.758 -0.5588  0.1646 -0.8438
 3557SOL    HW222134   2.202   0.129  11.803 -1.5023 -2.6832  0.0328
 3558SOL     OW22135   4.051   3.551   2.644  0.2017 -0.2775  0.2331
 3558SOL    HW122136   3.992   3.622   2.670  0.9151  0.8035 -1.0845
 3558SOL    HW222137   3.984   3.502   2.597  1.0636 -2.1813  1.0186
 3559SOL     OW22138   0.215   3.381   9.215 -0.0536 -0.7657 -0.5662
 3559SOL    HW122139   0.272   3.433   9.271  0.9242 -0.5219 -1.8046
 3559SOL    HW222140   0.280   3.317   9.187 -0.2067 -0.4635 -1.6172
 3560SOL     OW22141   3.008   1.074   9.664  0.0612 -0.5383  0.0060
 3560SOL    HW122142   2.948   1.133   9.710  0.2802  1.0023 -1.6647
 3560SOL    HW222143   2.972   1.086   9.576  1.0243 -0.2736 -0.3532
 3561SOL     OW22144   2.929   2.984  14.468 -0.6258 -0.6369 -0.5280
 3561SOL    HW122145   2.883   3.067  14.453 -2.0746 -1.2454  0.5796
 3561SOL    HW222146   3.015   3.016  14.495 -1.2236  2.7785 -2.5417
 3562SOL     OW22147   4.116   0.460   9.161  0.1164  0.0698 -0.3216
 3562SOL    HW122148   4.181   0.405   9.204  0.8102 -0.1194 -1.6215
 3562SOL    HW222149   4.133   0.444   9.068  0.1681 -2.1710  0.0824
 3563SOL     OW22150   3.106   4.017   0.044 -0.0753 -0.1065 -0.0633
 3563SOL    HW122151   3.030   4.004   0.102  1.4748 -2.7638  1.3432
 3563SOL    HW222152   3.122   3.932   0.005 -3.9538 -1.7369  1.8879
 3564SOL     OW22153   0.679   0.434   4.416 -0.0087  0.1169 -0.1009
 3564SOL    HW122154   0.663   0.528   4.404 -0.6130  0.1015  0.5907
 3564SOL    HW222155   0.774   0.423   4.413  0.0551  0.3459  1.4821
 3565SOL     OW22156   4.146   3.813   5.625 -0.0843 -0.0752 -0.3134
 3565SOL    HW122157   4.178   3.885   5.571  3.9595 -0.4683  1.5061
 3565SOL    HW222158   4.205   3.814   5.700  0.4561  0.3237 -0.7477
 3566SOL     OW22159   0.124   4.633   3.458 -0.3098  0.8598 -0.1624
 3566SOL    HW122160   0.154   4.542   3.461  0.0953  1.0378  1.2219
 3566SOL    HW222161   0.033   4.628   3.485  0.2177 -1.1471  1.2717
 3567SOL     OW22162   4.319   0.911   5.213 -0.2637  0.0363 -0.4732
 3567SOL    HW122163   4.273   0.857   5.148  0.4125 -2.4172  1.0695
 3567SOL    HW222164   4.272   0.992   5.195  2.1141  1.5023  0.0099
 3568SOL     OW22165   2.726   1.969   1.713 -0.5441 -0.1113  0.2328
 3568SOL    HW122166   2.712   1.977   1.618 -0.7016 -1.0555  0.1816
 3568SOL    HW222167   2.701   1.879   1.732  0.1333 -0.5401 -0.9266
 3569SOL     OW22168   3.101   4.602   6.222  0.7610 -0.0119 -0.1339
 3569SOL    HW122169   3.162   4.580   6.292 -1.8964 -1.3431  1.7884
 3569SOL    HW222170   3.019   4.601   6.272  1.2783 -0.5810  0.6908
 3570SOL     OW22171   1.961   1.746   0.152 -0.3944  0.7529  0.1148
 3570SOL    HW122172   2.029   1.751   0.085 -0.4454 -1.3432 -0.0820
 3570SOL    HW222173   1.927   1.664   0.116 -0.1447  0.0820  1.4105
 3571SOL     OW22174   3.048   3.138   5.687  0.5401  0.0228  0.1508
 3571SOL    HW122175   2.974   3.137   5.748  0.2258  0.2386 -0.2351
 3571SOL    HW222176   3.000   3.159   5.607  2.6366 -0.5221 -1.2516
 3572SOL     OW22177   4.346   4.234   3.115 -1.0733 -0.2075 -0.1117
 3572SOL    HW122178   4.379   4.201   3.032 -1.1439  0.4372 -0.3989
 3572SOL    HW222179   4.410   4.195   3.175  0.0787  1.5438 -0.1953
 3573SOL     OW22180   4.343   2.858  11.224  0.9202  0.3056  0.1547
 3573SOL    HW122181   4.405   2.930  11.214  0.6418  0.5911  0.5011
 3573SOL    HW222182   4.333   2.873  11.318 -0.0245  1.8197 -0.1978
 3574SOL     OW22183   1.921   4.281   8.005 -0.2129 -0.5222 -0.0695
 3574SOL    HW122184   1.985   4.284   8.076  1.2364  1.6018 -1.4279
 3574SOL    HW222185   1.863   4.354   8.022  0.8905  0.4264 -0.3378
 3575SOL     OW22186   2.438   1.096   5.999 -0.0954 -0.3631  0.2163
 3575SOL    HW122187   2.428   1.128   6.089  0.3669  1.4435 -0.3896
 3575SOL    HW222188   2.438   1.173   5.943 -0.9222 -0.0904  0.5861
 3576SOL     OW22189   3.825   4.152  14.486  0.1239 -0.2864  0.9279
 3576SOL    HW122190   3.868   4.216  14.428  0.6116  1.1497  2.8659
 3576SOL    HW222191   3.781   4.099  14.420 -0.7757  1.4800  0.1101
 3577SOL     OW22192   0.222   4.025   7.518 -0.0051  0.1940  0.0711
 3577SOL    HW122193   0.260   4.112   7.502 -1.1277  0.6379 -0.1820
 3577SOL    HW222194   0.135   4.048   7.549  0.9604 -0.8101  3.5123
 3578SOL     OW22195   0.285   4.408  16.289  0.6722  0.1142  0.4865
 3578SOL    HW122196   0.257   4.463  16.216  1.5033 -0.8978 -0.5866
 3578SOL    HW222197   0.203   4.363  16.312  1.0557 -0.0573  1.5419
 3579SOL     OW22198   3.067   1.101   6.377  0.4698 -0.1211 -0.4872
 3579SOL    HW122199   3.032   1.137   6.458  2.2639  1.1106 -0.2634
 3579SOL    HW222200   3.074   1.007   6.395  0.5618 -0.2470 -1.1754
 3580SOL     OW22201   4.137   3.594   6.707  0.1254 -0.3755  0.6707
 3580SOL    HW122202   4.226   3.606   6.673 -0.8419  2.9689 -0.6631
 3580SOL    HW222203   4.103   3.530   6.645  0.6251  0.3349 -0.3412
 3581SOL     OW22204   4.004   0.862  13.099 -0.2191 -0.4962  0.4103
 3581SOL    HW122205   4.048   0.911  13.029  0.2117 -0.0408  0.9919
 3581SOL    HW222206   4.077   0.805  13.122  0.6529  0.5682  0.2824
 3582SOL     OW22207   0.242   0.912   0.114  0.0997 -0.0945  0.1650
 3582SOL    HW122208   0.297   0.842   0.079 -1.8655 -0.3769 -2.3059
 3582SOL    HW222209   0.311   0.974   0.140 -0.1279  0.8066 -1.4261
 3583SOL     OW22210   0.217   2.109   6.873 -0.1280 -0.1708 -0.3403
 3583SOL    HW122211   0.201   2.016   6.858 -0.2227  0.0809 -1.8434
 3583SOL    HW222212   0.183   2.139   6.789  1.3907  0.8004 -0.6069
 3584SOL     OW22213   1.979   2.318   4.656  0.0408 -0.0525  0.2470
 3584SOL    HW122214   1.927   2.366   4.720 -0.3304  0.3987 -0.4041
 3584SOL    HW222215   1.959   2.228   4.684 -0.3110 -0.1225 -0.2382
 3585SOL     OW22216   2.187   2.583   5.121  0.3780 -0.1076  0.1638
 3585SOL    HW122217   2.221   2.498   5.093 -2.0683 -1.2510  0.6644
 3585SOL    HW222218   2.114   2.603   5.062  0.3666 -1.6606 -0.3461
 3586SOL     OW22219   2.538   2.058   7.892  0.5223 -0.1424 -0.0290
 3586SOL    HW122220   2.625   2.095   7.905  0.8059 -1.5803  2.1013
 3586SOL    HW222221   2.554   2.019   7.806  1.3940  0.1879 -0.0131
 3587SOL     OW22222   0.042   3.264  11.207  0.2339 -0.4783  0.0608
 3587SOL    HW122223   0.136   3.279  11.221 -0.0868  2.6847 -1.1242
 3587SOL    HW222224   0.025   3.221  11.290 -1.4472  0.1434  0.0353
 3588SOL     OW22225   2.083   1.942  10.789  0.2818 -0.0541  0.1711
 3588SOL    HW122226   2.050   1.884  10.721 -0.2881 -0.1043  0.4882
 3588SOL    HW222227   2.009   1.932  10.849 -0.5855 -1.3510 -1.1459
 3589SOL     OW22228   2.859   0.229  12.159  0.0586 -0.0457  0.3732
 3589SOL    HW122229   2.905   0.225  12.243  1.0852  0.0919 -0.1735
 3589SOL    HW222230   2.817   0.314  12.172  1.1467  0.1094  2.8639
 3590SOL     OW22231   0.018   4.170   7.610  0.2432  0.4654 -0.3393
 3590SOL    HW122232   0.050   4.260   7.603 -1.4253  1.0376 -0.5292
 3590SOL    HW222233   4.689   4.178   7.690 -0.5365  0.8936 -0.8894
 3591SOL     OW22234   0.849   0.724   1.776  0.6962 -0.1663 -0.7405
 3591SOL    HW122235   0.890   0.789   1.834 -1.2660 -0.7972  1.3357
 3591SOL    HW222236   0.767   0.730   1.825  0.4693  1.9688 -1.3923
 3592SOL     OW22237   3.458   3.441   6.842  0.3927 -0.1610  0.0288
 3592SOL    HW122238   3.521   3.490   6.790  1.2506 -0.0914  1.1414
 3592SOL    HW222239   3.383   3.485   6.801  0.2311  1.0812  1.6586
 3593SOL     OW22240   2.076   2.044  10.376  0.4285 -0.4426 -0.6918
 3593SOL    HW122241   2.066   2.137  10.355 -2.4055 -1.1274 -2.3037
 3593SOL    HW222242   2.100   2.058  10.468  0.3404 -0.0100 -0.7334
 3594SOL     OW22243   1.612   4.401  17.327  0.1083  0.5516 -0.4232
 3594SOL    HW122244   1.664   4.355  17.393  0.1166  0.6608 -0.3540
 3594SOL    HW222245   1.674   4.472  17.310 -2.0606  2.4390 -0.4778
 3595SOL     OW22246   1.806   1.681   2.450 -0.3727 -0.4140 -0.4122
 3595SOL    HW122247   1.835   1.597   2.486  0.1567 -0.9204 -2.0408
 3595SOL    HW222248   1.883   1.729   2.481 -1.6515  1.2211  0.2151
 3596SOL     OW22249   2.708   0.441   0.395  0.0420  0.1985 -0.3761
 3596SOL    HW122250   2.732   0.531   0.369 -2.2886  1.5059  2.0813
 3596SOL    HW222251   2.723   0.402   0.309 -1.2553 -0.3719 -0.3418
 3597SOL     OW22252   3.757   1.979   3.660  0.8432 -0.1126 -0.0848
 3597SOL    HW122253   3.699   1.907   3.686  1.1853  0.1915  1.5448
 3597SOL    HW222254   3.702   2.051   3.689 -1.4928 -1.4116 -1.2765
 3598SOL     OW22255   3.203   4.562   3.102  0.1805  0.0768  0.0839
 3598SOL    HW122256   3.242   4.477   3.081  0.3151  0.2377 -0.3224
 3598SOL    HW222257   3.109   4.545   3.097  0.0809  0.4861  0.5228
 3599SOL     OW22258   0.590   3.640   7.358 -0.3268  0.9764  0.4687
 3599SOL    HW122259   0.494   3.643   7.367 -0.3409 -2.0705  1.0297
 3599SOL    HW222260   0.620   3.716   7.409  0.4104 -0.4451  2.1424
 3600SOL     OW22261   1.894   3.104  17.564  0.6690 -0.0688  0.2984
 3600SOL    HW122262   1.936   3.179  17.522  0.7253 -0.5531 -0.5117
 3600SOL    HW222263   1.821   3.096  17.502  0.3760 -2.1102  0.9141
 3601SOL     OW22264   4.395   3.067   6.900 -0.1323 -0.1141 -0.1438
 3601SOL    HW122265   4.378   2.975   6.920  1.1345  0.1258  2.0203
 3601SOL    HW222266   4.488   3.078   6.917  0.0644 -1.1790 -0.5027
 3602SOL     OW22267   2.887   3.281   7.363  0.1582  0.1966  0.1391
 3602SOL    HW122268   2.977   3.248   7.364  0.0944 -0.0102 -0.9631
 3602SOL    HW222269   2.902   3.344   7.293 -0.1699 -0.0063 -0.1122
 3603SOL     OW22270   1.190   1.827   1.999  0.2069  0.0436  0.0296
 3603SOL    HW122271   1.148   1.836   1.913  0.2472  0.3838  0.0462
 3603SOL    HW222272   1.164   1.739   2.028 -0.4840  0.3583  0.3642
 3604SOL     OW22273   0.695   0.134   2.288  0.2939  0.2295  0.0039
 3604SOL    HW122274   0.613   0.143   2.336  0.0790 -0.3742 -0.2450
 3604SOL    HW222275   0.666   0.135   2.197 -2.1197 -1.9842  0.7224
 3605SOL     OW22276   1.259   1.420   3.405  0.0759  0.1738 -0.3843
 3605SOL    HW122277   1.174   1.414   3.449  0.1528 -1.1535 -0.4099
 3605SOL    HW222278   1.244   1.504   3.361 -3.2305 -0.3460 -0.2461
 3606SOL     OW22279   1.212   2.683   9.913 -0.0752 -0.5701  0.2816
 3606SOL    HW122280   1.143   2.717   9.970 -1.4881 -2.1249 -0.5167
 3606SOL    HW222281   1.238   2.611   9.971 -1.3165 -1.1288  0.1430
 3607SOL     OW22282   1.116   4.272   1.915 -0.7003  0.4749  0.4238
 3607SOL    HW122283   1.181   4.337   1.943  0.5522  0.0141 -1.4134
 3607SOL    HW222284   1.064   4.322   1.853  0.1214 -1.9826 -2.2236
 3608SOL     OW22285   4.315   2.570   9.081 -0.4083  0.8079  0.5227
 3608SOL    HW122286   4.238   2.614   9.116 -0.7272  1.4208 -0.9505
 3608SOL    HW222287   4.382   2.593   9.145 -2.5942  2.1257  2.3282
 3609SOL     OW22288   3.285   0.306   4.592 -0.7574 -0.4504 -0.3367
 3609SOL    HW122289   3.362   0.344   4.633 -0.1220 -1.0702 -0.9379
 3609SOL    HW222290   3.332   0.251   4.528 -0.2939 -1.7590  1.1329
 3610SOL     OW22291   2.695   2.096   2.917 -0.2989  0.7086  0.6001
 3610SOL    HW122292   2.732   2.138   2.995 -3.7098  1.7948  1.5964
 3610SOL    HW222293   2.762   2.030   2.897  1.1170  1.7221  2.0173
 3611SOL     OW22294   1.389   0.768   3.708 -0.0764 -0.9219  0.0616
 3611SOL    HW122295   1.341   0.850   3.697 -0.0188 -0.3734  3.9127
 3611SOL    HW222296   1.411   0.741   3.619  2.2573 -0.7416  0.5636
 3612SOL     OW22297   3.857   0.413   3.616  0.1475 -0.2773 -0.0418
 3612SOL    HW122298   3.905   0.469   3.677 -1.5258  0.6308  0.4290
 3612SOL    HW222299   3.871   0.457   3.532  0.1355  0.1292  0.1713
 3613SOL     OW22300   0.203   0.527   8.893  0.4594 -0.0094  0.4343
 3613SOL    HW122301   0.161   0.567   8.968 -3.0976 -1.6489 -0.6643
 3613SOL    HW222302   0.291   0.538   8.927  1.4686  0.1535 -2.2046
 3614SOL     OW22303   2.834   1.008   5.075 -0.6444 -0.5256 -0.0363
 3614SOL    HW122304   2.907   0.997   5.013  0.3641  0.5725  0.9609
 3614SOL    HW222305   2.773   1.054   5.018 -0.7486 -2.9412 -1.8849
 3615SOL     OW22306   2.823   4.441   4.460  0.0756 -0.4311 -0.7400
 3615SOL    HW122307   2.846   4.458   4.369  1.2781  0.9564 -0.1781
 3615SOL    HW222308   2.884   4.375   4.492 -1.7815 -1.2414  1.1141
 3616SOL     OW22309   4.722   0.589   6.358 -0.1055 -0.0923  0.3781
 3616SOL    HW122310   4.635   0.627   6.349 -0.0806  0.0036  0.5396
 3616SOL    HW222311   0.051   0.650   6.306 -2.0506  0.1890 -1.1932
 3617SOL     OW22312   2.800   0.028   9.696 -0.2435 -0.1141  0.2755
 3617SOL    HW122313   2.881   0.056   9.653 -1.2752 -0.0576 -1.6467
 3617SOL    HW222314   2.817   0.056   9.786 -1.0557  0.7449  0.1639
 3618SOL     OW22315   4.014   2.271  14.579 -0.0114  0.1536 -0.5209
 3618SOL    HW122316   4.002   2.299  14.670 -2.1421  1.3515 -1.1774
 3618SOL    HW222317   4.107   2.291  14.565 -0.1102 -0.0183 -1.4071
 3619SOL     OW22318   4.471   2.353  13.428 -0.2180 -0.1176 -0.0949
 3619SOL    HW122319   4.549   2.308  13.395  0.6715  0.8157  0.7221
 3619SOL    HW222320   4.513   2.435  13.454  1.0950 -0.9216  0.3444
 3620SOL     OW22321   1.230   1.564   7.252 -0.3305 -0.0409 -0.5293
 3620SOL    HW122322   1.272   1.497   7.199 -0.0373 -1.5203  1.5606
 3620SOL    HW222323   1.174   1.605   7.186  1.7857  0.7529 -1.8113
 3621SOL     OW22324   1.799   2.728   5.303  0.4169  0.4139  0.0191
 3621SOL    HW122325   1.761   2.644   5.328 -1.6140  0.4000 -3.1387
 3621SOL    HW222326   1.754   2.782   5.368 -1.2173 -1.5661  0.5523
 3622SOL     OW22327   2.291   1.045  14.745 -0.4231 -0.0931 -0.4300
 3622SOL    HW122328   2.213   1.033  14.799 -0.2880  0.0745 -0.1960
 3622SOL    HW222329   2.309   1.138  14.736 -1.0180  0.1494  0.9294
 3623SOL     OW22330   3.279   4.636   5.378  0.2768  0.5963  0.1126
 3623SOL    HW122331   3.264   4.542   5.378  2.0229  0.3252  0.3257
 3623SOL    HW222332   3.368   4.645   5.346  0.4365  1.3431  0.7749
 3624SOL     OW22333   0.773   3.082   5.606 -0.3056 -0.0023 -0.2295
 3624SOL    HW122334   0.724   3.164   5.603 -1.9732 -1.0107 -0.9608
 3624SOL    HW222335   0.790   3.075   5.512  0.2072 -0.9898 -0.0665
 3625SOL     OW22336   1.685   0.018   6.312  0.2428  0.1299  0.6699
 3625SOL    HW122337   1.773   0.055   6.316  0.2805  0.2131 -1.1091
 3625SOL    HW222338   1.676   4.691   6.393  0.2510  1.4023  1.4453
 3626SOL     OW22339   1.820   3.485   1.522  0.0652  0.2390  0.3239
 3626SOL    HW122340   1.856   3.501   1.609 -0.7586  0.2148  0.6760
 3626SOL    HW222341   1.733   3.523   1.533  0.5697  0.9892  1.6102
 3627SOL     OW22342   2.111   3.168   0.386 -0.1048  0.2583  0.3332
 3627SOL    HW122343   2.089   3.193   0.296 -0.9491  0.8813  0.7173
 3627SOL    HW222344   2.098   3.074   0.388 -0.6223  0.2623 -2.2888
 3628SOL     OW22345   3.581   2.130   6.502 -0.2319  0.7209 -0.5833
 3628SOL    HW122346   3.537   2.119   6.586 -0.6202  1.6935 -0.6700
 3628SOL    HW222347   3.640   2.204   6.517 -0.3383  0.8896 -1.0016
 3629SOL     OW22348   4.277   3.160   5.285  0.1221 -0.1126  0.1465
 3629SOL    HW122349   4.181   3.154   5.286  0.0285  1.0376 -1.1897
 3629SOL    HW222350   4.293   3.253   5.300  0.0751  0.1331 -1.2920
 3630SOL     OW22351   1.069   3.827   1.364 -0.0246  0.2211 -0.2553
 3630SOL    HW122352   0.975   3.843   1.353  0.0507  0.6879 -0.2169
 3630SOL    HW222353   1.070   3.768   1.440 -1.2610  0.4850 -0.0238
 3631SOL     OW22354   0.586   2.468  10.355 -0.1448  0.5515 -0.1339
 3631SOL    HW122355   0.594   2.545  10.412  1.7319  1.4404 -1.6195
 3631SOL    HW222356   0.658   2.489  10.297  1.7097  0.7765  2.2309
 3632SOL     OW22357   4.525   4.303  11.285 -0.0510  0.1792 -0.2640
 3632SOL    HW122358   4.508   4.362  11.358 -0.4825  0.4624 -0.5915
 3632SOL    HW222359   4.512   4.363  11.211  0.2134 -0.7827 -1.0882
 3633SOL     OW22360   3.957   1.793   3.436 -0.0766 -0.2418 -0.0169
 3633SOL    HW122361   3.913   1.858   3.382 -0.7698 -0.7064 -0.0087
 3633SOL    HW222362   3.990   1.725   3.378  0.0084  0.9991 -1.4011
 3634SOL     OW22363   1.573   2.383  11.835  0.0441 -0.3642  0.6191
 3634SOL    HW122364   1.517   2.417  11.765  0.7532 -0.2444  0.1128
 3634SOL    HW222365   1.512   2.335  11.891 -0.9301 -0.2941 -0.3704
 3635SOL     OW22366   0.842   0.110  15.629  0.1842 -0.3307  0.2522
 3635SOL    HW122367   0.930   0.072  15.616  0.8578  0.1670  3.4505
 3635SOL    HW222368   0.791   0.033  15.655 -1.8467  0.5629 -1.1321
 3636SOL     OW22369   0.062   1.409   3.173 -0.1232 -0.5221 -0.5305
 3636SOL    HW122370   0.011   1.352   3.231  0.6779  0.2934  0.9916
 3636SOL    HW222371   0.118   1.338   3.139 -1.5626 -1.6436 -0.5666
 3637SOL     OW22372   1.398   4.614   6.056  0.1572 -0.3923  0.1584
 3637SOL    HW122373   1.408   4.575   6.143 -1.3917  4.1982  2.3811
 3637SOL    HW222374   1.307   4.601   6.033  0.0842 -0.8243  0.6793
 3638SOL     OW22375   2.072   4.406   7.767 -0.0681 -0.1848 -0.3853
 3638SOL    HW122376   2.035   4.420   7.680  0.4009 -2.1483 -0.9016
 3638SOL    HW222377   2.000   4.357   7.806 -0.4609  0.7499  0.0734
 3639SOL     OW22378   2.659   1.128  13.967  0.3184 -0.2895  0.0544
 3639SOL    HW122379   2.670   1.083  14.051  1.0020 -0.7709 -0.2988
 3639SOL    HW222380   2.708   1.210  13.972  1.3168 -0.8882  0.0120
 3640SOL     OW22381   0.357   3.195   5.595  0.5293  0.3513 -0.4176
 3640SOL    HW122382   0.324   3.106   5.602 -1.7958  1.2471 -0.1480
 3640SOL    HW222383   0.277   3.246   5.607  0.2458  0.1079 -1.3240
 3641SOL     OW22384   4.243   2.056   9.668 -0.2109  0.2057 -0.1434
 3641SOL    HW122385   4.261   2.146   9.643  1.5429  0.2409  1.2974
 3641SOL    HW222386   4.206   2.027   9.584  0.3607 -1.8573  0.3212
 3642SOL     OW22387   3.408   3.500   4.855  0.2175  0.5367 -0.4010
 3642SOL    HW122388   3.334   3.513   4.914  0.4166  0.8696 -0.2268
 3642SOL    HW222389   3.374   3.484   4.766 -1.0152  0.7554  0.0331
 3643SOL     OW22390   3.730   1.981   5.506 -0.1970 -0.2941  0.1636
 3643SOL    HW122391   3.818   1.946   5.521  0.5857  1.6693  0.0772
 3643SOL    HW222392   3.682   1.938   5.577  0.7919  1.4511  1.8794
 3644SOL     OW22393   0.412   3.409  16.310 -0.0174 -0.3665  0.1564
 3644SOL    HW122394   0.379   3.440  16.395 -1.6471  0.3262 -0.7388
 3644SOL    HW222395   0.493   3.459  16.306 -0.2178 -0.3601 -3.5397
 3645SOL     OW22396   4.260   1.126   3.473  0.4043  0.2354  0.2838
 3645SOL    HW122397   4.259   1.099   3.381  1.3355 -0.5304  0.4971
 3645SOL    HW222398   4.262   1.220   3.459 -0.4515  0.0099 -1.2987
 3646SOL     OW22399   4.468   0.696   6.392  0.2960 -0.3445  0.2745
 3646SOL    HW122400   4.425   0.623   6.347 -1.4445  1.2041 -0.5543
 3646SOL    HW222401   4.395   0.756   6.410  0.2230 -0.6032  0.8449
 3647SOL     OW22402   1.347   0.041   2.595 -0.2853  0.8153  0.4051
 3647SOL    HW122403   1.301   0.112   2.549  0.7754  1.1800 -0.1038
 3647SOL    HW222404   1.398   0.094   2.656 -1.0148 -0.7530  2.3757
 3648SOL     OW22405   1.252   3.728   5.974  0.4706  0.0846 -0.2731
 3648SOL    HW122406   1.291   3.813   5.994  0.8553  0.0882 -1.0183
 3648SOL    HW222407   1.204   3.712   6.055  1.4804  1.3301  0.5616
 3649SOL     OW22408   2.555   2.995  17.031  0.2887  0.1166  0.2419
 3649SOL    HW122409   2.617   2.948  16.974  0.5929 -0.5271  1.0926
 3649SOL    HW222410   2.487   3.026  16.971  1.7116  0.0353 -1.4384
 3650SOL     OW22411   1.222   1.544   5.687  0.2823 -0.8233  0.1743
 3650SOL    HW122412   1.163   1.542   5.611  1.6309  2.1121 -0.9429
 3650SOL    HW222413   1.310   1.525   5.655 -0.2709 -3.3338  0.1161
 3651SOL     OW22414   4.445   2.933  14.304  0.6577  0.1269 -0.2288
 3651SOL    HW122415   4.356   2.939  14.270  1.1933  0.0715 -1.6849
 3651SOL    HW222416   4.434   2.973  14.390 -0.5931  2.4959 -1.4882
 3652SOL     OW22417   3.754   4.007   2.710  0.2258 -0.0705  0.4836
 3652SOL    HW122418   3.689   4.074   2.690  1.5604  1.4205  1.1388
 3652SOL    HW222419   3.809   4.042   2.780 -0.2222 -0.3159  0.9699
 3653SOL     OW22420   3.800   1.703   2.841 -0.3270  0.8484 -0.0914
 3653SOL    HW122421   3.881   1.659   2.816 -1.2829 -0.7893 -0.2984
 3653SOL    HW222422   3.752   1.690   2.760 -0.4201 -0.8665  0.2278
 3654SOL     OW22423   4.181   4.157  15.192 -0.4754 -0.0559 -0.5106
 3654SOL    HW122424   4.218   4.245  15.182  0.3458 -0.3346  0.0618
 3654SOL    HW222425   4.177   4.144  15.287 -1.5531  0.0087 -0.5494
 3655SOL     OW22426   2.990   0.127   8.046  0.3723  0.1641 -0.1920
 3655SOL    HW122427   2.977   0.218   8.017  0.3069  0.2909  0.2402
 3655SOL    HW222428   3.068   0.130   8.102 -0.0017  1.6072  0.2518
 3656SOL     OW22429   0.334   2.186   7.347  0.2010  0.0743 -0.0176
 3656SOL    HW122430   0.280   2.254   7.386 -0.6073 -1.4087  1.4351
 3656SOL    HW222431   0.268   2.160   7.283  0.2801 -1.3378  0.4884
 3657SOL     OW22432   1.172   1.798   9.395 -0.3103 -0.3311 -0.3608
 3657SOL    HW122433   1.246   1.857   9.406 -0.5129 -0.1986  0.2791
 3657SOL    HW222434   1.124   1.825   9.474 -0.3408 -1.2669 -0.0574
 3658SOL     OW22435   4.096   3.413  11.089  0.2346 -0.0323  0.0882
 3658SOL    HW122436   4.176   3.462  11.071 -0.1006  0.0561 -1.1692
 3658SOL    HW222437   4.121   3.359  11.164  1.4738  0.5260  0.0777
 3659SOL     OW22438   0.923   4.351   3.942 -0.2665 -0.3441 -0.0033
 3659SOL    HW122439   0.917   4.305   3.858 -0.1946  0.3686 -0.4035
 3659SOL    HW222440   0.907   4.444   3.925  1.3042  0.0784  0.8469
 3660SOL     OW22441   3.757   1.973   8.303  0.6005 -0.2978  0.5527
 3660SOL    HW122442   3.677   2.017   8.275  1.8360  1.4751 -0.2490
 3660SOL    HW222443   3.828   2.035   8.284  0.0609 -0.1690 -1.0479
 3661SOL     OW22444   1.142   0.537  10.749 -0.1914 -0.3544 -0.2176
 3661SOL    HW122445   1.230   0.526  10.712 -0.2206  1.5888 -0.8885
 3661SOL    HW222446   1.159   0.558  10.840  0.1347 -1.8456  0.0601
 3662SOL     OW22447   2.433   2.480   6.593  0.3745  0.7021 -0.7021
 3662SOL    HW122448   2.376   2.509   6.522 -0.0381  1.7161  0.0418
 3662SOL    HW222449   2.385   2.508   6.671  0.2059 -0.7705 -0.2714
 3663SOL     OW22450   4.711   4.454   1.733  0.2938 -0.2067 -0.6885
 3663SOL    HW122451   0.014   4.443   1.642 -0.5907 -0.1282 -0.9448
 3663SOL    HW222452   0.074   4.476   1.772 -0.8118  3.1903 -0.1597
 3664SOL     OW22453   3.854   1.122   3.316  0.0821 -0.4420  0.7714
 3664SOL    HW122454   3.780   1.127   3.256 -0.4495  0.6926  1.5174
 3664SOL    HW222455   3.910   1.051   3.285 -0.4618 -0.0522 -1.0593
 3665SOL     OW22456   1.578   1.938  12.719 -0.1081  0.3708  0.4386
 3665SOL    HW122457   1.580   2.033  12.705 -1.3491  0.2278 -0.6653
 3665SOL    HW222458   1.584   1.935  12.814 -1.0693  2.0068  0.5533
 3666SOL     OW22459   3.235   4.613   3.831 -0.2763 -0.2193 -0.1434
 3666SOL    HW122460   3.150   4.583   3.800 -1.4751  1.3130  1.6803
 3666SOL    HW222461   3.295   4.541   3.811  2.7928  1.6303  2.3527
 3667SOL     OW22462   4.052   1.150   1.723 -0.0403 -0.2696 -0.0591
 3667SOL    HW122463   4.076   1.190   1.806  0.9342  1.1646 -1.0272
 3667SOL    HW222464   3.973   1.103   1.747  1.2005 -2.2333  0.1956
 3668SOL     OW22465   0.541   2.993   8.608 -0.1605 -0.7096  0.1506
 3668SOL    HW122466   0.462   3.040   8.583 -1.4828 -2.8281  0.3351
 3668SOL    HW222467   0.544   3.010   8.702 -1.7631 -0.3173  0.1186
 3669SOL     OW22468   4.104   3.971   8.495 -0.6936  1.1980  0.4223
 3669SOL    HW122469   4.094   3.876   8.483  2.4969  1.1095 -1.4105
 3669SOL    HW222470   4.195   3.980   8.521 -0.6477 -3.4470  1.8041
 3670SOL     OW22471   2.295   2.679   1.201 -0.3539 -0.3706  0.3441
 3670SOL    HW122472   2.337   2.629   1.271  0.5219  2.3041  1.7362
 3670SOL    HW222473   2.204   2.651   1.211 -0.5920  0.8038  1.4622
 3671SOL     OW22474   2.415   1.138  10.934  0.0048 -0.1214  0.2058
 3671SOL    HW122475   2.365   1.218  10.915 -2.0392 -1.9264 -2.0229
 3671SOL    HW222476   2.484   1.171  10.992  0.1312 -0.3616  0.1917
 3672SOL     OW22477   4.696   3.019  14.260 -0.0950 -0.5407 -0.5265
 3672SOL    HW122478   4.606   3.001  14.287  0.9364 -0.6624  2.7841
 3672SOL    HW222479   4.685   3.089  14.196 -1.8365  1.4438  1.9655
 3673SOL     OW22480   0.221   0.599  11.828 -0.8802 -0.3837  0.0897
 3673SOL    HW122481   0.314   0.589  11.848 -0.4223  2.2758 -0.6698
 3673SOL    HW222482   0.231   0.632  11.739 -1.2426 -0.8370 -0.1194
 3674SOL     OW22483   3.311   4.164  14.142 -0.4301 -0.0478 -0.3078
 3674SOL    HW122484   3.401   4.149  14.114  0.0114 -0.6172  1.4103
 3674SOL    HW222485   3.314   4.256  14.170  1.1702 -1.1184  3.0229
 3675SOL     OW22486   3.717   1.995   6.286  0.6146 -0.0097 -0.2370
 3675SOL    HW122487   3.639   2.050   6.294 -0.6449 -1.9964  0.9634
 3675SOL    HW222488   3.773   2.035   6.353  2.2170 -0.5647 -1.2454
 3676SOL     OW22489   0.982   1.926   8.742 -0.5775 -0.6396  0.0286
 3676SOL    HW122490   1.041   1.966   8.678  0.8469 -0.1402  1.6438
 3676SOL    HW222491   0.994   1.832   8.727 -0.9208 -0.9973  2.0448
 3677SOL     OW22492   0.887   2.610   4.569 -0.1959 -0.1820 -0.6085
 3677SOL    HW122493   0.905   2.678   4.634 -0.7001  0.4064 -1.0936
 3677SOL    HW222494   0.795   2.587   4.576 -0.0710 -0.6143 -0.3424
 3678SOL     OW22495   1.537   0.081  11.460 -0.1266 -0.2888  0.5271
 3678SOL    HW122496   1.487   0.147  11.412 -0.4554  0.4308  1.8719
 3678SOL    HW222497   1.604   0.135  11.503  1.0004 -0.9030 -0.4578
 3679SOL     OW22498   0.687   3.926   2.116 -0.1291 -0.3409 -0.2052
 3679SOL    HW122499   0.746   3.868   2.164  1.1044  1.0403 -0.0752
 3679SOL    HW222500   0.752   3.956   2.053  0.0696 -1.7909 -0.7038
 3680SOL     OW22501   1.638   2.954   4.170 -0.4981 -1.3972 -0.0149
 3680SOL    HW122502   1.590   2.871   4.158  2.7803 -3.2549 -0.1753
 3680SOL    HW222503   1.704   2.926   4.234 -0.9994  0.0510  1.1286
 3681SOL     OW22504   1.444   4.231   7.071 -0.1390  0.3388 -0.1899
 3681SOL    HW122505   1.391   4.251   6.994 -2.8705 -0.2917  1.5430
 3681SOL    HW222506   1.386   4.177   7.124  0.8401  0.4740  1.0235
 3682SOL     OW22507   4.065   3.263   2.324  0.1898 -0.1864 -0.0534
 3682SOL    HW122508   3.978   3.278   2.286  0.1515  0.3778  0.2641
 3682SOL    HW222509   4.121   3.324   2.277 -2.0908  1.6436 -0.3662
 3683SOL     OW22510   3.079   1.914   7.711 -0.3569  0.2710  0.3144
 3683SOL    HW122511   3.082   1.979   7.781 -0.1637 -0.7756  1.2750
 3683SOL    HW222512   3.018   1.962   7.656  0.2611  0.4228 -0.2418
 3684SOL     OW22513   2.923   3.883   2.569 -0.3779 -0.3926 -0.2486
 3684SOL    HW122514   2.986   3.917   2.506  0.6457 -0.5975  0.6494
 3684SOL    HW222515   2.862   3.956   2.574 -0.7971 -0.7989  0.7206
 3685SOL     OW22516   4.149   3.778   6.003  0.5495 -0.2276  0.4340
 3685SOL    HW122517   4.086   3.834   6.048  3.0157  2.6146  0.2949
 3685SOL    HW222518   4.106   3.693   6.015 -1.8364  1.1217  1.4543
 3686SOL     OW22519   2.853   0.703   1.090 -0.5139  0.0489  0.8843
 3686SOL    HW122520   2.819   0.668   1.172  2.3559 -0.3293  1.9099
 3686SOL    HW222521   2.794   0.662   1.027 -0.6579  0.9020  0.4572
 3687SOL     OW22522   3.068   2.893   7.374  0.1184  0.8295 -0.2144
 3687SOL    HW122523   3.154   2.865   7.406  0.1621  0.6145 -0.5235
 3687SOL    HW222524   3.004   2.871   7.442  0.1407 -2.3767 -1.2387
 3688SOL     OW22525   1.148   2.217   2.499  0.7153 -0.9451 -0.3340
 3688SOL    HW122526   1.181   2.184   2.415 -0.5118 -0.1567 -1.1206
 3688SOL    HW222527   1.230   2.210   2.549 -0.1270  0.8479  1.2906
 3689SOL     OW22528   1.288   0.767   5.943  0.2686 -0.1737  0.0676
 3689SOL    HW122529   1.208   0.820   5.946  0.7698  0.4610  2.4520
 3689SOL    HW222530   1.351   0.835   5.965  0.9191 -0.3226 -1.4105
 3690SOL     OW22531   0.327   3.407   2.460 -0.1736 -0.7893  0.2496
 3690SOL    HW122532   0.384   3.435   2.531 -0.2900 -0.4530  0.2123
 3690SOL    HW222533   0.383   3.424   2.384  0.5135 -0.9392  0.7231
 3691SOL     OW22534   0.689   4.444  11.102  0.2978  0.2843 -0.3239
 3691SOL    HW122535   0.708   4.538  11.102 -2.2395  0.7918  1.2849
 3691SOL    HW222536   0.603   4.429  11.063  0.2779 -0.0936 -0.1374
 3692SOL     OW22537   4.034   1.050  12.186  0.3280 -0.1324 -0.0301
 3692SOL    HW122538   4.081   1.106  12.125  0.7872  1.6384  1.9585
 3692SOL    HW222539   3.971   1.113  12.221 -1.3025 -0.6392 -2.0332
 3693SOL     OW22540   1.119   3.110   4.626 -0.0047  0.0215 -0.5922
 3693SOL    HW122541   1.142   3.145   4.540 -2.1299  1.9491 -0.3867
 3693SOL    HW222542   1.200   3.138   4.669 -0.5149  0.6704 -0.0335
 3694SOL     OW22543   4.408   0.019   0.685  0.2129 -0.4743  0.2812
 3694SOL    HW122544   4.499   0.016   0.713  2.0190 -2.0990 -5.7570
 3694SOL    HW222545   4.377   4.658   0.650  1.0979  0.4109 -2.6104
 3695SOL     OW22546   2.124   0.928   9.065  0.0979  0.2496 -0.0053
 3695SOL    HW122547   2.080   1.011   9.048  0.5144  0.7064  1.0882
 3695SOL    HW222548   2.218   0.946   9.059  0.6576 -3.4101 -1.9623
 3696SOL     OW22549   4.263   3.679  12.256  0.0661 -0.3577  0.2194
 3696SOL    HW122550   4.353   3.668  12.286 -0.0044  0.7343  0.8396
 3696SOL    HW222551   4.220   3.699  12.339 -0.0233  0.2543  0.0293
 3697SOL     OW22552   3.735   1.456   5.817  0.6404  0.4832 -0.4127
 3697SOL    HW122553   3.686   1.512   5.757  1.7136  0.6298 -1.1460
 3697SOL    HW222554   3.712   1.497   5.900  0.2889 -0.7534  0.1112
 3698SOL     OW22555   1.561   0.962   3.370  0.6850 -0.1209 -0.3112
 3698SOL    HW122556   1.473   0.994   3.348  0.2174 -1.0863  0.1485
 3698SOL    HW222557   1.613   1.041   3.363 -1.6513  1.3834 -0.8206
 3699SOL     OW22558   0.838   2.564  17.056  0.2134  0.3308  0.6970
 3699SOL    HW122559   0.876   2.510  16.986 -2.8444  0.6962 -1.2628
 3699SOL    HW222560   0.924   2.576  17.096  0.9093 -3.8251  0.4536
 3700SOL     OW22561   4.106   0.666   9.464 -0.4580  0.3756 -0.3319
 3700SOL    HW122562   4.015   0.670   9.496 -0.4737  0.4941 -0.3928
 3700SOL    HW222563   4.120   0.760   9.453 -1.9171  0.4937 -1.2289
 3701SOL     OW22564   1.497   2.847   6.696 -0.0702  0.1851 -0.1231
 3701SOL    HW122565   1.585   2.878   6.676 -0.0657 -0.7485 -1.5710
 3701SOL    HW222566   1.502   2.856   6.791  0.6430 -1.5933 -0.0024
 3702SOL     OW22567   1.405   0.735   4.198  0.4886  0.1436 -0.3150
 3702SOL    HW122568   1.433   0.802   4.261  0.7488 -1.8782  1.7413
 3702SOL    HW222569   1.355   0.795   4.143  0.7418  0.5267 -0.1281
 3703SOL     OW22570   2.222   0.573  15.397 -0.4232  0.3491 -0.5334
 3703SOL    HW122571   2.145   0.535  15.439  0.6723  1.5533  2.6117
 3703SOL    HW222572   2.240   0.511  15.326 -0.8091  1.3775 -1.5212
 3704SOL     OW22573   2.160   2.760   4.558 -0.3468  0.3643  0.2119
 3704SOL    HW122574   2.073   2.721   4.549 -1.6525  3.3166 -0.1592
 3704SOL    HW222575   2.214   2.693   4.598  2.4212  3.2221  1.2996
 3705SOL     OW22576   2.859   3.898  12.972  0.5065 -0.1198  0.1195
 3705SOL    HW122577   2.791   3.896  13.039  0.6625 -0.0884  0.2788
 3705SOL    HW222578   2.813   3.883  12.890 -1.4666 -0.1193  1.2231
 3706SOL     OW22579   1.804   2.939   4.362 -0.2140 -0.2881  0.0538
 3706SOL    HW122580   1.884   2.892   4.340 -0.3269 -0.3773 -0.1628
 3706SOL    HW222581   1.835   3.028   4.382  0.0557 -0.5953  0.9930
 3707SOL     OW22582   2.152   0.694   6.128  0.4605  0.1915 -0.2712
 3707SOL    HW122583   2.162   0.784   6.096 -2.6879  0.8799  0.7374
 3707SOL    HW222584   2.124   0.647   6.049 -0.1059 -0.2999  0.2236
 3708SOL     OW22585   3.000   3.012   4.699  0.3403  0.2194 -0.2825
 3708SOL    HW122586   2.934   2.978   4.760  1.1898  1.7775  1.5011
 3708SOL    HW222587   3.021   3.096   4.740 -1.0396 -0.0477  0.9729
 3709SOL     OW22588   3.339   0.994   4.946  0.5428 -0.4924  0.0925
 3709SOL    HW122589   3.318   0.959   5.032 -0.7092 -1.5631 -0.6532
 3709SOL    HW222590   3.369   1.080   4.974 -1.7248  0.7768 -1.4213
 3710SOL     OW22591   3.211   0.321  17.291 -0.6860  0.5680  0.0936
 3710SOL    HW122592   3.125   0.281  17.307  0.1589 -0.8201  1.1535
 3710SOL    HW222593   3.206   0.389  17.359  2.3505  0.1537  0.7274
 3711SOL     OW22594   0.039   1.381   5.870  0.1774  0.1604 -0.2011
 3711SOL    HW122595   4.713   1.444   5.923 -1.2684  0.2535 -1.6458
 3711SOL    HW222596   4.691   1.342   5.819 -0.0843  0.8250 -0.3499
 3712SOL     OW22597   2.057   1.136   2.725  0.0513  0.8911 -0.3240
 3712SOL    HW122598   2.143   1.125   2.684 -0.0204  3.3190 -1.0739
 3712SOL    HW222599   2.039   1.229   2.721 -3.4823  0.2639  1.4199
 3713SOL     OW22600   1.661   0.893   7.931 -0.4518  0.4017 -0.3784
 3713SOL    HW122601   1.603   0.818   7.917  1.8545 -1.3246 -0.7481
 3713SOL    HW222602   1.696   0.896   7.841  1.4607 -0.9896  0.3275
 3714SOL     OW22603   4.181   1.025  15.914 -0.5762  0.1094 -0.0647
 3714SOL    HW122604   4.118   0.989  15.852  0.8321  1.3416 -2.1904
 3714SOL    HW222605   4.144   1.112  15.930  0.0680  0.3220  0.2503
 3715SOL     OW22606   1.205   4.271   5.806  0.4209 -0.2788 -0.2656
 3715SOL    HW122607   1.168   4.357   5.783 -2.0276 -1.3794 -0.5009
 3715SOL    HW222608   1.130   4.216   5.783  0.0959 -0.0672  0.3083
 3716SOL     OW22609   1.884   4.368  14.146 -0.2849  0.3501  0.3157
 3716SOL    HW122610   1.869   4.461  14.128  0.7548  0.4123 -0.2026
 3716SOL    HW222611   1.979   4.371  14.150 -0.1632  1.2770 -3.7786
 3717SOL     OW22612   3.589   1.145   5.747  0.1483 -0.1175  0.0087
 3717SOL    HW122613   3.605   1.167   5.656  1.5495  0.7831  0.4796
 3717SOL    HW222614   3.679   1.150   5.779  0.0166 -1.2718  0.5733
 3718SOL     OW22615   3.122   0.584   1.348 -0.2105 -0.0187 -0.4912
 3718SOL    HW122616   3.121   0.613   1.440  0.6329  0.1283 -0.5350
 3718SOL    HW222617   3.029   0.559   1.353 -0.5449  1.6000  1.8888
 3719SOL     OW22618   0.898   4.260  17.294 -0.2143  0.3653 -0.3123
 3719SOL    HW122619   0.918   4.167  17.311  0.2988  0.3579 -0.9580
 3719SOL    HW222620   0.927   4.266  17.203 -0.3496 -0.1067 -0.3860
 3720SOL     OW22621   3.760   1.960  11.517 -0.1327  0.2520  0.4135
 3720SOL    HW122622   3.709   2.041  11.515 -0.9291 -0.2102  1.8153
 3720SOL    HW222623   3.820   1.973  11.443  1.1261 -0.7590  1.2650
 3721SOL     OW22624   4.644   4.531   7.399 -0.1093 -0.0354  0.2483
 3721SOL    HW122625   4.553   4.522   7.371 -0.2488  2.9405 -0.2433
 3721SOL    HW222626   4.655   4.621   7.430 -2.2894  0.8877 -1.6757
 3722SOL     OW22627   1.348   3.138   8.418 -0.2339  0.3327 -0.4814
 3722SOL    HW122628   1.376   3.182   8.498  2.4465 -0.5541 -0.9168
 3722SOL    HW222629   1.254   3.140   8.431 -0.0849 -0.9038  0.8454
 3723SOL     OW22630   4.482   2.497   8.709  0.0395 -0.9263 -0.5415
 3723SOL    HW122631   4.409   2.557   8.718  0.9021  0.0282  0.1508
 3723SOL    HW222632   4.558   2.555   8.698 -0.2679 -0.4739 -0.2623
 3724SOL     OW22633   0.215   2.467  15.769  0.3533  0.2102 -0.0182
 3724SOL    HW122634   0.273   2.439  15.698  0.5817 -2.9823  1.3986
 3724SOL    HW222635   0.170   2.540  15.727 -0.9916 -1.4251 -1.4378
 3725SOL     OW22636   0.469   1.441   8.007 -0.5935  0.2468  0.1852
 3725SOL    HW122637   0.535   1.510   7.993  1.9457 -2.0091  0.9429
 3725SOL    HW222638   0.412   1.488   8.067 -0.0503  0.2390  0.7115
 3726SOL     OW22639   4.234   2.051  10.974 -0.4525  0.1431 -0.2573
 3726SOL    HW122640   4.213   2.118  10.910  3.4510 -0.1722 -1.8884
 3726SOL    HW222641   4.251   1.980  10.912 -0.9004  0.7698 -1.0992
 3727SOL     OW22642   4.255   0.605   6.225  0.7494 -0.1527  0.0530
 3727SOL    HW122643   4.263   0.530   6.165  1.8685 -1.7723  2.2308
 3727SOL    HW222644   4.167   0.583   6.255  0.3860  1.0192 -0.1519
 3728SOL     OW22645   0.759   3.855   9.009  0.1661  0.3363  0.1913
 3728SOL    HW122646   0.840   3.845   9.059 -0.3061 -1.1707  0.6321
 3728SOL    HW222647   0.790   3.822   8.924 -2.2041  2.0721 -1.3368
 3729SOL     OW22648   3.180   3.568   4.977 -0.1311  0.4074  0.5367
 3729SOL    HW122649   3.142   3.632   5.036  1.3411  1.7364  0.0583
 3729SOL    HW222650   3.112   3.500   4.980  0.1387  0.1759  1.4174
 3730SOL     OW22651   1.080   1.005  16.965 -0.5058  0.1991  0.2164
 3730SOL    HW122652   1.053   0.920  16.931  0.4213 -0.4906  1.1859
 3730SOL    HW222653   1.012   1.069  16.943 -0.0865  0.5009 -0.1981
 3731SOL     OW22654   1.113   4.330   5.215  0.2729  0.4995  0.7043
 3731SOL    HW122655   1.193   4.304   5.170  0.2070  0.9204  0.3436
 3731SOL    HW222656   1.062   4.345   5.134  0.8689 -0.5904  0.1206
 3732SOL     OW22657   3.250   3.236   8.408 -0.4692 -0.0564  0.2753
 3732SOL    HW122658   3.290   3.268   8.327 -1.6116  0.0277 -0.2693
 3732SOL    HW222659   3.220   3.148   8.388  0.9046 -0.0995 -1.5980
 3733SOL     OW22660   1.760   2.246   0.218 -0.0858 -0.3885  0.7215
 3733SOL    HW122661   1.734   2.158   0.191 -1.0493  0.9331 -2.6152
 3733SOL    HW222662   1.847   2.220   0.249  0.0245 -2.1646 -1.1182
 3734SOL     OW22663   0.631   3.043  14.207 -0.5084 -0.1829 -0.2662
 3734SOL    HW122664   0.625   2.989  14.128 -0.1948 -0.4790 -0.0835
 3734SOL    HW222665   0.693   2.985  14.252  0.4397  0.4364 -0.7930
 3735SOL     OW22666   1.127   1.027   4.178 -0.0021  0.2989 -0.6748
 3735SOL    HW122667   1.051   1.032   4.120 -0.2216 -1.6153 -0.5480
 3735SOL    HW222668   1.105   0.961   4.244  2.7223 -0.2693 -0.3318
 3736SOL     OW22669   4.359   3.523   7.619 -0.2160  0.2175  0.2316
 3736SOL    HW122670   4.340   3.556   7.531 -0.6902 -3.1202 -0.8868
 3736SOL    HW222671   4.453   3.506   7.614 -0.7028 -1.7346 -2.1483
 3737SOL     OW22672   2.020   3.349   1.769 -0.0750 -0.1643  0.4502
 3737SOL    HW122673   1.933   3.309   1.771 -0.3848  0.5310  0.9826
 3737SOL    HW222674   2.006   3.437   1.735  0.1348  0.1434  1.1695
 3738SOL     OW22675   3.976   2.112   9.031  0.3047 -0.3909 -0.1734
 3738SOL    HW122676   4.057   2.119   8.980 -0.0582 -1.8971 -0.9596
 3738SOL    HW222677   3.995   2.125   9.123 -1.0994  0.5612 -0.0055
 3739SOL     OW22678   4.526   3.509   4.783 -0.3784  0.3251  0.2099
 3739SOL    HW122679   4.512   3.416   4.768 -1.5358  0.0597  2.9649
 3739SOL    HW222680   4.478   3.558   4.718  0.7194  0.0528 -0.8088
 3740SOL     OW22681   2.325   3.473   1.457  0.1435 -0.2100 -0.1912
 3740SOL    HW122682   2.277   3.415   1.397  3.2020 -3.5504  0.6255
 3740SOL    HW222683   2.406   3.491   1.410  0.1648  2.0354  0.7095
 3741SOL     OW22684   4.060   1.211   4.586  0.6485  0.3122  0.5454
 3741SOL    HW122685   4.113   1.291   4.583 -0.5686  1.0698 -0.9013
 3741SOL    HW222686   4.072   1.165   4.503 -0.3806  0.9214  0.0582
 3742SOL     OW22687   0.899   1.984   6.179  0.2037  0.3696 -0.6914
 3742SOL    HW122688   0.880   1.890   6.191  0.3886  0.5323  0.9249
 3742SOL    HW222689   0.811   2.007   6.150 -0.8658 -2.5645  0.1556
 3743SOL     OW22690   4.718   4.365   6.636 -0.0081  0.5062 -0.0573
 3743SOL    HW122691   4.665   4.437   6.603 -1.5231 -1.0807 -1.0572
 3743SOL    HW222692   4.695   4.358   6.728  0.6466  3.8325  0.3386
 3744SOL     OW22693   3.847   3.280  10.957  0.3659 -0.6568 -0.2560
 3744SOL    HW122694   3.873   3.234  10.877 -1.4308 -0.4034 -0.9862
 3744SOL    HW222695   3.924   3.334  10.974  0.2994 -0.7090  0.1993
 3745SOL     OW22696   1.586   2.605  10.305 -0.2053 -0.6293  0.0375
 3745SOL    HW122697   1.633   2.686  10.322  0.1480 -1.0185  0.9061
 3745SOL    HW222698   1.653   2.552  10.347 -0.6632 -0.0662  1.4545
 3746SOL     OW22699   3.200   3.455  12.140  0.3506 -0.0428 -0.4776
 3746SOL    HW122700   3.250   3.453  12.221 -0.3633  1.8053  0.0092
 3746SOL    HW222701   3.164   3.544  12.143 -2.5728 -1.2643  0.6329
 3747SOL     OW22702   0.445   1.352   7.729  0.7404  0.7253 -0.1115
 3747SOL    HW122703   0.442   1.392   7.817 -1.2944 -0.8059  0.5107
 3747SOL    HW222704   0.424   1.427   7.673 -0.0076  1.2847  0.9210
 3748SOL     OW22705   0.335   4.552   0.151  0.5378  0.0502  0.1697
 3748SOL    HW122706   0.267   4.505   0.104 -0.9811  0.6758  1.7556
 3748SOL    HW222707   0.411   4.494   0.153 -2.1037 -3.3833 -1.0184
 3749SOL     OW22708   2.898   3.205   6.071  0.6783  0.7514 -0.0323
 3749SOL    HW122709   2.885   3.213   6.165  0.4896 -2.8483  0.2591
 3749SOL    HW222710   2.986   3.168   6.078 -0.1231 -1.0037  0.7887
 3750SOL     OW22711   0.950   2.996   7.142 -0.6731 -0.0906 -0.3484
 3750SOL    HW122712   0.877   2.959   7.093 -0.7118 -0.8618  0.3012
 3750SOL    HW222713   0.996   3.032   7.066 -0.4942 -2.9452 -1.5565
 3751SOL     OW22714   1.245   4.144   2.100  0.2848  0.6305  0.1714
 3751SOL    HW122715   1.200   4.190   2.030 -0.6062 -1.9910 -0.9815
 3751SOL    HW222716   1.167   4.117   2.149  0.6441  0.4248  0.6276
 3752SOL     OW22717   1.049   2.392   6.275 -0.5576 -0.5752  0.4287
 3752SOL    HW122718   1.115   2.358   6.214 -0.3492 -1.2939  1.0552
 3752SOL    HW222719   1.078   2.483   6.274  2.0540 -1.4308 -2.8956
 3753SOL     OW22720   2.576   0.244  10.431 -0.4136 -0.6526  0.2872
 3753SOL    HW122721   2.615   0.332  10.434 -1.9331  0.1192 -2.4023
 3753SOL    HW222722   2.636   0.208  10.366 -1.3476 -1.1531 -0.2825
 3754SOL     OW22723   0.046   3.223   9.359 -0.4571 -0.0648  0.2844
 3754SOL    HW122724   0.085   3.285   9.297 -2.0904 -0.4236 -1.0965
 3754SOL    HW222725   0.044   3.278   9.438  1.9536 -0.6744  0.7800
 3755SOL     OW22726   2.293   2.398   8.469 -0.4048  0.2023 -0.4424
 3755SOL    HW122727   2.310   2.487   8.497 -1.5320  0.5701 -0.9047
 3755SOL    HW222728   2.213   2.409   8.418 -0.1901 -0.3258 -0.8971
 3756SOL     OW22729   4.199   3.246   1.824  0.4606 -0.1435 -0.7661
 3756SOL    HW122730   4.180   3.232   1.732  2.4898 -1.6826 -0.9330
 3756SOL    HW222731   4.113   3.267   1.862  0.7624 -1.2661  0.5506
 3757SOL     OW22732   0.271   0.335   5.645 -0.3933 -0.3941 -0.4030
 3757SOL    HW122733   0.176   0.334   5.635 -0.4080  1.5558 -0.4966
 3757SOL    HW222734   0.289   0.260   5.702 -1.2405 -2.0289 -2.3039
 3758SOL     OW22735   0.325   0.505  16.858  0.1802 -0.4300 -0.4179
 3758SOL    HW122736   0.399   0.545  16.812  2.0423  1.1466  3.9533
 3758SOL    HW222737   0.277   0.494  16.776 -1.5655  2.8726  0.1962
 3759SOL     OW22738   3.357   2.027   5.697 -0.1656 -0.0742  0.5021
 3759SOL    HW122739   3.438   1.995   5.737  0.4696 -0.5043 -1.1161
 3759SOL    HW222740   3.304   2.045   5.775  1.3852 -1.4331  1.8853
 3760SOL     OW22741   0.008   1.437  13.527 -0.5276 -0.2530  0.1558
 3760SOL    HW122742   0.058   1.381  13.468  0.4342  1.9722 -1.1404
 3760SOL    HW222743   0.071   1.460  13.594 -0.5781  1.1417 -0.2658
 3761SOL     OW22744   3.833   1.653  12.930  0.1189  0.0478 -0.2077
 3761SOL    HW122745   3.835   1.613  13.016 -0.7114 -0.0778 -0.2463
 3761SOL    HW222746   3.903   1.718  12.935 -0.8801  1.2862 -2.0878
 3762SOL     OW22747   1.691   1.676  14.164  0.1353 -0.4516 -0.7403
 3762SOL    HW122748   1.767   1.620  14.180  1.3625  1.0985 -1.1458
 3762SOL    HW222749   1.727   1.728  14.092  1.6064  1.2607  1.2184
 3763SOL     OW22750   3.042   1.679   2.686  0.1777 -0.0481  0.3810
 3763SOL    HW122751   3.065   1.761   2.643  1.8764  1.0941  3.4584
 3763SOL    HW222752   3.122   1.631   2.667 -0.1855 -1.1464  1.6083
 3764SOL     OW22753   4.233   3.136   9.235  0.0842  0.0490 -0.6500
 3764SOL    HW122754   4.294   3.127   9.162 -0.9328  1.3801 -1.6578
 3764SOL    HW222755   4.185   3.215   9.210 -2.1132 -1.3239 -0.7119
 3765SOL     OW22756   3.277   4.364  14.354 -0.4011 -0.3278 -0.0652
 3765SOL    HW122757   3.187   4.332  14.346 -1.1801  2.0723 -0.7955
 3765SOL    HW222758   3.255   4.456  14.366  3.3263  0.8512 -2.2571
 3766SOL     OW22759   1.217   2.960   1.049 -0.1314 -0.2815  0.3022
 3766SOL    HW122760   1.193   2.935   0.960 -0.6071 -2.4007  1.0183
 3766SOL    HW222761   1.282   3.030   1.046 -0.8640  0.3854  0.1089
 3767SOL     OW22762   0.706   0.385   5.558  0.5577  0.0468 -0.5480
 3767SOL    HW122763   0.749   0.442   5.621 -1.0808  0.3180  0.3493
 3767SOL    HW222764   0.615   0.417   5.559  0.1420 -1.1348 -0.3763
 3768SOL     OW22765   4.497   2.679   4.988  0.1974 -0.2883  0.1193
 3768SOL    HW122766   4.512   2.771   5.014 -1.3542  0.2723 -0.9883
 3768SOL    HW222767   4.449   2.693   4.907  1.8606 -1.5179 -1.0663
 3769SOL     OW22768   3.922   2.922  16.730  0.4265  0.0524 -0.2255
 3769SOL    HW122769   3.991   2.974  16.688  0.6373 -2.3288 -2.8327
 3769SOL    HW222770   3.918   2.845  16.673  1.3156 -0.4921  0.4478
 3770SOL     OW22771   4.235   1.421   9.831 -0.2570  0.1080  0.2222
 3770SOL    HW122772   4.264   1.444   9.919  1.8818  0.0818 -0.4887
 3770SOL    HW222773   4.215   1.328   9.841  3.0458 -0.6299 -0.1345
 3771SOL     OW22774   0.973   0.850   2.393  0.2000  0.0208 -0.1976
 3771SOL    HW122775   1.046   0.872   2.335  1.0647  0.5476  1.0886
 3771SOL    HW222776   0.997   0.897   2.473  0.3620 -1.5146  0.6437
 3772SOL     OW22777   2.482   2.786   7.686 -0.2429  0.4865 -0.3438
 3772SOL    HW122778   2.460   2.857   7.746  3.5784  1.1347  0.2747
 3772SOL    HW222779   2.563   2.754   7.725 -0.4528 -0.0825 -0.3872
 3773SOL     OW22780   4.646   4.703  11.464  0.1764 -0.0939  0.2699
 3773SOL    HW122781   0.017   4.680  11.466  0.8935  2.7199 -0.5354
 3773SOL    HW222782   4.638   4.697  11.369 -0.3826  2.0423  0.1718
 3774SOL     OW22783   0.212   1.837   9.694 -0.2251 -0.1211 -0.6373
 3774SOL    HW122784   0.141   1.900   9.707  0.3577  0.4283 -0.1674
 3774SOL    HW222785   0.167   1.754   9.711 -1.2403  0.8667  1.4956
 3775SOL     OW22786   3.887   3.307   3.862 -0.1352 -0.5745  0.0934
 3775SOL    HW122787   3.817   3.302   3.797 -0.8326 -0.0892  0.8080
 3775SOL    HW222788   3.850   3.343   3.943 -1.1154 -0.5122 -0.3893
 3776SOL     OW22789   3.304   0.290   3.121 -0.1830 -0.2767  0.3102
 3776SOL    HW122790   3.389   0.287   3.077  0.2382 -1.1777  1.1752
 3776SOL    HW222791   3.283   0.384   3.119 -1.7533 -0.6177  0.6960
 3777SOL     OW22792   1.304   4.667   2.879 -0.2211 -0.4554  0.0582
 3777SOL    HW122793   1.313   4.658   2.784  0.7829  1.5179 -0.0308
 3777SOL    HW222794   1.315   4.574   2.902  1.4170 -0.2803  0.0126
 3778SOL     OW22795   1.158   4.387   8.612  0.0869  0.1046  0.6828
 3778SOL    HW122796   1.087   4.450   8.623 -0.3898 -0.8178  2.9302
 3778SOL    HW222797   1.231   4.449   8.602  0.0604  0.0380  0.1284
 3779SOL     OW22798   1.318   1.318  15.087 -0.1428  0.2633 -0.1845
 3779SOL    HW122799   1.331   1.401  15.132  1.8503 -0.3258  0.3245
 3779SOL    HW222800   1.362   1.337  15.004  0.4586  2.5495  0.6778
 3780SOL     OW22801   3.052   0.655   8.429  0.2570 -0.2850  0.2049
 3780SOL    HW122802   3.032   0.609   8.348  0.4093  0.6848 -0.3820
 3780SOL    HW222803   3.057   0.743   8.392  1.2188 -0.2519  0.4162
 3781SOL     OW22804   4.108   3.749  14.798 -0.1678 -0.3706 -0.2093
 3781SOL    HW122805   4.092   3.795  14.716 -4.7608  0.0492  0.9160
 3781SOL    HW222806   4.169   3.808  14.842 -0.8851  0.1195  0.1266
 3782SOL     OW22807   3.765   3.295  12.874 -0.3180  0.1098 -0.0038
 3782SOL    HW122808   3.858   3.290  12.849 -1.5938 -1.6651 -4.2413
 3782SOL    HW222809   3.741   3.206  12.849 -1.4585  0.8096 -1.3761
 3783SOL     OW22810   3.843   4.426  15.945 -0.3228  0.1688 -0.3070
 3783SOL    HW122811   3.811   4.374  16.018  2.9585 -0.3850  0.7273
 3783SOL    HW222812   3.828   4.518  15.969  1.7901  0.9547 -2.0056
 3784SOL     OW22813   0.934   3.079   8.182  0.1824  0.3809  0.7601
 3784SOL    HW122814   0.916   3.032   8.100  0.6682  2.4369 -0.5197
 3784SOL    HW222815   0.843   3.106   8.197 -0.1308 -0.6928  0.7965
 3785SOL     OW22816   1.877   3.932   3.378 -0.5731  0.4203  0.2757
 3785SOL    HW122817   1.858   3.845   3.412  1.1556 -0.5856 -1.3892
 3785SOL    HW222818   1.878   3.906   3.287 -2.7207  1.2861 -0.0011
 3786SOL     OW22819   2.338   2.362   5.017 -0.6974  0.4972 -0.0784
 3786SOL    HW122820   2.344   2.266   5.019  2.8670  0.7506  1.4151
 3786SOL    HW222821   2.308   2.374   4.927 -0.2415  0.4091 -0.2452
 3787SOL     OW22822   0.572   3.605  11.462 -0.1410 -0.1963  0.1356
 3787SOL    HW122823   0.561   3.654  11.380 -1.7521 -0.6974  0.0454
 3787SOL    HW222824   0.627   3.532  11.433  0.8785  0.8124 -0.4772
 3788SOL     OW22825   2.865   1.346  11.071 -0.9236 -0.4252  0.7101
 3788SOL    HW122826   2.936   1.322  11.130  0.5789  2.4723  0.0406
 3788SOL    HW222827   2.855   1.440  11.087 -0.4677 -0.0521 -1.2097
 3789SOL     OW22828   1.497   4.131   6.578  0.2151  0.0799 -0.1045
 3789SOL    HW122829   1.417   4.132   6.526 -0.4527  0.1313  0.9132
 3789SOL    HW222830   1.552   4.166   6.508  1.3059 -3.4690 -0.9977
 3790SOL     OW22831   3.041   0.985   4.880  0.0329  0.5866  0.2866
 3790SOL    HW122832   3.033   0.944   4.795  0.4309  1.8344 -0.3568
 3790SOL    HW222833   3.134   0.965   4.883 -0.3454 -1.1149  0.3169
 3791SOL     OW22834   2.435   0.339  13.837 -0.4569 -0.1990  0.2907
 3791SOL    HW122835   2.364   0.382  13.885 -1.6596 -1.8466 -0.0144
 3791SOL    HW222836   2.370   0.287  13.789  1.8928 -0.6658 -2.3358
 3792SOL     OW22837   3.174   3.292   1.799 -0.4078 -0.3469 -0.1358
 3792SOL    HW122838   3.267   3.273   1.799 -0.4806 -0.7067  1.7009
 3792SOL    HW222839   3.154   3.301   1.892  0.0908  2.2642 -0.2869
 3793SOL     OW22840   0.386   0.672   2.480  0.2126  0.0133 -0.1296
 3793SOL    HW122841   0.447   0.601   2.462  1.1216  0.7894 -0.1022
 3793SOL    HW222842   0.440   0.750   2.470 -0.4281  0.5666  0.6850
 3794SOL     OW22843   3.054   1.669   2.962 -0.1144  0.2123 -0.2023
 3794SOL    HW122844   3.081   1.761   2.964  3.4121 -0.9181  2.4831
 3794SOL    HW222845   3.016   1.656   2.875  1.3108 -0.4073 -0.7161
 3795SOL     OW22846   4.568   1.243   9.420 -0.1211 -0.3071  0.0444
 3795SOL    HW122847   4.584   1.154   9.389 -2.1158 -0.5667 -0.1994
 3795SOL    HW222848   4.481   1.228   9.455 -0.0822  1.7690  1.0059
 3796SOL     OW22849   4.174   2.661  13.720 -0.6185 -0.3769  0.1312
 3796SOL    HW122850   4.133   2.665  13.633 -2.3053  2.0120  1.0237
 3796SOL    HW222851   4.172   2.755  13.740  2.3507 -0.3095  0.1116
 3797SOL     OW22852   2.923   2.278   2.489  0.1285  0.2661  0.2186
 3797SOL    HW122853   2.921   2.328   2.571  0.4704 -1.1003  1.0560
 3797SOL    HW222854   2.857   2.323   2.435  0.7626  0.9538  0.0281
 3798SOL     OW22855   1.782   4.030   6.049  0.1985 -0.2789  0.1391
 3798SOL    HW122856   1.762   4.073   5.965 -1.3413 -1.1795  0.0477
 3798SOL    HW222857   1.794   3.939   6.025 -1.0164 -0.5252  0.4569
 3799SOL     OW22858   0.849   1.490  15.357 -0.0276 -0.1441 -0.0146
 3799SOL    HW122859   0.821   1.446  15.277 -1.1942  1.2270 -0.3692
 3799SOL    HW222860   0.894   1.568  15.324  0.7808  0.3435  2.1950
 3800SOL     OW22861   1.861   3.985  14.476 -0.2672 -0.4819  0.1818
 3800SOL    HW122862   1.814   4.060  14.513  0.0958  0.3184 -0.9567
 3800SOL    HW222863   1.870   4.012  14.384  2.4962 -2.4546 -0.1225
 3801SOL     OW22864   0.060   2.309  15.913  0.0120  0.3905 -0.0960
 3801SOL    HW122865   0.115   2.364  15.857 -0.5309  0.2020 -0.8136
 3801SOL    HW222866   0.029   2.379  15.970  0.2937 -1.2909  2.1222
 3802SOL     OW22867   1.569   0.867  15.782 -0.0181 -0.1345 -0.4010
 3802SOL    HW122868   1.504   0.892  15.716  0.7220  2.1658 -0.2494
 3802SOL    HW222869   1.566   0.944  15.839 -0.9157  0.4139 -1.1761
 3803SOL     OW22870   4.022   0.873   1.864  0.0287  0.0941  0.0127
 3803SOL    HW122871   3.995   0.785   1.837  0.5268  0.3639 -1.3544
 3803SOL    HW222872   4.099   0.845   1.913 -0.3837  1.4001  1.3843
 3804SOL     OW22873   3.032   0.831   4.659 -0.2739 -0.7453 -0.1477
 3804SOL    HW122874   3.092   0.836   4.585  1.8535  1.0802  1.7097
 3804SOL    HW222875   3.030   0.738   4.679 -1.3378 -0.4642  1.0620
 3805SOL     OW22876   1.754   2.760   3.312 -0.0334 -0.1458  0.3279
 3805SOL    HW122877   1.750   2.855   3.320 -0.3782 -0.2616  1.5942
 3805SOL    HW222878   1.840   2.747   3.272 -0.9237  0.3651 -1.7305
 3806SOL     OW22879   1.783   1.780  12.916  0.4892 -0.5116  0.9670
 3806SOL    HW122880   1.819   1.707  12.865 -2.5868 -0.5971 -1.0860
 3806SOL    HW222881   1.689   1.768  12.904  0.6657  0.4552 -1.3512
 3807SOL     OW22882   3.369   0.397   5.244  0.4290 -0.3717 -0.1645
 3807SOL    HW122883   3.326   0.469   5.199  1.0702 -0.6145 -1.1618
 3807SOL    HW222884   3.401   0.343   5.172  0.9363 -2.2719  1.4689
 3808SOL     OW22885   1.894   3.206   6.123  0.4227 -0.1703 -0.3613
 3808SOL    HW122886   1.886   3.204   6.218 -2.9229  0.0743 -0.6491
 3808SOL    HW222887   1.864   3.293   6.096 -1.0110  0.0847  2.0474
 3809SOL     OW22888   0.984   3.708   7.212  0.2971  0.4221  0.2832
 3809SOL    HW122889   0.929   3.732   7.287  0.9078  2.2631  0.1566
 3809SOL    HW222890   0.923   3.657   7.159  1.6818 -1.9160  0.9657
 3810SOL     OW22891   4.684   1.598   1.488 -0.5031  0.1354 -0.2627
 3810SOL    HW122892   4.593   1.627   1.497  0.0403  1.7100  0.1037
 3810SOL    HW222893   4.698   1.615   1.395 -1.2631 -1.1484 -0.6100
 3811SOL     OW22894   4.404   1.969   1.963  0.3582  0.9037  0.1168
 3811SOL    HW122895   4.493   1.940   1.984  0.1750  0.3967  0.2019
 3811SOL    HW222896   4.420   2.023   1.886  1.5725  0.1989 -0.1366
 3812SOL     OW22897   2.205   4.425   6.209 -0.5404 -0.3667  0.1804
 3812SOL    HW122898   2.267   4.376   6.155  1.8982  2.6277  0.2748
 3812SOL    HW222899   2.156   4.472   6.142  0.5781  0.7605  0.1601
 3813SOL     OW22900   1.597   4.312   7.752 -0.4892  0.3379 -0.4720
 3813SOL    HW122901   1.547   4.320   7.834  0.4282  0.9115  0.0276
 3813SOL    HW222902   1.662   4.245   7.773  1.4473  1.7359 -2.0248
 3814SOL     OW22903   2.728   1.785   6.394 -0.0778 -0.0897  0.4688
 3814SOL    HW122904   2.652   1.755   6.345 -1.4425 -0.1215  2.6389
 3814SOL    HW222905   2.691   1.843   6.460  0.9777 -2.0834  2.8017
 3815SOL     OW22906   1.145   4.187  13.839  0.2553 -0.3255 -0.3019
 3815SOL    HW122907   1.220   4.128  13.847 -0.3057 -0.8462  1.2434
 3815SOL    HW222908   1.176   4.276  13.851  0.4781 -0.4877  0.3336
 3816SOL     OW22909   3.731   3.888   3.893  0.2033 -0.4046 -0.1486
 3816SOL    HW122910   3.647   3.885   3.847 -0.7238  2.2203  1.3726
 3816SOL    HW222911   3.723   3.809   3.947  1.4353 -0.7097 -0.4320
 3817SOL     OW22912   3.405   3.427  12.319  0.0332  0.2722  0.1102
 3817SOL    HW122913   3.414   3.521  12.309  1.6877  0.0101 -0.8552
 3817SOL    HW222914   3.477   3.402  12.379  0.2014 -0.0553 -0.2261
 3818SOL     OW22915   1.360   4.260   5.565 -0.5546 -0.1521 -0.0870
 3818SOL    HW122916   1.405   4.186   5.605  1.3511 -0.2114 -2.3485
 3818SOL    HW222917   1.282   4.274   5.619  0.3130 -0.3489  1.2109
 3819SOL     OW22918   1.465   2.591  10.074  0.0200  0.5805  0.1210
 3819SOL    HW122919   1.381   2.584  10.119  0.3939  0.2616  0.7663
 3819SOL    HW222920   1.527   2.584  10.146 -1.5964  0.1761  1.4805
 3820SOL     OW22921   0.158   0.530   6.715  0.1070 -0.0865 -0.0436
 3820SOL    HW122922   0.066   0.550   6.735  0.6781  0.8483  1.6369
 3820SOL    HW222923   0.201   0.520   6.799  1.6165  2.7081 -0.4659
 3821SOL     OW22924   4.620   3.084   7.734 -0.1382 -0.5663 -0.2600
 3821SOL    HW122925   4.578   3.153   7.784 -1.5408 -1.2259 -0.5319
 3821SOL    HW222926   4.646   3.129   7.653 -2.7316  1.2585 -0.0663
 3822SOL     OW22927   0.527   1.126   8.941 -0.1855  0.1607  0.1797
 3822SOL    HW122928   0.540   1.178   8.862 -0.5976 -0.7067 -0.4500
 3822SOL    HW222929   0.448   1.077   8.919  0.7330 -0.2851 -2.0498
 3823SOL     OW22930   4.519   0.562  12.547  0.2500 -0.5320 -0.1179
 3823SOL    HW122931   4.578   0.490  12.570  1.2431  0.8108  1.5732
 3823SOL    HW222932   4.452   0.544  12.612  1.4835 -0.1429  1.2654
 3824SOL     OW22933   1.440   2.792   5.287  0.0226 -0.6361 -0.5028
 3824SOL    HW122934   1.434   2.725   5.355 -1.4756  1.4280  1.4004
 3824SOL    HW222935   1.381   2.856   5.328  0.7008  0.5489 -1.3450
 3825SOL     OW22936   0.224   3.966  17.491 -0.7016  0.5650  0.2051
 3825SOL    HW122937   0.173   3.996  17.416  0.7869  0.3476 -0.8975
 3825SOL    HW222938   0.271   4.049  17.501 -0.3031  0.3312  0.2896
 3826SOL     OW22939   3.778   4.184   5.592  0.1368  0.2701  0.0421
 3826SOL    HW122940   3.719   4.157   5.663  0.2405 -2.3803 -0.8721
 3826SOL    HW222941   3.777   4.105   5.538  0.9848  0.8223 -0.7779
 3827SOL     OW22942   4.336   2.328   9.695  0.1317  0.3444 -0.3482
 3827SOL    HW122943   4.340   2.424   9.688 -1.2922  0.3306 -1.1663
 3827SOL    HW222944   4.247   2.316   9.728  0.6602 -1.9383  0.2496
 3828SOL     OW22945   2.563   1.156   5.330  0.8864  0.3414 -0.3919
 3828SOL    HW122946   2.589   1.067   5.354  0.7635  0.1022 -1.1519
 3828SOL    HW222947   2.540   1.154   5.237 -2.6786  1.8225  0.4905
 3829SOL     OW22948   0.211   1.429   5.231  0.8554 -0.0007 -0.5250
 3829SOL    HW122949   0.302   1.429   5.261  0.9992  2.3943 -0.9805
 3829SOL    HW222950   0.164   1.456   5.310 -2.1236 -2.2127 -1.5276
 3830SOL     OW22951   2.020   2.470  10.704 -0.0927  0.7897  0.4654
 3830SOL    HW122952   1.986   2.397  10.755 -1.0984  0.0627 -1.2384
 3830SOL    HW222953   2.099   2.494  10.751  0.7661 -0.7860 -0.1751
 3831SOL     OW22954   1.992   4.589   2.644  0.3022 -0.1527  0.2815
 3831SOL    HW122955   1.903   4.560   2.665 -0.1002  0.5236 -0.4918
 3831SOL    HW222956   2.011   4.509   2.595  2.2411 -0.3495  1.3548
 3832SOL     OW22957   2.087   4.531   3.298  0.3772 -0.4381  0.5519
 3832SOL    HW122958   2.038   4.560   3.375 -3.4124 -2.1639 -1.2334
 3832SOL    HW222959   2.105   4.442   3.328  1.5383 -0.8535 -1.3465
 3833SOL     OW22960   0.052   0.984  11.196 -0.0538 -0.0138 -0.2973
 3833SOL    HW122961   0.104   0.913  11.234  0.5592 -0.8762 -2.7521
 3833SOL    HW222962   0.115   1.008  11.128  1.5855  0.5838  1.4273
 3834SOL     OW22963   2.631   0.444   1.408  0.2055 -0.0249 -0.3304
 3834SOL    HW122964   2.620   0.355   1.375 -1.7314  0.0760  0.0390
 3834SOL    HW222965   2.560   0.492   1.366 -1.0514 -0.0727  1.7263
 3835SOL     OW22966   4.154   4.635  17.169  0.3702  0.0287  0.5832
 3835SOL    HW122967   4.136   4.622  17.262  0.9220 -1.2015  0.5225
 3835SOL    HW222968   4.181   4.549  17.137  0.4349  0.0939  0.4640
 3836SOL     OW22969   2.499   3.090   5.981  0.1789 -0.0245  0.4033
 3836SOL    HW122970   2.462   3.105   5.894 -1.5737  0.1888  1.1765
 3836SOL    HW222971   2.420   3.067   6.030  0.1580 -0.5551  0.1171
 3837SOL     OW22972   0.463   0.052   0.265 -0.1079  0.2339  0.3355
 3837SOL    HW122973   0.406   4.698   0.257  0.2433  0.1547 -1.4723
 3837SOL    HW222974   0.538   0.000   0.236 -1.4783 -1.7791  0.3833
 3838SOL     OW22975   0.950   3.349   1.472  0.1321 -0.0279 -0.1199
 3838SOL    HW122976   0.877   3.288   1.483 -1.0875  1.2656 -0.9261
 3838SOL    HW222977   0.949   3.356   1.377 -1.2423  2.6152  0.0786
 3839SOL     OW22978   1.174   1.268   7.094 -0.1608 -0.3627 -0.4109
 3839SOL    HW122979   1.255   1.227   7.063 -0.2964 -1.8602  1.2211
 3839SOL    HW222980   1.153   1.197   7.154  1.5057 -1.9279 -1.6488
 3840SOL     OW22981   0.372   0.970  16.767  0.1411 -0.4009 -0.4004
 3840SOL    HW122982   0.405   1.048  16.724  0.5994  1.3543  3.1481
 3840SOL    HW222983   0.362   0.995  16.858  1.4006  1.0966 -0.6972
 3841SOL     OW22984   3.272   4.175   5.555 -0.2334  0.3661 -0.7963
 3841SOL    HW122985   3.231   4.093   5.528 -0.0520 -0.4746  1.5203
 3841SOL    HW222986   3.275   4.227   5.474  1.0405  1.3242 -0.1318
 3842SOL     OW22987   2.377   4.147   4.548 -0.4086 -1.4502 -0.0356
 3842SOL    HW122988   2.440   4.211   4.579  1.1372 -2.0813 -1.8695
 3842SOL    HW222989   2.405   4.120   4.460 -0.8402  1.7440 -1.1259
 3843SOL     OW22990   4.697   4.304   0.626  0.1624  0.1154 -0.1792
 3843SOL    HW122991   0.033   4.264   0.690  0.5419 -0.1619 -0.6950
 3843SOL    HW222992   4.651   4.364   0.685  1.4402  0.5147  0.3955
 3844SOL     OW22993   2.495   1.921  17.042  0.2944 -0.2904 -0.1180
 3844SOL    HW122994   2.454   1.949  16.961  0.1288  0.5350  0.2504
 3844SOL    HW222995   2.586   1.950  17.041  0.1820  0.1227  1.4891
 3845SOL     OW22996   3.794   0.377   4.102  0.5238  0.4606 -0.1941
 3845SOL    HW122997   3.769   0.441   4.035 -0.5553 -0.1106 -0.3382
 3845SOL    HW222998   3.863   0.417   4.156  0.0860  0.5835  0.2715
 3846SOL     OW22999   0.864   2.298   7.945  0.4818  0.0392 -0.0311
 3846SOL    HW123000   0.792   2.261   7.996  1.0151 -2.5263 -1.1123
 3846SOL    HW223001   0.915   2.223   7.914  1.3406  1.2765 -1.6191
 3847SOL     OW23002   2.159   3.149   5.009  0.0562  0.2794  0.4524
 3847SOL    HW123003   2.077   3.101   4.996 -0.0497  0.7565 -0.6791
 3847SOL    HW223004   2.142   3.194   5.092 -1.8751  1.1153 -0.3868
 3848SOL     OW23005   4.373   0.566   7.506 -0.0126 -0.2596 -0.4146
 3848SOL    HW123006   4.407   0.654   7.524  0.8871 -0.5617 -0.6295
 3848SOL    HW223007   4.373   0.571   7.410 -1.0946 -0.7264 -0.4480
 3849SOL     OW23008   3.794   0.499   8.140 -0.0253 -0.1957  0.0109
 3849SOL    HW123009   3.789   0.543   8.055  2.9605 -0.6861 -0.3951
 3849SOL    HW223010   3.760   0.569   8.195  1.3154  0.3703  0.1089
 3850SOL     OW23011   4.195   2.403   0.888 -0.4455  0.8717 -0.2136
 3850SOL    HW123012   4.143   2.324   0.898  1.9159 -0.8268 -1.3309
 3850SOL    HW223013   4.128   2.468   0.866  1.9607  3.2533 -0.5552
 3851SOL     OW23014   3.575   0.478   3.639  0.3734  0.0336 -0.1368
 3851SOL    HW123015   3.561   0.438   3.725  3.1577 -0.4083  0.0936
 3851SOL    HW223016   3.670   0.473   3.628  0.7173  2.2741  1.6491
 3852SOL     OW23017   2.989   0.448   7.506  0.0585  0.3331  0.2009
 3852SOL    HW123018   2.944   0.382   7.453  0.2967 -0.2847  0.7743
 3852SOL    HW223019   2.923   0.460   7.574  0.8074  0.3020  0.9297
 3853SOL     OW23020   0.143   3.429   7.754 -0.0518  0.4940  0.8846
 3853SOL    HW123021   0.119   3.461   7.667 -2.1668 -0.1943  1.2167
 3853SOL    HW223022   0.068   3.448   7.811  0.2490  5.0856 -0.2208
 3854SOL     OW23023   0.384   4.582  16.938 -0.1980 -0.1686 -0.6138
 3854SOL    HW123024   0.416   4.640  16.868  4.6100 -1.6573  0.3209
 3854SOL    HW223025   0.291   4.565  16.926 -0.2598 -0.0292 -0.3325
 3855SOL     OW23026   3.148   3.995   7.691 -0.0683  0.4341 -0.1961
 3855SOL    HW123027   3.169   4.076   7.738 -1.0005 -0.1596  1.2595
 3855SOL    HW223028   3.209   3.934   7.732 -2.4981 -1.0497  1.2113
 3856SOL     OW23029   0.078   3.375   1.714  0.1086  0.3324  0.7306
 3856SOL    HW123030   4.708   3.354   1.701 -0.7857  3.6469  1.6558
 3856SOL    HW223031   0.096   3.285   1.740  1.2036  0.1979 -0.5160
 3857SOL     OW23032   1.453   0.702  15.403  0.1339  0.2870  0.6151
 3857SOL    HW123033   1.370   0.748  15.391 -0.9192 -1.6428  0.5025
 3857SOL    HW223034   1.512   0.768  15.366  1.8755 -1.5305  0.1324
 3858SOL     OW23035   0.242   1.161   7.807  0.4791 -0.0813  0.1677
 3858SOL    HW123036   0.293   1.214   7.746  1.0892 -2.2439 -1.1939
 3858SOL    HW223037   0.216   1.225   7.872 -0.2244  1.1435 -1.3316
 3859SOL     OW23038   0.622   1.141   7.742 -0.0532  0.2370  0.6114
 3859SOL    HW123039   0.567   1.213   7.710 -1.5180 -0.5410  1.4246
 3859SOL    HW223040   0.678   1.192   7.800  1.9983 -2.4232  0.9678
 3860SOL     OW23041   1.828   3.900   9.560  0.1288 -0.1646 -0.4091
 3860SOL    HW123042   1.737   3.915   9.588  0.3497  0.1204  0.1541
 3860SOL    HW223043   1.859   3.842   9.630 -0.5903  0.6429  0.5725
 3861SOL     OW23044   3.889   3.345   8.794  0.0437 -0.1324 -0.1879
 3861SOL    HW123045   3.873   3.336   8.888  1.8521 -0.4274  0.0856
 3861SOL    HW223046   3.972   3.299   8.782 -0.2885 -0.6547 -0.5276
 3862SOL     OW23047   2.159   3.695  14.686  0.0006 -0.6729  0.6047
 3862SOL    HW123048   2.197   3.608  14.676 -2.5142 -1.4559 -1.7838
 3862SOL    HW223049   2.195   3.725  14.770  1.6932 -0.8898 -0.0482
 3863SOL     OW23050   1.280   3.925   0.602  0.1556 -0.7000  0.2928
 3863SOL    HW123051   1.215   3.958   0.665  0.9366  1.2779  0.0432
 3863SOL    HW223052   1.260   3.994   0.539 -0.4237 -0.6899  0.4873
 3864SOL     OW23053   1.385   0.118   2.201  0.1954 -0.6617  0.0537
 3864SOL    HW123054   1.475   0.141   2.225  1.0305 -3.7003 -0.1431
 3864SOL    HW223055   1.379   0.024   2.218  1.0395 -0.4271  1.6596
 3865SOL     OW23056   0.903   1.043   3.479 -0.0336 -0.3066 -0.3186
 3865SOL    HW123057   0.908   1.117   3.418 -0.9187 -0.1751 -0.2392
 3865SOL    HW223058   0.814   1.024   3.509 -0.2304 -0.1277 -0.7946
 3866SOL     OW23059   1.388   2.711   0.142  0.3914  0.0897 -0.8821
 3866SOL    HW123060   1.384   2.629   0.092  1.0369 -0.8083  0.5597
 3866SOL    HW223061   1.295   2.720   0.166  0.2664 -2.8567 -0.3210
 3867SOL     OW23062   4.273   1.801   7.727  0.6568  0.2407  0.0516
 3867SOL    HW123063   4.317   1.826   7.645  1.0215 -2.9396 -0.7457
 3867SOL    HW223064   4.190   1.768   7.693  1.0821  0.7559 -1.5281
 3868SOL     OW23065   0.548   3.066  15.195  0.4217  0.1239  0.0993
 3868SOL    HW123066   0.623   3.055  15.137  0.4963  0.2715  0.1693
 3868SOL    HW223067   0.481   3.070  15.127 -1.2017 -3.5692  1.4321
 3869SOL     OW23068   0.759   3.839  11.425  0.0738  0.2791  0.6850
 3869SOL    HW123069   0.842   3.795  11.406  0.3744  1.0519  0.2219
 3869SOL    HW223070   0.740   3.828  11.518  0.5761  0.8600  0.8625
 3870SOL     OW23071   3.165   0.574   0.806 -0.3078 -0.5749  0.3813
 3870SOL    HW123072   3.123   0.567   0.891  0.0073  1.0107  0.6667
 3870SOL    HW223073   3.135   0.490   0.770  0.0804 -0.3220 -0.5398
 3871SOL     OW23074   1.192   3.614   7.792 -0.3775 -0.1844  0.0006
 3871SOL    HW123075   1.155   3.576   7.872 -0.7143  0.6500  0.2421
 3871SOL    HW223076   1.276   3.628   7.837 -0.5397 -0.1107  0.2827
 3872SOL     OW23077   2.937   3.495   8.483 -0.0573 -0.2631  0.2520
 3872SOL    HW123078   2.994   3.545   8.425 -2.2688 -1.0272 -2.6126
 3872SOL    HW223079   2.992   3.510   8.560 -0.9627  0.3705  0.7773
 3873SOL     OW23080   3.142   1.928   2.980  0.0677 -0.5810  0.6474
 3873SOL    HW123081   3.170   1.960   2.894 -1.8769 -0.8436 -0.0763
 3873SOL    HW223082   3.226   1.919   3.026  0.3081 -0.2299  0.2802
 3874SOL     OW23083   4.522   1.150   5.564  0.4970  0.1073 -0.4909
 3874SOL    HW123084   4.515   1.112   5.476  0.7008 -2.9770  0.8471
 3874SOL    HW223085   4.526   1.242   5.538  2.4530  0.3450  0.6760
 3875SOL     OW23086   4.601   4.008   7.407 -0.9657 -0.2998  0.5244
 3875SOL    HW123087   4.627   4.088   7.453  1.7967 -1.3652  0.8524
 3875SOL    HW223088   4.521   3.984   7.454 -1.4686  1.9757  0.7966
 3876SOL     OW23089   4.690   2.714   9.396  0.2893  0.3989  0.2038
 3876SOL    HW123090   4.660   2.759   9.475 -0.3687 -0.0027  0.1836
 3876SOL    HW223091   4.603   2.689   9.364  1.0239 -0.5766 -1.0181
 3877SOL     OW23092   0.982   1.151   8.084 -0.3692 -0.2466  0.3260
 3877SOL    HW123093   1.017   1.066   8.111  0.4385 -0.5330 -1.6346
 3877SOL    HW223094   1.058   1.193   8.044  0.3730 -0.5170  1.4746
 3878SOL     OW23095   2.252   0.427   6.898 -0.0672 -0.6905  0.7672
 3878SOL    HW123096   2.207   0.512   6.898 -0.2041 -0.7609  2.2144
 3878SOL    HW223097   2.341   0.448   6.869 -0.6798 -1.4900 -1.7114
 3879SOL     OW23098   3.987   0.910  13.475  0.1029 -0.2086  0.1446
 3879SOL    HW123099   3.983   1.006  13.468  0.2682 -0.1377  1.0623
 3879SOL    HW223100   3.927   0.884  13.405  1.4268 -0.3380 -0.9453
 3880SOL     OW23101   3.377   2.351   3.283 -0.1087  0.1695  0.0940
 3880SOL    HW123102   3.419   2.277   3.326 -0.2142  0.8580  1.3984
 3880SOL    HW223103   3.452   2.408   3.267 -0.3944 -0.0068 -1.8299
 3881SOL     OW23104   2.558   4.450   6.706 -0.0328 -0.8272  0.3406
 3881SOL    HW123105   2.499   4.488   6.641  1.9554  2.3305  0.4050
 3881SOL    HW223106   2.634   4.440   6.649  1.3092  0.6428  1.8791
 3882SOL     OW23107   3.865   2.727   8.799  0.2886 -1.0329 -0.1738
 3882SOL    HW123108   3.881   2.681   8.881 -1.1095  1.5100  1.5222
 3882SOL    HW223109   3.802   2.790   8.835  1.3205 -0.6218  0.9023
 3883SOL     OW23110   0.885   1.883  10.348 -0.5140  0.2765 -0.0209
 3883SOL    HW123111   0.938   1.854  10.274 -0.8199  0.7281 -0.4174
 3883SOL    HW223112   0.919   1.817  10.408 -0.4909 -0.0871 -0.4343
 3884SOL     OW23113   0.336   0.832  11.046  0.2627 -0.1395  0.3513
 3884SOL    HW123114   0.372   0.757  10.998 -0.9094 -0.0982 -0.6067
 3884SOL    HW223115   0.340   0.796  11.134 -1.0812 -1.6480 -0.1953
 3885SOL     OW23116   1.156   2.900   1.434 -0.5454 -0.1722  0.3382
 3885SOL    HW123117   1.196   2.890   1.520  1.6495  0.2504 -0.6374
 3885SOL    HW223118   1.149   2.995   1.447 -2.0579 -0.1838 -0.3595
 3886SOL     OW23119   1.219   4.029  11.443  0.1524  0.2917 -0.2137
 3886SOL    HW123120   1.213   4.001  11.534 -0.4879 -0.5095 -0.5124
 3886SOL    HW223121   1.196   3.948  11.399  0.4622  0.1722 -0.1539
 3887SOL     OW23122   4.027   2.166   9.948  0.1692  0.1125  0.0733
 3887SOL    HW123123   4.058   2.223   9.877 -0.3199  1.2474  0.7579
 3887SOL    HW223124   4.112   2.151   9.988  1.0127  0.3410 -1.6391
 3888SOL     OW23125   3.271   0.608  13.323 -0.5201  0.1834 -0.2030
 3888SOL    HW123126   3.361   0.589  13.350 -0.1279 -0.3877 -1.9304
 3888SOL    HW223127   3.282   0.668  13.249 -0.6140  0.9783  0.4201
 3889SOL     OW23128   2.655   1.277   6.977  0.3649 -0.0459 -0.5394
 3889SOL    HW123129   2.607   1.356   7.002  0.8446 -0.2565  1.0894
 3889SOL    HW223130   2.740   1.320   6.970 -0.3719  1.6111  0.7593
 3890SOL     OW23131   3.401   0.653  17.677  0.3065  0.3562  0.4241
 3890SOL    HW123132   3.384   0.680   0.074  0.3809 -1.4642  0.9991
 3890SOL    HW223133   3.497   0.659  17.677  0.4042 -0.9834 -0.5158
 3891SOL     OW23134   0.058   1.987   1.134  0.1936 -0.1949 -0.2544
 3891SOL    HW123135   0.078   2.081   1.130  0.3384 -0.2310 -0.3660
 3891SOL    HW223136   4.707   1.985   1.195  0.0601 -1.4704 -0.4715
 3892SOL     OW23137   0.825   3.731   2.270 -0.2125  0.6901 -0.1359
 3892SOL    HW123138   0.890   3.706   2.336  0.4664  1.9340 -0.3316
 3892SOL    HW223139   0.831   3.666   2.199 -0.1184 -0.6465  1.1009
 3893SOL     OW23140   3.344   3.684   8.545 -0.1141  0.2219  0.3077
 3893SOL    HW123141   3.310   3.685   8.634  1.0623 -1.0024  0.7817
 3893SOL    HW223142   3.427   3.642   8.569 -1.1270 -2.2461 -0.5197
 3894SOL     OW23143   3.510   2.653   5.817 -0.1824  0.0487 -0.3865
 3894SOL    HW123144   3.574   2.703   5.767 -1.3788  2.6195  0.5839
 3894SOL    HW223145   3.464   2.594   5.758  1.5091 -0.6642 -0.9607
 3895SOL     OW23146   0.861   4.439   3.419  0.2568  0.3086  0.0939
 3895SOL    HW123147   0.774   4.424   3.383  0.2501  0.1840  0.1605
 3895SOL    HW223148   0.905   4.459   3.336 -1.8408 -1.6129 -1.4818
 3896SOL     OW23149   2.260   3.376   0.466  0.2717 -0.0286 -0.0426
 3896SOL    HW123150   2.305   3.347   0.387 -0.9553 -0.0511 -0.7363
 3896SOL    HW223151   2.183   3.322   0.452  1.3905 -1.3699 -0.9927
 3897SOL     OW23152   2.435   2.351   5.972  0.6090  0.1578  0.4470
 3897SOL    HW123153   2.413   2.427   5.919  0.7677 -0.6429 -0.7621
 3897SOL    HW223154   2.372   2.361   6.044  0.9159 -0.2730  0.7790
 3898SOL     OW23155   3.804   1.139  14.421 -0.4156 -0.7333  0.0856
 3898SOL    HW123156   3.759   1.154  14.338 -0.3237 -2.5683 -0.3008
 3898SOL    HW223157   3.881   1.196  14.413 -0.3696 -0.5578  1.6689
 3899SOL     OW23158   2.877   3.002   3.614  0.1706  0.2791 -0.1219
 3899SOL    HW123159   2.878   2.932   3.680  2.3770  1.5976  1.2409
 3899SOL    HW223160   2.945   2.969   3.554  1.6890  1.0069  1.2116
 3900SOL     OW23161   1.077   2.784   3.181 -0.3761  0.2757 -0.2532
 3900SOL    HW123162   1.049   2.829   3.260 -0.3444  1.2239 -0.7725
 3900SOL    HW223163   0.991   2.757   3.149 -0.5722 -0.7439  1.1859
 3901SOL     OW23164   0.443   1.633   7.652  0.4278  0.0983 -0.7909
 3901SOL    HW123165   0.375   1.682   7.700  0.5307 -0.0191 -0.5237
 3901SOL    HW223166   0.515   1.694   7.662 -1.2899  2.3224 -2.0521
 3902SOL     OW23167   2.078   2.182   6.948  0.3392  0.1523  0.1161
 3902SOL    HW123168   1.994   2.212   6.913 -0.1118  0.6866  1.6345
 3902SOL    HW223169   2.071   2.088   6.963  0.1332 -0.2575 -2.6223
 3903SOL     OW23170   0.285   0.106  11.536  0.5018  0.5379 -0.3352
 3903SOL    HW123171   0.303   0.030  11.480 -1.1373  0.5403 -0.8880
 3903SOL    HW223172   0.267   0.070  11.622  1.3690  0.6733 -0.0984
 3904SOL     OW23173   3.501   1.487   3.783  0.2690 -0.1795 -0.1159
 3904SOL    HW123174   3.419   1.517   3.743  0.3418  0.0591 -0.0889
 3904SOL    HW223175   3.474   1.409   3.832  0.3103  0.1984  0.5074
 3905SOL     OW23176   2.957   3.298   3.790 -0.4479 -0.0798 -0.1401
 3905SOL    HW123177   2.966   3.295   3.694  1.3909  0.7506  0.0016
 3905SOL    HW223178   2.991   3.214   3.820 -0.0045 -0.3962 -1.5184
 3906SOL     OW23179   2.189   4.022   5.902  0.3282  0.3864 -0.8098
 3906SOL    HW123180   2.180   4.100   5.957  0.6118  1.3034 -2.0584
 3906SOL    HW223181   2.274   3.980   5.917 -0.5284 -0.4649  1.5172
 3907SOL     OW23182   4.115   2.696  17.616 -0.1596  0.2964  0.7987
 3907SOL    HW123183   4.028   2.711  17.578  0.0966 -2.2252 -0.8035
 3907SOL    HW223184   4.133   2.771  17.673  2.1094 -1.3414  2.2279
 3908SOL     OW23185   1.647   0.126   3.654  0.5991 -0.8312 -0.4084
 3908SOL    HW123186   1.660   0.035   3.680  0.0057 -0.8346 -0.1282
 3908SOL    HW223187   1.590   0.164   3.721  2.8057  0.0098  0.9923
 3909SOL     OW23188   4.080   2.141  10.566 -0.7948 -0.1867 -0.0662
 3909SOL    HW123189   4.069   2.046  10.578  0.1489 -0.2280  0.5236
 3909SOL    HW223190   4.118   2.146  10.479 -0.8540  1.1494 -0.0041
 3910SOL     OW23191   2.050   2.728   0.469 -0.0990  0.1635  0.1285
 3910SOL    HW123192   2.051   2.808   0.522 -1.0855 -0.2830  0.8363
 3910SOL    HW223193   2.140   2.709   0.446 -0.4564  0.7231 -1.6754
 3911SOL     OW23194   3.410   1.538   6.023 -0.0381  0.1926  0.0556
 3911SOL    HW123195   3.501   1.559   6.003  0.4626 -0.8471  1.2962
 3911SOL    HW223196   3.402   1.447   5.993 -1.4981  1.0406 -2.1642
 3912SOL     OW23197   1.338   4.226   5.062  0.3005 -0.0375  0.3950
 3912SOL    HW123198   1.412   4.179   5.024  0.0070 -0.8309  0.8012
 3912SOL    HW223199   1.367   4.251   5.150  0.4345  0.0054  0.3379
 3913SOL     OW23200   0.754   0.385   3.422  0.1602  0.1456  0.1202
 3913SOL    HW123201   0.826   0.339   3.464  1.9589  3.9243  1.2352
 3913SOL    HW223202   0.788   0.475   3.414 -0.3783  0.2162 -1.4449
 3914SOL     OW23203   0.868   2.524  11.626 -0.1140  0.2252 -0.3032
 3914SOL    HW123204   0.793   2.478  11.664  0.0687 -0.4657 -0.7713
 3914SOL    HW223205   0.887   2.583  11.698 -0.8695 -0.3483  0.3681
 3915SOL     OW23206   1.131   0.034   7.957  0.3235  0.3603  0.9027
 3915SOL    HW123207   1.179   0.113   7.933  1.1879 -1.6705 -4.1476
 3915SOL    HW223208   1.043   0.041   7.921  0.2092 -0.0499  1.1060
 3916SOL     OW23209   2.103   3.521   3.521 -0.3048  0.2053  0.1589
 3916SOL    HW123210   2.068   3.443   3.565 -0.7029 -0.4074 -1.2358
 3916SOL    HW223211   2.084   3.497   3.431 -1.6282 -1.7144  0.9401
 3917SOL     OW23212   4.544   2.703   1.983  0.0452  0.4071 -0.1262
 3917SOL    HW123213   4.550   2.623   2.036  2.9917 -0.1115 -1.2491
 3917SOL    HW223214   4.620   2.693   1.925  0.1275  0.5065 -0.0335
 3918SOL     OW23215   4.105   2.815  13.073 -0.0549  0.1925  0.6227
 3918SOL    HW123216   4.051   2.741  13.103  0.1378 -0.4108 -0.5303
 3918SOL    HW223217   4.033   2.877  13.056 -1.2855 -0.7073  2.5100
 3919SOL     OW23218   2.689   3.356   0.392  0.2344  0.3119 -0.5541
 3919SOL    HW123219   2.714   3.310   0.312  0.2657 -0.7906  0.0979
 3919SOL    HW223220   2.718   3.444   0.367 -0.5144  0.8420  0.4727
 3920SOL     OW23221   3.177   3.749  11.881  0.0505  0.0859 -1.0596
 3920SOL    HW123222   3.092   3.790  11.865  0.1947  0.4463 -0.8982
 3920SOL    HW223223   3.185   3.742  11.976  2.0291 -2.2916 -1.3687
 3921SOL     OW23224   1.805   3.420   4.444  0.2820  0.2628  0.2593
 3921SOL    HW123225   1.863   3.348   4.421 -2.1648 -1.3186 -1.0316
 3921SOL    HW223226   1.862   3.493   4.422  2.0482 -0.0842  3.8379
 3922SOL     OW23227   3.171   2.331   5.877  0.2326  0.2846 -0.0703
 3922SOL    HW123228   3.211   2.302   5.795  2.8675  0.5198  1.1232
 3922SOL    HW223229   3.082   2.354   5.849  0.2081 -0.1532 -0.3653
 3923SOL     OW23230   0.622   3.697   0.706 -0.8210  0.3565  0.2834
 3923SOL    HW123231   0.643   3.717   0.615  0.0291  0.5746  0.5288
 3923SOL    HW223232   0.643   3.773   0.761 -0.0166 -0.4888  1.1566
 3924SOL     OW23233   4.615   2.617   0.749 -0.7930 -0.2445  0.4014
 3924SOL    HW123234   4.626   2.578   0.836 -0.0196  0.2871  0.5387
 3924SOL    HW223235   4.626   2.706   0.782  2.3675 -1.0489  1.5172
 3925SOL     OW23236   1.007   1.202   2.866  0.0805 -0.2773  0.1199
 3925SOL    HW123237   1.022   1.196   2.772 -0.1928 -0.8664  0.1155
 3925SOL    HW223238   1.095   1.184   2.898  0.7232 -0.4336 -1.7391
 3926SOL     OW23239   1.850   1.101  17.150  0.2283 -0.6026 -0.0450
 3926SOL    HW123240   1.934   1.072  17.186 -0.4721  1.2771  3.0656
 3926SOL    HW223241   1.851   1.045  17.072  2.1356 -1.7799  0.8224
 3927SOL     OW23242   2.508   1.843   6.559 -0.1907  0.2628  0.0660
 3927SOL    HW123243   2.476   1.771   6.506 -0.1331  1.1251 -1.1273
 3927SOL    HW223244   2.431   1.900   6.556 -0.6213 -0.4066 -1.4236
 3928SOL     OW23245   1.108   4.047  16.745 -0.4798  0.0183  0.0922
 3928SOL    HW123246   1.075   3.978  16.687  1.1299 -1.9599  1.5171
 3928SOL    HW223247   1.078   4.023  16.833  1.2460  0.4906  0.8017
 3929SOL     OW23248   3.071   2.629   3.896  0.8301  0.3790 -0.2023
 3929SOL    HW123249   3.100   2.608   3.985  0.3449 -3.5014 -0.9563
 3929SOL    HW223250   3.155   2.652   3.857  0.8646 -3.1006 -2.1696
 3930SOL     OW23251   1.038   2.093   7.846  0.4375  0.1985  0.1253
 3930SOL    HW123252   1.131   2.105   7.825 -0.3581  3.1461 -1.6266
 3930SOL    HW223253   1.039   2.063   7.937  1.0738 -0.6643 -0.1594
 3931SOL     OW23254   2.749   4.290   6.041  0.0483 -0.2712  0.5912
 3931SOL    HW123255   2.832   4.251   6.013 -1.0094  0.8198 -4.0296
 3931SOL    HW223256   2.687   4.219   6.026  0.2200 -0.5649  1.2642
 3932SOL     OW23257   0.462   1.457   5.585 -0.3908 -0.4344 -0.5265
 3932SOL    HW123258   0.467   1.548   5.614 -1.2018  0.2504 -2.5722
 3932SOL    HW223259   0.472   1.404   5.664  0.8224  0.0880 -0.3294
 3933SOL     OW23260   2.410   4.192  16.788 -0.2014 -0.1360  0.1959
 3933SOL    HW123261   2.323   4.152  16.786 -0.6963  0.9899 -0.5864
 3933SOL    HW223262   2.454   4.147  16.860  1.4781 -2.7545 -2.4425
 3934SOL     OW23263   3.279   2.026   4.278 -0.1907 -0.5946 -0.1470
 3934SOL    HW123264   3.351   2.003   4.337  0.7367 -1.0031 -1.4579
 3934SOL    HW223265   3.216   2.073   4.333  0.8341  1.1435 -0.4444
 3935SOL     OW23266   4.621   0.073   7.461  0.3193  0.4042  0.1558
 3935SOL    HW123267   4.628   0.165   7.489  2.8759 -0.2700  1.7258
 3935SOL    HW223268   4.578   0.072   7.375 -0.1150 -1.0326  0.4026
 3936SOL     OW23269   3.293   3.466   3.474 -0.2146 -0.4011  0.2085
 3936SOL    HW123270   3.207   3.430   3.449 -0.3026 -0.1733  0.1875
 3936SOL    HW223271   3.303   3.430   3.563 -0.6411 -1.2746 -0.0912
 3937SOL     OW23272   4.575   3.993   9.363  0.0803  0.3415 -0.5380
 3937SOL    HW123273   4.657   4.037   9.343 -0.3793  0.7759 -1.4602
 3937SOL    HW223274   4.534   4.061   9.416 -0.0885 -0.2632  0.1142
 3938SOL     OW23275   2.666   0.523   5.171  0.2092 -0.4149  0.1850
 3938SOL    HW123276   2.692   0.567   5.090 -1.8959 -1.2690 -0.9530
 3938SOL    HW223277   2.711   0.440   5.155 -0.3803 -0.1041 -3.2231
 3939SOL     OW23278   4.337   4.406   7.081  0.3039 -0.0323  0.1261
 3939SOL    HW123279   4.259   4.410   7.136 -0.1517  1.9072 -0.6574
 3939SOL    HW223280   4.389   4.340   7.126  0.8764  0.0169 -0.4767
 3940SOL     OW23281   2.123   0.931  16.956  0.4455  0.1064  0.0139
 3940SOL    HW123282   2.058   0.866  16.983  0.0192  0.0409 -1.1940
 3940SOL    HW223283   2.182   0.938  17.031 -0.1032 -0.3540  0.4847
 3941SOL     OW23284   3.941   0.257   9.115  0.1792 -0.2417  0.3440
 3941SOL    HW123285   3.849   0.281   9.117  0.4262  0.8194 -0.6548
 3941SOL    HW223286   3.978   0.341   9.144  1.4477 -1.0578  1.0807
 3942SOL     OW23287   4.479   1.300   7.020  0.1148  0.7473 -0.2112
 3942SOL    HW123288   4.398   1.301   7.070  0.8744 -0.1852  1.0327
 3942SOL    HW223289   4.493   1.393   7.001  1.9317  1.0863  2.7754
 3943SOL     OW23290   2.695   4.604   5.452  0.3148 -0.6953  0.2644
 3943SOL    HW123291   2.705   4.683   5.399  2.4912  0.6286  2.6654
 3943SOL    HW223292   2.673   4.642   5.537  0.1171 -0.2816  0.0290
 3944SOL     OW23293   1.554   3.958   7.539 -0.6282  0.0317  0.6153
 3944SOL    HW123294   1.549   3.869   7.504  0.8455 -0.4116  1.5105
 3944SOL    HW223295   1.514   3.940   7.624 -0.8187  0.9728  0.7232
 3945SOL     OW23296   2.374   1.225   2.970  0.5525  0.1878  0.1476
 3945SOL    HW123297   2.319   1.170   3.026 -0.1368 -0.3034 -1.0141
 3945SOL    HW223298   2.313   1.293   2.941 -0.0098  0.3480  1.7004
 3946SOL     OW23299   0.565   1.335  10.412  0.4426 -0.2542 -0.4971
 3946SOL    HW123300   0.480   1.319  10.372  0.6731  1.9103 -1.9012
 3946SOL    HW223301   0.613   1.341  10.329  1.2541 -2.2816 -0.1705
 3947SOL     OW23302   3.016   1.684   8.811  0.2776 -0.2623  0.6419
 3947SOL    HW123303   2.945   1.663   8.751  0.2785  0.4777  0.3876
 3947SOL    HW223304   2.983   1.648   8.893 -2.2188 -0.8938 -0.6629
 3948SOL     OW23305   3.451   1.675   9.100  0.6916  0.3150 -0.4344
 3948SOL    HW123306   3.450   1.760   9.144  0.1006  0.2084 -0.2424
 3948SOL    HW223307   3.518   1.687   9.032 -0.6368 -0.7997 -1.9167
 3949SOL     OW23308   4.139   0.161   0.179  0.4360  0.1500 -0.6152
 3949SOL    HW123309   4.088   0.090   0.217  0.3879 -0.2334 -1.4075
 3949SOL    HW223310   4.147   0.219   0.255 -1.1461 -0.1912 -0.1999
 3950SOL     OW23311   1.627   2.496   9.894 -0.0276 -0.5193 -0.2412
 3950SOL    HW123312   1.555   2.523   9.951  0.3764  1.3349 -0.5955
 3950SOL    HW223313   1.657   2.577   9.852 -0.1604 -0.0363  0.5857
 3951SOL     OW23314   0.289   1.024   8.871  0.5174 -0.4806 -0.4951
 3951SOL    HW123315   0.276   0.974   8.790 -1.7488 -0.2975 -0.2232
 3951SOL    HW223316   0.227   1.090   8.841  0.3549 -0.8817 -1.0520
 3952SOL     OW23317   2.140   1.959   7.970 -0.1704 -0.0448 -0.4280
 3952SOL    HW123318   2.104   2.031   7.919  0.0614  1.6738  1.8484
 3952SOL    HW223319   2.149   1.995   8.058  0.5963  0.8665 -0.8828
 3953SOL     OW23320   2.408   0.314   9.939  0.0266 -0.0500 -0.2355
 3953SOL    HW123321   2.352   0.363   9.879 -1.7824  0.1090  1.5885
 3953SOL    HW223322   2.402   0.235   9.886  0.3806  0.5285 -1.1564
 3954SOL     OW23323   1.995   3.982   9.348  0.7360  0.2279  0.3411
 3954SOL    HW123324   2.082   3.976   9.389  0.0609 -0.1799  1.7225
 3954SOL    HW223325   1.939   3.969   9.424  1.3137  0.2509  0.7743
 3955SOL     OW23326   0.861   2.359  13.082  0.6920 -0.0749 -0.5606
 3955SOL    HW123327   0.862   2.320  12.995  2.3563  1.7350 -1.3686
 3955SOL    HW223328   0.899   2.446  13.070 -1.5413  0.8074 -1.2023
 3956SOL     OW23329   0.185   3.300  16.981 -0.0136  0.1152 -0.0876
 3956SOL    HW123330   0.266   3.310  17.032 -1.0942  0.0114  1.6367
 3956SOL    HW223331   0.218   3.287  16.892  4.6265 -3.6614  2.1500
 3957SOL     OW23332   1.015   0.437   2.653 -0.0595  0.2315 -0.3569
 3957SOL    HW123333   1.076   0.401   2.718 -4.0312 -3.2301  1.4720
 3957SOL    HW223334   0.938   0.383   2.673 -1.2852  1.6116 -1.3424
 3958SOL     OW23335   2.912   4.005  14.980  0.0949 -0.4241  0.2721
 3958SOL    HW123336   2.822   4.001  14.946  0.1619 -2.3334  0.3673
 3958SOL    HW223337   2.905   3.964  15.066 -0.6285  0.2680  0.5489
 3959SOL     OW23338   4.639   4.594  13.039  0.3665  0.2811  0.0600
 3959SOL    HW123339   4.628   4.499  13.046 -0.5431  0.5108  1.7738
 3959SOL    HW223340   4.650   4.612  13.133  0.0051 -1.4396  0.4280
 3960SOL     OW23341   2.529   0.653  12.533  0.2698  0.0088 -0.3264
 3960SOL    HW123342   2.534   0.701  12.449  2.4531  0.1691 -0.1100
 3960SOL    HW223343   2.433   0.652  12.534  0.2659  0.0494 -0.5566
 3961SOL     OW23344   4.706   3.993   8.915  0.3167  0.5777 -0.1034
 3961SOL    HW123345   4.669   3.921   8.865  0.7200 -1.2423  2.2404
 3961SOL    HW223346   0.056   3.941   8.950 -1.1508 -0.5273  1.2638
 3962SOL     OW23347   1.207   2.864   9.162 -0.4888 -0.7972  0.1477
 3962SOL    HW123348   1.229   2.949   9.124  2.9653 -1.6290  0.3393
 3962SOL    HW223349   1.181   2.819   9.082 -0.1167 -1.2155  0.2611
 3963SOL     OW23350   2.934   0.100   3.659 -0.1142 -0.4155 -0.1709
 3963SOL    HW123351   2.996   0.160   3.618 -0.1237  0.9516  1.7992
 3963SOL    HW223352   2.880   0.167   3.701 -0.3204  0.3842 -1.7163
 3964SOL     OW23353   3.406   4.010   4.641 -0.4362 -0.6176  0.4178
 3964SOL    HW123354   3.353   4.027   4.719 -0.6466  1.1132 -0.1123
 3964SOL    HW223355   3.358   3.936   4.604  2.2720 -0.6935 -2.8934
 3965SOL     OW23356   1.362   0.619  10.121 -0.4267  0.9709  0.1110
 3965SOL    HW123357   1.296   0.586  10.060 -1.6736 -1.8771  2.9797
 3965SOL    HW223358   1.429   0.629  10.053 -0.7052  0.6316 -0.2068
 3966SOL     OW23359   2.109   1.139  13.705  0.7902  0.5873  0.1512
 3966SOL    HW123360   2.046   1.068  13.711  2.2195 -0.7434 -0.4246
 3966SOL    HW223361   2.050   1.204  13.667 -2.9714 -1.8824  1.8813
 3967SOL     OW23362   4.327   4.356   2.103 -0.1488  0.2913  0.2150
 3967SOL    HW123363   4.418   4.341   2.076 -0.8813  0.7424 -2.4657
 3967SOL    HW223364   4.314   4.433   2.047 -0.3100  0.7138  0.8327
 3968SOL     OW23365   3.109   4.008  16.158  0.9419 -1.1158  0.8195
 3968SOL    HW123366   3.166   4.038  16.229 -0.4512  0.5359  1.2152
 3968SOL    HW223367   3.170   3.951  16.111  1.1792  0.5163 -0.8509
 3969SOL     OW23368   4.426   4.318   8.795 -0.4947 -0.3756  0.2275
 3969SOL    HW123369   4.445   4.233   8.835  0.9336 -0.3745 -0.4267
 3969SOL    HW223370   4.363   4.344   8.862  2.2484  0.7935  2.3363
 3970SOL     OW23371   1.605   2.935   6.215 -0.0294 -0.6930 -0.0312
 3970SOL    HW123372   1.639   2.996   6.281  1.2434  1.2278 -2.4532
 3970SOL    HW223373   1.554   2.996   6.161  1.3782  1.4028  1.0009
 3971SOL     OW23374   2.355   0.725   7.966  0.4709  0.0671 -0.0435
 3971SOL    HW123375   2.402   0.643   7.948  1.1177  0.8211 -1.8071
 3971SOL    HW223376   2.287   0.689   8.022  0.2130 -1.0435 -1.0804
 3972SOL     OW23377   3.469   2.751   3.999 -0.4722 -0.3318  0.6046
 3972SOL    HW123378   3.528   2.681   4.029  0.8804  0.0523 -1.1552
 3972SOL    HW223379   3.532   2.822   3.988 -0.3518 -0.4083  0.8011
 3973SOL     OW23380   0.866   3.067  11.890 -0.0891 -0.1452  0.0435
 3973SOL    HW123381   0.888   3.004  11.821  4.5485  2.4735 -0.8534
 3973SOL    HW223382   0.786   3.037  11.932 -0.6415  1.4542  0.1289
 3974SOL     OW23383   0.167   3.962  16.754  0.1448 -0.0556 -0.0298
 3974SOL    HW123384   0.212   4.039  16.790 -2.3889  1.1405  0.5505
 3974SOL    HW223385   0.220   3.954  16.675 -1.5981 -0.0023 -1.1935
 3975SOL     OW23386   1.265   0.095   5.352 -0.0825 -0.1878 -0.1700
 3975SOL    HW123387   1.250   0.001   5.365  2.6829 -0.9382 -2.3240
 3975SOL    HW223388   1.317   0.090   5.272 -1.6165  1.9340 -1.2864
 3976SOL     OW23389   0.328   2.829   9.720  0.2226 -0.2079 -0.5321
 3976SOL    HW123390   0.300   2.750   9.765  0.6288 -0.4115 -0.6356
 3976SOL    HW223391   0.357   2.875   9.799 -0.8795  0.1546 -0.3396
 3977SOL     OW23392   1.652   0.983   5.782 -0.2237  0.0240 -0.6733
 3977SOL    HW123393   1.558   0.970   5.768 -0.3806  0.8390 -0.3767
 3977SOL    HW223394   1.666   0.972   5.876 -0.3097  0.8967 -0.5577
 3978SOL     OW23395   1.765   3.636  11.692 -0.0065  0.0042  0.0291
 3978SOL    HW123396   1.691   3.653  11.750  0.8188  2.4673  0.3952
 3978SOL    HW223397   1.722   3.627  11.607  0.1848 -0.1335 -0.0527
 3979SOL     OW23398   0.330   4.705   7.060 -0.0571 -0.0152  0.6869
 3979SOL    HW123399   0.302   4.675   7.147 -0.8129 -2.3855 -0.3823
 3979SOL    HW223400   0.421   4.676   7.061 -0.1712 -0.4327 -1.3152
 3980SOL     OW23401   2.680   1.096   7.251 -0.0046 -0.2584  0.3043
 3980SOL    HW123402   2.586   1.114   7.245 -0.4611 -2.4830  0.7354
 3980SOL    HW223403   2.711   1.183   7.225  0.8836 -0.5310  0.4474
 3981SOL     OW23404   0.627   2.526   6.148 -0.3324 -0.0776 -0.6042
 3981SOL    HW123405   0.682   2.552   6.222 -2.2329  1.7338  0.1749
 3981SOL    HW223406   0.682   2.452   6.122  0.1495 -0.2263  0.8307
 3982SOL     OW23407   3.005   2.244   8.196  0.4948  0.1844  0.1791
 3982SOL    HW123408   3.077   2.192   8.160 -0.4962 -1.1802  0.2026
 3982SOL    HW223409   3.011   2.223   8.290 -0.9774  0.7620  0.3988
 3983SOL     OW23410   1.157   2.416  13.707 -0.9650 -0.0582 -0.2274
 3983SOL    HW123411   1.070   2.394  13.675 -1.2900 -0.5989  1.0553
 3983SOL    HW223412   1.205   2.395  13.627 -0.2183  1.7662 -0.2599
 3984SOL     OW23413   0.775   0.133   9.759  0.4254 -0.2133 -0.7005
 3984SOL    HW123414   0.794   0.128   9.853 -2.6958  0.4495 -0.0615
 3984SOL    HW223415   0.808   0.220   9.735 -0.1616  0.3893  0.6855
 3985SOL     OW23416   2.166   0.346   6.445  0.4270 -0.4333  0.1102
 3985SOL    HW123417   2.091   0.401   6.421  0.3598 -1.1735 -1.3305
 3985SOL    HW223418   2.155   0.337   6.540  1.0694 -1.6062  0.0682
 3986SOL     OW23419   2.743   3.937   4.656 -0.1590  0.7023  1.0031
 3986SOL    HW123420   2.769   3.919   4.566  1.3619 -0.0105  1.5634
 3986SOL    HW223421   2.672   3.872   4.658  0.4877 -0.0571 -1.0025
 3987SOL     OW23422   2.601   4.658   2.599 -0.4379 -0.0803 -0.0369
 3987SOL    HW123423   2.682   4.624   2.636  0.9187  1.2313 -1.8449
 3987SOL    HW223424   2.576   4.722   2.666  1.2721  0.9565 -0.4158
 3988SOL     OW23425   0.807   2.275  12.828 -0.2241 -0.0250  0.1718
 3988SOL    HW123426   0.813   2.357  12.779 -2.8345  0.3642  0.5226
 3988SOL    HW223427   0.773   2.222  12.756  2.3876 -1.8285  0.2575
 3989SOL     OW23428   4.523   3.625   9.197  0.2515  0.1801  0.2068
 3989SOL    HW123429   4.614   3.651   9.206  0.7260 -0.9477 -1.3816
 3989SOL    HW223430   4.483   3.711   9.211  1.4107  0.6498  0.6030
 3990SOL     OW23431   3.237   0.539   7.600  0.0819  0.0779  1.0519
 3990SOL    HW123432   3.160   0.532   7.544 -0.6918  3.4437  1.7272
 3990SOL    HW223433   3.212   0.467   7.658 -0.4314 -0.2912  0.3685
 3991SOL     OW23434   3.275   0.109   0.538  0.2611 -0.7435  0.1789
 3991SOL    HW123435   3.361   0.071   0.555 -0.9835 -3.5710  0.1402
 3991SOL    HW223436   3.291   0.199   0.512  0.2444 -1.3677 -1.9550
 3992SOL     OW23437   1.940   3.753   4.797 -0.4311  0.2114 -0.5387
 3992SOL    HW123438   1.871   3.704   4.753  0.8955 -1.5065 -0.7123
 3992SOL    HW223439   1.977   3.691   4.860  0.6959  2.4924  1.0588
 3993SOL     OW23440   0.114   2.372   3.214  0.2555 -0.3915 -0.0203
 3993SOL    HW123441   0.196   2.364   3.165 -0.8322 -0.1520 -1.8907
 3993SOL    HW223442   0.139   2.432   3.284  1.1611  0.2955 -0.9418
 3994SOL     OW23443   4.563   1.103   3.816 -0.3647 -0.4026 -0.1005
 3994SOL    HW123444   4.555   1.104   3.720  0.1154  0.0505 -0.1395
 3994SOL    HW223445   4.528   1.190   3.834  0.8913  0.4346 -1.6686
 3995SOL     OW23446   1.136   2.879   0.815 -0.1147  0.1764 -0.0458
 3995SOL    HW123447   1.188   2.827   0.754 -1.5802 -0.6069 -0.6249
 3995SOL    HW223448   1.053   2.898   0.771 -1.7056  0.6099  3.0634
 3996SOL     OW23449   0.243   0.536   1.620 -0.3866  0.0165 -0.2523
 3996SOL    HW123450   0.186   0.463   1.595 -1.4778  0.8250 -0.1026
 3996SOL    HW223451   0.246   0.584   1.537  0.1763  0.5828  0.0965
 3997SOL     OW23452   1.662   3.914   8.133  0.6538  0.3217 -0.5957
 3997SOL    HW123453   1.753   3.931   8.160  0.1315  0.2153  1.2567
 3997SOL    HW223454   1.669   3.931   8.039  0.4712 -0.3947 -0.7390
 3998SOL     OW23455   2.705   0.816   1.994 -0.2555 -0.0317  0.6835
 3998SOL    HW123456   2.705   0.759   2.071 -0.3475 -0.2247  0.5415
 3998SOL    HW223457   2.799   0.808   1.975 -0.5795  0.1924 -0.9449
 3999SOL     OW23458   2.257   1.622   7.334  0.2121  0.4684  0.5088
 3999SOL    HW123459   2.335   1.574   7.363  0.3999  0.9199  0.7542
 3999SOL    HW223460   2.238   1.688   7.401 -1.0852  1.4879 -0.8818
 4000SOL     OW23461   2.964   1.632   0.901  0.8298  0.4194  0.3342
 4000SOL    HW123462   2.938   1.697   0.966 -1.5091 -0.1103 -0.0717
 4000SOL    HW223463   2.982   1.556   0.955  0.8754  0.4036  0.2963
 4001SOL     OW23464   3.012   2.643   2.320 -0.1016 -0.0230  0.1425
 4001SOL    HW123465   2.978   2.692   2.394  0.3232  0.7466 -0.1683
 4001SOL    HW223466   2.946   2.575   2.306  0.9747 -0.6774 -1.8066
 4002SOL     OW23467   3.329   3.045   5.138  0.6382 -0.1845 -0.2158
 4002SOL    HW123468   3.312   2.952   5.123  1.2568 -0.2484 -0.4941
 4002SOL    HW223469   3.312   3.052   5.232  0.5570  3.8642 -0.5441
 4003SOL     OW23470   2.708   4.095   6.801 -0.0396  0.0443  0.2908
 4003SOL    HW123471   2.632   4.121   6.750  0.1470 -0.2526 -0.1432
 4003SOL    HW223472   2.716   4.013   6.751  0.5328  0.2505  0.0403
 4004SOL     OW23473   0.535   1.400  16.887 -0.1909  0.2046  0.0713
 4004SOL    HW123474   0.525   1.322  16.942 -1.9682 -1.1533 -2.1775
 4004SOL    HW223475   0.444   1.429  16.888 -1.3448 -3.4377  1.0964
 4005SOL     OW23476   0.387   4.338   0.482 -0.4839 -0.7124 -0.7388
 4005SOL    HW123477   0.394   4.433   0.485  2.0112 -1.0143  3.4249
 4005SOL    HW223478   0.350   4.318   0.568  1.3468 -0.7313  0.0538
 4006SOL     OW23479   2.922   1.736   4.377 -0.1812 -0.0047  0.3636
 4006SOL    HW123480   2.878   1.771   4.299  0.7093  1.7989  0.6672
 4006SOL    HW223481   2.958   1.818   4.411  1.6173 -0.8264  0.4022
 4007SOL     OW23482   0.879   1.906   2.700 -0.1432  0.1024 -0.6234
 4007SOL    HW123483   0.862   1.968   2.629  0.5808  1.5163  0.4219
 4007SOL    HW223484   0.875   1.822   2.654 -2.1389  0.4651 -1.0789
 4008SOL     OW23485   0.409   3.022   1.098 -0.4454 -0.4407  0.4328
 4008SOL    HW123486   0.365   3.065   1.024  0.3379  0.1950  0.3438
 4008SOL    HW223487   0.345   3.036   1.168  0.2303 -1.0152  1.1556
 4009SOL     OW23488   1.802   2.104   6.906  0.3981 -0.2953  0.0370
 4009SOL    HW123489   1.718   2.113   6.950  1.4984  0.0785  2.0516
 4009SOL    HW223490   1.799   2.174   6.840 -1.2702 -0.5495 -0.1345
 4010SOL     OW23491   3.942   1.362   2.305 -0.3405 -0.0495  0.0877
 4010SOL    HW123492   3.874   1.308   2.264 -0.5892 -1.6920  2.6411
 4010SOL    HW223493   4.017   1.321   2.262  0.2184  0.2960  0.7263
 4011SOL     OW23494   2.164   1.820   6.719 -0.3016  0.2346  0.4480
 4011SOL    HW123495   2.088   1.770   6.689  0.8556 -1.0583 -0.3022
 4011SOL    HW223496   2.192   1.867   6.640 -0.4240  0.2858  0.4339
 4012SOL     OW23497   2.846   0.486   7.732  0.4807  0.3418 -0.1709
 4012SOL    HW123498   2.773   0.546   7.751 -0.3294 -0.6529 -0.1203
 4012SOL    HW223499   2.857   0.435   7.812  1.8922  1.6022  0.4177
 4013SOL     OW23500   3.620   4.150  17.594  0.1598  0.0047 -0.4999
 4013SOL    HW123501   3.546   4.165  17.652 -1.4768 -1.5721 -2.1496
 4013SOL    HW223502   3.677   4.101  17.653 -0.1083 -0.5315 -0.6877
 4014SOL     OW23503   1.563   3.370   0.188  0.4840  0.5985 -0.4385
 4014SOL    HW123504   1.624   3.369   0.262 -0.4783 -0.7047  0.3554
 4014SOL    HW223505   1.488   3.338   0.239  2.2610  1.1675  2.5170
 4015SOL     OW23506   4.364   2.618   2.275 -0.1444 -0.3561 -0.5519
 4015SOL    HW123507   4.444   2.577   2.243 -0.0632  1.1057 -2.2422
 4015SOL    HW223508   4.381   2.713   2.270 -2.2775  0.0725  0.2057
 4016SOL     OW23509   3.151   4.500   8.934 -0.4233  0.3681  0.2202
 4016SOL    HW123510   3.215   4.568   8.912  0.6613 -1.0395 -1.0001
 4016SOL    HW223511   3.119   4.473   8.848  2.1516 -0.3230 -0.5069
 4017SOL     OW23512   3.091   3.776   5.977  0.3142 -0.3852 -0.3243
 4017SOL    HW123513   3.137   3.841   5.923  0.1050 -0.8538 -1.0520
 4017SOL    HW223514   3.006   3.760   5.937  0.6160 -0.1263 -1.0613
 4018SOL     OW23515   4.722   3.847   0.280  0.6233 -0.3155  0.3045
 4018SOL    HW123516   0.072   3.897   0.242 -0.8998  2.3526  0.9144
 4018SOL    HW223517   0.008   3.878   0.370  0.6208  1.3594 -0.2871
 4019SOL     OW23518   3.053   3.227  12.159  0.0547 -0.1787 -0.1075
 4019SOL    HW123519   3.119   3.294  12.141 -1.7539  1.8577  0.8517
 4019SOL    HW223520   3.047   3.172  12.081 -0.6800  0.0180 -0.1859
 4020SOL     OW23521   1.663   0.935   6.054 -0.4406  0.5241 -0.4365
 4020SOL    HW123522   1.578   0.979   6.041  0.5299  2.2071 -1.1424
 4020SOL    HW223523   1.632   0.853   6.093 -0.9765  0.8940 -0.0770
 4021SOL     OW23524   0.041   0.429   0.538  0.1639  0.6612 -0.0087
 4021SOL    HW123525   0.053   0.384   0.455  1.0854 -1.9950  1.5712
 4021SOL    HW223526   0.071   0.518   0.520  0.6664  0.6425  0.7217
 4022SOL     OW23527   4.279   2.353   4.479  0.3446 -0.5526 -0.3651
 4022SOL    HW123528   4.267   2.349   4.574 -0.9120  0.3662 -0.4930
 4022SOL    HW223529   4.369   2.381   4.468  0.0713 -0.8646 -3.3616
 4023SOL     OW23530   3.879   0.750   5.040 -0.2498  0.0406 -0.1900
 4023SOL    HW123531   3.944   0.733   4.971 -0.6287 -2.4196  0.0671
 4023SOL    HW223532   3.889   0.676   5.099  1.1983 -0.0879 -0.5872
 4024SOL     OW23533   2.959   4.011   0.467  0.6570  0.1298 -0.0182
 4024SOL    HW123534   2.891   3.978   0.526  0.7688 -3.3515 -1.8033
 4024SOL    HW223535   2.961   4.106   0.479  0.0497  0.2165 -0.5545
 4025SOL     OW23536   3.666   0.776   4.660  0.0295 -0.7380 -0.2123
 4025SOL    HW123537   3.713   0.695   4.680  0.6828 -0.4144 -0.4013
 4025SOL    HW223538   3.583   0.754   4.700 -0.6060  1.4857 -0.2863
 4026SOL     OW23539   3.901   0.076   2.953  0.1294  0.3221 -0.1063
 4026SOL    HW123540   3.884   0.005   2.892  1.2176 -2.1479  2.4180
 4026SOL    HW223541   3.953   0.031   3.020 -1.0423  0.9504  1.2371
 4027SOL     OW23542   3.508   3.792  14.922 -1.0357  0.0300 -0.3402
 4027SOL    HW123543   3.442   3.731  14.887 -1.5428  0.9566 -0.9871
 4027SOL    HW223544   3.471   3.862  14.867  0.8653 -0.2311 -1.9466
 4028SOL     OW23545   3.035   0.562   4.360 -0.2134 -0.5020 -0.3716
 4028SOL    HW123546   3.122   0.544   4.324  1.1427 -0.9886  3.1704
 4028SOL    HW223547   3.025   0.483   4.412 -2.6599  1.4807  2.1332
 4029SOL     OW23548   3.655   1.278   2.644 -0.3094  0.3771 -0.6821
 4029SOL    HW123549   3.700   1.279   2.729 -1.5914 -1.6252  0.0256
 4029SOL    HW223550   3.707   1.339   2.592  1.9420 -1.8126 -1.0019
 4030SOL     OW23551   4.335   2.992  16.949 -0.3076 -0.4785  0.3159
 4030SOL    HW123552   4.268   3.012  17.014 -0.5866 -0.3941  0.0033
 4030SOL    HW223553   4.300   2.908  16.920  0.8621 -0.5371 -0.9745
 4031SOL     OW23554   1.081   3.820  13.678  0.0956  0.2154 -0.0717
 4031SOL    HW123555   1.020   3.852  13.612 -0.9115 -0.8187  0.3654
 4031SOL    HW223556   1.032   3.749  13.719  1.4237 -0.6299  0.0436
 4032SOL     OW23557   2.883   3.223   4.140 -0.2880 -0.0066  0.3782
 4032SOL    HW123558   2.931   3.287   4.193  2.1723 -1.6310  0.1244
 4032SOL    HW223559   2.857   3.285   4.072  2.1854 -0.7080 -1.2086
 4033SOL     OW23560   1.281   3.134  13.690  0.1230 -0.2282  0.0117
 4033SOL    HW123561   1.351   3.107  13.748 -0.9044 -1.9627  0.4510
 4033SOL    HW223562   1.311   3.127  13.599  0.4149 -0.2356  0.1109
 4034SOL     OW23563   3.554   2.081   7.080 -0.5554  0.3913  0.8090
 4034SOL    HW123564   3.472   2.075   7.128 -0.9105  0.8149  0.2484
 4034SOL    HW223565   3.563   2.175   7.066  1.3118 -0.2543 -2.2721
 4035SOL     OW23566   1.236   0.793   5.115  0.0182  0.0744 -0.6218
 4035SOL    HW123567   1.289   0.747   5.051  1.1818  1.4897 -0.6847
 4035SOL    HW223568   1.180   0.720   5.142  1.2884 -0.3795  0.7576
 4036SOL     OW23569   2.505   3.945   5.762  0.5453  0.0009 -0.4707
 4036SOL    HW123570   2.598   3.934   5.743  0.7063 -1.4515  1.1637
 4036SOL    HW223571   2.469   3.940   5.673  0.7653 -2.6219 -0.4159
 4037SOL     OW23572   1.256   1.226  13.091  0.7083  0.2080 -0.2710
 4037SOL    HW123573   1.178   1.267  13.131  1.5107  0.8964  0.5930
 4037SOL    HW223574   1.298   1.308  13.064 -2.5767  1.5368 -1.3742
 4038SOL     OW23575   0.708   4.096  13.350 -0.4289 -0.2390  0.0631
 4038SOL    HW123576   0.615   4.078  13.364 -0.5822  0.5833  0.1055
 4038SOL    HW223577   0.752   4.059  13.426  2.1542 -1.7102 -2.1362
 4039SOL     OW23578   4.368   3.193  15.036 -0.8069  0.0208 -0.1615
 4039SOL    HW123579   4.295   3.137  15.008 -1.6133  1.1853 -0.3911
 4039SOL    HW223580   4.360   3.200  15.131  0.2520  1.1257 -0.1596
 4040SOL     OW23581   0.929   2.070   7.602  0.4330 -0.4070  0.2309
 4040SOL    HW123582   0.850   2.108   7.640  1.6902  1.3980  1.0407
 4040SOL    HW223583   0.983   2.065   7.681  2.2068  1.2402 -0.8925
 4041SOL     OW23584   2.214   0.289  10.799  0.6804  0.0865 -0.2721
 4041SOL    HW123585   2.186   0.202  10.770  1.0576  0.8123 -2.8218
 4041SOL    HW223586   2.269   0.314  10.724 -0.8004  1.9687 -0.7070
 4042SOL     OW23587   4.713   3.520   2.759  0.0911 -0.3144 -0.0797
 4042SOL    HW123588   4.623   3.489   2.750  0.1939 -0.7306  0.3785
 4042SOL    HW223589   4.713   3.602   2.709  0.1418  0.8870  1.9004
 4043SOL     OW23590   0.072   0.909   2.449 -0.4994  0.2303  0.1174
 4043SOL    HW123591   0.043   0.993   2.414 -0.8146  0.0026 -0.1557
 4043SOL    HW223592   0.083   0.856   2.370  0.1101  0.3099  0.1439
 4044SOL     OW23593   3.832   3.340   6.005  0.1044  0.1176  0.4698
 4044SOL    HW123594   3.909   3.396   6.013  0.3449  0.2315 -2.4814
 4044SOL    HW223595   3.863   3.287   5.931  0.3545  1.7379 -0.5936
 4045SOL     OW23596   1.210   2.573   3.294  0.7386 -0.1882 -0.1255
 4045SOL    HW123597   1.298   2.562   3.330  0.0642  1.6572  2.0769
 4045SOL    HW223598   1.209   2.647   3.234  1.0382  0.3045  0.4800
 4046SOL     OW23599   4.493   0.950   3.036  0.1765 -0.0271 -0.0574
 4046SOL    HW123600   4.464   0.952   2.945 -1.2484  0.8577  0.4055
 4046SOL    HW223601   4.559   0.881   3.035 -1.0171 -1.2659  2.8838
 4047SOL     OW23602   1.150   4.719  17.435  0.7524 -0.3769 -0.3173
 4047SOL    HW123603   1.123   4.635  17.400  0.1935  0.0214 -0.8496
 4047SOL    HW223604   1.170   4.696  17.526  0.4435  2.0375  0.3805
 4048SOL     OW23605   0.440   1.535   2.178  0.3066 -0.2038 -0.4080
 4048SOL    HW123606   0.428   1.622   2.138 -0.3693  0.0974  0.4413
 4048SOL    HW223607   0.402   1.539   2.266  0.2540 -0.5559 -0.4135
 4049SOL     OW23608   0.349   3.210  16.792  0.0144 -0.2662 -0.6163
 4049SOL    HW123609   0.441   3.189  16.779  0.2624  1.7927 -2.1881
 4049SOL    HW223610   0.303   3.149  16.734  0.6038 -1.7933  0.5322
 4050SOL     OW23611   1.878   2.530  14.650 -0.5536  0.7309 -0.3454
 4050SOL    HW123612   1.910   2.441  14.638  0.4507  0.9233  0.8417
 4050SOL    HW223613   1.811   2.521  14.718 -1.7662 -2.5158 -1.9986
 4051SOL     OW23614   2.101   3.184   0.940  0.4027 -0.1767  0.2361
 4051SOL    HW123615   2.155   3.142   1.006  0.4657  2.0931  1.6527
 4051SOL    HW223616   2.158   3.251   0.900 -1.6220  1.5859  0.2656
 4052SOL     OW23617   2.460   4.120  13.984  0.6089 -0.3140  0.0244
 4052SOL    HW123618   2.426   4.189  13.927  0.2003  0.3556  1.0641
 4052SOL    HW223619   2.545   4.152  14.014  1.5541 -2.5752 -0.3402
 4053SOL     OW23620   3.202   1.910   6.987  0.8807 -0.6766 -0.2125
 4053SOL    HW123621   3.151   1.926   6.908 -1.2669  0.7926  1.4857
 4053SOL    HW223622   3.139   1.863   7.041  2.9139 -2.0102  0.9998
 4054SOL     OW23623   0.966   1.339   2.459  0.6737  0.5223 -0.5813
 4054SOL    HW123624   0.999   1.301   2.378  1.0698  0.4365 -0.3814
 4054SOL    HW223625   0.878   1.375   2.445  1.6245  1.5901 -3.8107
 4055SOL     OW23626   0.424   0.353  17.153  0.0538  0.1065 -0.0997
 4055SOL    HW123627   0.410   0.343  17.247  1.8440  0.7795  0.2424
 4055SOL    HW223628   0.346   0.316  17.113 -1.9111  1.7684  2.1928
 4056SOL     OW23629   2.687   0.817   4.700  0.1115  0.2147 -0.0532
 4056SOL    HW123630   2.774   0.817   4.658 -0.7159  2.6365 -1.7352
 4056SOL    HW223631   2.641   0.886   4.653 -0.8424 -1.4455 -1.5689
 4057SOL     OW23632   1.233   0.504   1.514 -0.0274  0.1856  0.0979
 4057SOL    HW123633   1.139   0.500   1.535  0.2203  0.3782  1.2756
 4057SOL    HW223634   1.249   0.598   1.516 -0.1716  0.2485 -1.6969
 4058SOL     OW23635   1.668   1.276  11.256 -0.1488  0.0018 -0.1585
 4058SOL    HW123636   1.714   1.360  11.254  0.5746 -0.3656  1.2595
 4058SOL    HW223637   1.590   1.296  11.203 -1.7374  0.2752  2.2839
 4059SOL     OW23638   1.308   2.350   6.127  0.0865  0.2342  0.3864
 4059SOL    HW123639   1.351   2.433   6.149 -2.3707  1.7739 -0.6116
 4059SOL    HW223640   1.359   2.309   6.057  0.8456 -2.2783  2.4171
 4060SOL     OW23641   1.175   3.832   0.341  0.2441  0.1005 -0.3776
 4060SOL    HW123642   1.260   3.857   0.304 -0.0491 -2.6999 -2.9361
 4060SOL    HW223643   1.162   3.918   0.381 -1.0387 -1.2513  2.0971
 4061SOL     OW23644   4.229   0.252  12.242  0.5081  0.1137  0.1890
 4061SOL    HW123645   4.267   0.257  12.330  1.6177 -2.4135 -0.1448
 4061SOL    HW223646   4.297   0.306  12.201  1.2884  0.3204  1.7430
 4062SOL     OW23647   4.699   2.654   2.335 -0.4368  0.2626 -0.0951
 4062SOL    HW123648   4.635   2.716   2.372 -0.6741 -0.3415  0.4968
 4062SOL    HW223649   4.716   2.606   2.416  2.4711 -2.0287 -2.0583
 4063SOL     OW23650   1.021   3.469  14.620 -0.2227 -0.0071 -0.0685
 4063SOL    HW123651   1.100   3.500  14.576 -0.2631  1.1798  0.6787
 4063SOL    HW223652   0.953   3.514  14.569 -2.6911 -2.0581  1.4008
 4064SOL     OW23653   0.110   2.747   7.974  0.1446  0.3306 -0.2282
 4064SOL    HW123654   0.163   2.805   7.920  0.1215  1.5175  1.0147
 4064SOL    HW223655   0.124   2.790   8.058  0.1778  0.3141 -0.2253
 4065SOL     OW23656   4.514   3.333  10.062 -0.1290  0.1286 -0.3035
 4065SOL    HW123657   4.567   3.406  10.095  2.7161 -0.7871 -2.7887
 4065SOL    HW223658   4.452   3.327  10.135  0.6304 -0.7683  0.2713
 4066SOL     OW23659   1.835   3.737  11.346 -0.2670 -0.2379 -0.0267
 4066SOL    HW123660   1.899   3.679  11.305 -0.3729  0.6978 -1.5331
 4066SOL    HW223661   1.757   3.682  11.356 -2.2045  2.4200 -0.5464
 4067SOL     OW23662   4.276   2.844   2.683  0.0204  0.4347 -0.0662
 4067SOL    HW123663   4.241   2.829   2.771 -0.0113 -2.5086 -0.5901
 4067SOL    HW223664   4.285   2.752   2.659 -0.6721  0.2906  0.2189
 4068SOL     OW23665   2.769   0.709  11.529 -0.3776 -0.2327 -0.3336
 4068SOL    HW123666   2.835   0.776  11.545 -0.8922 -0.2735  1.8723
 4068SOL    HW223667   2.782   0.668  11.443 -0.1581 -1.3830  0.2515
 4069SOL     OW23668   1.905   0.317   2.507 -0.9845  0.1184  0.6147
 4069SOL    HW123669   1.919   0.248   2.441  1.7643  1.2668 -0.0084
 4069SOL    HW223670   1.987   0.312   2.556 -0.5797 -3.1016 -0.3603
 4070SOL     OW23671   4.150   0.927  12.650  0.4582 -0.3196  0.4413
 4070SOL    HW123672   4.196   0.867  12.591 -1.7692 -1.4674 -0.1171
 4070SOL    HW223673   4.068   0.885  12.676  1.4480 -2.1922  0.5855
 4071SOL     OW23674   3.693   1.831   3.937 -0.0474  0.9238 -0.1848
 4071SOL    HW123675   3.615   1.866   3.980 -1.1289  1.1595 -2.3602
 4071SOL    HW223676   3.653   1.789   3.861 -2.0380  3.2143 -0.3837
 4072SOL     OW23677   4.558   4.673   2.612 -0.3820  0.3053  0.2994
 4072SOL    HW123678   4.495   0.023   2.611  0.3755  0.9352 -1.1438
 4072SOL    HW223679   4.501   4.608   2.572 -0.1469 -0.5901  1.4289
 4073SOL     OW23680   4.055   3.524   6.393  0.4236 -0.3289 -0.2758
 4073SOL    HW123681   4.062   3.619   6.385  0.7466 -0.3307  0.0001
 4073SOL    HW223682   3.963   3.500   6.403 -0.1134  2.5971  1.7871
 4074SOL     OW23683   4.706   1.668   1.202  0.0356  0.1582  0.1565
 4074SOL    HW123684   4.648   1.616   1.147 -1.0342  0.1249  1.3077
 4074SOL    HW223685   4.689   1.754   1.163  1.0850  0.6543  0.7677
 4075SOL     OW23686   3.159   3.710   1.877 -0.2949  0.1584  0.0807
 4075SOL    HW123687   3.098   3.774   1.914 -0.2474  1.3161 -1.8548
 4075SOL    HW223688   3.215   3.683   1.949 -1.3138 -0.4678  0.6448
 4076SOL     OW23689   2.477   3.406   9.509 -0.0284 -0.4450 -0.2775
 4076SOL    HW123690   2.442   3.366   9.429 -1.6566  0.0450  0.1892
 4076SOL    HW223691   2.521   3.488   9.488 -2.4116  0.5606 -1.2629
 4077SOL     OW23692   0.555   4.547   7.167  0.2764 -0.2634  0.2777
 4077SOL    HW123693   0.550   4.453   7.150  2.8284 -0.3904  0.2778
 4077SOL    HW223694   0.649   4.563   7.173  0.1471  1.2423 -1.7040
 4078SOL     OW23695   3.296   2.973   2.894  0.6908 -0.0684  0.2490
 4078SOL    HW123696   3.380   2.933   2.915  0.8134 -0.4598 -1.0054
 4078SOL    HW223697   3.237   2.897   2.891 -3.8948  3.5160 -1.9504
 4079SOL     OW23698   4.018   3.553  17.424  0.2121 -0.2870 -0.0306
 4079SOL    HW123699   4.082   3.532  17.356  0.6660  1.6566 -0.2152
 4079SOL    HW223700   3.992   3.465  17.451  1.3636 -0.2418  1.2440
 4080SOL     OW23701   0.070   3.388   9.578  0.1111  0.0846 -0.0754
 4080SOL    HW123702   0.104   3.346   9.658 -1.0794 -1.8957 -0.6225
 4080SOL    HW223703   4.699   3.388   9.595  0.1357  2.6018  0.0221
 4081SOL     OW23704   0.294   3.057   6.342  0.0428 -0.1626  0.0457
 4081SOL    HW123705   0.218   3.027   6.293 -0.4371  2.8639 -1.0535
 4081SOL    HW223706   0.254   3.135   6.380 -1.4999 -1.2551  0.6668
 4082SOL     OW23707   4.722   0.253   4.244 -0.1221 -0.5174  0.4710
 4082SOL    HW123708   0.059   0.318   4.208 -1.6617  0.3192 -0.5774
 4082SOL    HW223709   4.650   0.304   4.281  0.6942  1.1831 -0.3009
 4083SOL     OW23710   2.988   0.917   7.972  0.3285 -0.0497  0.5317
 4083SOL    HW123711   3.021   0.862   7.901  1.1523 -0.7391  1.4504
 4083SOL    HW223712   2.894   0.903   7.962  0.0556  1.1865  1.3920
 4084SOL     OW23713   1.830   4.054   3.746 -0.8113  0.0139  0.1051
 4084SOL    HW123714   1.916   4.085   3.772 -0.4020 -0.3865 -0.7831
 4084SOL    HW223715   1.811   3.968   3.783 -2.9255  0.6672  0.5659
 4085SOL     OW23716   1.366   4.674   1.442  0.0822  0.3910 -0.7950
 4085SOL    HW123717   1.281   4.654   1.481  2.2432 -1.0809  3.1534
 4085SOL    HW223718   1.341   0.020   1.379 -0.4940  0.5711 -0.3662
 4086SOL     OW23719   4.372   1.116   7.706 -0.0475  0.4960 -0.8939
 4086SOL    HW123720   4.371   1.134   7.800  1.0650 -1.3472 -0.5219
 4086SOL    HW223721   4.317   1.187   7.675 -1.1417  0.5082  1.0825
 4087SOL     OW23722   1.050   3.386   3.212  0.1673  0.0291 -0.7910
 4087SOL    HW123723   1.002   3.407   3.293  0.3516  1.4192 -1.0480
 4087SOL    HW223724   1.135   3.426   3.232  0.4399 -0.6819 -0.5304
 4088SOL     OW23725   1.788   3.731   6.925 -0.4557 -0.4463  0.2914
 4088SOL    HW123726   1.881   3.750   6.937 -0.4014 -2.4627  2.8553
 4088SOL    HW223727   1.752   3.820   6.925 -1.7611 -0.9566 -0.9228
 4089SOL     OW23728   1.600   0.467  11.389 -0.0711 -0.7177  1.1014
 4089SOL    HW123729   1.605   0.386  11.440 -0.5339  0.8492  3.6318
 4089SOL    HW223730   1.689   0.491  11.363 -0.2662  0.0103  1.0980
 4090SOL     OW23731   3.080   2.475   3.542 -0.0975  0.2572 -0.2677
 4090SOL    HW123732   3.095   2.499   3.450  2.3885  1.3745  0.4418
 4090SOL    HW223733   2.990   2.505   3.551  0.0329 -0.0851  1.9752
 4091SOL     OW23734   3.447   2.195   7.459  0.3767  0.2113  0.7856
 4091SOL    HW123735   3.361   2.226   7.486  0.2788  2.0611 -1.6614
 4091SOL    HW223736   3.501   2.231   7.530  0.9569  1.1059 -0.1054
 4092SOL     OW23737   3.701   1.021   9.511  0.5924 -0.4374  0.0284
 4092SOL    HW123738   3.679   0.988   9.424  1.1076 -1.4207  0.2632
 4092SOL    HW223739   3.656   0.956   9.565  0.4635  0.8839  1.5201
 4093SOL     OW23740   3.687   0.776   3.735 -0.4165 -0.5697 -0.5391
 4093SOL    HW123741   3.665   0.762   3.643 -1.0815  2.3196 -0.8354
 4093SOL    HW223742   3.607   0.821   3.762  1.0217  2.2633 -1.0212
 4094SOL     OW23743   1.927   0.959   3.845 -0.3538  0.3579 -0.0260
 4094SOL    HW123744   1.844   0.960   3.891 -1.8287  1.1411 -2.6840
 4094SOL    HW223745   1.913   0.994   3.757 -0.8268  0.6197  0.1546
 4095SOL     OW23746   0.310   3.107  11.681  0.0196 -0.0823 -0.3449
 4095SOL    HW123747   0.264   3.038  11.728 -1.7064  0.9900 -0.4655
 4095SOL    HW223748   0.247   3.176  11.702  0.8269  0.2186  1.1838
 4096SOL     OW23749   4.580   4.415   9.043 -0.0193  0.2434  0.1702
 4096SOL    HW123750   4.639   4.359   8.992 -1.0448  0.3364 -1.1397
 4096SOL    HW223751   4.538   4.353   9.102  0.8493 -0.6759 -0.1930
 4097SOL     OW23752   3.916   0.397   8.623  0.3334 -0.4766 -0.4046
 4097SOL    HW123753   3.964   0.436   8.550 -1.3206  0.2177 -1.1303
 4097SOL    HW223754   3.986   0.362   8.678  1.6146  2.1387 -0.4035
 4098SOL     OW23755   3.096   1.808   3.553  0.2648 -0.0976  0.5613
 4098SOL    HW123756   3.091   1.875   3.620  2.6991  0.5640  0.0786
 4098SOL    HW223757   3.057   1.856   3.480  0.7744 -1.1326 -0.4168
 4099SOL     OW23758   0.427   1.621   5.106  0.3307 -0.0397  0.1836
 4099SOL    HW123759   0.466   1.582   5.184 -1.4893  1.7004  1.9383
 4099SOL    HW223760   0.371   1.545   5.088  1.2481  0.0286 -2.9612
 4100SOL     OW23761   1.067   2.365  17.211  0.1850 -0.6186 -0.4898
 4100SOL    HW123762   1.111   2.336  17.130  0.1463 -0.1315 -0.6873
 4100SOL    HW223763   1.110   2.308  17.275 -1.6433 -2.1883 -0.6629
 4101SOL     OW23764   2.788   1.369  16.457 -0.4463  0.1534  0.1804
 4101SOL    HW123765   2.854   1.400  16.519  0.5467 -0.2459 -0.6769
 4101SOL    HW223766   2.834   1.397  16.378 -1.2830 -1.8991 -1.0359
 4102SOL     OW23767   2.820   1.344   7.297  0.9009 -0.2027 -0.8722
 4102SOL    HW123768   2.820   1.396   7.377  0.2889  1.5226 -1.9754
 4102SOL    HW223769   2.909   1.312   7.310  1.5575  1.9398 -0.0365
 4103SOL     OW23770   4.578   2.450   8.251  0.0323  0.0856 -0.1199
 4103SOL    HW123771   4.574   2.435   8.156 -1.1154  1.7982 -0.3300
 4103SOL    HW223772   4.663   2.417   8.280  0.0066  1.7672  1.8238
 4104SOL     OW23773   0.435   2.171   1.731  0.1008 -0.3716 -0.4233
 4104SOL    HW123774   0.516   2.123   1.719  0.3182 -0.5357  1.7288
 4104SOL    HW223775   0.448   2.230   1.656 -2.2567  0.6628 -0.0449
 4105SOL     OW23776   3.583   1.113   5.273  0.4580 -0.0513  0.0713
 4105SOL    HW123777   3.672   1.096   5.243  0.4500 -1.0267  0.5662
 4105SOL    HW223778   3.553   1.023   5.291 -2.5795  1.3656  2.2128
 4106SOL     OW23779   1.216   3.738  15.223  0.1253 -0.2401  0.5953
 4106SOL    HW123780   1.307   3.757  15.245 -0.4802  1.1462  1.9480
 4106SOL    HW223781   1.218   3.709  15.132 -3.1797  1.4706 -0.0431
 4107SOL     OW23782   3.529   0.799   6.375  0.1512 -0.6400 -0.1817
 4107SOL    HW123783   3.607   0.835   6.332  0.1756  1.4886  1.6665
 4107SOL    HW223784   3.526   0.852   6.454 -0.1851 -0.9048 -0.0180
 4108SOL     OW23785   1.431   1.554   4.805 -0.4068  0.3072  0.6647
 4108SOL    HW123786   1.414   1.463   4.779  1.0425  0.4630 -0.8524
 4108SOL    HW223787   1.526   1.561   4.797 -0.3518  1.7686  2.7022
 4109SOL     OW23788   0.726   1.106   9.562  0.0159  0.2536  0.0893
 4109SOL    HW123789   0.655   1.046   9.584  1.5198 -1.2430  0.8744
 4109SOL    HW223790   0.763   1.065   9.483 -0.7990  0.4184 -0.3835
 4110SOL     OW23791   2.364   0.605   1.969 -0.1185  0.1076  0.1342
 4110SOL    HW123792   2.411   0.687   1.956  0.5454  0.1174  2.5498
 4110SOL    HW223793   2.355   0.600   2.064  0.4326 -1.1898  0.1205
 4111SOL     OW23794   2.295   0.251   4.948  0.1466  0.1739  0.2226
 4111SOL    HW123795   2.333   0.185   5.005 -1.4743 -1.3012 -0.3826
 4111SOL    HW223796   2.309   0.328   5.003  0.3117  1.1898 -1.2557
 4112SOL     OW23797   0.039   2.193   7.873 -0.1219  0.0548 -0.4072
 4112SOL    HW123798   0.052   2.156   7.786 -2.0945  1.5142 -1.3460
 4112SOL    HW223799   0.039   2.110   7.921 -0.1640 -0.2779 -0.9771
 4113SOL     OW23800   0.821   0.009  13.981 -0.0137  0.1979  0.0023
 4113SOL    HW123801   0.726   4.722  13.977  0.0131 -0.9598  1.7807
 4113SOL    HW223802   0.833   0.103  13.966  3.7452  0.1200  2.5344
 4114SOL     OW23803   1.949   0.541   2.305 -0.5104  0.1365 -0.1311
 4114SOL    HW123804   1.935   0.631   2.335  0.5760 -0.2651  1.6168
 4114SOL    HW223805   1.900   0.503   2.378 -0.9086  1.0255  0.0635
 4115SOL     OW23806   1.974   1.309  17.003 -0.2113 -0.2781 -0.6777
 4115SOL    HW123807   1.999   1.242  17.066 -1.4644 -0.1776 -0.0547
 4115SOL    HW223808   2.051   1.303  16.948 -0.4073  1.4888 -1.1565
 4116SOL     OW23809   1.470   1.757  14.294 -0.2342 -0.0581 -0.1846
 4116SOL    HW123810   1.551   1.738  14.247 -0.0359  1.4621 -0.4757
 4116SOL    HW223811   1.466   1.698  14.368 -1.2496  2.1928  1.5645
 4117SOL     OW23812   3.224   4.541  15.891 -0.3782 -0.0866 -0.4488
 4117SOL    HW123813   3.228   4.471  15.956 -0.8645  1.2158  0.9791
 4117SOL    HW223814   3.246   4.493  15.811  2.0653  4.4699 -2.5239
 4118SOL     OW23815   2.139   2.464   8.936  0.3639 -0.2045 -0.1131
 4118SOL    HW123816   2.076   2.469   9.008  0.1784 -1.5490 -0.1872
 4118SOL    HW223817   2.217   2.468   8.991  0.6785 -0.1956 -0.5604
 4119SOL     OW23818   1.351   2.588   5.455  0.0082 -0.0487  0.3467
 4119SOL    HW123819   1.409   2.534   5.402  0.6182 -0.3022  1.2693
 4119SOL    HW223820   1.267   2.579   5.410 -1.4272  1.8513  2.6546
 4120SOL     OW23821   3.437   2.287  13.535  0.4217 -0.1297 -0.0271
 4120SOL    HW123822   3.386   2.243  13.603  0.1804 -0.9673 -0.7535
 4120SOL    HW223823   3.456   2.370  13.579  0.4906 -0.1285 -0.0581
 4121SOL     OW23824   4.230   1.989   0.784 -0.3817  0.1101  0.0798
 4121SOL    HW123825   4.299   1.948   0.733 -1.3089 -0.0497 -1.0548
 4121SOL    HW223826   4.273   2.042   0.851 -0.4657  0.2138  0.0526
 4122SOL     OW23827   1.804   1.034   2.623 -0.0776  0.4058 -0.4824
 4122SOL    HW123828   1.878   1.090   2.647  2.4630 -3.4638  0.7655
 4122SOL    HW223829   1.831   0.999   2.538 -0.9773  1.6447 -1.2893
 4123SOL     OW23830   4.558   2.332   7.108  0.2456  0.2527  0.1209
 4123SOL    HW123831   4.547   2.383   7.189  1.8994  1.6956 -0.5421
 4123SOL    HW223832   4.545   2.402   7.043 -1.4334  0.3202  0.5427
 4124SOL     OW23833   1.742   2.502   4.697 -0.7107  0.0674 -0.1361
 4124SOL    HW123834   1.715   2.469   4.783 -0.2517  0.9849  0.3618
 4124SOL    HW223835   1.661   2.551   4.679  0.2020  0.9374 -1.8374
 4125SOL     OW23836   1.130   1.781   2.791 -0.4441  0.4411 -0.2439
 4125SOL    HW123837   1.064   1.840   2.755  0.1950  1.6456  0.5510
 4125SOL    HW223838   1.174   1.749   2.712  0.8725 -1.1232  1.1172
 4126SOL     OW23839   2.479   0.260   6.883  0.0256  0.4161 -0.5128
 4126SOL    HW123840   2.531   0.337   6.906 -0.8397  1.1026 -0.8819
 4126SOL    HW223841   2.429   0.290   6.807 -1.6303  0.1182  0.4513
 4127SOL     OW23842   3.321   3.436   3.062  0.2230  0.7346 -0.5366
 4127SOL    HW123843   3.334   3.372   2.992  0.0530 -0.2348  0.3138
 4127SOL    HW223844   3.378   3.398   3.128  1.9079 -0.1764 -2.5196
 4128SOL     OW23845   3.880   2.601   1.225 -0.4299 -0.4494  0.2331
 4128SOL    HW123846   3.820   2.603   1.301 -0.6499 -0.6116  0.0625
 4128SOL    HW223847   3.890   2.508   1.206  1.0079 -0.2122 -0.1167
 4129SOL     OW23848   1.237   2.836   9.716  0.2616 -0.0407  0.2156
 4129SOL    HW123849   1.151   2.843   9.676  0.7115  1.6322 -0.4494
 4129SOL    HW223850   1.220   2.782   9.793 -1.4489  0.4712  0.1799
 4130SOL     OW23851   4.302   3.735   6.342  0.1793  0.4665 -0.2128
 4130SOL    HW123852   4.211   3.741   6.370  0.1170 -0.4115 -0.2200
 4130SOL    HW223853   4.300   3.807   6.280 -0.0376 -0.0513 -0.8080
 4131SOL     OW23854   0.040   1.462   3.584  0.4849  0.1632 -0.4933
 4131SOL    HW123855   0.059   1.480   3.677 -1.2895 -1.9480  0.2848
 4131SOL    HW223856   0.124   1.462   3.539  0.8172 -1.1645  0.1133
 4132SOL     OW23857   1.103   3.296   6.570  0.0942  0.2490  0.8690
 4132SOL    HW123858   1.167   3.307   6.640  0.1465  2.4224  0.4626
 4132SOL    HW223859   1.052   3.377   6.569  0.3430  0.4174  1.5955
 4133SOL     OW23860   1.965   1.550   4.915  0.7342  0.2405  0.3400
 4133SOL    HW123861   2.012   1.472   4.886 -2.6187 -1.0202 -1.6987
 4133SOL    HW223862   1.912   1.514   4.986  2.2430 -0.9750  0.8492
 4134SOL     OW23863   3.445   1.088   6.532  0.1620 -0.0304  0.4856
 4134SOL    HW123864   3.438   1.126   6.444  1.5063  0.1185  0.4428
 4134SOL    HW223865   3.361   1.117   6.566  0.5100  1.1028  0.3860
 4135SOL     OW23866   1.317   4.450   1.942  0.0183  0.0556 -0.4706
 4135SOL    HW123867   1.390   4.391   1.924 -0.3538 -0.6747  0.4573
 4135SOL    HW223868   1.320   4.522   1.879  2.0055  0.4362  0.0497
 4136SOL     OW23869   3.997   3.610   7.228  0.0073  0.1678 -0.4514
 4136SOL    HW123870   4.047   3.607   7.147 -0.5589  0.2650 -0.8069
 4136SOL    HW223871   4.020   3.528   7.272  2.0259  1.3806  0.6978
 4137SOL     OW23872   2.130   2.117   6.058  0.2742 -0.3355  0.6055
 4137SOL    HW123873   2.128   2.067   6.139 -0.4152  2.0098  2.0256
 4137SOL    HW223874   2.145   2.043   5.999 -3.0140 -0.5921  0.0551
 4138SOL     OW23875   4.274   1.375   3.949  0.3764 -0.1590  0.0522
 4138SOL    HW123876   4.338   1.359   3.880 -0.0005 -0.4663 -0.2279
 4138SOL    HW223877   4.203   1.413   3.899  0.4401 -2.4640 -1.7896
 4139SOL     OW23878   3.552   4.616  12.069  0.0318  0.6456 -0.0945
 4139SOL    HW123879   3.600   4.674  12.128  0.0878 -1.5771  2.0531
 4139SOL    HW223880   3.471   4.613  12.120  1.0055  0.4788  1.4681
 4140SOL     OW23881   4.304   1.716   6.146  0.3750 -0.2966  0.0699
 4140SOL    HW123882   4.260   1.670   6.217  2.5808 -0.2659  1.4758
 4140SOL    HW223883   4.288   1.805   6.178  0.5506 -0.2415  0.0045
 4141SOL     OW23884   3.264   2.132   7.141  0.0285  0.3006 -0.1166
 4141SOL    HW123885   3.221   2.077   7.076 -0.8708  1.4824 -0.5245
 4141SOL    HW223886   3.197   2.190   7.177  0.9523  0.7161  0.9479
 4142SOL     OW23887   1.235   0.313   3.670 -0.1469  0.5094 -0.4603
 4142SOL    HW123888   1.278   0.271   3.596 -1.8221 -2.1062  0.0270
 4142SOL    HW223889   1.306   0.299   3.732  0.1350  0.4914 -0.7916
 4143SOL     OW23890   4.567   2.927   5.052  0.5828  0.0166  0.2774
 4143SOL    HW123891   4.636   2.937   4.986 -0.9750 -0.7610 -1.4745
 4143SOL    HW223892   4.579   2.988   5.125  1.2493  1.3966 -0.9918
 4144SOL     OW23893   0.434   1.553   1.395 -0.2304 -0.5600  0.5520
 4144SOL    HW123894   0.358   1.505   1.427  0.0207 -0.3419  1.4867
 4144SOL    HW223895   0.487   1.476   1.374 -0.2668 -0.9209  1.7964
 4145SOL     OW23896   1.507   1.142   4.884 -0.0136 -0.2691 -0.2420
 4145SOL    HW123897   1.587   1.089   4.874 -0.6694 -1.2074 -0.4924
 4145SOL    HW223898   1.502   1.203   4.811  1.0885  0.6149  0.4213
 4146SOL     OW23899   3.142   4.241   0.231 -0.2035  0.1474 -0.7772
 4146SOL    HW123900   3.111   4.155   0.203 -2.5289  0.3098  1.2854
 4146SOL    HW223901   3.230   4.223   0.263  1.0201  2.6735 -2.6732
 4147SOL     OW23902   1.635   0.175   8.014 -0.1626 -0.5440  0.3139
 4147SOL    HW123903   1.571   0.201   8.080 -1.0504 -1.4021 -0.2277
 4147SOL    HW223904   1.625   0.080   8.008 -0.3258 -0.4723 -0.5689
 4148SOL     OW23905   3.542   0.786  16.526 -0.5645 -0.5479 -0.1974
 4148SOL    HW123906   3.487   0.855  16.488 -2.1771 -0.0577  3.0300
 4148SOL    HW223907   3.550   0.714  16.463 -2.1442 -0.3442 -0.6437
 4149SOL     OW23908   2.181   4.497   7.169 -0.1583 -0.3771 -0.1148
 4149SOL    HW123909   2.232   4.527   7.244 -0.9166  0.8465 -0.0895
 4149SOL    HW223910   2.091   4.523   7.190 -0.8368 -0.6527 -2.6658
 4150SOL     OW23911   3.088   4.084  14.812 -0.0696  0.3993  0.2524
 4150SOL    HW123912   3.034   4.051  14.884 -0.6048  3.4432  1.2354
 4150SOL    HW223913   3.074   4.179  14.815  1.3169  0.6172 -0.0774
 4151SOL     OW23914   1.372   1.672   9.000 -0.0283  0.0046 -0.2216
 4151SOL    HW123915   1.363   1.658   9.095  3.2426 -0.6947  0.0057
 4151SOL    HW223916   1.294   1.723   8.980 -0.1327 -0.2200 -0.3891
 4152SOL     OW23917   1.929   1.100   9.497  0.4874 -0.2831 -0.4629
 4152SOL    HW123918   2.012   1.136   9.466  1.8386 -0.9594  2.3165
 4152SOL    HW223919   1.866   1.124   9.429  0.8116  3.1549  0.4568
 4153SOL     OW23920   0.129   4.715   4.600  0.1518 -0.1781  0.4093
 4153SOL    HW123921   0.124   0.075   4.553  1.5683  0.1890  0.9040
 4153SOL    HW223922   0.077   4.666   4.537  2.6993 -0.5753 -1.4062
 4154SOL     OW23923   0.094   3.156  15.101 -0.4135  0.0236 -0.0335
 4154SOL    HW123924   0.045   3.235  15.077  0.8930  1.0093  0.5370
 4154SOL    HW223925   0.021   3.094  15.093 -2.2007  1.9465  1.3926
 4155SOL     OW23926   3.331   0.648   2.111  0.4458  0.8794  0.4440
 4155SOL    HW123927   3.256   0.620   2.059  1.3919  0.5817 -0.7549
 4155SOL    HW223928   3.359   0.727   2.066 -1.2350  1.7516  0.9260
 4156SOL     OW23929   1.840   3.635   8.313 -0.1758 -0.3972  0.0940
 4156SOL    HW123930   1.906   3.569   8.295  0.0746  0.1400 -0.9330
 4156SOL    HW223931   1.844   3.696   8.240  2.1843 -0.2388  0.3597
 4157SOL     OW23932   2.071   1.538   1.585  0.2264 -0.4544  0.2605
 4157SOL    HW123933   1.981   1.507   1.577  0.6224 -1.4182 -0.5172
 4157SOL    HW223934   2.105   1.468   1.528  0.9750  1.1452 -1.2789
 4158SOL     OW23935   0.266   1.987   2.376  0.4476 -0.0382  0.2371
 4158SOL    HW123936   0.360   1.994   2.359  0.4187 -2.6966 -0.8707
 4158SOL    HW223937   0.262   2.035   2.459 -0.1440 -0.7644  0.6250
 4159SOL     OW23938   1.452   0.189   5.859  0.7358  0.2893 -0.0345
 4159SOL    HW123939   1.482   0.221   5.774 -0.6240 -0.1782 -0.6884
 4159SOL    HW223940   1.382   0.249   5.884  0.8710  0.2697  0.3979
 4160SOL     OW23941   3.658   2.770   9.566 -0.4996 -0.2328 -0.3225
 4160SOL    HW123942   3.741   2.736   9.534 -1.0723 -0.1569 -1.8705
 4160SOL    HW223943   3.683   2.840   9.626  0.2187 -0.4078 -0.4179
 4161SOL     OW23944   3.487   2.093   6.769 -0.2602 -0.4342 -0.1977
 4161SOL    HW123945   3.501   1.999   6.782  1.3312 -0.3189 -1.1313
 4161SOL    HW223946   3.402   2.110   6.810 -0.8113 -1.4448 -0.9218
 4162SOL     OW23947   1.655   3.922   6.263 -0.2451  0.3868 -0.5705
 4162SOL    HW123948   1.715   3.916   6.337  0.1828 -1.2100 -1.0318
 4162SOL    HW223949   1.711   3.974   6.205 -1.0643  1.4272 -0.4337
 4163SOL     OW23950   1.229   3.411   1.987  0.1730 -0.4663 -0.0397
 4163SOL    HW123951   1.301   3.470   2.010  0.1051  0.2500 -1.7142
 4163SOL    HW223952   1.271   3.326   2.001  3.0541  1.0657  0.6110
 4164SOL     OW23953   1.323   2.438   1.829 -0.5336  0.4373  0.0246
 4164SOL    HW123954   1.404   2.488   1.815 -0.6638  0.2320 -1.4025
 4164SOL    HW223955   1.316   2.403   1.741  0.9759 -0.0673  0.1059
 4165SOL     OW23956   2.043   0.670  13.204 -0.0995 -0.1106  0.2156
 4165SOL    HW123957   2.122   0.698  13.249  0.2513 -1.2649  0.3173
 4165SOL    HW223958   2.007   0.634  13.285 -1.0141 -0.2313 -0.2375
 4166SOL     OW23959   1.208   0.673  13.709 -0.1764  0.1054 -0.2974
 4166SOL    HW123960   1.187   0.726  13.632 -0.3711 -1.4337 -1.3087
 4166SOL    HW223961   1.198   0.729  13.786  1.1729 -1.6172  1.1311
 4167SOL     OW23962   4.099   2.525   6.587 -0.6165 -0.6728  0.2514
 4167SOL    HW123963   4.076   2.479   6.506 -0.1709 -0.1076 -0.1949
 4167SOL    HW223964   4.102   2.618   6.564  0.8771 -0.9584 -0.7215
 4168SOL     OW23965   3.895   4.523   2.893  0.2139  0.4159 -0.3071
 4168SOL    HW123966   3.891   4.443   2.945  2.0793 -1.3063 -2.7911
 4168SOL    HW223967   3.959   4.496   2.827  2.1100 -0.6129  1.9542
 4169SOL     OW23968   4.093   3.199   1.591 -0.5427  0.5769  0.2980
 4169SOL    HW123969   4.093   3.161   1.503  1.7052  0.4725  0.3318
 4169SOL    HW223970   4.069   3.119   1.639  0.7596 -0.4559 -0.7911
 4170SOL     OW23971   0.977   3.891  16.573  0.0280 -0.1154  0.5433
 4170SOL    HW123972   0.891   3.850  16.575 -0.2062  0.3412 -0.2094
 4170SOL    HW223973   0.953   3.936  16.492 -0.0578  1.4359  1.4238
 4171SOL     OW23974   2.592   1.304  11.050  0.3726  0.1739 -0.0346
 4171SOL    HW123975   2.573   1.347  11.133  0.7922 -0.2420  0.2781
 4171SOL    HW223976   2.687   1.315  11.042  0.4150  0.0633  0.3067
 4172SOL     OW23977   3.216   2.435   2.272  0.1975 -0.8282  0.5010
 4172SOL    HW123978   3.146   2.460   2.333 -0.2405  1.2685 -0.8826
 4172SOL    HW223979   3.269   2.381   2.330 -0.3092 -2.8706 -0.9546
 4173SOL     OW23980   0.936   1.052  11.601 -0.0875  0.0648  0.0433
 4173SOL    HW123981   0.955   0.960  11.618 -1.6157 -0.3375 -0.4209
 4173SOL    HW223982   0.931   1.084  11.691  1.3713 -1.5211  0.6964
 4174SOL     OW23983   2.256   4.209   9.909  0.0287 -0.5044  0.3570
 4174SOL    HW123984   2.178   4.159   9.883 -0.2777  1.6718 -2.9047
 4174SOL    HW223985   2.246   4.289   9.857  2.6312 -1.4703 -1.6271
 4175SOL     OW23986   2.010   0.405   5.569  0.6832  0.6019 -0.0007
 4175SOL    HW123987   2.047   0.318   5.583 -1.0119 -0.0295  0.4900
 4175SOL    HW223988   1.964   0.386   5.488 -1.2118 -0.1379  1.2438
 4176SOL     OW23989   3.229   1.028   9.010  0.8665  0.8719  0.6225
 4176SOL    HW123990   3.308   1.031   9.064  1.5304 -1.5608 -0.1987
 4176SOL    HW223991   3.252   1.082   8.935  1.3031 -1.4264 -0.9175
 4177SOL     OW23992   1.594   2.229  12.673 -0.7860  0.3998  0.0339
 4177SOL    HW123993   1.608   2.228  12.578  2.1577 -0.2399  0.4866
 4177SOL    HW223994   1.529   2.299  12.676 -0.0416  1.1222 -0.8446
 4178SOL     OW23995   0.318   3.775   4.251  0.1727 -0.1314 -0.6741
 4178SOL    HW123996   0.326   3.699   4.194  3.0639  1.4943 -2.4728
 4178SOL    HW223997   0.400   3.775   4.302 -1.0881  2.0100  1.3688
 4179SOL     OW23998   0.967   1.586  14.248  0.1386 -0.1727 -0.2814
 4179SOL    HW123999   0.880   1.552  14.267 -2.0212  5.6138  0.1710
 4179SOL    HW224000   0.989   1.541  14.166  1.4750  0.3226 -0.1927
 4180SOL     OW24001   0.684   3.784   6.879 -0.2741  0.5676 -0.2368
 4180SOL    HW124002   0.590   3.803   6.877 -0.6497 -1.4180 -1.4011
 4180SOL    HW224003   0.696   3.689   6.880 -4.0051  0.0802  0.4934
 4181SOL     OW24004   3.127   0.924  17.231 -0.2722 -0.5924 -0.4178
 4181SOL    HW124005   3.176   0.962  17.304 -0.1167 -1.6046  0.0047
 4181SOL    HW224006   3.181   0.966  17.164 -1.1772  2.5001  0.7870
 4182SOL     OW24007   4.282   1.728   1.876  0.1777  0.5553  0.3490
 4182SOL    HW124008   4.342   1.794   1.912 -0.1918  0.3472  1.3501
 4182SOL    HW224009   4.224   1.783   1.823 -0.3894 -1.1417 -0.7742
 4183SOL     OW24010   2.373   1.954   2.161 -0.0130  0.0506 -0.3144
 4183SOL    HW124011   2.327   2.013   2.102  0.0043  0.0052 -0.3735
 4183SOL    HW224012   2.446   2.007   2.192 -1.4754  1.7487  0.1979
 4184SOL     OW24013   3.687   4.472   3.938  0.4942  0.0197 -0.2411
 4184SOL    HW124014   3.756   4.406   3.934 -0.7326 -1.1859 -1.7805
 4184SOL    HW224015   3.615   4.408   3.942  0.8581 -0.3781 -0.0184
 4185SOL     OW24016   0.184   2.510   2.155  0.3143 -0.1098 -0.9874
 4185SOL    HW124017   0.196   2.419   2.180 -0.2896 -0.6085 -2.5095
 4185SOL    HW224018   0.167   2.544   2.243  1.0450 -1.2031 -0.4221
 4186SOL     OW24019   3.417   3.824   3.165 -0.0900 -0.2827 -0.3773
 4186SOL    HW124020   3.405   3.777   3.082  2.2359 -0.8490 -0.4169
 4186SOL    HW224021   3.443   3.752   3.222 -1.5145  0.2562  0.9452
 4187SOL     OW24022   1.436   2.531   5.742 -0.6772  0.7867  0.3062
 4187SOL    HW124023   1.524   2.567   5.741 -0.4789  0.2773 -0.2414
 4187SOL    HW224024   1.397   2.525   5.655  0.7617  2.5889 -0.4708
 4188SOL     OW24025   4.080   2.390   8.187  0.0476 -0.2188  0.5001
 4188SOL    HW124026   4.147   2.454   8.210 -0.9432  1.0688 -0.1560
 4188SOL    HW224027   4.135   2.313   8.177  2.0954  1.4432 -0.9827
 4189SOL     OW24028   4.318   3.567  13.389  0.0500  0.2060  0.2781
 4189SOL    HW124029   4.328   3.521  13.472  0.0034 -0.7395 -0.2393
 4189SOL    HW224030   4.226   3.548  13.373  0.6972 -1.1922 -1.8660
 4190SOL     OW24031   1.920   2.108   4.792  0.0495  0.0587  0.0764
 4190SOL    HW124032   1.912   2.098   4.887  1.7063  1.2571  0.3277
 4190SOL    HW224033   1.922   2.015   4.767 -4.0830 -0.4930  1.7090
 4191SOL     OW24034   4.441   3.071   7.349  0.6936 -0.7181  0.3700
 4191SOL    HW124035   4.373   3.137   7.342 -1.1320 -2.2939  3.2538
 4191SOL    HW224036   4.508   3.113   7.404 -1.4193  0.0916  2.2920
 4192SOL     OW24037   3.960   3.281  10.690 -0.0561 -0.3763 -0.4159
 4192SOL    HW124038   4.055   3.286  10.680 -0.0675  0.5680 -0.1340
 4192SOL    HW224039   3.950   3.370  10.654  1.1628 -0.8842 -2.0266
 4193SOL     OW24040   4.360   1.356   4.878  0.2089 -0.5643  0.2278
 4193SOL    HW124041   4.295   1.290   4.901  0.1167 -0.5104  0.1242
 4193SOL    HW224042   4.426   1.291   4.859 -0.6683 -1.1085 -0.9081
 4194SOL     OW24043   4.283   1.016   1.368  0.4936 -0.1663  0.2131
 4194SOL    HW124044   4.225   0.942   1.386 -0.8185  1.5846  3.1458
 4194SOL    HW224045   4.230   1.092   1.391  0.9721  0.5687 -1.1162
 4195SOL     OW24046   4.215   0.920   9.520  0.1456 -0.6424 -0.4520
 4195SOL    HW124047   4.282   0.963   9.573 -0.5240 -1.8522  1.3547
 4195SOL    HW224048   4.226   0.966   9.437  1.2446  1.7652  1.0209
 4196SOL     OW24049   0.016   4.626   8.581 -0.5859  0.3472 -0.3082
 4196SOL    HW124050   4.695   4.548   8.615 -0.2583 -0.3584 -1.5057
 4196SOL    HW224051   4.708   4.691   8.644 -0.0312 -1.5502  1.9742
 4197SOL     OW24052   4.310   2.345   3.463  0.1870  0.4490 -0.4812
 4197SOL    HW124053   4.252   2.297   3.523  0.5648 -0.0162 -0.4845
 4197SOL    HW224054   4.331   2.418   3.521  1.3959 -0.6576  0.4808
 4198SOL     OW24055   0.330   4.547   4.645  0.1061 -0.0523 -0.0442
 4198SOL    HW124056   0.252   4.599   4.625  1.0616  0.9307 -1.2574
 4198SOL    HW224057   0.383   4.558   4.566  0.4050 -0.0982  0.1494
 4199SOL     OW24058   0.988   0.002  15.308 -0.1014 -0.3622 -0.0415
 4199SOL    HW124059   0.920   0.059  15.271  0.3493 -0.2628 -0.7116
 4199SOL    HW224060   1.026   0.052  15.380 -0.2416  1.8933 -1.5388
 4200SOL     OW24061   1.848   0.004   4.937 -0.1327  0.9503  0.2564
 4200SOL    HW124062   1.764   0.049   4.935  0.1857  1.5137 -0.4606
 4200SOL    HW224063   1.886   0.037   4.856  1.3442 -1.2349  0.0435
 4201SOL     OW24064   4.194   3.139   4.157 -0.6170  0.2516  0.4401
 4201SOL    HW124065   4.120   3.127   4.217 -0.2162  0.3475  0.9489
 4201SOL    HW224066   4.270   3.143   4.215  0.0522 -0.5194 -0.3942
 4202SOL     OW24067   0.153   0.931  16.110  0.2621  0.5241  0.0788
 4202SOL    HW124068   0.066   0.958  16.081 -0.0173  0.3450  0.7673
 4202SOL    HW224069   0.133   0.855  16.164  1.4755  0.2142  0.0903
 4203SOL     OW24070   0.402   2.905   4.857  0.6538 -0.1789  0.5572
 4203SOL    HW124071   0.456   2.966   4.806 -2.1500  0.5355 -1.5348
 4203SOL    HW224072   0.395   2.960   4.935  0.6036 -2.2747  2.0492
 4204SOL     OW24073   2.124   1.743   5.075  0.1288  0.6085 -0.1671
 4204SOL    HW124074   2.158   1.813   5.021 -1.6947 -0.1519 -2.2834
 4204SOL    HW224075   2.093   1.684   5.006 -1.6044 -1.0560  2.0149
 4205SOL     OW24076   0.517   3.943  10.489  0.1123  0.5752 -0.1268
 4205SOL    HW124077   0.457   3.879  10.452  1.6789 -0.7870 -0.3176
 4205SOL    HW224078   0.450   4.009  10.508 -1.1792 -0.4005 -1.3288
 4206SOL     OW24079   1.444   1.544  15.185  0.1780 -0.4728 -0.0915
 4206SOL    HW124080   1.416   1.635  15.170  0.8098 -0.1528  0.6490
 4206SOL    HW224081   1.539   1.556  15.189  0.2542 -1.3248  0.6214
 4207SOL     OW24082   1.152   1.538  16.715 -0.4940  0.4357 -0.2155
 4207SOL    HW124083   1.137   1.443  16.720  1.9079  0.0605 -0.3574
 4207SOL    HW224084   1.226   1.539  16.655  1.7508  2.5151  2.5727
 4208SOL     OW24085   4.460   3.529  16.062 -0.1174  0.3275  0.2956
 4208SOL    HW124086   4.522   3.538  16.134  1.2822  2.3669 -1.1804
 4208SOL    HW224087   4.383   3.574  16.095 -1.6562 -1.0527 -1.3757
 4209SOL     OW24088   2.762   2.442   5.624 -0.0358  0.1124 -0.1054
 4209SOL    HW124089   2.796   2.376   5.564  1.4058  2.4988 -1.9023
 4209SOL    HW224090   2.819   2.438   5.701  1.9009 -1.5160 -1.6431
 4210SOL     OW24091   0.912   2.196   5.470  0.2556  0.5376 -0.3207
 4210SOL    HW124092   0.913   2.107   5.504  0.6450 -0.2664 -2.4290
 4210SOL    HW224093   0.994   2.235   5.501  0.9161 -2.2251  1.4406
 4211SOL     OW24094   3.270   0.095   8.668  0.4666 -0.2325  0.7327
 4211SOL    HW124095   3.237   0.163   8.726  0.4706 -0.3191  0.8361
 4211SOL    HW224096   3.260   0.130   8.579 -0.8397 -1.1432  0.5179
 4212SOL     OW24097   4.083   2.958   9.980 -0.2825  0.2100 -0.1530
 4212SOL    HW124098   4.083   2.916   9.894 -2.5545  0.8183 -0.4330
 4212SOL    HW224099   4.074   3.050   9.956 -1.0849  0.0287 -0.5253
 4213SOL     OW24100   2.386   4.051   7.125 -0.1055 -0.2341  0.3845
 4213SOL    HW124101   2.345   4.024   7.207 -1.6964  1.8232  0.2639
 4213SOL    HW224102   2.321   4.103   7.078 -0.1741 -0.0065  0.7270
 4214SOL     OW24103   1.613   0.166   2.335  0.1514  0.2605  0.2780
 4214SOL    HW124104   1.692   0.201   2.295  2.1019 -0.9575  3.0949
 4214SOL    HW224105   1.578   0.225   2.402 -0.8430  0.3732 -0.3409
 4215SOL     OW24106   0.758   0.649   6.473  0.0228  0.1877 -0.1089
 4215SOL    HW124107   0.679   0.599   6.452  1.0826 -1.2444 -0.6965
 4215SOL    HW224108   0.718   0.732   6.497 -1.8887  0.0902 -2.8809
 4216SOL     OW24109   2.861   4.705   4.965  0.1053  0.4247 -0.1522
 4216SOL    HW124110   2.899   4.672   4.883 -1.0373  1.0247 -0.9109
 4216SOL    HW224111   2.903   4.651   5.032  0.4574 -1.5841 -1.9591
 4217SOL     OW24112   3.609   0.771  13.536 -0.0799  0.3448  0.0717
 4217SOL    HW124113   3.561   0.850  13.512 -2.3070 -0.9475  0.2568
 4217SOL    HW224114   3.694   0.788  13.495  1.2516  2.8102  3.8986
 4218SOL     OW24115   2.431   2.056   9.220 -0.1836 -0.0989 -0.7276
 4218SOL    HW124116   2.433   2.130   9.281  0.8183 -1.4244  0.8577
 4218SOL    HW224117   2.476   1.987   9.269  0.8198  0.0380 -1.4445
 4219SOL     OW24118   1.886   1.431   9.534 -0.0104  0.2720 -0.5397
 4219SOL    HW124119   1.853   1.345   9.509  0.8416 -0.6026  1.2785
 4219SOL    HW224120   1.973   1.425   9.493 -0.7760  0.7348 -2.1949
 4220SOL     OW24121   1.371   1.013   7.990 -0.2054  0.0257  0.7089
 4220SOL    HW124122   1.290   0.995   8.037 -1.8466 -0.3662 -2.2845
 4220SOL    HW224123   1.339   1.049   7.907 -0.8516  1.0682  1.3995
 4221SOL     OW24124   1.931   4.609   7.197  0.0137  0.4596  0.0270
 4221SOL    HW124125   1.869   4.558   7.145 -1.4280  1.6500  0.5769
 4221SOL    HW224126   1.893   4.599   7.284  0.7549 -1.8163  0.0727
 4222SOL     OW24127   3.752   2.771   1.082  0.5222 -0.2798 -0.7146
 4222SOL    HW124128   3.753   2.717   1.003 -1.2423  1.4948 -1.9510
 4222SOL    HW224129   3.799   2.713   1.142 -0.2783 -0.4712 -0.2716
 4223SOL     OW24130   0.935   0.827   2.033 -0.5347 -0.2828 -0.3975
 4223SOL    HW124131   0.967   0.738   2.018  0.8886  0.1722 -0.0616
 4223SOL    HW224132   0.947   0.833   2.128  1.9710 -0.4126 -0.7101
 4224SOL     OW24133   1.625   3.049  13.120 -0.1214 -0.0917  0.0652
 4224SOL    HW124134   1.711   3.019  13.089  1.2104  3.0793  0.6413
 4224SOL    HW224135   1.657   3.043  13.211 -0.6924 -2.0358  0.1268
 4225SOL     OW24136   0.269   2.051   8.316 -0.0337  0.0143 -0.0479
 4225SOL    HW124137   0.319   2.131   8.297 -0.8115  1.1229  2.5491
 4225SOL    HW224138   0.261   2.059   8.411 -4.3933 -2.0007 -0.2222
 4226SOL     OW24139   2.734   2.692  10.568 -0.0132 -0.3126 -0.1718
 4226SOL    HW124140   2.822   2.695  10.604  0.0531  0.2813 -0.3805
 4226SOL    HW224141   2.750   2.621  10.506 -1.6357 -0.1326 -0.7990
 4227SOL     OW24142   1.029   0.412   0.284  0.1113 -0.3237 -0.5946
 4227SOL    HW124143   0.985   0.337   0.244 -2.1161  0.4145  0.4597
 4227SOL    HW224144   1.058   0.381   0.369 -1.2797  0.5016  0.1795
 4228SOL     OW24145   2.423   2.576   4.229  0.1224  0.0940 -0.0738
 4228SOL    HW124146   2.396   2.656   4.275  0.9220  1.5934 -2.2253
 4228SOL    HW224147   2.336   2.549   4.199 -0.8756  1.2918  1.7037
 4229SOL     OW24148   4.082   2.448   2.046  0.1341  0.1031  0.5003
 4229SOL    HW124149   4.084   2.420   2.138 -1.7430  0.4234  0.6353
 4229SOL    HW224150   3.993   2.433   2.014 -0.1154 -0.0942  1.2793
 4230SOL     OW24151   1.639   1.694   9.134  0.0851 -0.3230 -0.4474
 4230SOL    HW124152   1.565   1.659   9.184 -0.2691  0.5505 -0.3746
 4230SOL    HW224153   1.632   1.788   9.146  0.2913 -0.4357  0.5437
 4231SOL     OW24154   2.012   4.185  10.612  0.2779 -0.5389 -0.0780
 4231SOL    HW124155   2.024   4.212  10.703 -3.3652  1.5319 -0.2027
 4231SOL    HW224156   2.088   4.228  10.575 -0.1325  0.3491  0.1117
 4232SOL     OW24157   1.342   1.581  15.926 -0.1464 -0.3271  0.1862
 4232SOL    HW124158   1.309   1.666  15.955 -0.3958 -0.4734  0.3341
 4232SOL    HW224159   1.387   1.611  15.847 -0.6526 -0.3737 -0.1154
 4233SOL     OW24160   1.785   3.876  17.432  0.5911  0.5656  0.1983
 4233SOL    HW124161   1.876   3.887  17.459  0.4141  0.4033  0.8735
 4233SOL    HW224162   1.758   3.814  17.500  0.2758  2.5513  1.9235
 4234SOL     OW24163   0.670   1.575  14.295  0.2510 -0.1151 -0.3509
 4234SOL    HW124164   0.618   1.532  14.227 -1.4286 -0.7301  1.3245
 4234SOL    HW224165   0.689   1.663  14.263 -0.0709  0.4710  1.0746
 4235SOL     OW24166   2.261   2.538   6.402  0.7114  0.1895  0.2457
 4235SOL    HW124167   2.182   2.593   6.398  0.8479  0.3197 -0.6043
 4235SOL    HW224168   2.283   2.523   6.310 -0.9492 -0.0587 -0.1143
 4236SOL     OW24169   0.461   2.710  11.370 -0.0801  0.1150  0.1955
 4236SOL    HW124170   0.456   2.706  11.275  0.5572 -1.6584  0.2482
 4236SOL    HW224171   0.555   2.694  11.380 -0.8098 -1.9150  3.9346
 4237SOL     OW24172   4.479   1.146   4.744 -0.3115 -0.0310 -0.2911
 4237SOL    HW124173   4.402   1.105   4.704 -0.7697 -1.5857  2.2182
 4237SOL    HW224174   4.518   1.066   4.779  0.7647  0.4958 -0.2952
 4238SOL     OW24175   0.189   4.481   6.335 -0.2699  0.8047  0.5485
 4238SOL    HW124176   0.125   4.537   6.379  1.4855  2.6693  0.7785
 4238SOL    HW224177   0.153   4.479   6.247  1.9962 -0.5060 -0.3548
 4239SOL     OW24178   1.244   1.628   6.188 -0.6342 -0.0924 -0.0319
 4239SOL    HW124179   1.229   1.705   6.133  0.0109 -0.5207 -0.8150
 4239SOL    HW224180   1.230   1.566   6.116  0.6656 -0.2943 -0.1034
 4240SOL     OW24181   4.137   3.022  17.428  0.0265 -0.4330  0.1893
 4240SOL    HW124182   4.058   2.999  17.477  1.1027  0.5143  2.3534
 4240SOL    HW224183   4.196   3.054  17.496  0.5153 -0.3705 -0.2657
 4241SOL     OW24184   0.715   2.411   3.562 -0.4455  0.1586 -0.3987
 4241SOL    HW124185   0.646   2.373   3.508  0.1248 -1.1944 -0.1757
 4241SOL    HW224186   0.752   2.337   3.609  1.3992  2.2791  1.5034
 4242SOL     OW24187   3.563   0.946   1.081  0.4181 -0.0039 -0.0967
 4242SOL    HW124188   3.596   0.872   1.133  0.2233 -1.3004 -1.8273
 4242SOL    HW224189   3.475   0.914   1.061  0.6873 -2.0410  1.9035
 4243SOL     OW24190   0.550   2.847   4.409 -0.2108  0.0117 -0.8810
 4243SOL    HW124191   0.480   2.784   4.391 -1.0023  1.3595 -2.4838
 4243SOL    HW224192   0.500   2.900   4.472  0.1171 -1.1415  0.3396
 4244SOL     OW24193   4.553   3.206  14.077  0.1763  0.2154 -0.0364
 4244SOL    HW124194   4.492   3.149  14.029  0.8672  1.0432 -1.8873
 4244SOL    HW224195   4.585   3.265  14.009  1.8286 -0.7196 -0.0663
 4245SOL     OW24196   2.313   1.739  17.136 -0.0898 -0.2063  0.2460
 4245SOL    HW124197   2.370   1.803  17.093 -0.1708  0.8098  1.6431
 4245SOL    HW224198   2.231   1.789  17.140  0.2400  0.4865 -1.4525
 4246SOL     OW24199   3.160   0.000   4.058 -0.3196 -0.3218 -0.3055
 4246SOL    HW124200   3.189   4.675   3.981 -0.3930 -0.8185 -0.0276
 4246SOL    HW224201   3.246   0.017   4.096 -0.4297 -2.2843  0.8240
 4247SOL     OW24202   1.328   1.954   7.346 -0.4600 -0.0356 -0.2032
 4247SOL    HW124203   1.376   2.037   7.349 -1.4828  0.5505 -0.3387
 4247SOL    HW224204   1.387   1.903   7.401 -0.9725  1.9187  2.1368
 4248SOL     OW24205   0.902   3.574   4.775  0.3587 -0.1742 -0.6090
 4248SOL    HW124206   0.911   3.584   4.870  0.2860 -2.5396 -0.3572
 4248SOL    HW224207   0.844   3.499   4.761  0.9303 -0.1867 -2.8857
 4249SOL     OW24208   1.984   1.240   9.124 -0.5000 -0.0412  0.4856
 4249SOL    HW124209   2.016   1.328   9.141  1.0637 -1.1379  3.3446
 4249SOL    HW224210   1.929   1.257   9.048  2.5106  1.5640 -1.2848
 4250SOL     OW24211   1.779   1.998   2.228 -0.1786  0.2006 -0.2679
 4250SOL    HW124212   1.716   2.018   2.297 -0.1215  0.6986 -0.3651
 4250SOL    HW224213   1.751   1.912   2.198  0.5564 -0.3686  0.6586
 4251SOL     OW24214   0.074   3.445   8.160 -0.0580 -0.0912  0.2412
 4251SOL    HW124215   4.705   3.431   8.185 -0.2318  0.4390 -0.0891
 4251SOL    HW224216   0.124   3.448   8.241  1.5744  1.7786 -0.8571
 4252SOL     OW24217   4.406   3.949   3.097 -0.1269  0.4049  0.1868
 4252SOL    HW124218   4.433   3.893   3.024 -1.3141 -0.5190  0.4606
 4252SOL    HW224219   4.364   3.887   3.156  0.2322 -0.0122  0.0096
 4253SOL     OW24220   2.950   4.160   5.277  0.0756  0.4438 -0.0445
 4253SOL    HW124221   2.923   4.237   5.328  0.3067  1.1450 -0.9804
 4253SOL    HW224222   3.040   4.152   5.311 -0.7763 -1.4594  1.7337
 4254SOL     OW24223   2.521   2.476  15.512 -0.0614 -0.4044 -0.1105
 4254SOL    HW124224   2.547   2.529  15.587 -0.0981  2.9018 -2.4691
 4254SOL    HW224225   2.431   2.456  15.538  0.8003 -2.6068  1.2246
 4255SOL     OW24226   3.070   0.156   1.397 -0.1585  0.6713 -0.1000
 4255SOL    HW124227   3.021   0.228   1.357 -1.4174 -0.0694  0.1236
 4255SOL    HW224228   3.072   0.176   1.490  0.3665  2.8695 -0.5869
 4256SOL     OW24229   3.215   0.454   7.898  0.0746 -0.1031 -0.3709
 4256SOL    HW124230   3.292   0.498   7.861 -0.4865 -0.3216 -1.8235
 4256SOL    HW224231   3.263   0.397   7.957  0.9340 -0.7815 -1.7074
 4257SOL     OW24232   0.540   1.682   3.897 -0.3650  0.0862 -0.2307
 4257SOL    HW124233   0.592   1.637   3.830 -0.2416 -0.1279  0.0107
 4257SOL    HW224234   0.454   1.644   3.876 -2.4066  3.7754  1.3157
 4258SOL     OW24235   1.039   0.709   3.847  0.4409 -0.2500 -0.5992
 4258SOL    HW124236   1.010   0.693   3.937 -3.3883  1.1581 -1.5858
 4258SOL    HW224237   0.997   0.631   3.810 -0.2354 -1.6141  3.0063
 4259SOL     OW24238   0.412   2.425  14.841  0.0488  0.2126 -0.8254
 4259SOL    HW124239   0.487   2.408  14.898 -1.1910 -1.2375  0.3870
 4259SOL    HW224240   0.370   2.492  14.895  0.5186 -1.0839  1.1655
 4260SOL     OW24241   3.636   2.128   9.167  0.4721  0.4235  0.1830
 4260SOL    HW124242   3.667   2.185   9.096  2.4865 -0.6289  0.2131
 4260SOL    HW224243   3.579   2.184   9.219 -0.8306  0.5123 -1.3441
 4261SOL     OW24244   0.565   1.971   6.921 -0.0551 -0.6443  0.3680
 4261SOL    HW124245   0.656   1.951   6.899  0.5062  1.5742  0.7082
 4261SOL    HW224246   0.519   1.974   6.837  1.9376 -2.1602 -0.7832
 4262SOL     OW24247   0.942   4.236   7.892  0.1271  0.3318  0.7785
 4262SOL    HW124248   1.001   4.172   7.853  1.2829  2.6393 -1.2289
 4262SOL    HW224249   0.997   4.311   7.914  0.9257 -0.6808  2.2244
 4263SOL     OW24250   4.243   4.628   3.447 -0.0667 -0.7720  0.1357
 4263SOL    HW124251   4.310   4.625   3.379  0.3043 -0.1282  0.4742
 4263SOL    HW224252   4.268   4.702   3.502 -1.7952  1.6280 -2.2426
 4264SOL     OW24253   0.802   2.939  17.208  0.2540  0.7539 -0.5533
 4264SOL    HW124254   0.750   2.860  17.225  1.0734  0.0561 -1.3075
 4264SOL    HW224255   0.735   2.995  17.170 -3.6115 -2.1627  1.8950
 4265SOL     OW24256   2.796   0.175   5.850 -0.0282 -0.0158 -0.3853
 4265SOL    HW124257   2.821   0.154   5.940  1.7456 -1.5366 -1.2454
 4265SOL    HW224258   2.756   0.262   5.857  2.7499  1.2067  0.5477
 4266SOL     OW24259   3.215   1.019  10.070 -0.4927 -0.1957 -0.3475
 4266SOL    HW124260   3.281   0.997  10.136 -0.4798 -0.2281 -0.3712
 4266SOL    HW224261   3.183   0.935  10.038 -0.7698  0.3600 -1.5292
 4267SOL     OW24262   0.313   3.308   6.108  0.1530 -0.2289  0.2315
 4267SOL    HW124263   0.237   3.365   6.095  1.3899  1.0268 -1.3938
 4267SOL    HW224264   0.312   3.252   6.030 -0.6872 -1.2145  0.9458
 4268SOL     OW24265   2.507   4.277   5.661  0.2883  0.8603 -0.4850
 4268SOL    HW124266   2.597   4.249   5.644  0.7910  1.1574  1.7692
 4268SOL    HW224267   2.465   4.218   5.598  0.2968 -0.0400  0.3536
 4269SOL     OW24268   2.132   4.333   5.567  0.1133 -0.0297 -0.2906
 4269SOL    HW124269   2.132   4.350   5.661 -0.6537 -1.8772  0.0326
 4269SOL    HW224270   2.131   4.238   5.572  3.7840 -0.0213  0.2987
 4270SOL     OW24271   3.800   1.323  14.761  0.2199  0.0200 -0.6348
 4270SOL    HW124272   3.720   1.344  14.713 -0.3016  1.6762  0.9220
 4270SOL    HW224273   3.821   1.409  14.798 -2.3137 -0.0914  1.0830
 4271SOL     OW24274   2.986   3.937   8.919 -0.2372 -0.3699  0.1461
 4271SOL    HW124275   2.932   3.862   8.943 -0.0682 -0.3294  0.6580
 4271SOL    HW224276   3.043   3.949   8.995  1.6907  2.1704 -1.6887
 4272SOL     OW24277   0.610   0.225   0.393 -0.2864  0.0196 -0.2987
 4272SOL    HW124278   0.585   0.207   0.484 -1.3405 -1.9583 -0.9853
 4272SOL    HW224279   0.569   0.155   0.342 -0.5922 -1.1310  1.5305
 4273SOL     OW24280   0.159   0.059   1.059 -0.2511 -0.4804  0.6050
 4273SOL    HW124281   0.218   0.115   1.110 -1.9752  3.3993 -1.7142
 4273SOL    HW224282   0.201   0.060   0.973 -0.4496 -2.7058  0.4882
 4274SOL     OW24283   4.050   0.017   9.504 -0.0672  0.5124 -0.3943
 4274SOL    HW124284   4.040   0.037   9.411 -0.0931 -1.4326 -0.8170
 4274SOL    HW224285   4.005   4.656   9.491 -0.1886  0.4628  0.3311
 4275SOL     OW24286   0.782   4.653   3.610 -0.0156 -0.4965  0.0056
 4275SOL    HW124287   0.826   4.580   3.566 -2.6882 -2.1655  0.1411
 4275SOL    HW224288   0.801   0.005   3.554 -0.0213 -1.5487 -1.3965
 4276SOL     OW24289   4.298   2.850  10.156  0.6727 -0.4491  0.0307
 4276SOL    HW124290   4.242   2.825  10.230 -1.4108  1.5266 -0.8474
 4276SOL    HW224291   4.245   2.907  10.100 -1.2313 -0.4080  1.8298
 4277SOL     OW24292   2.782   4.336   7.625  0.2566 -0.1089 -0.2141
 4277SOL    HW124293   2.765   4.416   7.676  1.5784 -0.2676  0.4693
 4277SOL    HW224294   2.834   4.362   7.549 -0.1673  1.7267  0.1131
 4278SOL     OW24295   3.791   3.460   6.394 -0.9341  0.4111  0.5125
 4278SOL    HW124296   3.747   3.378   6.417  3.2059 -1.9356 -0.0113
 4278SOL    HW224297   3.726   3.510   6.343  0.2863  1.0712 -0.3805
 4279SOL     OW24298   2.800   1.738   7.463 -0.3086 -0.2868  0.0138
 4279SOL    HW124299   2.796   1.719   7.369 -2.2118  0.5209 -0.0780
 4279SOL    HW224300   2.843   1.658   7.491 -0.1554  0.3197  1.5374
 4280SOL     OW24301   2.915   0.523   2.687 -0.5458  0.2777  0.1671
 4280SOL    HW124302   2.882   0.563   2.607 -1.0698  0.3929  0.4328
 4280SOL    HW224303   2.983   0.470   2.646 -1.6386 -0.9234 -0.1000
 4281SOL     OW24304   1.640   2.534  14.819  0.8650  0.1594 -0.2059
 4281SOL    HW124305   1.640   2.439  14.810  1.1638  0.1236  0.1806
 4281SOL    HW224306   1.636   2.537  14.915 -0.6804  1.2913 -0.2937
 4282SOL     OW24307   3.567   1.330  14.606  0.1901 -0.6558 -0.3214
 4282SOL    HW124308   3.517   1.273  14.547 -1.2625  0.2159  0.0484
 4282SOL    HW224309   3.587   1.406  14.551 -1.0354 -0.2985 -0.2742
 4283SOL     OW24310   3.427   1.195  10.232  0.0505  0.2596  0.5666
 4283SOL    HW124311   3.416   1.220  10.141  1.4488 -0.6607  0.1293
 4283SOL    HW224312   3.369   1.257  10.276  1.8452  2.0358  0.4463
 4284SOL     OW24313   0.050   1.948   7.976 -0.2476  0.0966  0.1080
 4284SOL    HW124314   0.104   1.941   7.897 -4.0315  0.5862 -2.5184
 4284SOL    HW224315   4.706   1.884   7.953 -1.0917  2.0232 -2.7563
 4285SOL     OW24316   3.012   0.095   0.561  0.5094  0.1337  0.3538
 4285SOL    HW124317   3.106   0.106   0.550  0.5018 -0.9239 -0.7400
 4285SOL    HW224318   2.990   0.121   0.650  0.2923  3.3886 -0.6537
 4286SOL     OW24319   4.002   0.877   0.568  0.0255  0.4908 -0.1080
 4286SOL    HW124320   4.095   0.868   0.585  0.1544  0.3653 -0.8784
 4286SOL    HW224321   3.962   0.851   0.651 -0.0421 -0.6143 -0.4958
 4287SOL     OW24322   4.528   0.730  10.422  0.0249  0.2858  0.0659
 4287SOL    HW124323   4.500   0.732  10.514 -1.4061  0.3351 -0.3733
 4287SOL    HW224324   4.529   0.636  10.409 -1.6837  0.0905  1.1854
 4288SOL     OW24325   3.317   4.571   8.526 -0.4037 -0.0476  0.2378
 4288SOL    HW124326   3.318   4.499   8.590  0.2820 -1.8178 -1.7349
 4288SOL    HW224327   3.311   4.650   8.579 -2.3950  1.3027 -1.9855
 4289SOL     OW24328   1.480   4.242   4.659 -0.0421 -0.1317 -0.1195
 4289SOL    HW124329   1.462   4.314   4.719  2.2835  0.3615  0.0068
 4289SOL    HW224330   1.576   4.245   4.668 -0.2127 -1.0933  2.0467
 4290SOL     OW24331   3.663   1.738   5.235 -0.0567 -0.5556  0.2491
 4290SOL    HW124332   3.662   1.830   5.210 -0.9459 -0.4618  0.6180
 4290SOL    HW224333   3.584   1.751   5.288  1.0054  0.0314  1.6733
 4291SOL     OW24334   1.821   4.378  11.188  0.1026 -0.1157 -0.0773
 4291SOL    HW124335   1.751   4.352  11.247 -0.1263  1.9990  0.5903
 4291SOL    HW224336   1.795   4.469  11.174  1.6871  0.1464 -1.4024
 4292SOL     OW24337   4.609   3.091   5.238  0.4205  0.1807 -0.0803
 4292SOL    HW124338   4.656   3.141   5.305  1.1574  3.6995 -3.2428
 4292SOL    HW224339   4.554   3.156   5.195  0.5047  0.3523  0.0701
 4293SOL     OW24340   3.621   3.144   8.420 -0.1209  0.2181 -0.2614
 4293SOL    HW124341   3.679   3.214   8.451  4.7302 -2.2519 -3.8312
 4293SOL    HW224342   3.640   3.146   8.326  0.5759  0.8363 -0.1105
 4294SOL     OW24343   0.086   4.043   1.437 -0.1083  0.0891 -0.2559
 4294SOL    HW124344   0.107   4.127   1.398  0.6168 -0.8106 -1.8101
 4294SOL    HW224345   0.084   4.062   1.531  3.2709 -0.6565 -0.0397
 4295SOL     OW24346   1.790   2.108   6.368 -0.0168 -0.6693  0.0565
 4295SOL    HW124347   1.801   2.028   6.419  0.0486 -0.4102  0.4460
 4295SOL    HW224348   1.846   2.173   6.411 -0.2993 -1.4129  1.5202
 4296SOL     OW24349   3.451   3.312   8.562  0.3711  0.0557 -0.1929
 4296SOL    HW124350   3.492   3.255   8.497  0.0149 -2.0302  1.4131
 4296SOL    HW224351   3.363   3.318   8.526  0.3240 -1.5480 -0.3654
 4297SOL     OW24352   3.978   2.340   4.899 -0.5923  0.1982  0.1763
 4297SOL    HW124353   3.887   2.364   4.918 -0.0401  1.0600  1.7038
 4297SOL    HW224354   4.026   2.413   4.939 -0.3309  0.7266 -1.1261
 4298SOL     OW24355   3.447   1.028   9.145 -0.1886 -0.3012  0.2960
 4298SOL    HW124356   3.392   0.993   9.216 -1.6910 -1.2800 -1.3258
 4298SOL    HW224357   3.511   1.079   9.194 -0.6236  1.0600 -0.5663
 4299SOL     OW24358   3.390   0.748   0.234 -0.2939 -0.0270  0.3996
 4299SOL    HW124359   3.409   0.748   0.328  0.5395  0.4730  0.2361
 4299SOL    HW224360   3.301   0.716   0.246 -0.4351  1.0018  2.1423
 4300SOL     OW24361   4.345   1.312   4.560 -0.1650  0.3512 -0.4236
 4300SOL    HW124362   4.349   1.408   4.565  1.9313  0.3432 -2.0090
 4300SOL    HW224363   4.422   1.279   4.604 -1.0596 -1.3298 -0.1066
 4301SOL     OW24364   1.223   1.895   0.618  0.2670  0.1514  0.4289
 4301SOL    HW124365   1.166   1.844   0.561 -0.3656  1.0394  0.2586
 4301SOL    HW224366   1.226   1.980   0.574  0.4536  2.6900  5.3483
 4302SOL     OW24367   3.872   1.755   1.374  0.4137  0.1436 -0.1068
 4302SOL    HW124368   3.791   1.736   1.328 -0.1095  2.2669 -0.0638
 4302SOL    HW224369   3.933   1.701   1.324 -1.3179 -1.1948 -0.7941
 4303SOL     OW24370   0.356   2.534  16.099  0.4047  0.3003 -0.2513
 4303SOL    HW124371   0.316   2.564  16.017 -0.7308 -1.9619 -0.5236
 4303SOL    HW224372   0.335   2.606  16.159  1.4350 -0.5919  1.1685
 4304SOL     OW24373   3.484   0.859   6.683 -0.7582 -0.0686  0.0680
 4304SOL    HW124374   3.409   0.862   6.742  0.1687  0.4141  1.2257
 4304SOL    HW224375   3.479   0.942   6.637  2.5139 -0.5007 -1.0840
 4305SOL     OW24376   2.395   3.101   0.152 -0.3561 -0.4568 -1.0259
 4305SOL    HW124377   2.424   3.181   0.194  1.1298 -1.5371  0.0325
 4305SOL    HW224378   2.317   3.090   0.205 -0.2419  1.5054 -0.4809
 4306SOL     OW24379   1.510   0.528   4.874  0.4700 -0.4218  0.2192
 4306SOL    HW124380   1.591   0.566   4.839  0.6977  0.4479  1.6907
 4306SOL    HW224381   1.548   0.469   4.939  0.5212  0.8863  1.3872
 4307SOL     OW24382   4.152   0.377   3.603 -0.6513  0.2715 -0.0772
 4307SOL    HW124383   4.087   0.391   3.535 -0.3368 -1.0953 -0.6522
 4307SOL    HW224384   4.234   0.418   3.576 -1.0918  0.5382 -1.0092
 4308SOL     OW24385   3.881   2.044   5.024 -0.1928  0.5635 -0.5829
 4308SOL    HW124386   3.955   2.105   5.027  1.4229 -1.5057  1.5604
 4308SOL    HW224387   3.852   2.040   5.115  0.2118 -1.4383 -0.5554
 4309SOL     OW24388   0.486   2.106   3.140  0.7640  0.6294  0.0306
 4309SOL    HW124389   0.449   2.018   3.129  0.6783  0.5360  1.0972
 4309SOL    HW224390   0.581   2.090   3.147  0.5163 -1.3084 -0.8589
 4310SOL     OW24391   1.375   2.711  13.330  0.0147  0.0315 -0.2839
 4310SOL    HW124392   1.427   2.725  13.409 -0.7739 -0.4786  0.3190
 4310SOL    HW224393   1.301   2.758  13.368 -1.4401 -1.0159 -1.8339
 4311SOL     OW24394   0.333   1.559   3.809  0.1107 -0.4520  0.9183
 4311SOL    HW124395   0.267   1.494   3.831 -1.1156  0.0914 -1.1177
 4311SOL    HW224396   0.386   1.505   3.749  0.5739  0.5759  0.3960
 4312SOL     OW24397   4.230   1.085   8.974 -0.2729  0.3572  0.6251
 4312SOL    HW124398   4.207   1.007   9.024 -0.0813 -1.2727 -1.8578
 4312SOL    HW224399   4.216   1.148   9.045  0.6837  1.8547 -0.4932
 4313SOL     OW24400   1.042   4.570  14.071  0.4832  0.5895  0.5827
 4313SOL    HW124401   0.974   4.620  14.027 -0.3819 -1.3548 -0.2798
 4313SOL    HW224402   1.082   4.536  13.991 -0.3198  2.3599 -0.5617
 4314SOL     OW24403   2.235   2.654   8.587 -0.2851  0.2799  0.4787
 4314SOL    HW124404   2.276   2.738   8.608  0.8003 -0.3080  0.6924
 4314SOL    HW224405   2.219   2.618   8.674 -0.4507 -1.2561 -0.1986
 4315SOL     OW24406   0.302   0.461  16.179 -0.0692 -0.5138 -0.1087
 4315SOL    HW124407   0.334   0.376  16.211 -0.2719 -1.6970 -3.0884
 4315SOL    HW224408   0.294   0.446  16.085 -3.1317  1.0541 -0.1068
 4316SOL     OW24409   3.091   1.338  16.898 -0.2216  0.0616 -0.0364
 4316SOL    HW124410   3.111   1.265  16.840  0.5227 -0.6610  1.1225
 4316SOL    HW224411   3.104   1.297  16.984 -1.6490  2.3241  1.2647
 4317SOL     OW24412   3.971   1.933   0.814 -0.2406 -0.1831 -0.2749
 4317SOL    HW124413   4.064   1.948   0.797 -0.4745 -0.1464 -1.5004
 4317SOL    HW224414   3.966   1.861   0.877 -0.1684  0.5107  0.5342
 4318SOL     OW24415   4.042   1.722   7.633 -0.4713 -0.3358  0.1517
 4318SOL    HW124416   4.038   1.749   7.541 -0.6481  3.1122  1.1686
 4318SOL    HW224417   3.953   1.688   7.645 -0.1640 -1.3709 -0.5058
 4319SOL     OW24418   4.307   4.043   6.231  0.0189 -0.3255 -0.0421
 4319SOL    HW124419   4.220   4.082   6.227  1.0001  1.7399 -1.2446
 4319SOL    HW224420   4.315   4.053   6.326  2.2206 -0.7655 -0.1870
 4320SOL     OW24421   2.081   3.744   3.945 -0.4199 -0.4343 -0.0847
 4320SOL    HW124422   2.013   3.808   3.922 -0.0204 -0.1566 -0.5112
 4320SOL    HW224423   2.122   3.741   3.858 -1.1252  1.0626 -0.4636
 4321SOL     OW24424   4.182   0.797  12.279 -0.2666 -0.1034  0.1700
 4321SOL    HW124425   4.123   0.782  12.352 -1.3030  1.6880 -0.2906
 4321SOL    HW224426   4.133   0.853  12.219 -2.3582 -0.8024  1.2333
 4322SOL     OW24427   1.949   1.502  17.311  0.0049  0.0447 -0.5647
 4322SOL    HW124428   1.943   1.586  17.356  1.1838 -1.0541  1.6536
 4322SOL    HW224429   1.940   1.521  17.217 -0.9153 -1.8665 -0.8492
 4323SOL     OW24430   0.721   2.517   8.150  0.0686 -0.1670  0.0854
 4323SOL    HW124431   0.687   2.500   8.063 -2.6801  1.8235  0.7698
 4323SOL    HW224432   0.799   2.567   8.126 -0.9756  1.0418 -0.7410
 4324SOL     OW24433   2.138   4.471   9.844  0.0054 -0.3946  0.1587
 4324SOL    HW124434   2.169   4.461   9.754 -0.6120 -1.0660  0.0151
 4324SOL    HW224435   2.126   4.565   9.854 -1.9943 -0.5875 -0.3793
 4325SOL     OW24436   0.352   0.217   9.112 -0.4110  0.2092 -0.1023
 4325SOL    HW124437   0.395   0.134   9.089 -0.0781 -0.2127  2.0399
 4325SOL    HW224438   0.395   0.275   9.049  2.9413 -2.0610  0.0648
 4326SOL     OW24439   2.716   2.126   8.948  0.0398  0.1635 -0.1910
 4326SOL    HW124440   2.777   2.175   8.892  1.6528 -1.0031  0.5357
 4326SOL    HW224441   2.737   2.171   9.030  2.7193 -1.5805  0.0652
 4327SOL     OW24442   0.637   1.067   7.103  0.0165  0.9873 -0.0565
 4327SOL    HW124443   0.573   1.087   7.171  2.4211  1.4166  2.0880
 4327SOL    HW224444   0.594   0.993   7.060 -1.2704  1.6903  0.0355
 4328SOL     OW24445   1.385   0.938   4.678  0.1714  0.0020 -0.3697
 4328SOL    HW124446   1.446   0.877   4.719  0.5475  1.0153  0.5706
 4328SOL    HW224447   1.406   1.018   4.727  0.1164 -0.6997  0.7857
 4329SOL     OW24448   2.000   4.489   9.163  0.2225  0.6064 -0.2476
 4329SOL    HW124449   1.939   4.500   9.091 -2.0746  0.3245  1.6701
 4329SOL    HW224450   1.995   4.396   9.181 -1.0226  0.7621  0.2072
 4330SOL     OW24451   1.283   4.593  16.084  0.0802  0.1680  0.0830
 4330SOL    HW124452   1.285   4.677  16.036 -0.1053  2.2523  3.7228
 4330SOL    HW224453   1.344   4.541  16.032 -0.7485  0.4021 -1.1192
 4331SOL     OW24454   0.978   1.427   6.140  0.0461 -0.0949 -0.6739
 4331SOL    HW124455   0.937   1.347   6.173  0.2630  0.0306 -0.1012
 4331SOL    HW224456   0.998   1.457   6.229 -0.2193  1.2662 -1.0774
 4332SOL     OW24457   1.633   2.652  12.818  0.3899 -0.0358 -0.2105
 4332SOL    HW124458   1.640   2.639  12.723  3.4331  3.5748 -0.4655
 4332SOL    HW224459   1.724   2.675  12.837  0.2645 -0.5893  1.0093
 4333SOL     OW24460   1.653   0.152  14.232 -0.4579 -0.0453  0.5932
 4333SOL    HW124461   1.695   0.103  14.303 -0.0719 -0.1019  0.3249
 4333SOL    HW224462   1.563   0.128  14.254 -0.6321  0.9795  1.0149
 4334SOL     OW24463   3.699   3.806  14.184 -0.8731 -0.3550  0.6538
 4334SOL    HW124464   3.735   3.725  14.148 -0.5125 -0.1995  0.6636
 4334SOL    HW224465   3.609   3.799  14.151 -0.8939  0.2583  0.5949
 4335SOL     OW24466   1.388   3.892   0.216 -0.2691 -0.9077  0.3572
 4335SOL    HW124467   1.440   3.973   0.219 -0.8796 -0.4435 -1.4127
 4335SOL    HW224468   1.368   3.886   0.123  0.8221 -2.4952  0.2340
 4336SOL     OW24469   3.825   2.870   2.127 -0.5440 -0.0038 -0.1377
 4336SOL    HW124470   3.914   2.901   2.111 -0.0013 -1.2030  0.5396
 4336SOL    HW224471   3.808   2.909   2.213  0.9198  1.6807 -0.6266
 4337SOL     OW24472   3.190   0.167   6.744 -0.0787 -0.3563  0.3011
 4337SOL    HW124473   3.174   0.261   6.738  3.3086  0.0702 -2.0710
 4337SOL    HW224474   3.208   0.150   6.652 -1.5096  2.1457 -0.4383
 4338SOL     OW24475   0.578   0.287   8.214 -0.2519 -0.7222 -0.0594
 4338SOL    HW124476   0.519   0.245   8.151 -0.1806 -1.6831  0.5236
 4338SOL    HW224477   0.645   0.220   8.221 -0.6224 -0.8665  2.1912
 4339SOL     OW24478   1.196   0.785   3.268  0.1367  0.2593  0.4430
 4339SOL    HW124479   1.290   0.774   3.284  0.5223  2.3022 -0.3945
 4339SOL    HW224480   1.159   0.781   3.356 -1.8314  2.9164 -0.2804
 4340SOL     OW24481   1.888   1.234   1.400  0.2502  0.1698 -0.1969
 4340SOL    HW124482   1.870   1.161   1.459  0.7246  0.0273 -0.2312
 4340SOL    HW224483   1.983   1.244   1.406  0.2808 -0.0511 -0.3216
 4341SOL     OW24484   4.688   2.294   5.336 -0.8085 -0.9314  0.2559
 4341SOL    HW124485   0.043   2.278   5.388 -1.0622  0.8277  1.1666
 4341SOL    HW224486   4.649   2.371   5.376 -0.9925 -0.4045 -0.9180
 4342SOL     OW24487   0.234   4.339  12.653  0.2724  0.4041  0.2469
 4342SOL    HW124488   0.224   4.382  12.568 -2.2443 -0.6918  0.0015
 4342SOL    HW224489   0.217   4.246  12.641  0.1444  0.2819  1.3839
 4343SOL     OW24490   3.544   0.761  15.719 -0.0072 -0.3481  0.2276
 4343SOL    HW124491   3.471   0.782  15.777 -0.1175  1.0249 -0.4074
 4343SOL    HW224492   3.504   0.692  15.666  1.1015 -0.6311 -0.2371
 4344SOL     OW24493   0.020   2.703   1.805  0.3354  0.3607  0.6548
 4344SOL    HW124494   0.108   2.719   1.839  0.8951  1.6492 -1.3547
 4344SOL    HW224495   0.020   2.776   1.743 -3.5275  1.3287  1.8060
 4345SOL     OW24496   3.850   1.000   8.956  0.0899 -0.1191  0.1546
 4345SOL    HW124497   3.814   1.036   9.036 -0.7939 -1.6771  0.4579
 4345SOL    HW224498   3.894   1.082   8.933 -2.0217  0.8215 -0.5045
 4346SOL     OW24499   1.321   2.468   0.047 -0.3038  0.2216  0.1720
 4346SOL    HW124500   1.351   2.436   0.132 -2.4245 -1.8820  0.1132
 4346SOL    HW224501   1.404   2.464  17.692  0.3228  1.0938  1.2100
 4347SOL     OW24502   3.536   1.567   5.674  0.0066 -0.4678  0.3511
 4347SOL    HW124503   3.444   1.550   5.695 -0.6109 -0.4114 -2.2584
 4347SOL    HW224504   3.545   1.491   5.615  1.5844 -1.0487  1.3328
 4348SOL     OW24505   0.378   4.090   6.652  0.2723  0.0291 -0.1935
 4348SOL    HW124506   0.313   4.148   6.611  0.2055 -1.2724 -1.9313
 4348SOL    HW224507   0.317   4.017   6.663  1.9605 -1.5303 -1.2592
 4349SOL     OW24508   1.946   0.723   6.595  0.1179  0.4989  0.1282
 4349SOL    HW124509   1.888   0.790   6.558 -0.0563 -0.7843 -1.9174
 4349SOL    HW224510   1.940   0.737   6.689 -0.4873 -4.7659  0.8762
 4350SOL     OW24511   4.616   0.017   3.146 -0.4788 -0.3013  0.3310
 4350SOL    HW124512   4.537   4.715   3.097 -0.0698  0.4252 -0.6689
 4350SOL    HW224513   4.671   0.066   3.085 -1.0712  0.3354  0.2981
 4351SOL     OW24514   2.914   1.186   9.282 -0.2174 -0.0532  0.1287
 4351SOL    HW124515   2.903   1.241   9.360  1.4789  2.9286 -1.6965
 4351SOL    HW224516   2.929   1.253   9.215  1.8351 -1.1272 -0.4789
 4352SOL     OW24517   3.409   4.382  12.351  0.4387 -0.2821  0.4226
 4352SOL    HW124518   3.347   4.361  12.420 -0.7614  0.7234 -0.3513
 4352SOL    HW224519   3.461   4.440  12.405  0.3592  0.6816 -0.5458
 4353SOL     OW24520   4.575   1.205   6.140 -0.7743  0.3489  0.0138
 4353SOL    HW124521   4.500   1.261   6.121 -1.9227 -0.8778  0.9123
 4353SOL    HW224522   4.537   1.160   6.215 -0.8816  0.2850 -0.0787
 4354SOL     OW24523   3.298   1.455   5.626  0.0171 -0.3570 -0.1970
 4354SOL    HW124524   3.242   1.381   5.650 -0.1496  1.0299  3.6901
 4354SOL    HW224525   3.256   1.462   5.541 -2.6665 -1.0620  1.0638
 4355SOL     OW24526   0.402   1.202   8.105  0.4162  0.5200  0.0312
 4355SOL    HW124527   0.419   1.286   8.062 -1.7352  1.6038  1.2814
 4355SOL    HW224528   0.457   1.136   8.063 -1.6173  0.2853 -2.2805
 4356SOL     OW24529   4.605   3.354   3.917 -0.1839 -0.5218  0.0067
 4356SOL    HW124530   4.530   3.298   3.894 -1.3793  2.2443 -2.8504
 4356SOL    HW224531   4.675   3.312   3.867 -1.8008 -1.1992 -1.6993
 4357SOL     OW24532   4.376   1.606   9.475  0.0189 -0.2467 -0.4959
 4357SOL    HW124533   4.317   1.613   9.550  0.9473 -2.7788  0.4746
 4357SOL    HW224534   4.373   1.694   9.437  2.6896 -0.6301 -1.5461
 4358SOL     OW24535   0.726   1.678  16.929  0.1555  0.4725 -0.1668
 4358SOL    HW124536   0.807   1.698  16.977 -1.7132  3.7732  1.5379
 4358SOL    HW224537   0.705   1.762  16.889 -0.7760  0.4313  0.2439
 4359SOL     OW24538   2.082   0.844   8.576 -0.1820 -0.7136  0.2527
 4359SOL    HW124539   2.095   0.837   8.671 -1.8348  0.8109  0.5910
 4359SOL    HW224540   2.123   0.763   8.547 -0.7403 -1.5647  1.8050
 4360SOL     OW24541   0.194   0.172  16.790  0.0334  0.0143 -0.6149
 4360SOL    HW124542   0.176   0.222  16.869 -2.3209 -0.3204 -0.9370
 4360SOL    HW224543   0.289   0.175  16.794  0.1334  0.0643 -2.7706
 4361SOL     OW24544   2.440   0.485   5.290  0.3870  0.1174  0.2163
 4361SOL    HW124545   2.456   0.390   5.286 -0.9073 -0.1475  1.2674
 4361SOL    HW224546   2.520   0.506   5.242 -0.5616 -0.8892 -1.7743
 4362SOL     OW24547   0.624   2.822  14.043 -0.4086 -0.3188 -0.4767
 4362SOL    HW124548   0.678   2.751  14.010 -0.4184  0.0732 -1.3388
 4362SOL    HW224549   0.562   2.779  14.102  1.3180 -3.0092 -0.6299
 4363SOL     OW24550   0.070   2.341   5.757  0.8749  0.2163 -0.6422
 4363SOL    HW124551   4.705   2.378   5.745  1.3970  1.4981 -0.4773
 4363SOL    HW224552   0.124   2.374   5.685  2.1782  0.7940  0.6045
 4364SOL     OW24553   3.494   1.824   6.722 -0.0357 -0.0081  0.2292
 4364SOL    HW124554   3.418   1.774   6.752 -1.6362  0.7499 -2.5443
 4364SOL    HW224555   3.479   1.854   6.633 -2.2517 -0.8039  0.3439
 4365SOL     OW24556   0.459   1.910   3.518 -0.0949  0.3325  0.1054
 4365SOL    HW124557   0.441   1.885   3.609  1.7097 -2.6546 -0.3459
 4365SOL    HW224558   0.554   1.905   3.509 -0.4193 -1.5469 -2.3447
 4366SOL     OW24559   2.529   1.614  15.747  0.5158  0.7340 -0.0346
 4366SOL    HW124560   2.531   1.677  15.820  0.2405 -2.4014  2.6852
 4366SOL    HW224561   2.457   1.640  15.690  0.4979 -0.3852 -0.5110
 4367SOL     OW24562   0.720   2.421   8.398  0.2657 -0.4062  0.2245
 4367SOL    HW124563   0.647   2.477   8.424 -1.7063 -2.1098 -1.5605
 4367SOL    HW224564   0.718   2.451   8.307 -1.4678  1.8278  0.9890
 4368SOL     OW24565   0.277   3.951  13.870 -0.3571 -0.3730  0.7026
 4368SOL    HW124566   0.365   3.936  13.905  0.0307 -0.2967 -0.2313
 4368SOL    HW224567   0.292   3.919  13.781 -1.0707  1.2725 -0.0057
 4369SOL     OW24568   4.462   3.252  16.880 -0.1957  0.8057 -0.3316
 4369SOL    HW124569   4.548   3.228  16.915 -0.8433  0.5535  1.0703
 4369SOL    HW224570   4.413   3.176  16.909  1.5321  0.0217  0.5360
 4370SOL     OW24571   4.663   3.729   3.612  0.0803  0.2790 -0.1747
 4370SOL    HW124572   4.626   3.642   3.599 -1.8351  0.7516  2.1897
 4370SOL    HW224573   0.030   3.717   3.579  0.3926  0.6849  0.5104
 4371SOL     OW24574   1.725   3.785   7.829 -0.1476  0.1706  0.2050
 4371SOL    HW124575   1.637   3.801   7.797 -0.4086 -1.0870  0.2924
 4371SOL    HW224576   1.759   3.875   7.836 -0.1837  0.2408 -0.4875
 4372SOL     OW24577   1.743   0.486   2.660 -0.0514  0.4079  0.0811
 4372SOL    HW124578   1.803   0.434   2.607 -0.4527  0.1735 -0.1450
 4372SOL    HW224579   1.794   0.484   2.742  0.2551  0.1643 -0.1156
 4373SOL     OW24580   3.966   1.456   8.653  0.1233  0.2519 -0.0282
 4373SOL    HW124581   4.033   1.464   8.586 -2.5733 -1.0795 -2.8562
 4373SOL    HW224582   4.009   1.512   8.718 -0.5517 -0.0462  0.6898
 4374SOL     OW24583   4.200   1.881   9.907  0.8798  0.1902 -0.3355
 4374SOL    HW124584   4.135   1.943   9.874  0.6309  0.3563  0.4754
 4374SOL    HW224585   4.153   1.799   9.921  0.9517  0.2419  0.2167
 4375SOL     OW24586   3.320   0.398   0.539 -0.0911  0.2183  0.3641
 4375SOL    HW124587   3.366   0.467   0.588  0.0266  2.7940 -3.3907
 4375SOL    HW224588   3.230   0.431   0.539 -1.0987 -2.5675  0.4723
 4376SOL     OW24589   1.030   3.211  13.749 -0.5361  0.5259 -0.0384
 4376SOL    HW124590   1.032   3.304  13.728  4.6608  0.8078  1.8432
 4376SOL    HW224591   1.117   3.188  13.717 -1.8420 -3.5335 -0.5942
 4377SOL     OW24592   4.146   2.808   9.146  0.0211  0.7167 -0.1103
 4377SOL    HW124593   4.234   2.845   9.136  0.5014  0.1034  1.8375
 4377SOL    HW224594   4.103   2.885   9.107 -0.4887  0.0140 -0.9313
 4378SOL     OW24595   0.763   1.956   6.545 -0.4282 -0.2449  0.0643
 4378SOL    HW124596   0.689   2.014   6.529 -0.1887  0.0654  0.0670
 4378SOL    HW224597   0.774   1.908   6.463  1.0292  0.2306 -0.0310
 4379SOL     OW24598   2.524   0.240   5.102  0.7308  0.5750  0.3546
 4379SOL    HW124599   2.618   0.242   5.120  0.8544  0.2521 -0.2544
 4379SOL    HW224600   2.522   0.189   5.021 -3.5609  0.8241  0.3259
 4380SOL     OW24601   0.783   1.106  16.663 -0.1709  0.9643 -0.0059
 4380SOL    HW124602   0.755   1.023  16.702 -0.3684  0.0885 -2.0230
 4380SOL    HW224603   0.831   1.141  16.738 -1.5238  2.0668  0.3572
 4381SOL     OW24604   1.890   2.582   0.278 -0.0322 -0.1465 -0.3128
 4381SOL    HW124605   1.862   2.507   0.330 -3.4673  1.8722  0.7004
 4381SOL    HW224606   1.939   2.630   0.345 -1.7390 -0.4812  1.1466
 4382SOL     OW24607   0.025   0.454   4.605 -0.0914 -0.0053 -0.3047
 4382SOL    HW124608   0.103   0.426   4.558 -0.8380 -2.9207  0.1829
 4382SOL    HW224609   0.035   0.548   4.622 -0.7143  0.2299 -1.2833
 4383SOL     OW24610   2.147   2.962   7.804  0.3613 -0.1167  0.0898
 4383SOL    HW124611   2.242   2.977   7.807  0.1207  1.0385  1.6059
 4383SOL    HW224612   2.145   2.867   7.795 -0.3026 -0.1874  1.0428
 4384SOL     OW24613   1.892   1.294   1.891  0.5047 -0.2983  0.0691
 4384SOL    HW124614   1.832   1.365   1.912  2.4262  2.0090 -2.2220
 4384SOL    HW224615   1.843   1.241   1.829 -2.4007  0.8341  1.4187
 4385SOL     OW24616   3.097   1.131   2.577 -0.2595  0.3314 -0.5063
 4385SOL    HW124617   3.115   1.192   2.649 -0.0909  0.4885 -0.6808
 4385SOL    HW224618   3.051   1.059   2.619  0.9414 -1.2588 -1.9198
 4386SOL     OW24619   0.848   2.516  12.685 -0.0175  0.3596 -1.1155
 4386SOL    HW124620   0.920   2.479  12.634 -0.1941 -4.2296  1.9791
 4386SOL    HW224621   0.779   2.533  12.621 -0.3265 -0.0657 -0.8936
 4387SOL     OW24622   2.433   4.395  14.152 -0.5190  0.6217 -0.0322
 4387SOL    HW124623   2.448   4.489  14.140  1.8029 -0.0373 -2.1797
 4387SOL    HW224624   2.393   4.374  14.068  0.3716 -0.5964 -0.1486
 4388SOL     OW24625   0.960   3.749   1.087 -0.3697 -0.1940 -0.8070
 4388SOL    HW124626   0.895   3.724   1.153  0.2569 -0.6168 -0.3600
 4388SOL    HW224627   0.943   3.844   1.088 -3.5293 -0.7558 -0.3808
 4389SOL     OW24628   2.596   3.399   8.027  0.2797  0.3248 -0.2251
 4389SOL    HW124629   2.628   3.485   8.057  1.4921 -0.4192  0.6122
 4389SOL    HW224630   2.683   3.360   8.028  0.7732  1.4045 -0.1746
 4390SOL     OW24631   0.104   0.693   9.680  0.3685  0.1653  0.2389
 4390SOL    HW124632   0.073   0.723   9.766 -0.2894  3.2006 -1.0659
 4390SOL    HW224633   0.090   0.598   9.684  1.2093  0.0831  1.5237
 4391SOL     OW24634   1.400   1.986   0.825 -0.1461  0.1384  0.4026
 4391SOL    HW124635   1.347   1.958   0.750  0.6248  0.6350 -0.3303
 4391SOL    HW224636   1.362   2.070   0.851  1.3204  1.1001 -0.5907
 4392SOL     OW24637   2.835   4.425   5.131  0.5346  0.1100  0.2592
 4392SOL    HW124638   2.890   4.501   5.152 -1.2999  1.0881  1.5589
 4392SOL    HW224639   2.858   4.367   5.203 -1.7117  0.7056  1.4431
 4393SOL     OW24640   2.903   3.632   2.485 -0.5247  0.2536  0.4874
 4393SOL    HW124641   2.972   3.586   2.533 -1.0478  0.1723  1.1654
 4393SOL    HW224642   2.906   3.723   2.515 -0.0931 -0.0207  1.2699
 4394SOL     OW24643   4.404   0.754   1.080 -0.6107 -0.0815 -0.2223
 4394SOL    HW124644   4.363   0.677   1.040  2.1615 -0.7348 -1.7788
 4394SOL    HW224645   4.468   0.714   1.139  0.0367  1.1050 -0.1365
 4395SOL     OW24646   1.669   1.509   2.843  0.2947  0.0960 -0.7831
 4395SOL    HW124647   1.591   1.542   2.800  2.2751  4.0575 -1.3179
 4395SOL    HW224648   1.667   1.414   2.835 -1.5591  0.2048 -1.5354
 4396SOL     OW24649   1.767   3.254   1.765 -0.0154 -0.4626  0.6740
 4396SOL    HW124650   1.777   3.161   1.788  1.3832 -0.0397  1.7691
 4396SOL    HW224651   1.698   3.244   1.699  1.6213 -2.7364 -0.7156
 4397SOL     OW24652   2.523   4.067   0.981  0.2400  0.1314 -0.7984
 4397SOL    HW124653   2.527   4.089   0.888 -2.6701  1.8756 -0.5172
 4397SOL    HW224654   2.534   3.972   0.985 -0.2984  0.1215  0.3923
 4398SOL     OW24655   1.366   3.443  16.753  0.7208 -0.0443  0.8389
 4398SOL    HW124656   1.334   3.384  16.821  0.0278 -1.3864 -0.6788
 4398SOL    HW224657   1.408   3.372  16.704 -0.0110  1.0434 -1.3639
 4399SOL     OW24658   4.518   0.225   2.660 -0.3264  0.2489 -0.4473
 4399SOL    HW124659   4.597   0.275   2.681  0.1110  0.2119 -2.0342
 4399SOL    HW224660   4.464   0.271   2.596  1.2303 -0.6693 -2.3922
 4400SOL     OW24661   4.655   4.067   0.022 -0.3704 -0.1061 -0.2625
 4400SOL    HW124662   4.697   4.104   0.100 -2.4691  2.2972 -0.2544
 4400SOL    HW224663   4.564   4.080   0.047  0.3223  2.0523  1.1570
 4401SOL     OW24664   0.031   4.353   3.419 -0.2066  0.0919  0.0053
 4401SOL    HW124665   4.683   4.397   3.466 -2.4669 -2.0391 -1.3878
 4401SOL    HW224666   4.715   4.346   3.332 -1.4800  0.9728  0.5042
 4402SOL     OW24667   3.270   1.106   4.692  0.2289  0.6023 -0.4681
 4402SOL    HW124668   3.338   1.122   4.628  0.2590  0.6733 -0.4186
 4402SOL    HW224669   3.313   1.091   4.776 -1.0260  1.9964  0.4302
 4403SOL     OW24670   1.992   2.155   9.001  0.9548 -0.7268  0.3700
 4403SOL    HW124671   2.079   2.117   8.985  1.9105  0.4477  2.7472
 4403SOL    HW224672   1.988   2.170   9.095 -1.3137 -0.3940  0.2284
 4404SOL     OW24673   0.938   1.204   6.373 -0.2408  0.3796  0.3014
 4404SOL    HW124674   1.033   1.199   6.387 -0.3819 -4.0995 -0.4096
 4404SOL    HW224675   0.915   1.201   6.466 -0.3860  0.1318  0.2571
 4405SOL     OW24676   1.713   3.719   1.239  0.1545  0.6781  0.0572
 4405SOL    HW124677   1.743   3.648   1.182 -3.2769  0.0431 -0.9665
 4405SOL    HW224678   1.629   3.742   1.199  0.2722  0.9554 -0.0352
 4406SOL     OW24679   0.957   0.542   5.836  0.2032  0.2874 -0.6315
 4406SOL    HW124680   0.971   0.483   5.910  1.3592  1.7305  0.3168
 4406SOL    HW224681   0.865   0.566   5.839 -0.1167 -0.9083 -1.0041
 4407SOL     OW24682   1.177   0.960  13.245  0.2599  0.1684 -0.2478
 4407SOL    HW124683   1.216   0.915  13.170  1.2620 -1.4739  1.2479
 4407SOL    HW224684   1.191   1.050  13.218  0.6505 -0.4926 -2.2411
 4408SOL     OW24685   2.230   2.073   8.211  0.2268 -0.2367 -0.0432
 4408SOL    HW124686   2.323   2.052   8.204 -0.2096 -1.0937 -3.1606
 4408SOL    HW224687   2.216   2.060   8.305 -1.1467 -1.2206 -0.3828
 4409SOL     OW24688   2.370   1.306   5.451 -0.4178 -0.0192  0.7357
 4409SOL    HW124689   2.408   1.334   5.534 -1.3705  0.7849  0.9086
 4409SOL    HW224690   2.439   1.263   5.402 -0.2114  0.6674  0.4269
 4410SOL     OW24691   0.098   3.315   2.607 -0.4140 -0.9447  0.2416
 4410SOL    HW124692   0.063   3.383   2.664  0.4376  0.8674 -1.4160
 4410SOL    HW224693   0.146   3.366   2.543 -0.0362 -1.2320  0.2932
 4411SOL     OW24694   4.604   1.721   5.373  0.0058  0.5283 -0.1055
 4411SOL    HW124695   4.620   1.780   5.447 -1.2984  0.3791  0.3018
 4411SOL    HW224696   4.514   1.747   5.354 -0.2119 -1.5858 -1.9379
 4412SOL     OW24697   1.776   2.197   1.512 -0.1173 -0.7162  0.1417
 4412SOL    HW124698   1.704   2.241   1.559  0.1230 -1.4872  1.2278
 4412SOL    HW224699   1.830   2.174   1.588  1.2810  1.4962 -0.1555
 4413SOL     OW24700   3.280   0.117   7.190  0.2010  0.0592 -0.4114
 4413SOL    HW124701   3.245   0.200   7.222 -1.3423 -0.6263 -0.3272
 4413SOL    HW224702   3.316   0.141   7.104  2.3231 -2.1144 -0.1366
 4414SOL     OW24703   3.711   3.536  12.099 -0.2442  1.1124  0.0414
 4414SOL    HW124704   3.700   3.626  12.069  0.5094  1.0589 -0.3911
 4414SOL    HW224705   3.772   3.548  12.172 -0.3548 -1.0190  0.4741
 4415SOL     OW24706   0.616   2.875  10.704 -0.4546  0.1897 -0.5430
 4415SOL    HW124707   0.661   2.869  10.788 -0.6451 -0.2352 -0.4749
 4415SOL    HW224708   0.632   2.966  10.679 -0.3221  0.2418 -0.2673
 4416SOL     OW24709   1.531   3.729   5.834 -0.2747 -0.6316 -0.2840
 4416SOL    HW124710   1.486   3.648   5.859 -0.7914 -0.1680  0.2915
 4416SOL    HW224711   1.577   3.704   5.754  2.3655  0.4200  0.9394
 4417SOL     OW24712   0.394   1.280   3.668 -0.3282 -0.3746 -0.5406
 4417SOL    HW124713   0.419   1.277   3.575  0.1004  0.3560 -0.4509
 4417SOL    HW224714   0.374   1.188   3.682 -2.4423  0.3271  0.9367
 4418SOL     OW24715   3.774   1.110  12.771  0.1268  0.3254 -0.0180
 4418SOL    HW124716   3.795   1.114  12.678 -2.0002  0.2575 -0.5007
 4418SOL    HW224717   3.700   1.171  12.775  1.4148  1.9209 -0.5617
 4419SOL     OW24718   3.896   0.242   8.104  0.3758 -0.4638 -0.0960
 4419SOL    HW124719   3.886   0.195   8.187 -0.2185 -0.0315  0.0755
 4419SOL    HW224720   3.834   0.315   8.105 -0.5736 -1.2494 -0.7776
 4420SOL     OW24721   4.602   0.961   5.728  0.3356 -0.0729 -0.2830
 4420SOL    HW124722   4.580   1.043   5.684  0.8014  0.1047 -0.1907
 4420SOL    HW224723   4.688   0.947   5.689  0.7947  1.7336  0.0536
 4421SOL     OW24724   3.341   2.302   1.957  0.3130  0.0484 -0.1735
 4421SOL    HW124725   3.281   2.228   1.946 -0.7573  0.9840 -0.7200
 4421SOL    HW224726   3.359   2.298   2.051 -0.9875 -0.3000  0.0603
 4422SOL     OW24727   4.544   1.259  17.058  0.2495 -0.2812 -0.0456
 4422SOL    HW124728   4.583   1.225  16.977 -0.2759 -0.1937 -0.3390
 4422SOL    HW224729   4.607   1.236  17.126  2.0091  2.3350 -0.8122
 4423SOL     OW24730   0.129   4.697   4.881 -0.0677 -0.0493  0.0742
 4423SOL    HW124731   0.123   4.680   4.787 -1.9640  1.3491 -0.0629
 4423SOL    HW224732   0.194   0.044   4.882 -0.8680  0.6827  1.7971
 4424SOL     OW24733   2.455   2.476   7.080 -0.5184  0.0915 -0.2019
 4424SOL    HW124734   2.430   2.557   7.124 -1.5235 -0.1354 -0.3763
 4424SOL    HW224735   2.540   2.496   7.040 -0.1636 -0.4999  0.2447
 4425SOL     OW24736   0.990   1.407   4.207  0.2509  0.3203 -0.4443
 4425SOL    HW124737   1.041   1.488   4.218 -0.3372  0.6908 -0.4433
 4425SOL    HW224738   1.060   1.350   4.175 -1.2746 -0.4076 -2.4586
 4426SOL     OW24739   1.986   2.318  16.924  0.3949  0.1177  0.6560
 4426SOL    HW124740   1.920   2.350  16.985 -0.6153  0.5296 -0.6485
 4426SOL    HW224741   2.027   2.399  16.895  0.5151 -0.9913 -2.2825
 4427SOL     OW24742   1.594   1.964   3.539 -0.5809 -0.0292 -0.3488
 4427SOL    HW124743   1.525   1.911   3.500 -0.0336  0.1239 -1.5090
 4427SOL    HW224744   1.615   1.902   3.609 -4.7027 -2.8932 -1.6620
 4428SOL     OW24745   4.296   0.875   1.682  0.2631  0.1355 -0.2425
 4428SOL    HW124746   4.318   0.799   1.628  1.9496  0.3820  0.1056
 4428SOL    HW224747   4.210   0.898   1.647 -1.1643 -2.2457  1.7021
 4429SOL     OW24748   0.530   4.627  16.640  0.3425  0.4927 -0.1339
 4429SOL    HW124749   0.499   4.709  16.677 -0.6820  0.0795 -0.0732
 4429SOL    HW224750   0.605   4.609  16.697  0.3678 -2.4887 -1.0807
 4430SOL     OW24751   3.386   2.249   2.408  0.1501  0.3381 -0.1338
 4430SOL    HW124752   3.466   2.301   2.398  0.1646 -0.0997 -2.2659
 4430SOL    HW224753   3.414   2.162   2.438  2.1876  1.1822  0.4813
 4431SOL     OW24754   3.149   1.956  15.974 -0.2698 -0.3079 -0.1358
 4431SOL    HW124755   3.233   1.998  15.991 -1.2281  1.1129  1.1463
 4431SOL    HW224756   3.092   2.018  16.020  0.9438  1.2355 -0.7432
 4432SOL     OW24757   3.239   4.390   1.131  0.3085 -0.0052  0.3476
 4432SOL    HW124758   3.229   4.386   1.226  0.9917  0.9245  0.4626
 4432SOL    HW224759   3.163   4.336   1.109 -1.3536  1.5925  2.1604
 4433SOL     OW24760   1.585   2.239  15.242 -1.0916  0.0893  0.0296
 4433SOL    HW124761   1.656   2.176  15.238 -0.7801  0.6505 -2.7349
 4433SOL    HW224762   1.607   2.280  15.326 -1.6855 -0.8331  0.6409
 4434SOL     OW24763   3.964   2.412   4.186  0.3067 -0.6381 -0.5255
 4434SOL    HW124764   3.941   2.445   4.099 -1.6121  0.2518  0.3334
 4434SOL    HW224765   3.890   2.435   4.242  0.0666  0.1874 -1.1951
 4435SOL     OW24766   3.629   1.318   9.883 -0.5126  0.3008 -0.1444
 4435SOL    HW124767   3.642   1.307   9.788 -1.3567 -0.1144 -0.2100
 4435SOL    HW224768   3.534   1.322   9.892 -0.6904 -1.2275 -1.1582
 4436SOL     OW24769   1.380   1.209   3.966  0.3360  0.4066 -0.1379
 4436SOL    HW124770   1.404   1.263   3.891  0.3332  1.9642  0.9852
 4436SOL    HW224771   1.304   1.160   3.934  1.1913  0.8964 -2.9024
 4437SOL     OW24772   0.556   1.504  11.419 -0.3036  0.5903 -0.2126
 4437SOL    HW124773   0.547   1.586  11.467 -0.0428  1.6223 -1.9064
 4437SOL    HW224774   0.624   1.462  11.471  0.8703 -0.1165 -2.3000
 4438SOL     OW24775   0.270   1.458   1.736  0.2468  0.2188  0.5376
 4438SOL    HW124776   0.230   1.474   1.651 -1.0865  3.5129  1.7744
 4438SOL    HW224777   0.359   1.447   1.702  0.7503 -0.6300  2.1291
 4439SOL     OW24778   0.563   0.756   3.454 -0.1388 -0.0977 -0.8167
 4439SOL    HW124779   0.517   0.721   3.378 -1.3163 -1.2978  0.4414
 4439SOL    HW224780   0.618   0.690   3.495 -1.2220 -0.3341  0.2602
 4440SOL     OW24781   1.799   3.485   5.974 -0.1628 -0.1936  0.2086
 4440SOL    HW124782   1.824   3.458   5.886  0.1636  1.1691 -0.1108
 4440SOL    HW224783   1.871   3.545   5.994 -0.5221  0.0559  0.7507
 4441SOL     OW24784   3.767   1.391  13.670  0.0431 -0.2232 -0.0648
 4441SOL    HW124785   3.792   1.299  13.659 -1.1691 -0.0546 -4.1819
 4441SOL    HW224786   3.672   1.389  13.668  0.0063 -0.2494  1.9254
 4442SOL     OW24787   3.739   3.035  12.781  0.4405  0.3573 -0.0974
 4442SOL    HW124788   3.752   3.017  12.688 -2.3764 -1.5178 -0.1333
 4442SOL    HW224789   3.685   2.960  12.806 -0.8467  1.1562 -0.5368
 4443SOL     OW24790   0.821   4.171   6.751  0.0451 -0.3922  0.0073
 4443SOL    HW124791   0.754   4.120   6.705 -2.1412  1.3152  1.3033
 4443SOL    HW224792   0.789   4.260   6.765 -1.4076 -0.5570 -2.2391
 4444SOL     OW24793   3.075   3.460   3.171  0.0997 -0.0163  0.2385
 4444SOL    HW124794   3.064   3.529   3.105  0.6975 -0.7343 -0.6060
 4444SOL    HW224795   3.161   3.424   3.151  0.2063  0.1633  0.3809
 4445SOL     OW24796   2.032   3.176   7.187  0.0454 -0.2753 -0.1100
 4445SOL    HW124797   2.120   3.214   7.183  0.1121 -0.4950 -0.8439
 4445SOL    HW224798   2.033   3.099   7.244 -1.4207  0.5511  1.0290
 4446SOL     OW24799   4.535   0.704  11.259 -0.6705  0.8833  0.1422
 4446SOL    HW124800   4.564   0.624  11.303 -0.2809  0.2123 -1.3476
 4446SOL    HW224801   4.566   0.683  11.171 -1.6741 -0.3807  0.0858
 4447SOL     OW24802   3.927   3.954   8.197  0.4623  0.0518  0.2343
 4447SOL    HW124803   3.899   4.040   8.228  0.4736  1.0153 -2.4445
 4447SOL    HW224804   3.936   3.981   8.106  0.5342  0.8621  0.4809
 4448SOL     OW24805   2.228   3.677   1.652  0.3269  0.6534 -0.9704
 4448SOL    HW124806   2.255   3.759   1.611 -0.7544  1.3898 -0.2066
 4448SOL    HW224807   2.249   3.616   1.581 -1.6940  0.7507 -1.6646
 4449SOL     OW24808   1.908   0.442   8.272  0.0841 -0.6094 -0.0804
 4449SOL    HW124809   1.862   0.358   8.276 -2.7392  1.0575  3.3668
 4449SOL    HW224810   1.979   0.436   8.208 -0.2014 -0.6855 -0.3889
 4450SOL     OW24811   3.915   1.461   7.803  0.3766  0.6162 -0.1139
 4450SOL    HW124812   3.906   1.367   7.789  0.0611  0.1885  2.7742
 4450SOL    HW224813   3.921   1.474   7.898 -0.9368 -3.2326  0.4689
 4451SOL     OW24814   3.931   3.890   4.201  0.7847  0.4591 -0.7176
 4451SOL    HW124815   3.967   3.926   4.283 -0.4170 -1.1425  0.5083
 4451SOL    HW224816   3.928   3.974   4.157 -0.0259  0.4616 -0.6418
 4452SOL     OW24817   0.842   3.810   4.639  0.1747 -0.7313 -0.1489
 4452SOL    HW124818   0.926   3.853   4.620 -0.1836  0.2441  0.5188
 4452SOL    HW224819   0.868   3.746   4.705  0.8127 -2.0087 -1.6428
 4453SOL     OW24820   4.284   2.173   6.835  0.6242  0.0083 -0.0425
 4453SOL    HW124821   4.307   2.248   6.780  2.4209 -0.5439 -0.0404
 4453SOL    HW224822   4.365   2.154   6.883  0.4756 -0.2568  0.1045
 4454SOL     OW24823   4.710   1.310   7.767 -0.2424 -0.0110  0.5950
 4454SOL    HW124824   0.010   1.253   7.693 -0.8831  1.3704 -0.6688
 4454SOL    HW224825   4.645   1.369   7.728 -1.0470 -0.4617  1.2442
 4455SOL     OW24826   3.987   2.541   7.523 -0.0492  0.1663  0.2434
 4455SOL    HW124827   3.987   2.479   7.450  0.0452 -0.0523  0.4288
 4455SOL    HW224828   3.966   2.624   7.481 -1.6666 -0.5796 -0.4417
 4456SOL     OW24829   4.494   0.371   4.559  0.3775 -0.0060  0.2606
 4456SOL    HW124830   4.497   0.400   4.468 -0.3737 -0.6176  0.0380
 4456SOL    HW224831   4.572   0.416   4.591 -0.9493  1.9054  0.7859
 4457SOL     OW24832   0.433   1.630  16.364  0.2874 -0.2359  0.0275
 4457SOL    HW124833   0.443   1.574  16.441  2.4346 -0.5803 -0.4967
 4457SOL    HW224834   0.364   1.684  16.403 -0.9882 -2.2490  0.5280
 4458SOL     OW24835   4.593   1.785   6.334  0.4690  0.0684  0.0858
 4458SOL    HW124836   4.658   1.855   6.345 -0.0358  0.6640 -0.7497
 4458SOL    HW224837   4.516   1.837   6.357 -1.0151 -2.8784  1.7490
 4459SOL     OW24838   3.257   0.123   6.452  0.2503 -0.1661 -0.0961
 4459SOL    HW124839   3.350   0.136   6.469  0.3642  0.0468 -0.8642
 4459SOL    HW224840   3.255   0.027   6.448  1.9628 -0.1991 -0.0575
 4460SOL     OW24841   2.065   2.061   3.296  0.4069  0.2162  0.5320
 4460SOL    HW124842   1.976   2.038   3.323  1.5323 -1.4845  2.7578
 4460SOL    HW224843   2.078   2.136   3.354  1.8922 -0.2395  0.7743
 4461SOL     OW24844   1.737   0.127   2.644  0.6572 -0.1171 -0.1264
 4461SOL    HW124845   1.817   0.162   2.604  0.4121  0.1564 -0.3814
 4461SOL    HW224846   1.704   0.072   2.574  0.1217  1.4085 -1.0801
 4462SOL     OW24847   0.931   4.435   1.752  0.6531  0.6738 -0.1731
 4462SOL    HW124848   0.891   4.502   1.807  0.4150  0.3787  0.0136
 4462SOL    HW224849   0.859   4.372   1.745  0.6631  0.7171 -0.6652
 4463SOL     OW24850   2.084   2.080   5.480  0.2454  0.4021 -0.1581
 4463SOL    HW124851   2.113   2.101   5.569  0.2043 -0.1236 -0.0180
 4463SOL    HW224852   2.043   1.996   5.501  1.6214 -0.7866 -2.2012
 4464SOL     OW24853   0.078   0.868  15.830 -0.0354 -0.4537  0.2700
 4464SOL    HW124854   0.016   0.796  15.841  0.1201 -0.5130  0.7343
 4464SOL    HW224855   0.160   0.818  15.827  0.8625  1.0475 -0.1651
 4465SOL     OW24856   3.368   3.993  16.723  0.5018  0.3563 -0.1218
 4465SOL    HW124857   3.395   3.911  16.681  2.9574  0.7062  0.7750
 4465SOL    HW224858   3.312   3.963  16.794  1.2376 -3.2546 -1.0348
 4466SOL     OW24859   3.590   4.005   8.852  0.2384  0.1591 -0.1981
 4466SOL    HW124860   3.500   4.037   8.864 -0.4454 -1.2970 -1.5171
 4466SOL    HW224861   3.596   3.952   8.773 -1.4916 -0.8817  0.3655
 4467SOL     OW24862   2.865   2.107   3.361  0.2900 -0.1709  0.1641
 4467SOL    HW124863   2.810   2.175   3.322 -0.6862 -1.9520 -1.5875
 4467SOL    HW224864   2.944   2.157   3.381  1.2468 -2.3253  1.7519
 4468SOL     OW24865   1.382   2.876   4.770  0.0773 -0.2726 -0.0442
 4468SOL    HW124866   1.342   2.906   4.852  2.3083 -2.4700  1.8436
 4468SOL    HW224867   1.325   2.802   4.749 -1.8098  1.0289  0.4554
 4469SOL     OW24868   3.981   1.890  11.707 -0.1898 -0.0004 -0.5031
 4469SOL    HW124869   4.043   1.949  11.663 -0.1793  1.8189  1.9343
 4469SOL    HW224870   3.900   1.932  11.678  0.3830  0.7813 -0.9776
 4470SOL     OW24871   2.879   3.990   0.920 -0.6029  0.3244  0.5791
 4470SOL    HW124872   2.848   3.978   0.830 -0.7295 -0.2982  0.7070
 4470SOL    HW224873   2.925   4.073   0.907  0.0157 -0.0745  0.2030
 4471SOL     OW24874   4.185   1.332  15.112 -0.1173  0.2998  0.2439
 4471SOL    HW124875   4.130   1.405  15.082  2.0259  1.9681  0.3883
 4471SOL    HW224876   4.217   1.302  15.027 -1.6948 -0.3500 -0.1101
 4472SOL     OW24877   4.600   3.330  15.052 -0.6275  0.6729  0.2842
 4472SOL    HW124878   4.526   3.270  15.051 -1.1384  1.3204 -0.7637
 4472SOL    HW224879   4.552   3.408  15.024 -0.9014  0.4025 -0.0011
 4473SOL     OW24880   0.531   0.929   4.980 -0.1455  0.9818  0.1781
 4473SOL    HW124881   0.488   0.845   4.992 -0.6392  1.4277  1.5186
 4473SOL    HW224882   0.462   0.981   4.939 -2.0952 -1.6047  0.1542
 4474SOL     OW24883   3.857   0.034  17.143 -0.3237 -0.8007  0.1807
 4474SOL    HW124884   3.926   4.696  17.116  3.2244  0.9282  5.2023
 4474SOL    HW224885   3.895   0.080  17.218  0.9895  1.9144 -2.1480
 4475SOL     OW24886   1.179   1.318   4.674 -0.4068 -0.5034 -0.2199
 4475SOL    HW124887   1.110   1.328   4.608  0.7345 -0.9944 -1.4916
 4475SOL    HW224888   1.261   1.342   4.632 -1.3921  1.4576 -1.0337
 4476SOL     OW24889   1.538   1.488  12.782  0.3886  0.2211  0.5966
 4476SOL    HW124890   1.461   1.485  12.725  1.0242  0.5236 -0.2679
 4476SOL    HW224891   1.612   1.461  12.729 -0.4773 -0.1301 -0.4284
 4477SOL     OW24892   0.716   0.608   3.628  0.7386 -0.6186 -0.2079
 4477SOL    HW124893   0.721   0.534   3.688  0.6316  1.9791  3.0234
 4477SOL    HW224894   0.805   0.629   3.599  1.1040 -0.6929  0.8926
 4478SOL     OW24895   4.476   2.183   7.494 -0.2736  0.2487 -0.1744
 4478SOL    HW124896   4.418   2.207   7.566  0.1186 -0.0208  0.2343
 4478SOL    HW224897   4.424   2.118   7.446  1.2096  0.7059 -2.3803
 4479SOL     OW24898   3.857   0.802  10.833  0.1800 -0.1360  0.0310
 4479SOL    HW124899   3.777   0.763  10.798 -0.5824  0.2396  1.3363
 4479SOL    HW224900   3.869   0.891  10.800 -0.8405 -0.2791 -0.6953
 4480SOL     OW24901   2.561   3.119   6.652  0.4063  0.1780 -0.1354
 4480SOL    HW124902   2.657   3.115   6.647  0.4984 -0.6343  2.1918
 4480SOL    HW224903   2.542   3.177   6.725 -0.1228 -2.7418  2.0678
 4481SOL     OW24904   2.616   1.497   8.807 -0.4885 -0.0964 -0.4963
 4481SOL    HW124905   2.688   1.499   8.743 -2.3355 -1.0137 -2.5847
 4481SOL    HW224906   2.623   1.406   8.834 -0.2501 -0.0094 -0.2634
 4482SOL     OW24907   4.154   2.169  15.124 -0.6779  0.0470  0.0790
 4482SOL    HW124908   4.059   2.157  15.133 -0.4854 -2.0119 -0.6592
 4482SOL    HW224909   4.167   2.235  15.192 -0.0118  0.0356 -0.0354
 4483SOL     OW24910   3.679   1.044   4.938 -0.2513 -0.6130 -0.1246
 4483SOL    HW124911   3.592   1.014   4.963 -0.7124  0.4844 -0.4301
 4483SOL    HW224912   3.739   1.036   5.012 -0.8786 -1.8387  0.2594
 4484SOL     OW24913   2.115   1.143  17.232 -0.7186 -0.1441 -0.2438
 4484SOL    HW124914   2.191   1.119  17.179  0.6428 -0.8778  2.0317
 4484SOL    HW224915   2.137   1.234  17.253 -0.2484 -0.3821  0.3101
 4485SOL     OW24916   3.753   0.224  11.472  0.1763  0.0862 -0.3306
 4485SOL    HW124917   3.838   0.247  11.510  0.4022 -0.4089 -0.5389
 4485SOL    HW224918   3.750   0.133  11.503 -0.9202  0.3684  0.3959
 4486SOL     OW24919   2.775   4.296  13.782  0.1046 -0.9304  0.6299
 4486SOL    HW124920   2.799   4.384  13.753  1.5502 -1.0672  1.3964
 4486SOL    HW224921   2.703   4.274  13.723  1.6642 -1.8189 -0.9429
 4487SOL     OW24922   0.085   0.289  16.572  0.2179 -0.3053 -0.2596
 4487SOL    HW124923   0.161   0.347  16.584  0.4887 -1.1868  2.2180
 4487SOL    HW224924   0.119   0.229  16.638  0.2116 -0.3767 -0.3216
 4488SOL     OW24925   0.269   4.669   6.638  0.0553  0.4579 -0.2378
 4488SOL    HW124926   0.308   4.601   6.583  0.7818  1.3947 -0.8664
 4488SOL    HW224927   0.337   0.009   6.660 -1.4544  1.3450  1.9703
 4489SOL     OW24928   2.743   0.360   9.876  0.2782 -0.2703 -0.0816
 4489SOL    HW124929   2.837   0.355   9.856  0.7368  1.9935  1.5698
 4489SOL    HW224930   2.708   0.371   9.788  2.5698 -0.1838 -0.9766
 4490SOL     OW24931   2.978   2.487  13.506 -0.1983 -0.2641 -0.0022
 4490SOL    HW124932   2.984   2.582  13.514 -0.1278 -0.1655 -1.2558
 4490SOL    HW224933   3.019   2.460  13.588  3.4056 -1.6577 -2.2541
 4491SOL     OW24934   0.728   0.295   3.961  0.8646  0.2147 -0.1380
 4491SOL    HW124935   0.658   0.300   4.026  0.8795 -1.2887  0.0075
 4491SOL    HW224936   0.730   0.205   3.928  3.3131 -0.0983  0.8648
 4492SOL     OW24937   3.577   3.589  16.466  0.5240  0.2183  0.1256
 4492SOL    HW124938   3.546   3.516  16.414  2.3076 -1.2731  1.1282
 4492SOL    HW224939   3.654   3.617  16.417  0.5973  0.2170  0.2376
 4493SOL     OW24940   4.232   3.555   0.625  0.0346  0.2157  0.4640
 4493SOL    HW124941   4.218   3.467   0.662 -1.1616  0.6827  1.1193
 4493SOL    HW224942   4.302   3.527   0.567 -0.5006 -0.8180  0.3063
 4494SOL     OW24943   0.523   0.188   3.474  0.2383  0.0640  0.3811
 4494SOL    HW124944   0.458   0.128   3.440  0.3171  2.1159 -3.3854
 4494SOL    HW224945   0.605   0.165   3.430 -0.7412  0.0754 -1.4256
 4495SOL     OW24946   3.228   3.732  12.186  0.3112 -0.6883  0.2531
 4495SOL    HW124947   3.322   3.730  12.199  0.2709  0.3834  0.6271
 4495SOL    HW224948   3.196   3.803  12.241  2.5551 -0.7514  1.6170
 4496SOL     OW24949   1.170   1.549  14.444  0.1572  0.0812 -0.4578
 4496SOL    HW124950   1.125   1.479  14.395 -0.9928  0.9084 -0.5820
 4496SOL    HW224951   1.111   1.624  14.436 -0.3919 -0.1911  1.0244
 4497SOL     OW24952   0.664   0.213   8.503 -0.0045 -0.5543 -0.0276
 4497SOL    HW124953   0.569   0.217   8.491  0.2676 -0.7356 -2.1447
 4497SOL    HW224954   0.691   0.206   8.412  1.2023 -0.7324  0.3412
 4498SOL     OW24955   4.378   1.069   4.401  0.4349 -0.0892  0.0849
 4498SOL    HW124956   4.448   1.075   4.336  0.3594 -1.5072 -0.1104
 4498SOL    HW224957   4.391   1.158   4.436  0.4234  0.0927 -0.3708
 4499SOL     OW24958   0.731   3.080   5.149 -0.0048 -0.0299 -0.4421
 4499SOL    HW124959   0.686   3.109   5.229 -1.0405 -0.7089 -0.7827
 4499SOL    HW224960   0.808   3.043   5.192 -1.3101 -2.2188 -0.0002
 4500SOL     OW24961   0.143   3.306  16.140  0.3152  0.7297  0.8415
 4500SOL    HW124962   0.211   3.251  16.178  1.2496  0.5062 -1.1500
 4500SOL    HW224963   0.111   3.246  16.073  0.4788  0.2060  1.2308
 4501SOL     OW24964   1.917   2.379   3.740  0.1493  0.1033  0.2674
 4501SOL    HW124965   1.862   2.434   3.797 -0.9473 -0.2687 -0.4392
 4501SOL    HW224966   1.895   2.295   3.780 -0.6811 -0.9241 -2.3612
 4502SOL     OW24967   3.552   2.825   7.821 -0.7191 -0.2163 -0.0949
 4502SOL    HW124968   3.499   2.745   7.824 -1.9154  0.4492 -3.0424
 4502SOL    HW224969   3.478   2.882   7.799 -0.3389  0.5711  0.6778
 4503SOL     OW24970   4.498   3.638   2.578  0.5264 -0.1122 -0.1822
 4503SOL    HW124971   4.453   3.565   2.621 -0.9818  1.6363  1.2103
 4503SOL    HW224972   4.432   3.706   2.585  1.5752  0.5158  3.2404
 4504SOL     OW24973   2.848   2.791   1.643  0.3713 -0.2644 -0.1047
 4504SOL    HW124974   2.875   2.718   1.698  0.3079 -0.7617 -0.7408
 4504SOL    HW224975   2.911   2.854   1.678  0.8695 -0.6890 -0.2594
 4505SOL     OW24976   4.625   3.825   6.684  0.0478 -0.3611  0.5782
 4505SOL    HW124977   4.597   3.915   6.697  4.2404  0.5895  2.9036
 4505SOL    HW224978   4.609   3.803   6.592  0.8571 -0.7430  0.5259
 4506SOL     OW24979   2.744   3.661   6.778 -0.4112  0.2968  0.4655
 4506SOL    HW124980   2.681   3.725   6.811 -0.8710  0.3180 -0.4586
 4506SOL    HW224981   2.821   3.718   6.774 -0.2726  0.0724 -0.0203
 4507SOL     OW24982   4.641   3.651   5.249 -0.6586  0.8882 -0.1029
 4507SOL    HW124983   4.606   3.725   5.298 -0.3533  0.6199  0.5238
 4507SOL    HW224984   4.612   3.668   5.160  0.7065 -2.2944 -1.1338
 4508SOL     OW24985   2.327   3.932   8.268 -0.3383 -0.0650 -0.3878
 4508SOL    HW124986   2.294   3.844   8.250 -1.2209  0.1315  0.2650
 4508SOL    HW224987   2.266   3.984   8.215 -1.9328  1.2645  2.7488
 4509SOL     OW24988   2.214   1.469   4.257  0.1942  0.4578  0.0563
 4509SOL    HW124989   2.307   1.451   4.273  0.1693 -0.1469 -0.4802
 4509SOL    HW224990   2.175   1.384   4.237  0.6151  0.8517 -2.3356
 4510SOL     OW24991   3.132   1.218  17.119 -0.0958  0.1235 -0.3954
 4510SOL    HW124992   3.188   1.277  17.169 -0.8725  0.3148  0.2462
 4510SOL    HW224993   3.060   1.211  17.182 -1.4670  0.2878 -1.9253
 4511SOL     OW24994   4.656   1.384   8.941  0.3812 -0.2401 -0.1570
 4511SOL    HW124995   4.692   1.469   8.966 -0.9929 -0.3667  2.3134
 4511SOL    HW224996   4.571   1.407   8.904  0.5120  0.8037  0.1817
 4512SOL     OW24997   4.622   0.620  10.999 -0.3173 -0.1832 -0.0086
 4512SOL    HW124998   4.580   0.673  10.931 -1.4396  1.1815  1.7532
 4512SOL    HW224999   4.651   0.548  10.943 -1.6292 -0.1914 -0.6743
 4513SOL     OW25000   4.135   3.485  15.615 -0.7285 -0.0559 -0.0595
 4513SOL    HW125001   4.200   3.546  15.580 -2.6269  0.8086 -2.0666
 4513SOL    HW225002   4.098   3.457  15.531 -1.4342 -2.7588  1.1426
 4514SOL     OW25003   0.573   3.649   9.055 -0.0406 -0.0943  0.2328
 4514SOL    HW125004   0.625   3.727   9.035  0.6672 -0.5034  0.4547
 4514SOL    HW225005   0.483   3.664   9.026  0.0730  1.9086  0.9219
 4515SOL     OW25006   4.527   4.247   7.195  0.0355 -0.5230  0.2032
 4515SOL    HW125007   4.494   4.170   7.241 -1.2164  0.7816  1.5040
 4515SOL    HW225008   4.605   4.270   7.245  0.0060  0.4143 -0.1742
 4516SOL     OW25009   4.047   4.717  15.275  1.0036  0.8387  0.7572
 4516SOL    HW125010   4.060   4.652  15.345  0.7522 -0.7721 -0.6968
 4516SOL    HW225011   4.010   4.660  15.208  1.8371 -0.7395  1.6231
 4517SOL     OW25012   4.203   4.459   5.239 -0.2871  0.1833  0.1155
 4517SOL    HW125013   4.172   4.540   5.280  0.2752 -0.3971  1.6813
 4517SOL    HW225014   4.154   4.467   5.157 -0.8424  2.5204  0.6689
 4518SOL     OW25015   2.648   1.570   5.785  0.4712  0.3156 -0.0561
 4518SOL    HW125016   2.630   1.593   5.694  1.2692  2.0783  0.2318
 4518SOL    HW225017   2.718   1.633   5.803  0.7289 -0.2707  0.9965
 4519SOL     OW25018   4.213   2.523   3.949  0.0685 -0.5790  0.0873
 4519SOL    HW125019   4.304   2.512   3.977  0.1180 -0.6659 -0.1025
 4519SOL    HW225020   4.190   2.431   3.954 -1.7406 -0.2000 -1.1609
 4520SOL     OW25021   1.046   2.269   8.246  0.3356  0.6901 -0.1180
 4520SOL    HW125022   1.073   2.338   8.185  3.4268  0.0620  0.5416
 4520SOL    HW225023   0.963   2.306   8.277 -0.2523  0.4859 -1.4527
 4521SOL     OW25024   2.581   4.228  16.376  0.4583  0.0306  0.6030
 4521SOL    HW125025   2.501   4.176  16.376 -1.4306  2.9912 -2.6532
 4521SOL    HW225026   2.584   4.267  16.464  1.1155 -0.7630  0.9349
 4522SOL     OW25027   1.076   0.874  15.916  0.3865  1.0493  0.2169
 4522SOL    HW125028   1.071   0.892  15.822 -2.3489 -0.6106  0.0550
 4522SOL    HW225029   1.166   0.899  15.937 -0.6925  1.5363  4.1248
 4523SOL     OW25030   3.631   3.760  11.972  0.4248  0.5579  0.3020
 4523SOL    HW125031   3.688   3.803  11.908  1.9139 -2.0194 -0.0923
 4523SOL    HW225032   3.555   3.757  11.914  0.3869 -0.5220  0.4061
 4524SOL     OW25033   3.411   3.279  12.047  0.2560 -0.6332 -0.5734
 4524SOL    HW125034   3.378   3.350  11.992 -1.0811 -0.9804 -0.2163
 4524SOL    HW225035   3.403   3.323  12.132 -3.7732  0.3172 -1.4703
 4525SOL     OW25036   3.658   3.890   1.227 -0.0863  0.7095 -0.0001
 4525SOL    HW125037   3.684   3.889   1.135 -0.7568  3.0852 -0.2068
 4525SOL    HW225038   3.563   3.894   1.214 -0.1962  2.0835  1.2326
 4526SOL     OW25039   4.177   2.965  13.889 -0.5709 -0.4994  0.1517
 4526SOL    HW125040   4.091   2.925  13.875 -2.3359  3.0449  1.0195
 4526SOL    HW225041   4.155   3.052  13.855 -4.2768 -0.8299  1.7287
 4527SOL     OW25042   1.230   3.695  14.716 -0.0207  0.6819  0.8344
 4527SOL    HW125043   1.224   3.655  14.629  1.1595  0.0637  1.0388
 4527SOL    HW225044   1.203   3.785  14.699 -0.8117  0.2153 -0.3517
 4528SOL     OW25045   0.667   3.112   6.289 -0.5594 -0.1989  0.3195
 4528SOL    HW125046   0.753   3.075   6.269 -0.3814  1.1996 -1.5840
 4528SOL    HW225047   0.683   3.144   6.378 -0.5866 -1.4975  0.7938
 4529SOL     OW25048   1.996   4.324   5.954 -0.3859 -0.2183  0.2122
 4529SOL    HW125049   1.953   4.260   5.897 -1.5534 -0.4674  1.3949
 4529SOL    HW225050   2.046   4.382   5.896  0.8095 -3.1847 -1.7367
 4530SOL     OW25051   4.426   2.655   9.349  0.3370 -0.2350 -0.4641
 4530SOL    HW125052   4.393   2.578   9.396 -0.2501  0.2375 -0.0899
 4530SOL    HW225053   4.373   2.730   9.376 -2.4946 -1.9918 -1.1373
 4531SOL     OW25054   1.275   1.838  17.507  0.5571 -0.6333 -0.4120
 4531SOL    HW125055   1.179   1.840  17.511  0.6718  2.7734  0.7668
 4531SOL    HW225056   1.288   1.748  17.476  1.5950 -0.0142 -1.7397
 4532SOL     OW25057   3.197   0.034   8.197  0.2859  0.0382 -0.1026
 4532SOL    HW125058   3.230   0.068   8.114  1.6453  0.7189  0.7239
 4532SOL    HW225059   3.262   4.689   8.215  0.4881  0.3505  0.3273
 4533SOL     OW25060   4.003   4.434  12.848  0.1442 -0.0099 -0.1043
 4533SOL    HW125061   3.983   4.502  12.912 -2.0103 -0.5644 -0.1799
 4533SOL    HW225062   4.095   4.441  12.823  0.0427  2.1092  0.1106
 4534SOL     OW25063   3.333   0.155   8.026 -0.3338 -0.2796 -0.3524
 4534SOL    HW125064   3.419   0.198   8.020 -0.4048 -0.4974 -3.1257
 4534SOL    HW225065   3.328   0.133   7.933 -0.9758  2.7150 -1.0419
 4535SOL     OW25066   0.452   1.714   8.944  0.1207 -0.0860  0.2500
 4535SOL    HW125067   0.525   1.769   8.915  0.0947  0.8401  2.0014
 4535SOL    HW225068   0.495   1.629   8.953 -0.8473 -0.4307  1.6387
 4536SOL     OW25069   2.795   2.821  12.798  0.1411 -0.4770 -0.1861
 4536SOL    HW125070   2.860   2.753  12.785 -1.1741 -1.7980  0.2038
 4536SOL    HW225071   2.826   2.849  12.884  0.7437  1.4928 -1.0266
 4537SOL     OW25072   3.679   3.647  16.068  0.6600  0.0362 -0.8625
 4537SOL    HW125073   3.762   3.694  16.058  0.0528  1.3412  0.2430
 4537SOL    HW225074   3.668   3.634  16.162  0.4964  2.6161 -0.5406
 4538SOL     OW25075   4.362   0.141   1.041  0.6557 -0.0308 -0.1357
 4538SOL    HW125076   4.309   0.168   0.966 -0.9078 -0.2988  0.8881
 4538SOL    HW225077   4.442   0.194   1.033  0.4546  0.2800 -0.1069
 4539SOL     OW25078   0.876   2.543   7.199  0.0523 -0.3287 -0.4804
 4539SOL    HW125079   0.844   2.505   7.281 -0.6478  4.8654  1.6954
 4539SOL    HW225080   0.963   2.576   7.225  1.2017 -1.7651 -2.5585
 4540SOL     OW25081   1.453   2.877   8.713  0.4250  0.1251  0.3056
 4540SOL    HW125082   1.493   2.805   8.761  2.0253  0.5203 -0.4420
 4540SOL    HW225083   1.369   2.845   8.681 -0.3878  1.8909  0.6598
 4541SOL     OW25084   4.495   4.291   0.439  0.2070 -0.0296  0.5799
 4541SOL    HW125085   4.562   4.299   0.370 -0.2754  0.1018  0.1243
 4541SOL    HW225086   4.560   4.272   0.507  0.2699  1.8500  1.0398
 4542SOL     OW25087   0.525   2.196   4.268 -0.2853 -0.1583  0.4365
 4542SOL    HW125088   0.474   2.275   4.250  0.3402  0.4681  1.3710
 4542SOL    HW225089   0.590   2.203   4.198 -0.3691 -2.8842  0.0935
 4543SOL     OW25090   4.130   2.591   1.395 -0.3210 -0.1640 -0.4269
 4543SOL    HW125091   4.082   2.509   1.403 -1.7866  1.0275  2.8898
 4543SOL    HW225092   4.205   2.581   1.453  0.7513  1.0648 -1.6005
 4544SOL     OW25093   2.001   2.789   4.246 -0.8128  0.2822  0.5496
 4544SOL    HW125094   2.005   2.824   4.157 -0.2363 -1.7502 -0.2287
 4544SOL    HW225095   2.048   2.707   4.233  0.1242  1.3433 -2.8053
 4545SOL     OW25096   4.292   0.264   0.808  0.0200 -0.1170 -0.2013
 4545SOL    HW125097   4.362   0.300   0.753  1.4991 -0.4524  1.4503
 4545SOL    HW225098   4.290   0.177   0.769  2.0244  0.2130 -1.0562
 4546SOL     OW25099   0.929   2.391   8.582  0.1973 -0.1230 -0.3590
 4546SOL    HW125100   0.852   2.396   8.525 -1.3432 -1.3974  1.6188
 4546SOL    HW225101   0.914   2.317   8.641 -0.3577  0.5753  0.3740
 4547SOL     OW25102   0.174   3.401   5.648  0.1719 -0.1588 -0.1538
 4547SOL    HW125103   0.112   3.468   5.676 -1.1187 -0.8436 -1.3975
 4547SOL    HW225104   0.232   3.455   5.595 -2.0126  1.9435 -0.4005
 4548SOL     OW25105   4.379   3.226  15.348 -0.2756 -0.7044  0.0572
 4548SOL    HW125106   4.296   3.272  15.360  0.0825 -0.1729  0.4841
 4548SOL    HW225107   4.400   3.210  15.440  2.3557  0.4482 -0.3592
 4549SOL     OW25108   2.799   4.187   6.491 -0.3764  0.3065  0.3296
 4549SOL    HW125109   2.715   4.230   6.475 -0.6173 -0.3424 -0.1610
 4549SOL    HW225110   2.848   4.265   6.519 -0.7117  0.7722 -0.3837
 4550SOL     OW25111   1.717   3.949   4.008 -0.1519 -0.0349  0.3688
 4550SOL    HW125112   1.742   3.899   3.931 -1.7623  0.3979 -0.4373
 4550SOL    HW225113   1.629   3.912   4.015 -0.3585  0.7465  1.9236
 4551SOL     OW25114   0.149   1.447   6.498 -0.3578  0.0814 -0.1967
 4551SOL    HW125115   0.149   1.541   6.480  1.8189 -0.1928 -1.5879
 4551SOL    HW225116   0.143   1.407   6.411  1.9512  2.4650 -1.4230
 4552SOL     OW25117   4.019   1.177  14.682 -0.5137 -0.0550  0.0163
 4552SOL    HW125118   4.016   1.209  14.592  3.1974  1.9401  0.6003
 4552SOL    HW225119   3.943   1.221  14.721 -1.4523 -1.2360 -0.4492
 4553SOL     OW25120   3.263   1.513   5.356 -0.0928  0.5699 -0.0518
 4553SOL    HW125121   3.331   1.470   5.303  0.3197 -1.5613  2.2007
 4553SOL    HW225122   3.307   1.598   5.362  0.6041  0.2397 -0.5340
 4554SOL     OW25123   1.509   1.906   4.643 -0.2050 -0.5922  0.6472
 4554SOL    HW125124   1.548   1.829   4.602 -1.4419 -0.4154 -0.8388
 4554SOL    HW225125   1.531   1.886   4.734  1.9192  1.4259  0.5776
 4555SOL     OW25126   0.696   4.688  16.159 -0.0025  0.2450  0.1941
 4555SOL    HW125127   0.655   4.644  16.234  0.5975 -3.2981 -1.5648
 4555SOL    HW225128   0.763   0.018  16.203  1.2917 -0.9014 -0.4185
 4556SOL     OW25129   1.011   1.617   8.035  0.9595 -0.8646 -0.0438
 4556SOL    HW125130   1.046   1.528   8.046  1.8556 -0.3136  1.6795
 4556SOL    HW225131   1.009   1.643   8.127 -1.5944  2.8240 -1.1450
 4557SOL     OW25132   0.017   1.659   4.103  0.2786 -0.5562  0.2150
 4557SOL    HW125133   0.011   1.743   4.058 -3.0044 -0.6740  0.4347
 4557SOL    HW225134   0.041   1.681   4.193  0.5877 -1.6176  0.3866
 4558SOL     OW25135   2.293   3.269   0.734 -0.2735  0.3123 -0.7092
 4558SOL    HW125136   2.290   3.328   0.659 -1.9797 -0.0985 -0.9609
 4558SOL    HW225137   2.362   3.205   0.716  0.7533  0.8407  1.3014
 4559SOL     OW25138   0.126   0.448   7.787  0.2931  0.2235 -0.1627
 4559SOL    HW125139   0.207   0.500   7.796  0.4247  0.2261 -1.4560
 4559SOL    HW225140   0.079   0.491   7.859  0.5007  1.9347 -1.0457
 4560SOL     OW25141   3.788   3.707  16.329  0.2399 -0.2145  0.2580
 4560SOL    HW125142   3.846   3.734  16.257 -1.6643 -0.5975 -1.4318
 4560SOL    HW225143   3.831   3.764  16.392  0.2234  2.3065 -2.0420
 4561SOL     OW25144   1.675   4.135  17.412 -0.3866 -0.3591  0.3675
 4561SOL    HW125145   1.624   4.135  17.493 -2.0904 -1.0963 -0.6989
 4561SOL    HW225146   1.698   4.042  17.417  1.7685  0.2692  2.4317
 4562SOL     OW25147   2.766   0.574  12.610 -0.4277 -0.3169 -0.0280
 4562SOL    HW125148   2.807   0.610  12.531  1.7762 -2.3354  0.1968
 4562SOL    HW225149   2.678   0.594  12.576 -0.3958 -0.2806 -0.0897
 4563SOL     OW25150   4.232   4.561   1.947 -0.2600 -0.1014  0.3546
 4563SOL    HW125151   4.167   4.612   1.899 -0.9464 -0.9152  0.4133
 4563SOL    HW225152   4.277   4.540   1.865  2.4434 -1.5123  2.2040
 4564SOL     OW25153   4.718   3.621   5.674  0.1202 -0.0015 -0.5042
 4564SOL    HW125154   0.049   3.662   5.606  1.1586 -0.8753 -0.2122
 4564SOL    HW225155   4.691   3.701   5.719 -0.3176 -1.8133  2.4203
 4565SOL     OW25156   4.411   1.082  14.519  0.1020  0.2168 -0.0566
 4565SOL    HW125157   4.323   1.086  14.482 -0.4044 -2.1464  0.9173
 4565SOL    HW225158   4.418   0.991  14.547 -0.1523 -0.1448 -1.1536
 4566SOL     OW25159   2.108   1.616  17.634  0.1596  0.1702 -0.8392
 4566SOL    HW125160   2.126   1.522  17.628  0.9838  0.2389  0.6620
 4566SOL    HW225161   2.076   1.633  17.545  2.2475  0.9317 -1.4565
 4567SOL     OW25162   1.198   2.566  10.154 -0.4679 -0.3463  0.0119
 4567SOL    HW125163   1.146   2.486  10.156 -1.1159  0.1780  3.7471
 4567SOL    HW225164   1.163   2.610  10.232 -0.2747 -1.1851  0.5659
 4568SOL     OW25165   0.282   0.928  10.782  0.5119 -0.1897 -0.6135
 4568SOL    HW125166   0.292   0.905  10.874 -0.2327  3.0308  0.2833
 4568SOL    HW225167   0.361   0.888  10.745 -0.5095 -1.4165 -1.4744
 4569SOL     OW25168   1.999   0.710   3.247 -0.0244  0.4561 -0.3338
 4569SOL    HW125169   2.012   0.616   3.260 -1.1947  0.0440 -2.1396
 4569SOL    HW225170   2.041   0.729   3.163 -0.6379 -2.1667 -1.2249
 4570SOL     OW25171   0.729   4.141  11.904  0.5951 -0.2322  0.2577
 4570SOL    HW125172   0.803   4.160  11.846  1.4996 -0.4014  1.3558
 4570SOL    HW225173   0.718   4.220  11.957 -0.3318 -0.1333 -0.0877
 4571SOL     OW25174   0.904   3.613   8.148 -0.2043  0.1234 -0.3128
 4571SOL    HW125175   0.892   3.673   8.073 -1.5829 -1.2137 -1.1501
 4571SOL    HW225176   0.840   3.646   8.211 -0.1739 -0.0315 -0.2036
 4572SOL     OW25177   2.636   0.332   2.204 -0.1739 -0.3479  0.9084
 4572SOL    HW125178   2.697   0.261   2.224 -0.1804 -0.7957 -0.6852
 4572SOL    HW225179   2.554   0.294   2.235 -0.5390  1.5166  2.2223
 4573SOL     OW25180   1.246   4.361   9.273  0.5670 -0.0241 -0.2627
 4573SOL    HW125181   1.193   4.414   9.332  0.9041  1.7282 -1.5339
 4573SOL    HW225182   1.242   4.428   9.204 -0.3843 -1.1222 -1.2769
 4574SOL     OW25183   0.233   4.573   2.753  0.5145 -0.4379  0.5807
 4574SOL    HW125184   0.139   4.576   2.765  0.4067 -0.3241 -0.2637
 4574SOL    HW225185   0.254   4.507   2.819  1.3654 -0.0328  0.7155
 4575SOL     OW25186   3.980   3.968   4.554  0.1717  0.2195  0.2140
 4575SOL    HW125187   3.894   3.969   4.595 -0.1673 -1.2566 -0.4755
 4575SOL    HW225188   4.029   4.031   4.607  0.5012  0.0439  0.1210
 4576SOL     OW25189   2.857   3.471   7.143  0.5060  0.5984 -0.3393
 4576SOL    HW125190   2.781   3.448   7.089  0.4825 -1.0826  0.4097
 4576SOL    HW225191   2.831   3.559   7.171 -1.6671 -0.6214  1.4983
 4577SOL     OW25192   0.191   1.528   4.587  0.2486  0.4916  0.3012
 4577SOL    HW125193   0.188   1.474   4.508 -1.6938 -1.3595  1.6425
 4577SOL    HW225194   0.096   1.533   4.597 -0.0083 -0.7626 -1.3757
 4578SOL     OW25195   3.201   0.411   6.573  0.5513 -0.0605  0.6144
 4578SOL    HW125196   3.280   0.449   6.535  0.5950 -0.7114  0.0551
 4578SOL    HW225197   3.150   0.485   6.608  0.6027  0.5382 -0.5878
 4579SOL     OW25198   4.690   4.581   2.840 -0.5270  0.5192 -0.2180
 4579SOL    HW125199   4.610   4.556   2.885 -1.8149  0.8557 -2.3036
 4579SOL    HW225200   4.650   4.622   2.763 -1.2624  0.3556  0.0844
 4580SOL     OW25201   3.260   4.716  11.976  0.5820 -0.0336  0.8506
 4580SOL    HW125202   3.279   4.645  12.037 -0.5020 -1.5008 -0.5355
 4580SOL    HW225203   3.327   0.058  11.996  1.0674 -0.0516 -0.7361
 4581SOL     OW25204   0.270   3.975   8.644  0.2471 -0.1198  0.5044
 4581SOL    HW125205   0.290   3.941   8.731 -2.5099  0.5483  1.4075
 4581SOL    HW225206   0.324   4.053   8.639 -0.0886  0.1822  1.5708
 4582SOL     OW25207   1.159   1.270  16.791 -0.3967 -0.2676  0.6995
 4582SOL    HW125208   1.078   1.237  16.829  0.2096 -0.6708  1.6523
 4582SOL    HW225209   1.194   1.202  16.734 -1.6554  0.2396 -0.6753
 4583SOL     OW25210   0.007   2.963  13.230 -0.0561 -0.7796 -0.2301
 4583SOL    HW125211   0.097   2.943  13.254 -0.4100 -0.8871  0.9993
 4583SOL    HW225212   4.720   2.911  13.150  0.4181 -1.2636  0.0292
 4584SOL     OW25213   0.209   1.803  15.987  0.3510  0.3444  0.4837
 4584SOL    HW125214   0.258   1.875  16.027 -0.9017  0.6454  1.4988
 4584SOL    HW225215   0.139   1.860  15.954 -0.2466 -0.4480  0.3976
 4585SOL     OW25216   2.175   4.546   2.875  0.5595  0.0999 -0.4026
 4585SOL    HW125217   2.159   4.487   2.948 -0.6784 -0.6224 -1.2525
 4585SOL    HW225218   2.099   4.534   2.818  0.4225 -0.5425 -0.0865
 4586SOL     OW25219   2.411   3.615   0.540 -0.2761 -0.6035 -0.3096
 4586SOL    HW125220   2.367   3.537   0.507 -1.1360 -0.7713  1.2233
 4586SOL    HW225221   2.490   3.580   0.581  0.3083 -0.8280 -1.6271
 4587SOL     OW25222   1.334   3.482   5.377 -0.0296  0.7992 -0.5518
 4587SOL    HW125223   1.368   3.462   5.464 -0.6519  0.8398 -0.2993
 4587SOL    HW225224   1.281   3.560   5.391 -0.2019  0.9722 -2.2039
 4588SOL     OW25225   0.704   1.569   2.050  0.3241 -0.3737 -0.2219
 4588SOL    HW125226   0.693   1.557   1.956  0.9020  2.4850 -0.6827
 4588SOL    HW225227   0.635   1.518   2.090  0.8876 -0.6002  0.4650
 4589SOL     OW25228   4.318   3.895   5.837 -0.0763 -0.2112 -0.2632
 4589SOL    HW125229   4.252   3.831   5.863 -1.0049  0.8830  0.0396
 4589SOL    HW225230   4.296   3.973   5.887 -0.6539  0.2743 -1.2891
 4590SOL     OW25231   1.804   0.352   4.810 -0.0477 -0.4966  0.2660
 4590SOL    HW125232   1.851   0.395   4.882 -1.5302  0.3193  0.7456
 4590SOL    HW225233   1.863   0.373   4.738 -0.9130  1.3750  0.1037
 4591SOL     OW25234   3.961   3.552   2.021 -0.2235 -0.3037  0.1020
 4591SOL    HW125235   3.992   3.633   1.980  0.5042 -0.6662 -0.0511
 4591SOL    HW225236   3.910   3.528   1.944 -1.1518 -0.5042  0.7818
 4592SOL     OW25237   1.767   2.388   2.405 -0.0271  0.3806  0.2992
 4592SOL    HW125238   1.813   2.376   2.488  0.3322  2.1847  0.3564
 4592SOL    HW225239   1.684   2.343   2.417 -1.4178  2.5169 -1.4081
 4593SOL     OW25240   0.481   1.309   6.361 -0.5575 -0.1205  0.3122
 4593SOL    HW125241   0.461   1.226   6.318 -1.4872  0.7898 -1.0242
 4593SOL    HW225242   0.555   1.330   6.304 -0.4673  1.9278  1.1924
 4594SOL     OW25243   2.084   4.101   3.865  0.3181 -0.5548  0.3866
 4594SOL    HW125244   2.159   4.081   3.809  0.5301  1.1737  0.0640
 4594SOL    HW225245   2.106   4.193   3.877  1.8791 -1.1263  2.1441
 4595SOL     OW25246   3.425   4.392   4.087 -0.3363  0.9493 -0.2007
 4595SOL    HW125247   3.470   4.476   4.080 -1.2226  1.6253  2.3849
 4595SOL    HW225248   3.495   4.327   4.083 -0.7682  0.5418 -1.1443
 4596SOL     OW25249   4.172   0.857  15.606  0.2868  0.5617 -0.2154
 4596SOL    HW125250   4.105   0.788  15.612  0.2351  0.5593 -0.7901
 4596SOL    HW225251   4.143   0.905  15.528 -0.2316  2.1609  0.9534
 4597SOL     OW25252   3.849   4.683  16.067  0.1606 -0.0798  0.5983
 4597SOL    HW125253   3.840   0.009  15.986 -0.2788 -2.0050 -0.5108
 4597SOL    HW225254   3.773   4.711  16.118 -0.6536  1.9741 -1.7783
 4598SOL     OW25255   0.966   4.186   2.229  0.3628 -0.3174  0.1023
 4598SOL    HW125256   1.002   4.275   2.234 -0.4334 -0.0215  0.5488
 4598SOL    HW225257   0.872   4.202   2.238  0.2878 -0.5080 -0.3401
 4599SOL     OW25258   0.804   2.404   2.058 -0.2919  0.0792 -0.4375
 4599SOL    HW125259   0.747   2.420   1.983 -0.4942 -2.4832 -0.8298
 4599SOL    HW225260   0.818   2.490   2.097  0.9942  0.2642 -1.3002
 4600SOL     OW25261   3.422   4.098   3.095  0.0690 -0.6055  0.0634
 4600SOL    HW125262   3.405   4.044   3.018 -0.9649 -2.6063  1.6956
 4600SOL    HW225263   3.461   4.042   3.162  0.6307  0.2747  0.4773
 4601SOL     OW25264   2.804   0.175   6.820  0.2657 -0.2335 -0.5300
 4601SOL    HW125265   2.748   0.236   6.868  1.0774  2.0917 -2.5552
 4601SOL    HW225266   2.799   0.105   6.886 -1.6642 -1.7613 -2.2618
 4602SOL     OW25267   2.406   0.783  17.577  0.4839 -0.3372 -0.1593
 4602SOL    HW125268   2.316   0.800  17.605  0.7851  0.9039  0.0597
 4602SOL    HW225269   2.392   0.713  17.514  1.1917 -0.5363 -0.0984
 4603SOL     OW25270   1.285   0.200  15.688 -0.1147 -0.5666 -0.3660
 4603SOL    HW125271   1.318   0.118  15.724  1.4528 -0.0758 -0.7122
 4603SOL    HW225272   1.356   0.261  15.707 -0.6398 -0.3001  0.7324
 4604SOL     OW25273   1.733   1.430   5.053 -0.0701 -0.5244  0.0300
 4604SOL    HW125274   1.764   1.462   5.138 -0.8760  1.3250 -0.3887
 4604SOL    HW225275   1.675   1.358   5.080 -2.4445  1.6752  0.7990
 4605SOL     OW25276   3.238   2.385   0.553 -0.0544  0.0390  0.1920
 4605SOL    HW125277   3.188   2.370   0.634 -1.2116 -3.0648 -1.1069
 4605SOL    HW225278   3.220   2.476   0.531  0.0598 -0.1726 -0.7700
 4606SOL     OW25279   2.292   1.099   5.718 -0.0058  0.1356 -0.1647
 4606SOL    HW125280   2.350   1.043   5.770  1.8673  1.3753 -0.9300
 4606SOL    HW225281   2.354   1.169   5.699  0.2063  0.5302  2.0249
 4607SOL     OW25282   1.720   2.505  15.086 -0.5547 -0.1537  0.3992
 4607SOL    HW125283   1.791   2.539  15.141  0.4537  1.4588 -1.8768
 4607SOL    HW225284   1.662   2.467  15.152  0.5131 -0.1467  1.3412
 4608SOL     OW25285   3.101   4.575   5.575 -0.2961  0.0029 -0.3296
 4608SOL    HW125286   3.154   4.608   5.503  2.2096 -1.3839  0.8630
 4608SOL    HW225287   3.067   4.652   5.621  2.9278  1.5823 -0.5574
 4609SOL     OW25288   2.162   3.443   4.347  0.2694 -0.0505  0.3747
 4609SOL    HW125289   2.169   3.454   4.252  0.5859  0.8566  0.5033
 4609SOL    HW225290   2.103   3.515   4.370 -0.9065 -0.5798 -0.9931
 4610SOL     OW25291   2.885   1.550  16.271 -0.2019 -0.5194  0.1616
 4610SOL    HW125292   2.880   1.490  16.196  1.5107  0.2051 -0.5174
 4610SOL    HW225293   2.906   1.634  16.229 -0.1101 -1.7875 -2.3614
 4611SOL     OW25294   3.606   4.216   8.063 -0.0687 -0.0713 -0.0587
 4611SOL    HW125295   3.595   4.140   8.121  1.0145  0.0894  0.3473
 4611SOL    HW225296   3.696   4.241   8.084 -0.4498 -0.3686  1.8999
 4612SOL     OW25297   0.771   1.935  11.292 -0.0678 -0.3149  0.3149
 4612SOL    HW125298   0.767   1.922  11.386  0.8485  0.8120  0.5086
 4612SOL    HW225299   0.848   1.989  11.277 -0.8240  0.3527 -1.1563
 4613SOL     OW25300   4.700   0.887   0.160 -0.4080 -0.0878 -0.1579
 4613SOL    HW125301   0.071   0.873   0.142 -0.0153  2.2721  0.0524
 4613SOL    HW225302   4.660   0.808   0.123 -0.3083 -0.0682 -0.3108
 4614SOL     OW25303   2.043   2.228   7.927  0.4408 -0.2015  0.6020
 4614SOL    HW125304   2.137   2.213   7.916 -0.0727 -2.0284 -1.1768
 4614SOL    HW225305   2.044   2.319   7.956 -1.1223  0.6059 -1.8913
 4615SOL     OW25306   2.643   3.544   2.466  0.2639 -0.3193 -0.0326
 4615SOL    HW125307   2.662   3.518   2.557 -0.2021  1.0077  0.4438
 4615SOL    HW225308   2.732   3.577   2.453  0.3668  0.6770  3.0804
 4616SOL     OW25309   2.580   0.773   5.642 -0.4851  0.0199  0.2717
 4616SOL    HW125310   2.531   0.713   5.699 -2.6578  1.8028  0.2527
 4616SOL    HW225311   2.614   0.706   5.583  2.8968  0.3988  1.7616
 4617SOL     OW25312   0.909   1.238  11.808 -0.4024  0.0564 -0.2115
 4617SOL    HW125313   0.883   1.202  11.893  0.6659 -2.3900 -0.9375
 4617SOL    HW225314   0.993   1.278  11.831 -0.4410 -0.8072  1.4684
 4618SOL     OW25315   1.393   1.123   0.668  0.9011  0.1664  0.2215
 4618SOL    HW125316   1.488   1.125   0.661  0.8923  0.8526  0.3366
 4618SOL    HW225317   1.391   1.100   0.760 -0.5103 -3.4612 -0.7049
 4619SOL     OW25318   1.225   0.409   2.130  0.4672  0.1380  0.4527
 4619SOL    HW125319   1.172   0.343   2.174  0.3183 -0.8586 -1.2423
 4619SOL    HW225320   1.306   0.387   2.175  0.3789  1.1947  1.1339
 4620SOL     OW25321   3.522   0.550  13.412 -0.0504 -0.5588 -0.0605
 4620SOL    HW125322   3.531   0.481  13.477  2.7660 -0.8405 -0.7799
 4620SOL    HW225323   3.566   0.616  13.465 -0.2286  0.8604 -1.6882
 4621SOL     OW25324   3.461   2.921  16.545 -0.5651 -0.4064  0.1558
 4621SOL    HW125325   3.519   2.955  16.477  0.0043  0.5535  1.1287
 4621SOL    HW225326   3.499   2.839  16.578 -1.2057 -0.2539  1.2699
 4622SOL     OW25327   3.831   2.552   5.891  0.1836  0.3998  0.3631
 4622SOL    HW125328   3.811   2.600   5.971  1.4014  2.6733 -0.6860
 4622SOL    HW225329   3.854   2.614   5.823  1.5585 -0.2837  0.2003
 4623SOL     OW25330   1.798   1.414   8.148  0.5110  0.3308  0.3423
 4623SOL    HW125331   1.883   1.382   8.180  0.5341 -0.7004 -0.7680
 4623SOL    HW225332   1.758   1.450   8.228  0.4585  2.1006 -0.4810
 4624SOL     OW25333   1.905   4.089   4.633  0.2614 -0.2315 -0.2097
 4624SOL    HW125334   1.879   4.159   4.573 -1.3440  1.2415  2.2007
 4624SOL    HW225335   1.997   4.113   4.640 -0.1676  1.5057 -0.4124
 4625SOL     OW25336   3.460   0.675   6.003  0.4486 -0.5600 -0.0778
 4625SOL    HW125337   3.398   0.680   6.076 -0.8252 -2.4728 -1.0310
 4625SOL    HW225338   3.534   0.730   6.029 -1.1844  0.0637  3.2656
 4626SOL     OW25339   2.771   4.238   5.621 -0.1976  0.1366  0.2327
 4626SOL    HW125340   2.830   4.256   5.548 -1.6362 -3.0536 -1.7233
 4626SOL    HW225341   2.800   4.307   5.680  0.2638 -1.0155  1.3384
 4627SOL     OW25342   4.101   1.462   5.352  0.1048  0.2283 -0.2246
 4627SOL    HW125343   4.193   1.454   5.326 -0.1474 -4.8884  0.3718
 4627SOL    HW225344   4.050   1.439   5.275 -0.0964 -2.0751  0.6046
 4628SOL     OW25345   0.076   2.122   9.987  0.9385  0.2863  0.2980
 4628SOL    HW125346   0.139   2.194   9.993 -1.2877  2.1270  1.5637
 4628SOL    HW225347   4.720   2.172   9.965  1.9114  1.0322 -1.5345
 4629SOL     OW25348   1.129   0.972   7.130 -0.4439  0.3160  0.2129
 4629SOL    HW125349   1.040   0.975   7.167 -0.5115  1.2602 -0.0314
 4629SOL    HW225350   1.125   0.953   7.036 -0.4471 -0.1038  0.2991
 4630SOL     OW25351   0.638   2.605  11.945  0.4498  0.0976  0.3862
 4630SOL    HW125352   0.588   2.686  11.955  0.1248 -0.1699  0.9173
 4630SOL    HW225353   0.704   2.644  11.888  0.0461 -0.2125 -0.2944
 4631SOL     OW25354   4.608   0.856   3.313 -0.2658  0.1007  0.0513
 4631SOL    HW125355   4.658   0.779   3.338 -0.1669  0.1797  0.0969
 4631SOL    HW225356   4.648   0.876   3.229  0.6968 -0.0686  0.4687
 4632SOL     OW25357   1.582   3.782   4.570  0.4296 -0.1867  0.6244
 4632SOL    HW125358   1.576   3.846   4.641 -1.7105 -0.3759  0.6290
 4632SOL    HW225359   1.665   3.814   4.535 -1.4784  0.1792 -3.5906
 4633SOL     OW25360   3.359   4.317   3.246  0.3429  0.1373 -0.7094
 4633SOL    HW125361   3.352   4.244   3.184 -1.1998  0.8672 -1.3872
 4633SOL    HW225362   3.275   4.302   3.289  0.3277  0.6056 -0.5803
 4634SOL     OW25363   4.287   0.061   6.162  0.0959  0.3684  0.5496
 4634SOL    HW125364   4.302   0.138   6.106  2.8409 -0.3860  0.2119
 4634SOL    HW225365   4.326   0.091   6.244  1.6929  2.7607 -1.0444
 4635SOL     OW25366   0.481   1.192  16.634  0.0782  0.1963  0.3237
 4635SOL    HW125367   0.574   1.191  16.657  0.1118  1.6401  0.2565
 4635SOL    HW225368   0.486   1.220  16.542  2.7824  0.2143  0.4820
 4636SOL     OW25369   3.708   1.915  10.572  0.4821 -0.1492 -0.0602
 4636SOL    HW125370   3.794   1.922  10.613  0.4223  1.5136 -0.2141
 4636SOL    HW225371   3.692   1.825  10.602  1.5495 -0.0223  0.8856
 4637SOL     OW25372   3.473   3.442   6.326 -0.5486  0.2641 -0.0668
 4637SOL    HW125373   3.497   3.520   6.378 -1.9652  1.1422 -0.7216
 4637SOL    HW225374   3.526   3.464   6.249 -0.1551 -2.1717 -0.4792
 4638SOL     OW25375   2.001   4.051   4.949 -0.5495  0.6909 -0.2768
 4638SOL    HW125376   2.084   4.065   4.994 -0.6179  0.2952 -0.0292
 4638SOL    HW225377   1.994   4.122   4.885 -0.6354  1.1556  0.2542
 4639SOL     OW25378   2.491   3.943  16.589 -0.6931  0.0227 -0.1481
 4639SOL    HW125379   2.561   3.955  16.525 -0.6984  0.0155 -0.1552
 4639SOL    HW225380   2.528   3.987  16.666 -0.9974 -0.2725  0.1712
 4640SOL     OW25381   0.170   4.083   5.709 -0.0989  0.4494  0.1002
 4640SOL    HW125382   0.081   4.099   5.676  0.3180 -1.2762 -1.8646
 4640SOL    HW225383   0.207   4.170   5.718  0.5470  0.2951 -1.0688
 4641SOL     OW25384   3.922   4.366  13.739 -0.1027  0.9414 -0.4921
 4641SOL    HW125385   3.931   4.459  13.760  0.6489  0.9873 -1.0453
 4641SOL    HW225386   3.974   4.362  13.659 -3.1372 -0.3590 -2.4317
 4642SOL     OW25387   2.806   1.259   8.643  0.5645 -0.4328  0.0066
 4642SOL    HW125388   2.871   1.230   8.707  0.2919 -0.4205  0.2900
 4642SOL    HW225389   2.745   1.190   8.665  0.3889 -2.0186 -5.6366
 4643SOL     OW25390   1.067   3.603   1.515 -0.5408 -0.1972  0.0201
 4643SOL    HW125391   1.056   3.510   1.534  3.6267 -1.0733 -1.9843
 4643SOL    HW225392   1.057   3.638   1.604  1.4689 -1.7721  0.8488
 4644SOL     OW25393   4.365   4.460   7.388  0.2221  0.3172  0.0491
 4644SOL    HW125394   4.283   4.474   7.340  1.5464  2.1862 -1.6867
 4644SOL    HW225395   4.334   4.426   7.472  0.7138  0.8258  0.4396
 4645SOL     OW25396   2.433   2.349   4.033  0.3017  0.1308  0.0214
 4645SOL    HW125397   2.520   2.325   4.003  0.6287  4.0202 -2.2151
 4645SOL    HW225398   2.442   2.423   4.093  0.9764 -1.0837  1.4015
 4646SOL     OW25399   0.018   2.808   4.382  0.2767  0.0614  0.2429
 4646SOL    HW125400   4.674   2.872   4.357  1.7195  1.6399  0.4633
 4646SOL    HW225401   0.054   2.846   4.462  0.5036 -0.3099  0.3198
 4647SOL     OW25402   3.995   0.790   2.805  0.3000 -0.2623 -0.3706
 4647SOL    HW125403   3.965   0.879   2.824 -1.0513 -0.3663 -1.9488
 4647SOL    HW225404   3.966   0.778   2.714  0.9884  0.1745 -0.6490
 4648SOL     OW25405   0.055   1.345   2.534 -0.2917 -0.4099  0.5410
 4648SOL    HW125406   0.005   1.287   2.477  1.0996 -1.3701  0.2918
 4648SOL    HW225407   4.704   1.399   2.563  0.4416  1.6414 -1.3789
 4649SOL     OW25408   0.875   2.332  13.631 -0.1703  0.0762  0.0728
 4649SOL    HW125409   0.847   2.387  13.557 -3.0550 -2.2464 -0.5730
 4649SOL    HW225410   0.866   2.240  13.607 -3.7503  0.5223 -0.3984
 4650SOL     OW25411   1.445   3.707   6.964 -0.0529  0.1825  0.2187
 4650SOL    HW125412   1.388   3.702   7.040  2.6032 -4.3006  1.9128
 4650SOL    HW225413   1.506   3.778   6.983  0.2826  0.9768 -3.8215
 4651SOL     OW25414   4.689   4.545   4.456 -0.3379 -0.8259  0.0178
 4651SOL    HW125415   4.688   4.484   4.382  0.1552 -0.5458 -0.2228
 4651SOL    HW225416   4.594   4.541   4.463 -0.3500  0.9921  0.6752
 4652SOL     OW25417   2.249   2.492   2.605  0.0467 -0.0378 -0.2757
 4652SOL    HW125418   2.311   2.420   2.591 -0.5116 -0.6006  0.1497
 4652SOL    HW225419   2.230   2.522   2.516 -2.9798 -0.4557  0.2196
 4653SOL     OW25420   3.956   1.484  15.792  0.2240  0.2054 -0.0957
 4653SOL    HW125421   3.929   1.575  15.779 -2.0959 -0.1422  2.2127
 4653SOL    HW225422   4.002   1.464  15.711 -1.8564  2.5492 -1.8527
 4654SOL     OW25423   1.978   2.509  15.167 -0.2559  0.3525  0.0862
 4654SOL    HW125424   1.938   2.545  15.246 -2.8681 -1.5058 -0.3917
 4654SOL    HW225425   2.060   2.476  15.204  0.4625  0.3818 -1.4472
 4655SOL     OW25426   0.172   1.523   7.796 -0.1713 -0.2050  0.2434
 4655SOL    HW125427   0.159   1.537   7.703 -0.4602  0.5454  0.3885
 4655SOL    HW225428   0.102   1.459   7.806 -0.1601 -0.4060 -0.9986
 4656SOL     OW25429   1.823   1.123   5.630 -0.0764 -0.4517 -0.3290
 4656SOL    HW125430   1.782   1.195   5.584 -1.0040  0.0283  1.2585
 4656SOL    HW225431   1.761   1.084   5.691 -0.9591  1.3128 -0.1133
 4657SOL     OW25432   0.719   1.473   6.085 -0.7190  0.3361  0.3744
 4657SOL    HW125433   0.807   1.456   6.119 -1.3172 -0.0283  1.7628
 4657SOL    HW225434   0.664   1.409   6.130  0.9227 -2.0004 -0.9594
 4658SOL     OW25435   2.062   3.590   0.675  0.1568  0.1181 -0.3965
 4658SOL    HW125436   2.024   3.502   0.673  0.8004 -0.1345 -1.7099
 4658SOL    HW225437   2.022   3.627   0.596 -0.0483 -1.6243 -1.1130
 4659SOL     OW25438   3.002   1.799   6.571 -0.1818 -0.1762 -0.3762
 4659SOL    HW125439   2.981   1.881   6.528 -1.3394 -2.0388 -3.4112
 4659SOL    HW225440   3.091   1.787   6.535  0.6243 -1.3754  1.9932
 4660SOL     OW25441   4.200   3.272   7.005  0.1479 -0.2769  0.4240
 4660SOL    HW125442   4.113   3.238   6.987  0.2656 -0.2776 -0.1623
 4660SOL    HW225443   4.248   3.195   6.975  0.4371 -0.2143  0.7226
 4661SOL     OW25444   0.498   2.634  16.510  0.2409 -0.3696 -0.1576
 4661SOL    HW125445   0.411   2.619  16.547 -0.2489  1.0706 -0.7377
 4661SOL    HW225446   0.560   2.618  16.581  0.5437  0.5578 -0.2037
 4662SOL     OW25447   0.122   2.778   7.594  0.2360  0.0649 -0.0262
 4662SOL    HW125448   0.126   2.833   7.515 -0.9254 -0.9190 -0.7750
 4662SOL    HW225449   0.181   2.824   7.654  1.5229 -1.5826 -0.0147
 4663SOL     OW25450   0.782   1.723   5.553  0.4071 -0.0473 -0.1826
 4663SOL    HW125451   0.810   1.789   5.617 -2.3310  1.5308 -0.5966
 4663SOL    HW225452   0.686   1.727   5.548  0.6250  1.9399 -2.5399
 4664SOL     OW25453   0.721   4.477   6.888 -0.4585  0.1457  0.0935
 4664SOL    HW125454   0.630   4.453   6.873 -0.1265 -1.0964  0.0423
 4664SOL    HW225455   0.744   4.420   6.961  1.6045 -0.3092 -0.8867
 4665SOL     OW25456   3.506   2.016   4.454  0.0727  0.2984 -0.0933
 4665SOL    HW125457   3.590   1.975   4.476 -0.7869 -0.7265  1.2568
 4665SOL    HW225458   3.459   1.978   4.527  0.9200  0.1980  0.4055
 4666SOL     OW25459   0.419   0.772   0.007  0.2816  0.0260 -1.1234
 4666SOL    HW125460   0.497   0.751   0.059  0.2217  2.8607  0.1267
 4666SOL    HW225461   0.452   0.764  17.610  1.4264  0.8508 -0.7861
 4667SOL     OW25462   1.621   1.868   4.319 -0.3512 -0.4978  0.2321
 4667SOL    HW125463   1.629   1.819   4.401 -2.8175 -0.6067  0.4085
 4667SOL    HW225464   1.568   1.806   4.268 -1.7564  0.2965  0.7456
 4668SOL     OW25465   2.559   2.385   6.290  0.0309 -0.1011  0.5535
 4668SOL    HW125466   2.562   2.461   6.232  0.1940  0.4762  1.3197
 4668SOL    HW225467   2.474   2.349   6.268  0.3493 -0.1424 -0.5980
 4669SOL     OW25468   4.086   0.710   8.000  0.0746  0.5101 -0.3747
 4669SOL    HW125469   4.166   0.693   7.951  0.4238 -0.5034  0.5261
 4669SOL    HW225470   4.021   0.668   7.943 -0.1950  0.6349 -0.1631
 4670SOL     OW25471   1.320   0.592   5.396  0.3776  0.2887  0.1131
 4670SOL    HW125472   1.273   0.530   5.451  1.2159  0.8863  1.5015
 4670SOL    HW225473   1.348   0.658   5.460 -0.6549  0.9390 -0.1022
 4671SOL     OW25474   2.548   1.840   9.350 -0.1675  0.2194 -0.3008
 4671SOL    HW125475   2.643   1.836   9.337  0.1132  0.6858  1.6744
 4671SOL    HW225476   2.539   1.907   9.417 -0.8806  0.3297 -0.5082
 4672SOL     OW25477   1.884   2.627   8.243 -0.2946  0.0385  0.2137
 4672SOL    HW125478   1.815   2.693   8.251 -0.2135 -0.0323  1.4023
 4672SOL    HW225479   1.836   2.554   8.204 -1.9716  0.9743  0.4923
 4673SOL     OW25480   0.966   0.274   4.733 -0.4918 -0.1870  0.6139
 4673SOL    HW125481   0.903   0.345   4.717  1.8461  2.4102  2.8903
 4673SOL    HW225482   0.920   0.202   4.690 -0.4961  0.7190 -0.9079
 4674SOL     OW25483   0.333   3.148   8.508 -0.3929 -0.2269 -0.3255
 4674SOL    HW125484   0.274   3.138   8.583  0.3576  0.3572  0.3432
 4674SOL    HW225485   0.374   3.228   8.541 -2.1470  0.1923  0.8385
 4675SOL     OW25486   3.550   3.706   7.973 -0.2769  0.1089  0.2694
 4675SOL    HW125487   3.571   3.778   8.032  1.1192 -0.6143  0.6448
 4675SOL    HW225488   3.623   3.706   7.912  0.4559 -1.7691  1.1730
 4676SOL     OW25489   3.606   1.453   6.773 -0.3938  0.1614  0.2196
 4676SOL    HW125490   3.622   1.500   6.854  1.3587 -1.2697  0.7040
 4676SOL    HW225491   3.697   1.429   6.753 -1.1423 -1.9564 -0.7034
 4677SOL     OW25492   2.055   4.039   6.883 -0.1701 -0.3253  0.0878
 4677SOL    HW125493   2.055   4.114   6.943  0.1211  0.8374 -1.3712
 4677SOL    HW225494   1.967   4.041   6.847 -0.9790  1.5110  2.1207
 4678SOL     OW25495   1.470   1.784   2.735 -0.4624 -0.0863 -0.3022
 4678SOL    HW125496   1.560   1.794   2.703 -0.0653 -0.8824  0.5562
 4678SOL    HW225497   1.429   1.865   2.706  0.8702  1.2142  1.4126
 4679SOL     OW25498   3.360   2.631   7.872 -0.5624  0.0827  0.5730
 4679SOL    HW125499   3.282   2.683   7.891 -0.2278  0.9449 -0.4281
 4679SOL    HW225500   3.359   2.575   7.950  0.7939  1.9081  1.9032
 4680SOL     OW25501   4.055   1.847   8.421 -0.1303 -0.2591 -0.9087
 4680SOL    HW125502   4.111   1.923   8.404 -1.0756  0.0427 -2.5901
 4680SOL    HW225503   4.072   1.801   8.339 -0.1121  0.7023 -1.4399
 4681SOL     OW25504   4.244   0.646   7.783 -0.3571 -0.3332 -0.4488
 4681SOL    HW125505   4.326   0.626   7.829  0.0470  0.0332 -1.0049
 4681SOL    HW225506   4.282   0.713   7.725  0.0216  0.9125  1.2419
 4682SOL     OW25507   0.996   4.069   4.164 -0.6149  0.4362  0.4202
 4682SOL    HW125508   1.007   3.978   4.137  0.9022  1.2072 -1.5022
 4682SOL    HW225509   0.933   4.057   4.235  0.3136 -2.6128  0.7496
 4683SOL     OW25510   4.534   2.917   4.156 -0.3527 -0.6553 -0.2205
 4683SOL    HW125511   4.449   2.954   4.130 -0.5418 -0.5498  0.5532
 4683SOL    HW225512   4.508   2.826   4.171  0.7118 -0.7000  1.3024
 4684SOL     OW25513   3.814   3.605   8.707 -0.6699 -0.1167 -0.3160
 4684SOL    HW125514   3.794   3.537   8.772  0.4674 -1.2879 -1.2026
 4684SOL    HW225515   3.837   3.558   8.627  0.2898  0.7916 -0.5772
 4685SOL     OW25516   0.905   0.090   2.486 -0.1087  0.2493 -0.2851
 4685SOL    HW125517   0.866   0.138   2.558  0.5387 -0.2722  0.4140
 4685SOL    HW225518   0.879   0.143   2.411 -0.8068 -1.0591 -0.9760
 4686SOL     OW25519   2.498   2.325   0.808  0.1568  0.0720  0.2078
 4686SOL    HW125520   2.442   2.397   0.836 -1.8510 -0.7155 -1.7608
 4686SOL    HW225521   2.484   2.316   0.714  0.7027  2.2662 -0.0756
 4687SOL     OW25522   1.048   1.915   7.427 -0.7959  0.1073  0.1481
 4687SOL    HW125523   0.988   1.979   7.465  1.1127  1.1449  1.4302
 4687SOL    HW225524   1.128   1.968   7.423 -0.3923 -0.5841 -0.9081
 4688SOL     OW25525   0.511   1.561   6.506  0.3657 -0.1062  0.0005
 4688SOL    HW125526   0.571   1.524   6.571  0.4537 -1.4798 -0.8689
 4688SOL    HW225527   0.477   1.480   6.468  0.5893 -0.4206  0.4788
 4689SOL     OW25528   2.261   3.746  14.952 -0.2371  0.0116  0.3992
 4689SOL    HW125529   2.318   3.791  15.015  0.5520 -0.6113  0.1403
 4689SOL    HW225530   2.174   3.768  14.985  1.0392  4.2426  0.9382
 4690SOL     OW25531   3.119   1.027   5.352 -0.2312 -0.5644  0.6844
 4690SOL    HW125532   3.143   1.012   5.443 -1.6288 -0.9076  1.0050
 4690SOL    HW225533   3.101   1.121   5.363  1.7618 -0.0938 -0.0921
 4691SOL     OW25534   3.244   4.609  12.507 -0.2455 -0.2863  0.8704
 4691SOL    HW125535   3.193   4.568  12.437 -0.7005  0.0043  1.0388
 4691SOL    HW225536   3.264   4.529  12.556  1.6913 -0.2357  0.1710
 4692SOL     OW25537   2.553   3.754  12.158 -0.0988  0.3085 -0.5518
 4692SOL    HW125538   2.592   3.682  12.209  0.6726  0.3359 -1.1056
 4692SOL    HW225539   2.618   3.821  12.179  0.4670 -0.2325 -0.5773
 4693SOL     OW25540   4.550   4.289  12.847 -0.1901 -0.0524  0.2428
 4693SOL    HW125541   4.617   4.232  12.809  1.5058  0.5502  2.3294
 4693SOL    HW225542   4.588   4.306  12.933 -0.8453 -0.6430  0.6509
 4694SOL     OW25543   2.165   4.153   4.702 -0.2778  0.2065 -0.3853
 4694SOL    HW125544   2.237   4.142   4.639 -0.5786  0.8278 -0.8366
 4694SOL    HW225545   2.212   4.204   4.767 -3.3540  1.4675  0.8085
 4695SOL     OW25546   4.172   4.055   5.491  0.1508 -0.4000 -0.6020
 4695SOL    HW125547   4.100   4.118   5.497  0.7180  0.4149 -2.6468
 4695SOL    HW225548   4.238   4.104   5.540  1.6179 -1.7986 -1.1845
 4696SOL     OW25549   1.394   2.467  15.622 -0.0231  0.0057  0.5278
 4696SOL    HW125550   1.310   2.477  15.668  1.1852  0.4050  2.6638
 4696SOL    HW225551   1.354   2.462  15.535  0.7294  1.2126  0.1165
 4697SOL     OW25552   3.850   4.227   8.206 -0.2707  0.5395  0.5480
 4697SOL    HW125553   3.835   4.308   8.255 -0.6323 -0.2826  1.7875
 4697SOL    HW225554   3.938   4.239   8.170  0.5237  1.4190  2.7828
 4698SOL     OW25555   3.471   2.098   2.617 -0.1410  0.2860 -0.0911
 4698SOL    HW125556   3.439   2.171   2.671 -0.7982 -0.7835  0.9524
 4698SOL    HW225557   3.556   2.126   2.583  0.1315 -1.4725 -0.8090
 4699SOL     OW25558   4.258   2.658   7.677 -0.9152  0.1654 -0.1023
 4699SOL    HW125559   4.166   2.633   7.664 -1.0296  1.3689 -1.6675
 4699SOL    HW225560   4.282   2.684   7.588  1.7571 -0.1710  0.5433
 4700SOL     OW25561   1.622   2.023   5.364  0.7139  0.0595  0.5889
 4700SOL    HW125562   1.584   1.935   5.361  1.7463 -0.3228 -1.0414
 4700SOL    HW225563   1.585   2.070   5.290  1.9070  1.2244  0.7253
 4701SOL     OW25564   2.469   2.245   8.906 -0.3421 -0.2316  1.0130
 4701SOL    HW125565   2.490   2.337   8.888  1.9632 -0.6473  1.5453
 4701SOL    HW225566   2.553   2.199   8.907 -0.1384  0.1208  0.0385
 4702SOL     OW25567   2.954   0.869   6.765  0.1803  0.7313  0.7523
 4702SOL    HW125568   2.867   0.841   6.796 -1.2734  1.7554 -2.4040
 4702SOL    HW225569   2.929   0.938   6.704  2.1980  0.0553 -0.7959
 4703SOL     OW25570   4.084   3.762   7.441 -0.2318 -0.2158 -0.4466
 4703SOL    HW125571   4.030   3.717   7.376 -0.0680 -1.3013  0.1825
 4703SOL    HW225572   4.172   3.737   7.414 -0.5897 -1.7659 -0.1788
 4704SOL     OW25573   2.596   3.793   0.801 -0.7627 -0.3174  0.3087
 4704SOL    HW125574   2.512   3.750   0.816 -0.1065 -1.1150  1.6356
 4704SOL    HW225575   2.637   3.777   0.886 -3.1037  0.0481  1.4972
 4705SOL     OW25576   4.526   3.372   5.107 -0.3199 -0.5484  0.1464
 4705SOL    HW125577   4.592   3.429   5.068 -0.1095 -0.2485  0.9426
 4705SOL    HW225578   4.447   3.401   5.061  1.2311  0.8672 -1.6277
 4706SOL     OW25579   1.489   0.575  13.613 -0.2985 -0.3212 -0.2979
 4706SOL    HW125580   1.461   0.525  13.536  1.2745 -0.4912 -0.7419
 4706SOL    HW225581   1.408   0.618  13.643  0.1972 -0.9414  1.9667
 4707SOL     OW25582   3.548   2.172  17.215 -0.1629 -0.0129 -0.1139
 4707SOL    HW125583   3.505   2.139  17.294 -0.9465  2.5540  0.5662
 4707SOL    HW225584   3.639   2.182  17.245  0.2728  2.2013 -2.1762
 4708SOL     OW25585   4.088   0.267   2.730 -0.3587  0.1844  0.0738
 4708SOL    HW125586   4.077   0.248   2.637  1.5047  1.0641 -0.3123
 4708SOL    HW225587   4.042   0.347   2.756  1.1594  1.2219 -0.4565
 4709SOL     OW25588   2.660   2.291   2.109 -0.2423 -0.0444  0.0077
 4709SOL    HW125589   2.708   2.237   2.047 -0.3960  0.4680 -0.5631
 4709SOL    HW225590   2.613   2.231   2.167 -1.6221  1.7078  0.7317
 4710SOL     OW25591   2.760   3.176   8.675 -0.7497  0.3927 -0.1201
 4710SOL    HW125592   2.848   3.172   8.713 -0.9852  0.6701  0.4494
 4710SOL    HW225593   2.796   3.187   8.587 -0.5690  2.5381  0.2217
 4711SOL     OW25594   4.468   1.523   6.100  0.0122  0.3461  0.2084
 4711SOL    HW125595   4.411   1.459   6.058 -1.1296  0.2036  1.9816
 4711SOL    HW225596   4.415   1.601   6.112 -1.3480 -0.3490 -1.3011
 4712SOL     OW25597   1.873   4.200  12.050 -0.4327 -0.3531  0.7968
 4712SOL    HW125598   1.798   4.224  11.995 -0.1273 -0.2602  0.4242
 4712SOL    HW225599   1.848   4.189  12.142 -0.9659  0.8083  0.7925
 4713SOL     OW25600   3.636   3.934   6.295  0.2773 -0.9136 -0.5822
 4713SOL    HW125601   3.568   3.991   6.260  0.2057 -1.2261 -0.9530
 4713SOL    HW225602   3.713   3.991   6.295 -1.4295  1.3726  1.3261
 4714SOL     OW25603   2.555   0.102   0.232  0.7352  0.3349 -0.3686
 4714SOL    HW125604   2.634   0.098   0.285  2.0021  0.6408 -2.2210
 4714SOL    HW225605   2.549   0.016   0.192 -0.3521 -0.4070  1.4150
 4715SOL     OW25606   0.534   1.516   7.125  0.1822  0.4613 -0.0544
 4715SOL    HW125607   0.625   1.497   7.147  0.2483 -0.4389 -1.0839
 4715SOL    HW225608   0.517   1.441   7.067  0.3760  0.1568  0.2830
 4716SOL     OW25609   1.502   0.539  15.602 -0.0316 -0.5263  0.1988
 4716SOL    HW125610   1.433   0.557  15.666  0.4445  1.5725  0.1113
 4716SOL    HW225611   1.481   0.610  15.541  0.6760 -0.7680 -0.3172
 4717SOL     OW25612   2.650   1.740   8.942  0.4442 -0.2911  0.3315
 4717SOL    HW125613   2.677   1.716   9.031  0.7343  2.2154  0.9104
 4717SOL    HW225614   2.626   1.658   8.900 -2.4865  0.4247  0.6090
 4718SOL     OW25615   1.738   4.449   6.743 -0.3273  0.7581 -0.3281
 4718SOL    HW125616   1.815   4.393   6.749  0.9091  2.6183  0.9007
 4718SOL    HW225617   1.767   4.522   6.798  2.3551  0.6759 -1.6707
 4719SOL     OW25618   2.414   3.306   5.280  0.0118  0.1113 -0.1418
 4719SOL    HW125619   2.422   3.213   5.299 -0.7262  0.1529  0.4057
 4719SOL    HW225620   2.499   3.327   5.317  0.1769 -0.6081 -0.1197
 4720SOL     OW25621   2.499   2.716   8.894 -0.2263 -0.5795 -0.4721
 4720SOL    HW125622   2.593   2.735   8.893 -0.4534  0.4877 -2.5596
 4720SOL    HW225623   2.472   2.731   8.985  0.4249  0.8505 -0.5258
 4721SOL     OW25624   2.838   3.953  14.016  0.5838  0.0904  0.5854
 4721SOL    HW125625   2.905   4.006  14.059  1.1855  1.2089 -1.7296
 4721SOL    HW225626   2.755   3.956  14.064 -1.2778 -1.2077 -2.5412
 4722SOL     OW25627   4.261   2.514   7.209  0.2808 -0.0353  0.1084
 4722SOL    HW125628   4.219   2.554   7.133 -1.1316 -1.3573  0.1780
 4722SOL    HW225629   4.351   2.531   7.181  0.0722  1.3607  0.3135
 4723SOL     OW25630   3.134   3.641   6.464 -0.3262 -0.4703 -0.2077
 4723SOL    HW125631   3.089   3.716   6.425  0.5457 -0.7916 -1.8394
 4723SOL    HW225632   3.163   3.601   6.382  0.8653 -0.1532  0.0584
 4724SOL     OW25633   0.597   4.083  10.172  0.2387  0.1537 -0.1171
 4724SOL    HW125634   0.559   4.004  10.210  0.8214  0.3288  0.8394
 4724SOL    HW225635   0.599   4.137  10.251  0.2110  0.8628 -0.5943
 4725SOL     OW25636   1.651   3.844   2.752  0.1143  0.7953  0.4962
 4725SOL    HW125637   1.599   3.901   2.809 -1.8020  0.8304 -1.2759
 4725SOL    HW225638   1.721   3.808   2.807  2.1044 -1.1508 -3.3085
 4726SOL     OW25639   0.867   4.571   0.474  0.4067 -0.6097 -0.1231
 4726SOL    HW125640   0.888   4.647   0.420  0.2599 -1.1657 -0.9600
 4726SOL    HW225641   0.954   4.531   0.479  1.4798  1.9167  1.6683
 4727SOL     OW25642   1.458   3.505  10.516  0.1218 -0.5787 -0.7921
 4727SOL    HW125643   1.429   3.416  10.535  0.4868 -0.9131 -1.8284
 4727SOL    HW225644   1.372   3.537  10.487 -1.9690 -1.4365  4.4938
 4728SOL     OW25645   2.835   3.070   6.589  0.0596 -0.2898  0.5500
 4728SOL    HW125646   2.843   2.975   6.582 -0.2071 -0.4479  2.3609
 4728SOL    HW225647   2.811   3.095   6.500  0.4956 -2.0885 -0.0658
 4729SOL     OW25648   3.077   3.327  13.988 -0.3066 -0.5937  0.0594
 4729SOL    HW125649   2.990   3.303  13.954 -0.9217  0.0538  1.1958
 4729SOL    HW225650   3.073   3.312  14.082  0.6261  0.9629  0.3374
 4730SOL     OW25651   3.079   4.571  11.075 -0.1667 -0.0042 -0.1860
 4730SOL    HW125652   3.078   4.560  11.170  0.1314 -0.6966 -0.2621
 4730SOL    HW225653   3.166   4.611  11.066  0.0470 -0.5457 -0.5036
 4731SOL     OW25654   2.227   2.544   7.524 -0.5240 -0.4840 -0.2965
 4731SOL    HW125655   2.269   2.619   7.482 -2.4135  2.1913  2.5119
 4731SOL    HW225656   2.303   2.489   7.542  0.5776  0.5087 -1.9427
 4732SOL     OW25657   3.106   3.771   0.766  0.2875  0.3002 -0.0551
 4732SOL    HW125658   3.036   3.718   0.728 -0.1901  0.6550  0.3288
 4732SOL    HW225659   3.087   3.768   0.860  0.6158  0.3531  0.0125
 4733SOL     OW25660   2.368   0.880   3.549 -0.1359  0.7159  0.5320
 4733SOL    HW125661   2.409   0.965   3.530  1.4928 -0.3790 -0.8882
 4733SOL    HW225662   2.287   0.883   3.497  0.7559 -0.5489 -0.9317
 4734SOL     OW25663   4.442   4.687  15.388 -0.4964 -0.1619 -0.9789
 4734SOL    HW125664   4.491   0.044  15.369  1.3069 -1.1495 -0.4418
 4734SOL    HW225665   4.404   4.672  15.301 -2.9620 -1.8559  0.3913
 4735SOL     OW25666   3.103   2.143   4.858  0.2883 -0.5235  0.2339
 4735SOL    HW125667   3.092   2.119   4.950 -0.7066  0.5434  0.3914
 4735SOL    HW225668   3.140   2.061   4.824  1.1737  0.0481 -0.1860
 4736SOL     OW25669   2.957   4.144  13.641  0.1676 -0.0826  0.3794
 4736SOL    HW125670   2.897   4.128  13.569  1.7463  0.6829 -1.0833
 4736SOL    HW225671   2.920   4.218  13.689  0.5114 -1.0323  2.1255
 4737SOL     OW25672   4.503   3.076   0.144  0.5097  0.8682  0.0594
 4737SOL    HW125673   4.528   3.152   0.091 -0.8326 -0.2604 -2.2067
 4737SOL    HW225674   4.587   3.039   0.171  0.4451 -0.1938 -1.2212
 4738SOL     OW25675   0.887   1.667   8.311  0.4549 -0.0229  0.3927
 4738SOL    HW125676   0.805   1.707   8.337  0.2647 -0.9221  1.1767
 4738SOL    HW225677   0.947   1.720   8.364  0.4464 -0.7644  1.1391
 4739SOL     OW25678   4.572   0.129   5.027  0.3102  0.3070  0.3227
 4739SOL    HW125679   4.647   0.146   4.970  1.1007 -0.8745  1.0142
 4739SOL    HW225680   4.545   0.046   4.988  3.3731 -0.8290  0.6205
 4740SOL     OW25681   3.816   0.781   6.932  0.5179  0.1194 -0.4791
 4740SOL    HW125682   3.830   0.846   6.863  0.0772  0.5841 -0.1327
 4740SOL    HW225683   3.735   0.734   6.910  0.0004 -0.5406  2.7361
 4741SOL     OW25684   2.678   2.282   1.240 -0.0053 -0.0580  0.0296
 4741SOL    HW125685   2.722   2.203   1.210  1.4484  1.2602 -1.2967
 4741SOL    HW225686   2.736   2.312   1.310 -1.0255  1.9556  0.0202
 4742SOL     OW25687   1.690   2.224   9.548 -0.3049  0.0059 -0.1904
 4742SOL    HW125688   1.755   2.276   9.595 -1.3009  0.0412  1.1601
 4742SOL    HW225689   1.641   2.191   9.624  0.9645 -0.3664  0.4642
 4743SOL     OW25690   2.275   2.407  15.572  0.1635 -0.5749 -0.2717
 4743SOL    HW125691   2.196   2.461  15.579  0.6183  0.3410 -2.2076
 4743SOL    HW225692   2.255   2.328  15.623 -1.4439  1.6506  2.5881
 4744SOL     OW25693   1.307   0.894   4.008  0.0811 -0.2178 -0.4515
 4744SOL    HW125694   1.241   0.900   3.940 -0.0725 -0.5459 -0.3335
 4744SOL    HW225695   1.267   0.954   4.071  1.2772  0.0997  0.0144
 4745SOL     OW25696   2.406   4.432   3.303  0.1116 -0.3006  0.8237
 4745SOL    HW125697   2.377   4.508   3.353 -0.4722  0.0186 -0.0166
 4745SOL    HW225698   2.501   4.431   3.320  0.1063  0.6610  0.9143
 4746SOL     OW25699   2.103   2.515   5.373  0.3747 -0.2142 -0.1066
 4746SOL    HW125700   2.133   2.529   5.283  1.2437 -0.8573  0.0824
 4746SOL    HW225701   2.012   2.496   5.351 -0.1441  1.3301  0.7193
 4747SOL     OW25702   3.532   3.705   6.404 -0.3925  0.1029 -0.1165
 4747SOL    HW125703   3.570   3.783   6.364  0.2695 -0.7211 -1.0611
 4747SOL    HW225704   3.498   3.737   6.488  0.5112 -0.6455  0.5347
 4748SOL     OW25705   2.067   2.944   0.715  0.1316 -0.0659  0.2256
 4748SOL    HW125706   2.013   3.013   0.754 -0.2844 -0.0105 -0.4463
 4748SOL    HW225707   2.101   2.903   0.794 -0.5622 -0.2357  0.4321
 4749SOL     OW25708   4.058   1.899   6.293  0.4006  0.0681  0.4273
 4749SOL    HW125709   4.036   1.926   6.382  0.8829  1.6789  0.0462
 4749SOL    HW225710   4.136   1.945   6.263  0.3567 -0.4946 -0.5595
 4750SOL     OW25711   2.031   3.633  13.456 -0.3409 -0.0374  0.2571
 4750SOL    HW125712   2.047   3.540  13.471 -2.8419 -0.1768  2.0543
 4750SOL    HW225713   2.056   3.669  13.541  0.1866  0.3342 -0.0538
 4751SOL     OW25714   2.654   0.192   9.097  0.1855  0.0387  0.2561
 4751SOL    HW125715   2.749   0.200   9.097  0.1322  0.7745 -1.9098
 4751SOL    HW225716   2.629   0.113   9.145 -0.1803  0.6659  1.1050
 4752SOL     OW25717   2.977   2.906   1.849  0.1082  0.4144 -0.2858
 4752SOL    HW125718   2.927   2.983   1.876  0.3456  1.3232 -2.4841
 4752SOL    HW225719   3.003   2.882   1.938 -1.4057 -0.4517 -0.0787
 4753SOL     OW25720   4.127   1.565   3.317 -0.2065 -0.4174 -0.1068
 4753SOL    HW125721   4.149   1.491   3.261  2.7599 -0.0568  0.6025
 4753SOL    HW225722   4.080   1.518   3.386  0.9154 -1.7895 -0.2753
 4754SOL     OW25723   1.592   2.170  16.382  0.7405 -0.3664  0.1025
 4754SOL    HW125724   1.542   2.095  16.347 -0.5568  0.8586 -0.6824
 4754SOL    HW225725   1.576   2.147  16.473 -1.5620 -0.2413 -0.2650
 4755SOL     OW25726   1.740   1.325   3.876 -0.1021  0.1722  0.3436
 4755SOL    HW125727   1.779   1.271   3.807  0.0214 -0.2537  0.7473
 4755SOL    HW225728   1.718   1.257   3.940  3.1190 -1.3818 -0.1901
 4756SOL     OW25729   0.069   1.386  10.182  0.4159 -0.1235  0.7856
 4756SOL    HW125730   0.076   1.321  10.113 -1.9752 -0.3486  0.7443
 4756SOL    HW225731   0.029   1.459  10.135 -2.9968 -1.9401  0.8942
 4757SOL     OW25732   4.165   1.509   9.183 -0.1589  0.0642 -0.2646
 4757SOL    HW125733   4.162   1.526   9.277 -1.4528 -3.0289  0.2446
 4757SOL    HW225734   4.200   1.593   9.151  0.7472 -0.3885 -0.4728
 4758SOL     OW25735   0.363   4.533   2.296 -0.1461  0.4693  0.2994
 4758SOL    HW125736   0.441   4.548   2.349 -0.7862 -2.1281  1.9859
 4758SOL    HW225737   0.330   4.623   2.299  0.8563  0.8320  0.5407
 4759SOL     OW25738   0.893   4.102   6.280 -0.2349 -0.2965  0.7103
 4759SOL    HW125739   0.982   4.084   6.247 -1.1967 -2.7707 -0.5675
 4759SOL    HW225740   0.879   4.017   6.322 -0.3420  0.0147  1.3044
 4760SOL     OW25741   2.055   1.977   2.267 -0.2840 -0.0913  0.0713
 4760SOL    HW125742   2.110   1.991   2.190  1.3463 -0.6751  1.1351
 4760SOL    HW225743   1.966   1.994   2.237 -0.3073 -0.8011 -0.2645
 4761SOL     OW25744   4.029   3.926  15.094 -0.4492  0.0655 -0.2773
 4761SOL    HW125745   4.014   3.888  15.181  0.0842 -0.9695 -0.6437
 4761SOL    HW225746   4.092   3.996  15.114  0.5927 -0.9258 -0.1097
 4762SOL     OW25747   1.263   3.258   5.837 -0.3333  0.4962 -0.0086
 4762SOL    HW125748   1.299   3.227   5.753  0.7637  0.5064  0.4491
 4762SOL    HW225749   1.172   3.231   5.831 -0.6022  1.3488  0.3551
 4763SOL     OW25750   3.326   2.087   8.665 -0.0330  0.2014 -0.5521
 4763SOL    HW125751   3.237   2.052   8.658 -0.0845  0.1309  0.3979
 4763SOL    HW225752   3.318   2.144   8.742 -0.2483 -3.8728  2.4006
 4764SOL     OW25753   1.704   0.617   4.505 -0.2864  0.0340  0.1371
 4764SOL    HW125754   1.782   0.572   4.537 -0.5440 -1.8660 -1.9351
 4764SOL    HW225755   1.658   0.635   4.587 -0.9781 -3.5801  0.5477
 4765SOL     OW25756   4.594   3.014   9.249  0.3700  0.5056 -0.4037
 4765SOL    HW125757   4.656   3.067   9.198 -0.6498  1.1668 -0.9638
 4765SOL    HW225758   4.609   3.042   9.339  2.8453 -1.0721 -0.3458
 4766SOL     OW25759   4.547   0.359  12.290  0.4198  0.2351  0.2382
 4766SOL    HW125760   4.461   0.378  12.328  0.4668  0.5617  0.1803
 4766SOL    HW225761   4.609   0.384  12.359 -0.8619  1.4132  0.9558
 4767SOL     OW25762   4.304   3.106   7.905 -0.2845  0.6948  0.0862
 4767SOL    HW125763   4.340   3.121   7.992  1.3675  0.8024 -0.6282
 4767SOL    HW225764   4.287   3.011   7.902  0.8259  0.5001 -0.1534
 4768SOL     OW25765   3.927   3.011  13.032 -0.3559  0.0103  0.2144
 4768SOL    HW125766   3.873   3.055  12.967 -1.8899 -3.5023 -0.8912
 4768SOL    HW225767   3.904   3.043  13.119 -5.4938  1.8278 -1.8145
 4769SOL     OW25768   4.019   2.147   4.234  0.6889 -0.5918 -0.2337
 4769SOL    HW125769   3.934   2.104   4.219  0.1671  0.2824  0.2535
 4769SOL    HW225770   3.994   2.237   4.218 -0.8088 -0.6421  1.8265
 4770SOL     OW25771   3.068   3.389  11.857  0.0779 -0.1509 -0.0453
 4770SOL    HW125772   3.115   3.434  11.928  0.1033 -2.4692  1.3967
 4770SOL    HW225773   3.080   3.296  11.873  1.3264  0.0590  0.2445
 4771SOL     OW25774   4.532   4.545   6.532 -0.3666  0.0904 -0.3283
 4771SOL    HW125775   4.540   4.640   6.528  1.2817 -0.0317  0.1212
 4771SOL    HW225776   4.467   4.513   6.469  0.9791 -1.0544 -1.1330
 4772SOL     OW25777   0.852   3.285  10.768 -0.7063  0.1399 -0.3820
 4772SOL    HW125778   0.927   3.289  10.709 -2.5969  1.5276 -2.7274
 4772SOL    HW225779   0.817   3.374  10.760  1.0135  0.6996 -1.6284
 4773SOL     OW25780   0.483   2.816   6.336  0.0139 -0.4627  0.2203
 4773SOL    HW125781   0.434   2.898   6.349  2.8683  1.0970  1.1424
 4773SOL    HW225782   0.575   2.840   6.346  0.4610 -1.6594 -1.0365
 4774SOL     OW25783   4.371   2.376   6.465  0.1214 -0.7587  0.3868
 4774SOL    HW125784   4.321   2.303   6.429  0.2609 -1.6371  1.9776
 4774SOL    HW225785   4.331   2.394   6.550  1.9365  0.2176  1.0383
 4775SOL     OW25786   0.823   3.834   6.301 -0.0163  0.7797 -0.5266
 4775SOL    HW125787   0.890   3.795   6.244 -0.0263  0.7525 -0.5196
 4775SOL    HW225788   0.742   3.789   6.279  0.5073 -0.7649  0.6236
 4776SOL     OW25789   1.152   4.033   8.042 -0.5797  0.1025 -0.1875
 4776SOL    HW125790   1.127   4.095   8.110  0.7739  0.8384 -0.3621
 4776SOL    HW225791   1.179   4.092   7.972  1.4362 -1.4324 -0.6933
 4777SOL     OW25792   1.599   2.600   8.398  0.1953  0.3614  0.2070
 4777SOL    HW125793   1.644   2.593   8.482 -0.0613  1.1847  0.4137
 4777SOL    HW225794   1.634   2.519   8.359 -0.3260  0.3544 -0.2494
 4778SOL     OW25795   0.161   1.629   0.682 -0.2465  0.1224  0.0837
 4778SOL    HW125796   0.236   1.569   0.682  0.3626  0.8621 -2.4573
 4778SOL    HW225797   0.203   1.710   0.652  3.4791 -2.1174 -0.6841
 4779SOL     OW25798   0.590   2.765   2.316 -0.3996  0.3079 -0.4277
 4779SOL    HW125799   0.589   2.683   2.367 -0.3655 -1.0823 -2.6614
 4779SOL    HW225800   0.508   2.752   2.268 -0.4448  0.1899 -0.3199
 4780SOL     OW25801   4.306   2.297   7.660 -0.8491  0.8824 -0.1187
 4780SOL    HW125802   4.234   2.330   7.607 -0.5877 -2.1633 -2.3537
 4780SOL    HW225803   4.268   2.223   7.708 -2.0010  1.3799 -0.2539
 4781SOL     OW25804   4.573   1.126   4.186 -0.0314  0.6468 -0.3978
 4781SOL    HW125805   4.633   1.062   4.148  0.6013  2.3303 -2.2339
 4781SOL    HW225806   4.624   1.207   4.185  0.4004  0.4066  2.9731
 4782SOL     OW25807   3.995   2.339  14.833  0.2561  0.3708  0.4193
 4782SOL    HW125808   4.060   2.379  14.891 -0.4943  2.3617 -0.1420
 4782SOL    HW225809   3.917   2.340  14.889 -1.1220  2.3319 -1.5429
 4783SOL     OW25810   0.981   1.956   3.977 -0.1155  0.0609  0.0342
 4783SOL    HW125811   0.920   1.913   4.037  0.7160 -0.0826  0.7949
 4783SOL    HW225812   1.062   1.911   4.004 -1.8878 -2.2983  1.4595
 4784SOL     OW25813   0.710   4.184   2.360  0.5406 -0.4920  0.4781
 4784SOL    HW125814   0.668   4.098   2.357  0.4679 -0.4343 -0.0969
 4784SOL    HW225815   0.733   4.189   2.453 -0.5724 -0.5196  0.7518
 4785SOL     OW25816   2.638   1.326   6.389  0.4423 -0.1502 -0.0030
 4785SOL    HW125817   2.686   1.366   6.461 -0.0572  0.1966  0.1392
 4785SOL    HW225818   2.677   1.366   6.311 -1.2815 -0.6823 -1.1174
 4786SOL     OW25819   1.999   0.261  17.327  0.1372 -0.2805  0.1444
 4786SOL    HW125820   2.069   0.221  17.277  1.6744  2.0826  0.3960
 4786SOL    HW225821   2.051   0.295  17.400  1.5751  1.4046 -1.6473
 4787SOL     OW25822   4.354   1.820   4.466 -0.5443  1.0002  0.1607
 4787SOL    HW125823   4.448   1.836   4.481 -0.4539  2.6532 -2.1476
 4787SOL    HW225824   4.363   1.794   4.374  0.8594  1.0053  0.2855
 4788SOL     OW25825   0.729   1.346  11.600  0.0872  0.3137  0.2128
 4788SOL    HW125826   0.698   1.270  11.550 -0.0036 -1.3406  2.7864
 4788SOL    HW225827   0.797   1.300  11.650 -0.5188  0.0369  0.7850
 4789SOL     OW25828   1.388   2.333   2.170  0.6089 -0.2175  0.4892
 4789SOL    HW125829   1.424   2.354   2.084 -0.1872  0.4503  0.3148
 4789SOL    HW225830   1.403   2.421   2.204 -0.1628  0.7116 -1.5801
 4790SOL     OW25831   2.465   4.386   8.406 -0.1430  0.3616 -0.5721
 4790SOL    HW125832   2.460   4.393   8.310  2.6425 -0.7281 -0.8085
 4790SOL    HW225833   2.485   4.294   8.425 -3.4891  0.2433  2.1834
 4791SOL     OW25834   0.939   3.479   3.467 -0.3521  0.5568 -0.1550
 4791SOL    HW125835   1.007   3.508   3.528  0.0708 -0.2803 -0.2318
 4791SOL    HW225836   0.884   3.556   3.450 -0.1238  0.3863 -1.6679
 4792SOL     OW25837   3.466   0.408   7.570  0.5252  0.4436  0.0627
 4792SOL    HW125838   3.384   0.458   7.564  0.8610  0.7761 -1.8031
 4792SOL    HW225839   3.471   0.410   7.665  0.2012  1.8164  0.0539
 4793SOL     OW25840   1.231   0.766   9.030  0.3806 -0.3350  0.0159
 4793SOL    HW125841   1.142   0.774   8.997  0.2555 -0.1269  0.4102
 4793SOL    HW225842   1.257   0.857   9.015 -0.2500  0.3727  3.1042
 4794SOL     OW25843   0.240   0.967   5.119  0.2784 -0.6921  0.4855
 4794SOL    HW125844   0.181   1.041   5.105  1.4757  0.8166  3.2874
 4794SOL    HW225845   0.194   0.892   5.082 -2.0368 -0.0289  2.0074
 4795SOL     OW25846   3.650   3.524   6.132 -0.0494 -0.1459  0.1805
 4795SOL    HW125847   3.714   3.462   6.098  0.8426  2.4353 -2.7514
 4795SOL    HW225848   3.608   3.559   6.054  0.4681 -0.2668 -0.1525
 4796SOL     OW25849   3.080   3.423   7.004 -0.0767  0.5356 -0.2839
 4796SOL    HW125850   3.042   3.511   7.005  3.4250  2.0551 -0.2262
 4796SOL    HW225851   3.026   3.377   7.068 -0.8525 -0.3153 -1.5547
 4797SOL     OW25852   0.750   2.115   8.258  0.0404 -0.4577 -0.1306
 4797SOL    HW125853   0.700   2.138   8.336  1.9195  1.4740  0.5122
 4797SOL    HW225854   0.701   2.156   8.186 -0.6714  2.6059  2.1371
 4798SOL     OW25855   3.728   1.019   8.622  0.0023  0.0579 -0.3415
 4798SOL    HW125856   3.812   1.019   8.576 -0.5086  1.0727 -1.2617
 4798SOL    HW225857   3.747   1.057   8.708  1.6346 -0.3356 -0.5356
 4799SOL     OW25858   0.695   0.379   4.683 -0.1318 -0.1492  0.5580
 4799SOL    HW125859   0.681   0.399   4.591  0.8872 -1.1684  0.1771
 4799SOL    HW225860   0.661   0.290   4.679  0.8272 -0.4311 -1.1797
 4800SOL     OW25861   0.852   0.468   4.933 -0.0780 -0.4146 -0.8009
 4800SOL    HW125862   0.899   0.520   4.868 -2.1037 -1.1763 -2.8794
 4800SOL    HW225863   0.771   0.436   4.892  0.9651 -4.5884  0.3950
 4801SOL     OW25864   3.848   1.869   9.004 -0.2985  0.3982  0.5309
 4801SOL    HW125865   3.896   1.945   8.968 -0.1529 -1.1446 -2.5094
 4801SOL    HW225866   3.871   1.874   9.097  0.2354  2.1558  0.3224
 4802SOL     OW25867   3.045   3.318   3.516  0.1532  0.0144 -0.2008
 4802SOL    HW125868   2.981   3.314   3.445 -0.5863 -1.5843  0.5572
 4802SOL    HW225869   3.094   3.239   3.491  2.6815  2.5608 -3.3153
 4803SOL     OW25870   0.932   0.628   9.310 -0.5306  0.0345  0.4066
 4803SOL    HW125871   0.956   0.581   9.230 -1.5224  1.1097 -0.5216
 4803SOL    HW225872   1.018   0.650   9.346 -0.2216 -4.0379  2.1351
 4804SOL     OW25873   2.936   4.152   2.813 -0.0709 -0.0030  0.1744
 4804SOL    HW125874   2.927   4.233   2.763 -0.7427 -0.3208 -0.2168
 4804SOL    HW225875   2.843   4.132   2.816  0.2129 -1.0737  2.4599
 4805SOL     OW25876   2.392   3.065   8.290 -0.4607 -0.1139 -0.2792
 4805SOL    HW125877   2.476   3.091   8.328 -0.6627 -0.8889  0.7052
 4805SOL    HW225878   2.394   2.970   8.281 -0.3733 -0.2583  1.2689
 4806SOL     OW25879   2.771   1.456  15.864  0.3052 -0.7442 -0.5524
 4806SOL    HW125880   2.677   1.476  15.868 -0.0490 -1.7369 -4.0437
 4806SOL    HW225881   2.809   1.534  15.824  0.7875 -0.2626  0.8205
 4807SOL     OW25882   0.592   1.472   3.666  0.3422  0.0306  1.1277
 4807SOL    HW125883   0.678   1.464   3.623 -0.8675 -0.1286 -1.2420
 4807SOL    HW225884   0.553   1.386   3.654  0.0261  0.0700  1.8551
 4808SOL     OW25885   0.650   3.656   4.938 -1.0527  0.2767  0.0792
 4808SOL    HW125886   0.679   3.701   5.017 -0.7081 -1.7993  1.1483
 4808SOL    HW225887   0.611   3.735   4.900  1.8652  1.4280 -0.5327
 4809SOL     OW25888   3.618   1.678  13.644 -0.2443 -0.5800 -0.5301
 4809SOL    HW125889   3.523   1.689  13.651 -0.1964 -0.5903  0.1202
 4809SOL    HW225890   3.665   1.751  13.685  1.7295 -0.9831 -2.0741
 4810SOL     OW25891   4.045   0.805   4.243 -0.0329  0.1626 -0.2429
 4810SOL    HW125892   4.043   0.878   4.181  0.6876  1.1409  0.8772
 4810SOL    HW225893   4.135   0.819   4.273 -0.1198  0.2365 -0.0192
 4811SOL     OW25894   2.232   1.819   7.569 -0.2081  0.2960 -0.0196
 4811SOL    HW125895   2.326   1.813   7.550  0.1955 -2.6612  2.9177
 4811SOL    HW225896   2.247   1.821   7.663 -0.1744 -0.8682  0.0007
 4812SOL     OW25897   1.120   1.104   3.785  0.2884 -0.4971 -0.3107
 4812SOL    HW125898   1.060   1.175   3.763  0.6006  0.4041  1.7594
 4812SOL    HW225899   1.154   1.087   3.697  2.8385  1.7454  0.2075
 4813SOL     OW25900   1.139   2.335   7.536  0.2703  0.2416  0.1104
 4813SOL    HW125901   1.226   2.366   7.559 -0.1933  0.4409  1.5600
 4813SOL    HW225902   1.086   2.344   7.615  0.0979 -2.9626  0.3608
 4814SOL     OW25903   0.019   0.806   9.926  0.0679 -0.1998 -0.0079
 4814SOL    HW125904   4.692   0.873   9.973 -0.0641 -0.8056  0.7026
 4814SOL    HW225905   0.013   0.739   9.994  0.5116 -0.5445 -0.3073
 4815SOL     OW25906   3.845   2.535  10.344  0.2986  0.0651  0.0706
 4815SOL    HW125907   3.840   2.473  10.271 -1.7995  1.3388 -0.8668
 4815SOL    HW225908   3.858   2.476  10.418  1.2309 -1.8999 -1.6393
 4816SOL     OW25909   0.848   0.523  15.094 -0.4043  0.5617 -0.6861
 4816SOL    HW125910   0.857   0.432  15.123 -0.7363  1.5994  2.6252
 4816SOL    HW225911   0.754   0.534  15.109  0.0577  2.4651  0.7194
 4817SOL     OW25912   3.774   4.552   8.902 -0.3236  0.0918 -0.5772
 4817SOL    HW125913   3.725   4.633   8.915 -0.7670 -0.4943  1.2950
 4817SOL    HW225914   3.731   4.516   8.824  1.1791 -0.4564 -1.1523
 4818SOL     OW25915   1.285   0.018  14.901 -0.0822  0.1377  0.1938
 4818SOL    HW125916   1.355   4.674  14.903  0.8412  1.1263  0.7675
 4818SOL    HW225917   1.223   4.705  14.963  1.2575  1.4137  2.2634
 4819SOL     OW25918   0.458   3.149   6.578 -0.0796  0.0863 -0.0172
 4819SOL    HW125919   0.423   3.129   6.491 -1.6696  2.1030  0.1515
 4819SOL    HW225920   0.423   3.236   6.595  0.2868 -0.0749  1.5477
 4820SOL     OW25921   3.674   0.119   6.043 -0.2103  0.0313 -0.0848
 4820SOL    HW125922   3.675   0.147   5.951 -0.7341 -0.0744 -0.1195
 4820SOL    HW225923   3.681   0.025   6.026 -0.3886  0.0586 -0.3117
 4821SOL     OW25924   1.357   3.988  13.837 -0.0835 -0.2544  0.4330
 4821SOL    HW125925   1.391   3.917  13.782  2.3887  0.0330  1.5948
 4821SOL    HW225926   1.343   3.933  13.914  1.8857  1.1122  1.7679
 4822SOL     OW25927   4.556   2.777  15.476  0.0583 -0.1239 -0.2639
 4822SOL    HW125928   4.548   2.862  15.434 -0.9250 -0.8598 -1.5870
 4822SOL    HW225929   4.602   2.724  15.410 -0.4488 -0.5150 -0.3050
 4823SOL     OW25930   1.555   2.767   3.102 -0.2342  0.0471 -0.4243
 4823SOL    HW125931   1.490   2.831   3.132 -1.6754 -1.7365  0.2491
 4823SOL    HW225932   1.611   2.770   3.179  1.4183  1.1497 -1.6670
 4824SOL     OW25933   2.597   1.171   2.773  0.7822 -0.4735 -0.4992
 4824SOL    HW125934   2.525   1.176   2.836  0.6711 -0.2515 -0.6454
 4824SOL    HW225935   2.605   1.078   2.752  0.3707 -0.3690 -1.1049
 4825SOL     OW25936   4.217   1.968   7.440 -0.0399  0.0584 -0.5336
 4825SOL    HW125937   4.176   2.036   7.387 -0.3835  0.3633  0.1327
 4825SOL    HW225938   4.252   1.906   7.376  2.1093  0.9719 -0.2642
 4826SOL     OW25939   1.050   1.523   6.379  0.1853 -0.2154  0.0083
 4826SOL    HW125940   0.989   1.553   6.447 -0.2489  2.0474 -1.3947
 4826SOL    HW225941   1.084   1.607   6.349  0.4393 -0.6479 -0.9416
 4827SOL     OW25942   0.685   2.675   3.882 -0.3910 -0.3647  0.0064
 4827SOL    HW125943   0.719   2.684   3.971 -0.8958 -3.3511  0.5126
 4827SOL    HW225944   0.761   2.709   3.834 -0.2260  0.6387  0.9828
 4828SOL     OW25945   1.999   1.486   6.865  0.1049  0.1734 -0.3840
 4828SOL    HW125946   1.982   1.519   6.776  1.0848  0.0003 -0.6310
 4828SOL    HW225947   2.082   1.443   6.845  0.3189  0.1899  0.4685
 4829SOL     OW25948   2.207   3.818   1.365 -0.1653 -0.1326 -0.1765
 4829SOL    HW125949   2.127   3.767   1.374 -0.0824  0.4088  3.8346
 4829SOL    HW225950   2.193   3.862   1.282  0.1058 -1.8122 -1.1142
 4830SOL     OW25951   0.229   3.244   6.921  0.1944  0.5851 -0.2957
 4830SOL    HW125952   0.195   3.172   6.974  3.2753 -0.2233  0.6308
 4830SOL    HW225953   0.158   3.300   6.891 -1.0542 -0.6584  0.3429
 4831SOL     OW25954   1.362   1.520   3.090  0.9098  0.2174 -0.4473
 4831SOL    HW125955   1.370   1.551   2.999 -2.6173 -1.2030 -1.2766
 4831SOL    HW225956   1.437   1.462   3.097  1.7247  1.0764 -1.9760
 4832SOL     OW25957   0.166   3.038  10.473  0.5739  1.0187  0.0884
 4832SOL    HW125958   0.147   3.013  10.563  0.3434  3.2121  0.6353
 4832SOL    HW225959   0.135   2.954  10.438  4.4417 -0.7881  0.9850
 4833SOL     OW25960   3.511   1.679   7.993 -0.2009 -0.4676  0.5089
 4833SOL    HW125961   3.456   1.755   7.975  0.9488  0.7858  2.2608
 4833SOL    HW225962   3.576   1.707   8.058  1.1624 -1.5928 -0.3777
 4834SOL     OW25963   1.848   3.888  16.296 -0.0467 -0.0624 -0.0358
 4834SOL    HW125964   1.938   3.884  16.263  0.1293  0.9260  0.3099
 4834SOL    HW225965   1.806   3.949  16.235  0.0738 -0.1982 -0.2542
 4835SOL     OW25966   4.634   3.244  12.774 -0.1614  0.1331 -0.2988
 4835SOL    HW125967   4.652   3.332  12.809 -0.4476  0.2336 -0.4019
 4835SOL    HW225968   4.645   3.253  12.679  0.6312  0.1198 -0.2062
 4836SOL     OW25969   3.268   4.314   8.071  0.1791  0.5589 -0.1518
 4836SOL    HW125970   3.302   4.241   8.123 -0.3114  0.6367  0.2772
 4836SOL    HW225971   3.179   4.311   8.105  0.3726 -1.7429  0.1550
 4837SOL     OW25972   0.484   2.479   5.191  0.1129 -0.1285 -0.0050
 4837SOL    HW125973   0.461   2.541   5.123 -0.8417 -2.0957 -1.4767
 4837SOL    HW225974   0.450   2.403   5.145 -2.2350  1.8546 -1.5000
 4838SOL     OW25975   1.758   3.182   2.228 -0.4769  0.2351  0.1423
 4838SOL    HW125976   1.830   3.242   2.211  0.0623  0.1113  1.9026
 4838SOL    HW225977   1.810   3.112   2.269  1.8258  2.1770  0.5326
 4839SOL     OW25978   0.204   4.647   5.420  0.0713 -0.2096 -0.0908
 4839SOL    HW125979   0.144   4.573   5.406 -0.9823  0.3089  1.6393
 4839SOL    HW225980   0.255   4.642   5.340 -0.0050 -1.5786 -0.0611
 4840SOL     OW25981   0.186   1.731   4.341  0.3954  0.2740 -0.7382
 4840SOL    HW125982   0.216   1.764   4.426 -1.5505 -0.8254  0.3800
 4840SOL    HW225983   0.264   1.683   4.314  0.5394 -0.2749  0.6367
 4841SOL     OW25984   2.015   1.604   6.593  0.0975 -0.5187 -0.0543
 4841SOL    HW125985   1.960   1.562   6.526  0.4494  0.4131 -0.9292
 4841SOL    HW225986   2.101   1.564   6.581 -0.1986 -1.0665 -0.3566
 4842SOL     OW25987   1.666   4.711   1.797  0.3508  0.4571 -0.4553
 4842SOL    HW125988   1.691   0.001   1.706 -1.5309  0.8836 -0.9150
 4842SOL    HW225989   1.736   0.041   1.835  1.8482 -2.0828  0.2902
 4843SOL     OW25990   3.389   2.975   6.875 -0.0256  0.5187 -0.4874
 4843SOL    HW125991   3.474   2.983   6.832  0.2549  0.8467  0.1371
 4843SOL    HW225992   3.330   3.044   6.844  1.3264  1.3805 -1.1488
 4844SOL     OW25993   0.464   3.461   6.320  0.3419 -0.2479 -0.4085
 4844SOL    HW125994   0.419   3.400   6.261  1.0925 -3.3921  2.2637
 4844SOL    HW225995   0.454   3.427   6.409  1.2925  0.4004 -0.0579
 4845SOL     OW25996   1.147   2.824   8.883 -0.4343  0.2194 -0.6978
 4845SOL    HW125997   1.057   2.827   8.850 -0.7567 -2.1734 -0.0355
 4845SOL    HW225998   1.193   2.795   8.804  0.3118  0.5059 -0.3688
 4846SOL     OW25999   0.267   3.594   5.871 -0.7905 -0.6200  0.0024
 4846SOL    HW126000   0.328   3.604   5.944  1.9145 -2.8770 -1.9488
 4846SOL    HW226001   0.251   3.686   5.851 -1.3984 -1.2924 -2.5633
 4847SOL     OW26002   2.310   2.569   4.661  0.0264 -0.3174  0.0639
 4847SOL    HW126003   2.368   2.541   4.590  0.2284  1.1638 -0.3499
 4847SOL    HW226004   2.270   2.487   4.689  0.1746 -0.1081  0.8739
 4848SOL     OW26005   3.948   2.310   7.789 -0.2342 -0.0822  0.3109
 4848SOL    HW126006   3.927   2.261   7.710 -1.7621 -0.2548  0.8115
 4848SOL    HW226007   4.001   2.251   7.842  0.3313 -1.6730 -2.0720
 4849SOL     OW26008   0.669   3.927   0.811 -0.1426 -0.7254 -0.1216
 4849SOL    HW126009   0.630   4.007   0.774  0.3315  0.0968  1.1775
 4849SOL    HW226010   0.748   3.968   0.845  0.0226 -0.2669 -1.0367
 4850SOL     OW26011   3.448   4.470   4.383 -0.7595 -0.5269 -0.0868
 4850SOL    HW126012   3.542   4.457   4.366 -0.8327 -0.8952 -0.2178
 4850SOL    HW226013   3.420   4.381   4.402 -0.8936 -0.1922  1.2388
 4851SOL     OW26014   0.953   4.152  11.384 -0.1558 -0.2756 -0.3234
 4851SOL    HW126015   0.985   4.166  11.295  0.6030  0.2954  0.0277
 4851SOL    HW226016   1.018   4.089  11.416  1.2271  1.7726  0.9259
 4852SOL     OW26017   4.440   2.671   1.287  0.8191 -0.1320  0.2299
 4852SOL    HW126018   4.369   2.622   1.245 -1.1581  1.9616  1.1228
 4852SOL    HW226019   4.442   2.627   1.371  1.1389  1.0690  0.8499
 4853SOL     OW26020   3.721   1.481  15.960  0.9051 -0.1058 -0.3199
 4853SOL    HW126021   3.668   1.560  15.949 -0.9289 -0.9443  2.4573
 4853SOL    HW226022   3.787   1.494  15.891  0.9009  1.5713 -0.0213
 4854SOL     OW26023   1.954   2.781  16.687  0.2571 -0.1448 -0.6232
 4854SOL    HW126024   1.920   2.859  16.731 -3.7493 -1.1345 -1.9102
 4854SOL    HW226025   1.987   2.808  16.601  0.2807  0.9956 -0.2573
 4855SOL     OW26026   3.764   2.075  11.942 -0.5426  0.8528 -0.2625
 4855SOL    HW126027   3.821   2.120  12.005  0.0870  0.0053 -0.2249
 4855SOL    HW226028   3.753   2.147  11.880  0.1633 -0.3375 -1.7837
 4856SOL     OW26029   0.392   1.865   6.348 -0.1664  0.5186 -0.1119
 4856SOL    HW126030   0.395   1.871   6.253 -0.5318 -2.3370 -0.3230
 4856SOL    HW226031   0.319   1.803   6.357 -0.1237  0.9489  3.2948
 4857SOL     OW26032   4.125   1.704   3.095 -0.1280 -0.5775  0.0869
 4857SOL    HW126033   4.151   1.656   3.173  3.1796  0.9496 -0.0746
 4857SOL    HW226034   4.191   1.665   3.038 -1.1388 -2.5176  0.2356
 4858SOL     OW26035   1.814   4.643  14.726 -0.0257  0.0376 -0.0008
 4858SOL    HW126036   1.861   4.560  14.735 -0.9494 -0.3457  1.2255
 4858SOL    HW226037   1.791   4.660  14.818 -2.2872 -0.5914 -0.4523
 4859SOL     OW26038   4.447   3.785  12.695 -0.5122 -0.9938  0.3687
 4859SOL    HW126039   4.516   3.822  12.640 -1.1184 -1.3439 -0.6130
 4859SOL    HW226040   4.501   3.796  12.774 -0.4740  0.9581  0.0776
 4860SOL     OW26041   0.534   1.922   7.180  0.0499  0.1222  0.4552
 4860SOL    HW126042   0.606   1.859   7.188  0.2372 -0.0134 -2.1965
 4860SOL    HW226043   0.528   1.927   7.084 -0.1087  1.4448  0.5376
 4861SOL     OW26044   0.317   1.718  13.779  0.5930 -0.4933  0.6794
 4861SOL    HW126045   0.364   1.670  13.847 -1.2807 -2.2893  0.6819
 4861SOL    HW226046   0.289   1.792  13.832 -0.9545 -1.3779  1.0807
 4862SOL     OW26047   4.281   0.244   7.427 -0.3833 -0.0514  0.3109
 4862SOL    HW126048   4.340   0.316   7.451  0.5431  0.0144 -2.1674
 4862SOL    HW226049   4.282   0.186   7.504 -0.0701 -1.0824 -0.4674
 4863SOL     OW26050   1.496   2.849  12.959 -0.2914 -0.5248  0.0137
 4863SOL    HW126051   1.566   2.812  12.905  0.7013  1.3240  0.0306
 4863SOL    HW226052   1.540   2.908  13.021  0.8680  0.2840 -1.5791
 4864SOL     OW26053   1.252   2.129  14.940 -0.2293 -0.5907 -0.1446
 4864SOL    HW126054   1.259   2.042  14.978  0.3707 -0.5819 -0.2355
 4864SOL    HW226055   1.245   2.183  15.020  0.1604 -1.5563  0.5406
 4865SOL     OW26056   0.796   2.311  16.074 -0.5293  0.6159  0.1670
 4865SOL    HW126057   0.846   2.288  16.152  0.0175 -0.4219 -0.4898
 4865SOL    HW226058   0.708   2.324  16.109  0.0097  2.7487  0.7277
 4866SOL     OW26059   0.802   2.196   3.701 -0.1131 -0.2034 -0.3591
 4866SOL    HW126060   0.847   2.233   3.777 -2.8680  1.0101  0.6919
 4866SOL    HW226061   0.866   2.132   3.671  0.1557  0.0915 -0.4057
 4867SOL     OW26062   1.696   3.342  11.987  0.2602 -0.1959  0.0289
 4867SOL    HW126063   1.645   3.263  11.973  1.4992 -0.6057 -2.2468
 4867SOL    HW226064   1.700   3.351  12.082 -0.4943 -0.1765  0.0520
 4868SOL     OW26065   0.107   3.717   8.752  0.1481 -0.4232 -0.4008
 4868SOL    HW126066   0.109   3.626   8.781 -0.5473  0.1377  1.4176
 4868SOL    HW226067   0.132   3.757   8.835 -0.0572 -0.6134 -0.2484
 4869SOL     OW26068   2.638   4.357   0.514 -0.9605 -0.1692 -0.5023
 4869SOL    HW126069   2.694   4.435   0.515 -0.6406 -0.4159  0.6600
 4869SOL    HW226070   2.636   4.337   0.608  2.0004 -2.5449 -0.9383
 4870SOL     OW26071   0.486   1.294   5.816 -0.3427 -0.1989  0.3710
 4870SOL    HW126072   0.564   1.242   5.795  0.2945  0.6518  0.6641
 4870SOL    HW226073   0.430   1.231   5.861 -0.7266  1.4617  2.2252
 4871SOL     OW26074   0.517   0.556  16.660 -0.1050 -0.0760  0.9998
 4871SOL    HW126075   0.579   0.629  16.654 -0.8744  0.6501  2.0422
 4871SOL    HW226076   0.480   0.560  16.572  1.0521  0.0195  0.5079
 4872SOL     OW26077   0.728   1.897   3.475  0.2466  0.2001  0.2723
 4872SOL    HW126078   0.814   1.854   3.472 -0.9229 -1.8433 -2.8630
 4872SOL    HW226079   0.743   1.956   3.402 -2.3725  1.5023  0.8098
 4873SOL     OW26080   0.912   4.543   2.491 -0.5804  0.1185  0.1687
 4873SOL    HW126081   0.992   4.541   2.544 -1.8908  1.7476  2.2105
 4873SOL    HW226082   0.889   4.635   2.491  0.5549  0.4005 -0.9580
 4874SOL     OW26083   4.152   2.816   2.941 -0.1836 -0.4518 -0.3345
 4874SOL    HW126084   4.065   2.819   2.901 -0.3479  1.3794  0.1193
 4874SOL    HW226085   4.134   2.794   3.032  0.0932 -0.6525 -0.3275
 4875SOL     OW26086   4.040   4.449  13.510 -0.0594  0.1551  0.1711
 4875SOL    HW126087   4.042   4.502  13.430  1.9374  0.9578  0.7460
 4875SOL    HW226088   4.120   4.479  13.555  0.6606  0.9224 -1.6345
 4876SOL     OW26089   3.760   2.678   8.575 -0.0818 -0.9323 -0.2273
 4876SOL    HW126090   3.799   2.689   8.661  2.1014 -0.9167 -1.2158
 4876SOL    HW226091   3.796   2.595   8.544 -1.3366 -1.2431 -0.8767
 4877SOL     OW26092   2.298   1.103   2.608 -0.2223  0.1088 -0.4337
 4877SOL    HW126093   2.239   1.149   2.548 -0.4133  1.2535  0.6372
 4877SOL    HW226094   2.341   1.051   2.540  1.7871  1.5231 -0.2162
 4878SOL     OW26095   1.451   2.820  15.028  0.1672 -0.1472  0.1838
 4878SOL    HW126096   1.420   2.846  14.942 -2.2185  1.4503  1.5374
 4878SOL    HW226097   1.544   2.836  15.011 -0.3622 -0.0976 -2.5636
 4879SOL     OW26098   3.734   1.894  13.758  0.5574 -0.1664 -0.2424
 4879SOL    HW126099   3.678   1.961  13.797 -0.3134 -0.1792 -1.4474
 4879SOL    HW226100   3.810   1.901  13.816  2.0827  0.9046 -2.3424
 4880SOL     OW26101   2.369   2.753   7.185 -0.5571  0.2879  0.1113
 4880SOL    HW126102   2.428   2.811   7.138  0.8313 -0.0090  1.4830
 4880SOL    HW226103   2.359   2.796   7.270 -1.1231  0.8318 -0.2323
 4881SOL     OW26104   1.352   2.920   5.936  0.0220 -0.0224 -0.1266
 4881SOL    HW126105   1.314   2.958   5.856  0.9220  0.2021 -0.4595
 4881SOL    HW226106   1.279   2.872   5.974  0.3365  1.4500  2.3477
 4882SOL     OW26107   1.995   4.343   2.526  0.1581 -0.7933 -0.0190
 4882SOL    HW126108   2.040   4.266   2.562  0.2628 -1.1385 -0.9069
 4882SOL    HW226109   2.015   4.334   2.433  2.0842 -1.9894  0.5128
 4883SOL     OW26110   3.943   2.935   4.145 -0.2649  0.1849 -0.2782
 4883SOL    HW126111   3.953   2.980   4.062 -0.6492 -0.2237 -0.5522
 4883SOL    HW226112   4.005   2.862   4.139 -0.9273 -0.3176 -1.1545
 4884SOL     OW26113   0.624   3.913   0.182  0.6974 -0.6444  0.0951
 4884SOL    HW126114   0.625   3.982   0.248  0.7109 -2.6010  2.1483
 4884SOL    HW226115   0.660   3.962   0.108 -0.8451 -1.5720 -1.2736
 4885SOL     OW26116   0.112   4.634   7.261  0.0321 -0.4019  0.1508
 4885SOL    HW126117   0.063   4.561   7.300  0.2946 -0.8814 -0.4226
 4885SOL    HW226118   0.106   4.608   7.169 -1.4211  0.2561  0.0587
 4886SOL     OW26119   2.810   1.238   3.974  0.1927  0.3092  0.8245
 4886SOL    HW126120   2.798   1.189   4.056  0.5200 -1.0874  0.0477
 4886SOL    HW226121   2.831   1.169   3.911  0.3115  1.1592 -0.0565
 4887SOL     OW26122   3.314   4.030   8.278 -0.2014  0.5129  0.2596
 4887SOL    HW126123   3.397   3.996   8.310 -0.8805 -0.2425  1.2171
 4887SOL    HW226124   3.276   3.955   8.233  0.2249 -0.3105  1.2816
 4888SOL     OW26125   3.530   3.904   4.186  0.9079 -0.0920  0.0140
 4888SOL    HW126126   3.448   3.949   4.169  1.5663  1.3588  0.6027
 4888SOL    HW226127   3.589   3.973   4.218  0.2363  0.8057 -0.6971
 4889SOL     OW26128   4.546   3.786   6.424 -0.1890 -0.0643 -0.4505
 4889SOL    HW126129   4.460   3.798   6.384 -0.6495 -0.6972  0.3403
 4889SOL    HW226130   4.587   3.712   6.379  1.3261  1.0035 -0.8279
 4890SOL     OW26131   3.221   0.666   2.826 -0.2529 -0.1926 -0.2395
 4890SOL    HW126132   3.306   0.684   2.868  0.2845 -1.0471 -0.9545
 4890SOL    HW226133   3.240   0.572   2.823 -0.8205 -0.2345 -2.3548
 4891SOL     OW26134   2.050   3.646  11.719  0.2901 -0.3278 -0.3569
 4891SOL    HW126135   1.955   3.636  11.722  0.1018  2.1490  1.6743
 4891SOL    HW226136   2.061   3.726  11.769 -1.4663  0.4391 -1.1925
 4892SOL     OW26137   3.968   1.960   8.671  0.9117 -0.4773  0.6914
 4892SOL    HW126138   3.888   1.907   8.665  0.0235  1.3652 -3.3011
 4892SOL    HW226139   4.011   1.928   8.592  0.0837 -1.3352  0.5822
 4893SOL     OW26140   4.207   3.408   8.283 -0.3438 -0.2292 -0.3734
 4893SOL    HW126141   4.236   3.422   8.192  0.8559 -2.5048 -0.3616
 4893SOL    HW226142   4.114   3.399   8.265  0.1753 -4.4199 -1.1062
 4894SOL     OW26143   3.279   1.482   4.084 -0.2930  0.1105 -0.1582
 4894SOL    HW126144   3.257   1.440   4.001 -1.1685  0.2894 -0.0186
 4894SOL    HW226145   3.286   1.569   4.043  1.5901  0.6054  1.2526
 4895SOL     OW26146   3.489   3.589   5.333  0.0101 -0.4215  0.4382
 4895SOL    HW126147   3.395   3.587   5.349 -0.2767 -0.4787 -1.2677
 4895SOL    HW226148   3.521   3.499   5.341  1.1996 -0.2078 -1.7848
 4896SOL     OW26149   3.003   0.933   1.041  0.4271  0.1888 -0.2611
 4896SOL    HW126150   2.948   0.867   1.084 -2.0163  1.8726 -0.8015
 4896SOL    HW226151   2.945   0.953   0.967  1.4637 -0.7196 -1.3138
 4897SOL     OW26152   4.023   1.051  13.920 -0.1203 -0.5552 -0.2776
 4897SOL    HW126153   4.088   1.004  13.868 -1.9285  0.7573 -3.7161
 4897SOL    HW226154   3.957   1.087  13.861 -0.7068  0.1801  0.8374
 4898SOL     OW26155   3.861   1.065  10.711  0.1115 -0.4213  0.0717
 4898SOL    HW126156   3.768   1.077  10.729  0.3169  0.1593  0.7167
 4898SOL    HW226157   3.902   1.150  10.727  0.6659 -1.0242  1.8404
 4899SOL     OW26158   3.805   2.742   6.117 -0.0782 -0.3045  0.0163
 4899SOL    HW126159   3.896   2.770   6.118 -0.1759 -0.0055  0.4743
 4899SOL    HW226160   3.755   2.823   6.127  0.0892 -0.1966 -0.0272
 4900SOL     OW26161   3.436   2.002   8.955  0.2865 -0.0092 -0.3278
 4900SOL    HW126162   3.517   2.022   9.003 -0.9266  0.4777  1.4886
 4900SOL    HW226163   3.397   2.086   8.975  0.0285 -0.1852 -0.0931
 4901SOL     OW26164   4.667   2.509   1.613  0.1910 -0.0591 -0.0241
 4901SOL    HW126165   4.682   2.578   1.678  1.3092  0.5968 -0.9980
 4901SOL    HW226166   0.022   2.454   1.614 -0.4167 -0.9269 -0.3034
 4902SOL     OW26167   2.946   2.893   7.140 -0.5404  0.4867  0.1053
 4902SOL    HW126168   2.969   2.980   7.107 -3.1642  1.1540  0.0773
 4902SOL    HW226169   2.995   2.882   7.221 -0.6646 -1.0990 -0.0338
 4903SOL     OW26170   1.141   0.108   1.695  0.1012  0.2003 -0.0233
 4903SOL    HW126171   1.231   0.116   1.666  0.4429 -0.7706  0.7686
 4903SOL    HW226172   1.124   0.014   1.691  1.1678  0.0654 -1.2595
 4904SOL     OW26173   0.978   3.775   4.187  0.1295  0.7571 -0.7620
 4904SOL    HW126174   0.949   3.702   4.243  1.3041 -0.1196 -1.3086
 4904SOL    HW226175   1.068   3.786   4.217  0.1795 -4.9577  1.2872
 4905SOL     OW26176   1.964   1.627   4.301  0.0207 -0.3667 -0.1578
 4905SOL    HW126177   2.026   1.560   4.329  1.5287  0.3561 -1.7874
 4905SOL    HW226178   1.923   1.656   4.383  0.4629  0.6190 -0.2803
 4906SOL     OW26179   3.283   1.611   6.482 -0.0890  0.3216  0.4226
 4906SOL    HW126180   3.295   1.703   6.460 -0.5966 -0.5608 -3.5645
 4906SOL    HW226181   3.241   1.583   6.401  1.3011  0.9233 -0.5045
 4907SOL     OW26182   3.864   0.776  16.153  0.8796  0.1162  0.0636
 4907SOL    HW126183   3.906   0.713  16.212 -1.2726 -0.6258  0.8075
 4907SOL    HW226184   3.892   0.860  16.190  0.6148  0.4173 -0.4182
 4908SOL     OW26185   2.739   2.999  11.550 -0.0802  0.2981  0.2015
 4908SOL    HW126186   2.800   3.041  11.612  0.8683 -2.1521  0.9320
 4908SOL    HW226187   2.735   2.909  11.583 -1.0956 -0.1840 -1.2694
 4909SOL     OW26188   4.394   0.479   3.484  0.3081  0.3308  0.2022
 4909SOL    HW126189   4.434   0.525   3.558 -0.9259  3.4747 -1.0624
 4909SOL    HW226190   4.405   0.546   3.416  0.0765 -1.3538 -1.5006
 4910SOL     OW26191   1.983   2.023   9.797  0.3776  0.3961  0.0360
 4910SOL    HW126192   1.952   1.979   9.718  0.6535 -2.2811  1.4112
 4910SOL    HW226193   1.942   1.970   9.865  0.0301  0.5035 -0.0943
 4911SOL     OW26194   3.751   0.263   2.502 -0.0501  0.0996 -0.2257
 4911SOL    HW126195   3.830   0.314   2.521 -0.0152  0.1228 -0.4321
 4911SOL    HW226196   3.776   0.188   2.449 -1.0817  0.2553 -0.9319
 4912SOL     OW26197   2.519   3.544   1.838 -0.4851  0.1709 -0.1164
 4912SOL    HW126198   2.577   3.546   1.761 -1.1409 -1.8971 -0.6675
 4912SOL    HW226199   2.581   3.527   1.908  0.9609 -2.6722 -2.0921
 4913SOL     OW26200   4.003   0.239   9.654  0.0348  0.3409  0.1032
 4913SOL    HW126201   4.033   0.161   9.607 -1.7325  0.1193 -0.6374
 4913SOL    HW226202   4.012   0.308   9.588 -0.9691  0.1594 -0.2237
 4914SOL     OW26203   3.068   1.358   6.171  0.7526 -0.7712  0.3221
 4914SOL    HW126204   3.129   1.306   6.223  0.5622 -3.5973 -2.2919
 4914SOL    HW226205   3.103   1.447   6.173 -0.0635 -0.4190 -1.3311
 4915SOL     OW26206   1.087   1.654   2.389 -0.3686 -0.1747 -0.5822
 4915SOL    HW126207   1.081   1.593   2.315 -1.9956  0.6744 -1.1467
 4915SOL    HW226208   1.177   1.677   2.412 -0.9697 -1.4659  3.0138
 4916SOL     OW26209   3.251   0.032  11.371 -0.1351 -0.2201  0.0582
 4916SOL    HW126210   3.281   0.064  11.286  0.2173  1.7301  0.9254
 4916SOL    HW226211   3.334   0.001  11.407 -0.0281  2.5667  2.1977
 4917SOL     OW26212   0.002   0.964   4.868 -0.5504  0.3241 -0.2341
 4917SOL    HW126213   4.695   1.026   4.934 -1.3803 -1.8450  1.4197
 4917SOL    HW226214   0.070   1.020   4.830 -0.5754 -0.0014 -0.7666
 4918SOL     OW26215   1.007   2.754   4.334  0.3102 -0.4177 -0.1489
 4918SOL    HW126216   1.092   2.710   4.335 -0.0883 -1.1981 -0.5473
 4918SOL    HW226217   0.950   2.707   4.394 -1.4953 -0.3730 -1.8395
 4919SOL     OW26218   3.064   0.155   6.183  0.7414  0.4858 -0.2672
 4919SOL    HW126219   3.131   0.174   6.118  0.0743 -0.2067 -1.1539
 4919SOL    HW226220   3.069   0.060   6.198  0.4728  0.4583 -0.3529
 4920SOL     OW26221   1.650   4.707   9.869 -0.5816 -0.1851  0.4449
 4920SOL    HW126222   1.603   4.641   9.818  0.9835 -0.9900  0.0596
 4920SOL    HW226223   1.622   4.681   9.957 -0.6450 -0.4919  0.3317
 4921SOL     OW26224   2.698   0.273   5.445 -0.0921 -1.3973  0.5894
 4921SOL    HW126225   2.732   0.331   5.513  1.6115 -0.5689 -0.9517
 4921SOL    HW226226   2.676   0.192   5.490  1.8137 -1.7312  0.9509
 4922SOL     OW26227   3.793   2.129  13.614 -0.3877  0.2115 -0.6975
 4922SOL    HW126228   3.724   2.170  13.666 -1.8646 -2.9352 -0.1608
 4922SOL    HW226229   3.780   2.039  13.644  1.6010  1.3573  3.5529
 4923SOL     OW26230   0.597   2.004   1.237 -0.1915 -0.0771  0.4500
 4923SOL    HW126231   0.549   2.075   1.194  1.2242  1.3361  1.2168
 4923SOL    HW226232   0.533   1.933   1.239  0.7056 -0.8979 -0.1738
 4924SOL     OW26233   0.126   1.408   4.987 -0.0561 -0.2651  0.2071
 4924SOL    HW126234   0.157   1.413   5.077  2.0763 -2.0202 -0.4384
 4924SOL    HW226235   0.194   1.454   4.938 -0.8132  1.4234  0.7476
 4925SOL     OW26236   0.691   2.158   4.048  1.0234 -0.3737 -0.2426
 4925SOL    HW126237   0.774   2.201   4.028  1.2265  0.3034  2.0599
 4925SOL    HW226238   0.650   2.171   3.963 -2.0179  0.0464  1.2764
 4926SOL     OW26239   4.429   2.503   1.501 -0.0084  0.1471  0.0828
 4926SOL    HW126240   4.383   2.532   1.580 -0.4929  0.7130 -0.4070
 4926SOL    HW226241   4.519   2.510   1.534  0.6422 -0.1651 -1.6312
 4927SOL     OW26242   3.563   4.068   1.515  0.1899  0.2292  0.1798
 4927SOL    HW126243   3.554   4.108   1.429 -1.3469  0.0074  0.2491
 4927SOL    HW226244   3.470   4.072   1.536  0.1226  1.4114 -0.3555
 4928SOL     OW26245   2.844   1.442   7.539  0.0593  0.5890 -0.3988
 4928SOL    HW126246   2.860   1.493   7.618 -0.5418  1.7323 -1.0224
 4928SOL    HW226247   2.887   1.360   7.563 -0.8808  0.5421  1.1622
 4929SOL     OW26248   3.699   1.658  16.603 -0.2489  0.0634  0.1703
 4929SOL    HW126249   3.636   1.633  16.671 -0.6865  2.0262  0.4828
 4929SOL    HW226250   3.665   1.610  16.527  2.6621 -0.9405 -0.4921
 4930SOL     OW26251   0.840   0.760   7.529 -0.4283  0.3435 -0.0905
 4930SOL    HW126252   0.825   0.803   7.445  0.4775  0.4035 -0.2183
 4930SOL    HW226253   0.835   0.832   7.593 -5.3843  0.5892 -0.7612
 4931SOL     OW26254   4.073   1.024  14.208  0.4490  0.3492  0.1435
 4931SOL    HW126255   4.057   0.935  14.179  1.8770  0.4178 -0.8317
 4931SOL    HW226256   4.070   1.063  14.121 -1.0704  1.7420  0.8028
 4932SOL     OW26257   3.641   3.475   4.393 -0.4163  0.1991  0.6673
 4932SOL    HW126258   3.616   3.567   4.398 -0.1096  0.3028  0.3175
 4932SOL    HW226259   3.647   3.457   4.299  0.9172  0.4734  0.7004
 4933SOL     OW26260   0.071   2.880   2.611  0.1766  0.2166 -0.3558
 4933SOL    HW126261   0.027   2.841   2.686 -0.2227 -0.0759 -0.7456
 4933SOL    HW226262   0.154   2.913   2.648  0.1779  0.5359 -0.6467
 4934SOL     OW26263   0.071   0.517   5.044  0.0737 -0.5985 -1.1240
 4934SOL    HW126264   0.117   0.451   4.992  0.1480 -0.3458 -1.3783
 4934SOL    HW226265   0.115   0.591   5.003 -0.2370 -1.5277 -3.1294
 4935SOL     OW26266   0.402   2.090   8.705  0.0163  0.4336  0.3331
 4935SOL    HW126267   0.470   2.066   8.769  0.1458  0.7857  0.3271
 4935SOL    HW226268   0.347   2.142   8.763 -0.3168  0.3184  0.1159
 4936SOL     OW26269   3.515   4.359   7.855  0.4369 -0.1477 -0.4663
 4936SOL    HW126270   3.589   4.414   7.828  0.7273 -0.6740 -0.7608
 4936SOL    HW226271   3.538   4.309   7.934  1.4602 -0.2519 -0.8295
 4937SOL     OW26272   1.716   0.695   1.863 -0.1742  0.0234  0.0002
 4937SOL    HW126273   1.777   0.763   1.832 -1.5540  1.6088  0.7339
 4937SOL    HW226274   1.771   0.642   1.920 -1.4757  0.3792  1.5632
 4938SOL     OW26275   4.560   2.584   5.351 -0.1491  0.0209 -0.0449
 4938SOL    HW126276   4.481   2.605   5.301  1.1992  0.8159 -1.8594
 4938SOL    HW226277   4.603   2.670   5.354 -2.3297  1.1554 -0.9754
 4939SOL     OW26278   1.142   0.603   7.811  0.0827 -0.0663 -0.2894
 4939SOL    HW126279   1.103   0.575   7.728 -0.5754  0.5693 -0.1903
 4939SOL    HW226280   1.082   0.673   7.835 -1.2018  0.0255 -3.8228
 4940SOL     OW26281   1.973   3.494  13.232 -0.2849 -0.1634 -0.6145
 4940SOL    HW126282   2.045   3.431  13.240  0.0626  0.0556 -2.0106
 4940SOL    HW226283   1.990   3.556  13.302 -1.1122  1.3493 -1.7599
 4941SOL     OW26284   4.338   3.287   3.882  0.0374 -0.0936 -0.0594
 4941SOL    HW126285   4.262   3.245   3.842  0.1155  1.0162 -1.3710
 4941SOL    HW226286   4.295   3.341   3.948 -1.2274  0.5118 -1.3653
 4942SOL     OW26287   3.912   2.771   7.358 -0.6281 -0.7052 -0.1103
 4942SOL    HW126288   3.860   2.839   7.400  1.1400 -1.2402  2.9879
 4942SOL    HW226289   3.936   2.818   7.278  0.2986 -0.5431  0.2590
 4943SOL     OW26290   1.317   1.050   8.469  0.4989 -0.7994 -0.0002
 4943SOL    HW126291   1.344   1.006   8.550  1.4464 -0.1627  0.0332
 4943SOL    HW226292   1.256   0.979   8.449 -0.7413  0.0260  0.8515
 4944SOL     OW26293   2.759   0.357   6.193 -0.3662  0.4740 -0.1307
 4944SOL    HW126294   2.767   0.263   6.183 -0.5770  0.5261 -0.8059
 4944SOL    HW226295   2.724   0.372   6.105  1.8836 -1.0984 -1.2726
 4945SOL     OW26296   0.405   0.997   6.563  0.1332  0.0245 -0.2038
 4945SOL    HW126297   0.347   0.995   6.639 -0.0412  1.6727 -0.3049
 4945SOL    HW226298   0.345   1.006   6.489 -0.9458 -0.0209  0.6672
 4946SOL     OW26299   1.190   2.944   5.088 -0.4295  0.1026  0.1312
 4946SOL    HW126300   1.154   2.859   5.111 -0.1733  0.3772  1.5872
 4946SOL    HW226301   1.129   2.970   5.019 -0.9812  0.3140  0.6970
 4947SOL     OW26302   2.295   0.180   9.179 -0.5869  0.2915 -0.0821
 4947SOL    HW126303   2.257   0.153   9.263 -0.4554 -0.4025 -0.2407
 4947SOL    HW226304   2.222   0.157   9.122  0.4848  0.5079 -1.5315
 4948SOL     OW26305   0.501   0.860   7.003  0.0731 -0.2684  0.2323
 4948SOL    HW126306   0.538   0.804   6.934  0.0932 -1.3502  1.1134
 4948SOL    HW226307   0.419   0.813   7.022 -0.0251  1.1677  3.3495
 4949SOL     OW26308   1.376   3.700   4.289 -0.4229  0.0142 -0.2710
 4949SOL    HW126309   1.471   3.714   4.289 -0.0248 -2.7668  0.2081
 4949SOL    HW226310   1.344   3.790   4.276 -0.0691 -0.1214 -2.0652
 4950SOL     OW26311   0.340   2.133   1.979 -0.6657  0.0197  0.6036
 4950SOL    HW126312   0.314   2.041   1.967  3.4295 -1.0113 -0.4561
 4950SOL    HW226313   0.367   2.157   1.890 -5.0663  1.9358 -0.2172
 4951SOL     OW26314   3.218   2.301  10.189 -0.1662  0.3817  0.1250
 4951SOL    HW126315   3.209   2.291  10.094 -1.6669  1.6587  0.1432
 4951SOL    HW226316   3.302   2.261  10.215  1.4543  3.4762 -0.3389
 4952SOL     OW26317   4.710   4.706   5.598  0.9097  0.1893 -0.9631
 4952SOL    HW126318   0.077   0.003   5.570  0.5246  2.1533 -0.8072
 4952SOL    HW226319   4.659   0.044   5.544 -0.3300 -0.6557 -0.7511
 4953SOL     OW26320   3.540   4.115  13.262 -0.1165 -0.3828  0.2287
 4953SOL    HW126321   3.601   4.111  13.336 -0.1180 -0.0683  0.2479
 4953SOL    HW226322   3.532   4.211  13.258 -1.9979 -0.5590 -0.1759
 4954SOL     OW26323   3.494   4.699  11.474 -0.2623  0.6366 -0.2883
 4954SOL    HW126324   3.585   4.670  11.480 -0.9648 -1.5323 -0.1274
 4954SOL    HW226325   3.470   4.704  11.567 -2.2673 -0.5223 -0.7220
 4955SOL     OW26326   2.934   4.579   9.463  0.1846  0.3001  0.4765
 4955SOL    HW126327   2.954   4.673   9.468 -1.8464  0.7873 -0.5596
 4955SOL    HW226328   2.868   4.584   9.394  0.3691  2.7188  0.4548
 4956SOL     OW26329   3.163   1.886   8.436 -0.3997 -0.2752  0.4291
 4956SOL    HW126330   3.091   1.848   8.486 -0.5897 -2.4709 -1.5724
 4956SOL    HW226331   3.233   1.822   8.446 -1.0070 -0.6662  2.2499
 4957SOL     OW26332   0.642   3.668   4.199 -0.0541 -1.1354  0.5303
 4957SOL    HW126333   0.669   3.727   4.270 -3.9697  0.1544  0.9790
 4957SOL    HW226334   0.601   3.606   4.259 -0.5416 -0.4941  0.8583
 4958SOL     OW26335   2.165   1.814   4.333 -0.0934 -0.5870  0.7558
 4958SOL    HW126336   2.208   1.772   4.407  1.7377 -2.4467 -1.3480
 4958SOL    HW226337   2.104   1.743   4.312  0.3563 -0.5790 -0.5825
 4959SOL     OW26338   3.950   3.666   5.761 -0.4078 -0.5642 -0.5046
 4959SOL    HW126339   4.011   3.722   5.712  1.4844 -1.4027  0.8859
 4959SOL    HW226340   4.016   3.622   5.815  0.0050  0.0090 -0.5301
 4960SOL     OW26341   0.069   0.744   4.699  0.2213 -0.4370  0.2862
 4960SOL    HW126342   0.107   0.718   4.782 -0.7607 -0.0122  0.8665
 4960SOL    HW226343   0.040   0.832   4.724 -0.7180 -0.9934  1.1204
 4961SOL     OW26344   0.705   3.846  17.461 -0.0054 -0.0394 -0.6196
 4961SOL    HW126345   0.633   3.795  17.498 -0.7399  1.0324 -0.5545
 4961SOL    HW226346   0.669   3.935  17.456  1.5418  0.5309 -1.8731
 4962SOL     OW26347   1.143   0.622   0.686 -1.1443 -0.2251 -0.0175
 4962SOL    HW126348   1.108   0.660   0.767 -1.3006 -1.2166  0.3805
 4962SOL    HW226349   1.062   0.611   0.635 -0.9207  1.4892 -0.7219
 4963SOL     OW26350   2.526   3.477   0.925  0.4668 -0.0259  0.6706
 4963SOL    HW126351   2.596   3.505   0.984  0.6602  1.6974 -0.3810
 4963SOL    HW226352   2.450   3.491   0.981 -0.1735 -0.4567 -0.1059
 4964SOL     OW26353   2.693   4.312   2.038  0.0190  0.9657  0.0794
 4964SOL    HW126354   2.630   4.245   2.012 -1.6790  1.8570  1.8532
 4964SOL    HW226355   2.656   4.343   2.121 -0.1132 -0.5585  0.5942
 4965SOL     OW26356   3.803   3.351   9.070 -0.4442 -0.1439 -0.1400
 4965SOL    HW126357   3.870   3.329   9.135 -0.1563 -2.8646 -1.3655
 4965SOL    HW226358   3.771   3.433   9.107  0.9084  0.6550 -0.7545
 4966SOL     OW26359   1.992   3.248   2.622  0.1950 -0.3481 -0.0378
 4966SOL    HW126360   2.060   3.302   2.581 -0.8620 -1.8163 -3.6412
 4966SOL    HW226361   2.050   3.212   2.689  2.4479  0.9868 -1.2637
 4967SOL     OW26362   0.604   4.584   6.326 -0.0643 -0.0067  0.2175
 4967SOL    HW126363   0.675   4.520   6.323 -1.6561 -1.6323 -2.0789
 4967SOL    HW226364   0.553   4.559   6.403  0.4046  0.7582  0.7792
 4968SOL     OW26365   4.338   0.118   8.536 -0.1435 -0.7840 -0.1253
 4968SOL    HW126366   4.363   0.043   8.591  1.3261 -0.8592 -0.9132
 4968SOL    HW226367   4.255   0.083   8.503  0.0589 -2.0669  0.6915
 4969SOL     OW26368   2.990   2.805   7.900  0.7723  0.5501  0.2551
 4969SOL    HW126369   2.975   2.778   7.991  1.8637  0.2122  0.3390
 4969SOL    HW226370   3.067   2.860   7.910  0.3711  1.4900 -1.9281
 4970SOL     OW26371   1.019   0.374   3.234 -0.1924  0.2249  0.2513
 4970SOL    HW126372   0.943   0.332   3.194  0.6009 -1.9894  1.0838
 4970SOL    HW226373   1.066   0.401   3.155  3.7434 -1.8519  1.9314
 4971SOL     OW26374   1.464   2.441  12.772  0.1219 -0.0211  0.3384
 4971SOL    HW126375   1.439   2.508  12.836 -0.3309  0.7826 -0.6776
 4971SOL    HW226376   1.483   2.494  12.694  1.9207 -1.6941 -0.3748
 4972SOL     OW26377   2.122   4.507   5.807  0.0848 -0.1279 -0.3128
 4972SOL    HW126378   2.079   4.589   5.830 -1.5058 -0.3000 -2.6898
 4972SOL    HW226379   2.213   4.515   5.835 -0.0263  1.2738 -0.3511
 4973SOL     OW26380   2.617   0.547   8.133  0.0515  0.0048 -0.0896
 4973SOL    HW126381   2.652   0.464   8.166 -0.4507 -0.9832 -1.9997
 4973SOL    HW226382   2.585   0.593   8.210 -0.1601  0.3802 -0.4022
 4974SOL     OW26383   1.923   0.510   4.610 -0.4108  0.1094 -0.7150
 4974SOL    HW126384   1.981   0.561   4.667 -0.3589 -0.0955 -0.5877
 4974SOL    HW226385   1.977   0.439   4.576  0.1995 -0.6211  1.7802
 4975SOL     OW26386   3.539   3.398   7.619  0.3159 -0.2979  0.1195
 4975SOL    HW126387   3.495   3.483   7.624  2.4053  0.7466  1.0047
 4975SOL    HW226388   3.474   3.341   7.578 -1.4954  0.5987  1.7786
 4976SOL     OW26389   4.081   3.526   6.091  0.3412 -0.1111 -0.3096
 4976SOL    HW126390   4.176   3.521   6.091  0.4012  0.9199 -0.1066
 4976SOL    HW226391   4.065   3.510   6.184 -2.4426  1.7329 -0.4556
 4977SOL     OW26392   2.338   1.550   3.556  0.3518 -0.1114 -0.0249
 4977SOL    HW126393   2.356   1.608   3.629 -0.6786 -1.4822  1.3134
 4977SOL    HW226394   2.247   1.526   3.571  0.3162  1.1473  1.6848
 4978SOL     OW26395   4.282   3.172   1.372 -0.0966 -0.1847 -0.2308
 4978SOL    HW126396   4.298   3.249   1.318 -1.3750  1.4830  1.7638
 4978SOL    HW226397   4.337   3.187   1.449 -0.5715 -2.3625  0.5442
 4979SOL     OW26398   1.614   3.753  11.082  0.0704 -0.0432 -0.3809
 4979SOL    HW126399   1.686   3.749  11.145 -0.9066 -1.5238  0.6166
 4979SOL    HW226400   1.620   3.667  11.042 -2.1359 -0.5706  0.4412
 4980SOL     OW26401   0.474   2.208   5.316  0.9574 -0.4656  0.4126
 4980SOL    HW126402   0.410   2.254   5.371  1.1758  1.7445 -1.1814
 4980SOL    HW226403   0.436   2.227   5.231  0.2273 -0.1494  0.8092
 4981SOL     OW26404   2.858   1.335   9.842  1.1444  0.1154  0.7458
 4981SOL    HW126405   2.802   1.271   9.886  0.6007  0.0977  0.0219
 4981SOL    HW226406   2.793   1.404   9.854  0.7153 -0.1273 -0.1970
 4982SOL     OW26407   1.635   2.275  12.392  0.4181 -0.5093 -0.1039
 4982SOL    HW126408   1.703   2.340  12.373 -0.4097  0.4000  0.0558
 4982SOL    HW226409   1.575   2.302  12.323 -1.5817 -3.4398  0.5275
 4983SOL     OW26410   0.500   4.148   7.591 -0.0984  0.3694  0.2274
 4983SOL    HW126411   0.529   4.190   7.671  1.6360 -0.8496  0.2318
 4983SOL    HW226412   0.426   4.104   7.632  0.2559  0.6835  1.1884
 4984SOL     OW26413   2.610   4.490  14.954 -0.2160 -0.1916 -0.4502
 4984SOL    HW126414   2.587   4.493  15.047 -0.8517 -0.3447 -0.6033
 4984SOL    HW226415   2.698   4.528  14.962 -0.1249 -0.4453 -0.2784
 4985SOL     OW26416   1.593   0.160   4.521 -0.7249 -0.7327  0.0728
 4985SOL    HW126417   1.607   0.157   4.615 -1.3287 -1.1961  0.1474
 4985SOL    HW226418   1.521   0.223   4.521 -0.8957 -0.9297  0.8874
 4986SOL     OW26419   0.798   2.423  11.331  0.2077 -0.0367  0.1879
 4986SOL    HW126420   0.793   2.429  11.427 -0.3736 -1.2403  0.2384
 4986SOL    HW226421   0.749   2.341  11.329  0.6021 -0.2775  0.3669
 4987SOL     OW26422   3.231   2.325   3.718  0.2289 -0.1486  0.1086
 4987SOL    HW126423   3.183   2.383   3.659 -0.2770  0.8903  1.5698
 4987SOL    HW226424   3.258   2.388   3.784 -0.1044  2.1670 -1.9757
 4988SOL     OW26425   4.674   0.564   8.413  0.0417  0.6292  0.9433
 4988SOL    HW126426   4.616   0.634   8.443 -1.8544  0.3399 -2.0429
 4988SOL    HW226427   4.622   0.488   8.440 -1.3313  1.4161  0.5104
 4989SOL     OW26428   2.187   0.689   6.954 -0.0458 -0.0969  0.5281
 4989SOL    HW126429   2.096   0.689   6.982  0.0818 -0.7521  0.9720
 4989SOL    HW226430   2.236   0.719   7.031 -0.9929 -1.6275  1.7347
 4990SOL     OW26431   0.724   2.834  10.940  0.3539  0.1842 -0.3991
 4990SOL    HW126432   0.796   2.894  10.924  0.3616  0.0726 -0.7727
 4990SOL    HW226433   0.774   2.765  10.983  1.3206  1.1715  0.0503
 4991SOL     OW26434   4.206   1.082  10.793  0.4822 -0.8428 -0.6692
 4991SOL    HW126435   4.143   1.073  10.864 -0.8499  0.5698 -1.6793
 4991SOL    HW226436   4.283   1.064  10.848  0.9133  2.2123 -0.2720
 4992SOL     OW26437   1.718   2.805  14.965  0.0792  0.1396 -0.1372
 4992SOL    HW126438   1.811   2.811  14.942 -0.0865 -2.1734 -1.3445
 4992SOL    HW226439   1.707   2.711  14.953  1.6605 -0.1277  0.5671
 4993SOL     OW26440   0.929   4.655   4.345 -0.4727 -0.2900 -0.0410
 4993SOL    HW126441   0.863   4.692   4.286 -1.4450 -1.5484  0.2601
 4993SOL    HW226442   0.975   4.596   4.285 -0.4150  0.9237 -1.2096
 4994SOL     OW26443   0.296   1.473   3.459  0.1648  0.1720 -0.6854
 4994SOL    HW126444   0.341   1.391   3.434  0.2427 -0.3899  1.2981
 4994SOL    HW226445   0.345   1.542   3.415 -0.2740  1.9692  1.6650
 4995SOL     OW26446   2.635   2.110  11.884 -0.2678  0.1712  0.1450
 4995SOL    HW126447   2.608   2.198  11.910  1.6652  1.3478 -1.8247
 4995SOL    HW226448   2.564   2.074  11.832 -1.3550  1.8745  0.4415
 4996SOL     OW26449   2.604   3.278   5.651 -0.1397  0.0983 -0.2745
 4996SOL    HW126450   2.527   3.228   5.678 -0.9750  1.7213  0.3209
 4996SOL    HW226451   2.676   3.239   5.701 -1.0195 -0.6151  0.4329
 4997SOL     OW26452   3.485   0.431   2.938  0.6430  0.0935 -1.0086
 4997SOL    HW126453   3.554   0.371   2.908  0.6065  0.2239 -1.3588
 4997SOL    HW226454   3.532   0.476   3.008 -0.3391  1.7780 -1.4381
 4998SOL     OW26455   2.912   0.409   5.561 -0.2134  0.0405 -0.2734
 4998SOL    HW126456   2.958   0.390   5.643 -1.3034 -2.5168 -0.2439
 4998SOL    HW226457   2.978   0.429   5.495  0.3275 -0.9962 -0.0548
 4999SOL     OW26458   0.423   0.502   9.044  0.2044 -0.2094 -0.1607
 4999SOL    HW126459   0.505   0.454   9.057  2.5493  3.5292 -0.8877
 4999SOL    HW226460   0.393   0.525   9.132  0.4766 -0.3208 -0.0392
 5000SOL     OW26461   4.528   0.516   6.740 -0.4503 -0.0999 -0.3517
 5000SOL    HW126462   4.572   0.597   6.764  1.2404 -1.3038  0.6379
 5000SOL    HW226463   4.518   0.476   6.827 -2.1108 -0.7750 -0.8622
 5001SOL     OW26464   2.630   3.253   4.516 -0.0408  0.3950 -0.2523
 5001SOL    HW126465   2.563   3.272   4.451  0.6404 -0.3845 -1.1925
 5001SOL    HW226466   2.682   3.331   4.499  4.5027 -2.2855  1.3504
 5002SOL     OW26467   4.333   3.191  11.782 -0.0619  0.2295 -0.3297
 5002SOL    HW126468   4.327   3.174  11.876 -0.4223  1.1378 -0.1916
 5002SOL    HW226469   4.254   3.246  11.779 -0.6232 -0.5290  0.3714
 5003SOL     OW26470   4.543   3.229   1.808 -0.1655  0.1342  0.0134
 5003SOL    HW126471   4.531   3.142   1.846  0.0647 -0.1835 -0.6373
 5003SOL    HW226472   4.497   3.281   1.874 -2.6736 -1.1524 -0.7523
 5004SOL     OW26473   2.173   3.977   1.140 -0.0454 -0.0659  0.3997
 5004SOL    HW126474   2.111   3.974   1.067 -1.6056  0.2261  1.7164
 5004SOL    HW226475   2.231   4.047   1.109 -1.4175  0.5715 -0.6951
 5005SOL     OW26476   2.348   1.263   6.735  0.2007 -0.3765  0.2207
 5005SOL    HW126477   2.353   1.274   6.830  0.5801 -0.5911  0.2259
 5005SOL    HW226478   2.436   1.283   6.703  0.1485 -0.5751 -0.0430
 5006SOL     OW26479   2.334   1.756  12.385  0.3592 -0.1350  0.4653
 5006SOL    HW126480   2.268   1.821  12.409  1.8180  0.9134  1.6650
 5006SOL    HW226481   2.409   1.815  12.372 -1.0488  1.3801 -0.7490
 5007SOL     OW26482   0.486   1.160  17.540 -0.1840  0.1432  0.5205
 5007SOL    HW126483   0.416   1.096  17.549  0.7160 -0.5733  2.3856
 5007SOL    HW226484   0.437   1.217  17.480  0.5016  0.5610  0.3412
 5008SOL     OW26485   4.632   3.388  15.352 -0.5871 -0.2269  0.0707
 5008SOL    HW126486   4.599   3.368  15.264  1.4572 -1.6655 -0.3685
 5008SOL    HW226487   4.549   3.409  15.394  0.1291 -1.2203  1.9718
 5009SOL     OW26488   4.173   2.063   7.810 -0.7123 -0.3615 -0.1776
 5009SOL    HW126489   4.089   2.047   7.852  0.1159  0.4504  1.7761
 5009SOL    HW226490   4.194   1.974   7.780  0.1561 -0.1422 -0.2271
 5010SOL     OW26491   1.648   3.464   2.357 -0.6620 -0.3698 -0.4398
 5010SOL    HW126492   1.661   3.372   2.379  0.0530 -0.2481 -0.3525
 5010SOL    HW226493   1.636   3.506   2.442  3.1539  0.0889 -0.1544
 5011SOL     OW26494   1.228   0.687  17.596  0.3768  0.5232 -0.4031
 5011SOL    HW126495   1.321   0.697  17.615  0.2195  1.3281 -0.0430
 5011SOL    HW226496   1.202   0.672  17.687 -2.6301  1.0524 -1.1605
 5012SOL     OW26497   1.434   1.771  13.994  0.7949  0.3178  0.3279
 5012SOL    HW126498   1.448   1.810  14.081 -0.0058 -1.4230  1.2316
 5012SOL    HW226499   1.522   1.761  13.960  1.2252 -1.9087  2.1241
 5013SOL     OW26500   4.071   1.983  14.586 -0.3465 -0.5418 -0.4709
 5013SOL    HW126501   4.107   2.049  14.645  1.2768 -0.8330 -1.1318
 5013SOL    HW226502   4.117   1.912  14.631 -2.1364 -0.4847  1.4580
 5014SOL     OW26503   3.043   2.298   2.104 -0.9174  0.3668 -0.0421
 5014SOL    HW126504   3.012   2.225   2.156  0.6908 -0.1167  0.2378
 5014SOL    HW226505   3.076   2.363   2.166  0.9065 -2.0633  1.5344
 5015SOL     OW26506   2.949   3.837  14.367  0.3982  0.6784  0.8715
 5015SOL    HW126507   2.927   3.906  14.304 -2.8337 -1.6365 -0.5303
 5015SOL    HW226508   2.995   3.888  14.434 -0.0649  1.5744  0.5102
 5016SOL     OW26509   0.541   1.036  10.364  0.2231  0.0165  0.7878
 5016SOL    HW126510   0.622   1.078  10.394  1.4876 -0.8509 -1.3895
 5016SOL    HW226511   0.487   1.113  10.345  0.4380  0.3820  1.6799
 5017SOL     OW26512   2.168   4.235   7.072  0.0347  0.3312 -0.1016
 5017SOL    HW126513   2.196   4.324   7.093 -0.7273  0.5801 -0.1423
 5017SOL    HW226514   2.087   4.235   7.123  0.8326 -3.8051  1.1881
 5018SOL     OW26515   1.256   0.246   7.219  0.5864 -0.2813 -0.3010
 5018SOL    HW126516   1.332   0.216   7.168  1.9637 -0.4808  1.8671
 5018SOL    HW226517   1.271   0.205   7.304  0.7931  0.4268  0.0046
 5019SOL     OW26518   2.923   1.192   7.643  0.2416 -0.5693  0.4654
 5019SOL    HW126519   3.009   1.157   7.619  0.7924  1.1079  0.0372
 5019SOL    HW226520   2.859   1.124   7.620 -0.5438  0.2991  0.1194
 5020SOL     OW26521   4.638   2.213   9.007  0.5671 -0.2541  0.0850
 5020SOL    HW126522   4.679   2.295   9.033 -0.9481  1.1607 -1.9674
 5020SOL    HW226523   4.655   2.152   9.078 -0.7123 -0.8794 -0.1473
 5021SOL     OW26524   1.600   3.930   7.092 -0.2398 -0.2271  0.2035
 5021SOL    HW126525   1.667   3.939   7.161  0.1799 -1.9459  0.0151
 5021SOL    HW226526   1.538   3.995   7.124  0.2125 -0.2185  1.0741
 5022SOL     OW26527   2.390   3.905  12.419  0.3375 -0.7632  0.6403
 5022SOL    HW126528   2.325   3.860  12.473  0.1293  1.0121  1.8875
 5022SOL    HW226529   2.462   3.843  12.418 -0.6394 -1.9109  1.8074
 5023SOL     OW26530   2.533   2.178   8.531 -0.0354  0.4747 -0.5347
 5023SOL    HW126531   2.467   2.220   8.586  0.5318 -0.8287  1.1435
 5023SOL    HW226532   2.605   2.241   8.537 -2.1558  2.9207 -0.3761
 5024SOL     OW26533   0.274   4.097  11.786 -0.1087 -0.1367  0.1424
 5024SOL    HW126534   0.190   4.084  11.831  0.4328 -0.8077  0.9688
 5024SOL    HW226535   0.250   4.074  11.697  0.1469 -1.5918  0.4493
 5025SOL     OW26536   4.541   3.969   3.534 -0.7212 -0.4317  0.9459
 5025SOL    HW126537   4.619   4.008   3.572 -1.0393 -0.2182  1.3861
 5025SOL    HW226538   4.558   3.874   3.539  0.8909 -0.1938 -0.1272
 5026SOL     OW26539   1.623   2.904  14.206 -0.3306  0.1460  0.6016
 5026SOL    HW126540   1.679   2.867  14.275 -0.7294 -0.5916  0.5307
 5026SOL    HW226541   1.671   2.985  14.191  0.2597 -0.2918  0.0841
 5027SOL     OW26542   1.139   0.889   2.816  0.1175  0.1369 -0.0158
 5027SOL    HW126543   1.081   0.860   2.746 -0.8691 -2.0225  1.6865
 5027SOL    HW226544   1.092   0.865   2.896 -2.5062  3.0867 -0.6996
 5028SOL     OW26545   4.119   4.594  16.817 -0.1103 -0.6866 -0.1735
 5028SOL    HW126546   4.193   4.618  16.873 -0.2380 -1.2423  0.2320
 5028SOL    HW226547   4.135   4.501  16.805 -2.1438 -1.1092  0.5009
 5029SOL     OW26548   2.407   3.600   4.901 -0.2464 -0.1909  0.4717
 5029SOL    HW126549   2.324   3.562   4.929 -0.0913 -0.9213 -0.0489
 5029SOL    HW226550   2.441   3.527   4.849 -0.0700 -0.6239  1.1974
 5030SOL     OW26551   1.056   0.410   7.207 -0.2926 -0.6659  0.2686
 5030SOL    HW126552   1.139   0.362   7.205 -0.0074 -0.2011  0.7370
 5030SOL    HW226553   1.097   0.485   7.250 -0.0537 -0.6683  0.0485
 5031SOL     OW26554   0.882   3.848   7.425  0.4663 -0.1301  0.1493
 5031SOL    HW126555   0.917   3.837   7.513 -0.9715  0.8905  0.8488
 5031SOL    HW226556   0.908   3.938   7.407 -1.1190  0.4714  0.9007
 5032SOL     OW26557   0.485   4.147   1.527 -0.1424  0.4036  0.3065
 5032SOL    HW126558   0.406   4.167   1.577 -0.1505  1.3429 -0.0841
 5032SOL    HW226559   0.454   4.176   1.441 -1.4573 -0.1694  0.5788
 5033SOL     OW26560   2.733   4.553   7.743  0.1517 -0.1822 -0.5023
 5033SOL    HW126561   2.765   4.637   7.777 -0.8366 -0.4796  1.1693
 5033SOL    HW226562   2.659   4.590   7.693  0.5451  0.0613 -0.9066
 5034SOL     OW26563   0.842   2.117   2.485  0.2528 -0.2913  0.2201
 5034SOL    HW126564   0.874   2.169   2.412  0.6184 -1.4138 -0.4257
 5034SOL    HW226565   0.808   2.047   2.429 -0.2471 -0.1857  0.3863
 5035SOL     OW26566   1.432   0.286   4.210 -0.2032  0.1124  0.3532
 5035SOL    HW126567   1.457   0.330   4.292  0.2110 -0.9187  0.7760
 5035SOL    HW226568   1.518   0.268   4.172 -0.7855 -1.9980  0.0417
 5036SOL     OW26569   2.591   4.701   3.079 -0.1675  0.2156 -0.1106
 5036SOL    HW126570   2.507   4.716   3.034 -1.0849  0.3347  1.6386
 5036SOL    HW226571   2.656   4.713   3.010  2.1927 -0.1410  2.0638
 5037SOL     OW26572   4.579   1.512   7.598 -0.0547  0.1389  0.2425
 5037SOL    HW126573   4.533   1.452   7.539 -0.2730 -1.7607  2.3259
 5037SOL    HW226574   4.619   1.570   7.533 -0.2517 -0.3778 -0.3413
 5038SOL     OW26575   0.140   2.502   7.871  0.5375  0.2114 -0.3125
 5038SOL    HW126576   0.068   2.481   7.811  1.7151 -3.2706 -0.5454
 5038SOL    HW226577   0.121   2.587   7.910 -0.8737 -0.8713  1.3569
 5039SOL     OW26578   2.219   3.232  10.965 -0.7012 -0.1652 -0.2433
 5039SOL    HW126579   2.253   3.144  10.952 -0.6712 -0.2995  0.7490
 5039SOL    HW226580   2.288   3.294  10.943 -2.3248  1.3887 -0.9687
 5040SOL     OW26581   1.596   2.463   6.596 -0.0363  0.0298 -0.3627
 5040SOL    HW126582   1.515   2.417   6.615 -0.0070  1.5323  3.3070
 5040SOL    HW226583   1.574   2.555   6.584  0.0314  0.0094 -0.6527
 5041SOL     OW26584   2.436   1.743   4.833 -0.2945 -1.2792  0.1364
 5041SOL    HW126585   2.444   1.670   4.771  0.5502 -1.2274  0.1900
 5041SOL    HW226586   2.475   1.816   4.785 -1.1467 -0.2636  0.9972
 5042SOL     OW26587   1.899   3.710   2.013  0.0958 -0.1538 -0.5388
 5042SOL    HW126588   1.818   3.714   2.064  0.1655 -1.3271 -0.3276
 5042SOL    HW226589   1.898   3.798   1.976 -0.3384  0.1056  0.0866
 5043SOL     OW26590   0.818   0.228  11.228  0.5772 -0.6079  0.2261
 5043SOL    HW126591   0.777   0.281  11.159  0.7779 -0.9980 -0.1898
 5043SOL    HW226592   0.854   0.292  11.290  2.0113 -1.7107  0.5236
 5044SOL     OW26593   2.819   1.839   4.810 -0.0624  0.1089 -0.0584
 5044SOL    HW126594   2.794   1.746   4.803  0.6939  0.0225 -1.7827
 5044SOL    HW226595   2.735   1.883   4.794 -0.9595 -2.0636 -1.5360
 5045SOL     OW26596   2.359   4.464  16.775 -0.7643  0.2292  0.3267
 5045SOL    HW126597   2.285   4.434  16.722 -0.8934  0.1982  0.5252
 5045SOL    HW226598   2.396   4.378  16.794 -0.2857  0.5454  0.8159
 5046SOL     OW26599   4.337   3.154   0.913 -0.3756  0.3696  0.0576
 5046SOL    HW126600   4.386   3.228   0.875  1.4620  0.3269  2.3227
 5046SOL    HW226601   4.262   3.142   0.855 -0.5894 -2.8814  1.0242
 5047SOL     OW26602   1.459   0.302  14.104  0.2792 -0.3162 -0.3375
 5047SOL    HW126603   1.524   0.262  14.161 -0.7207 -2.2778 -0.5723
 5047SOL    HW226604   1.442   0.229  14.044 -0.9483 -0.0110 -0.3583
 5048SOL     OW26605   3.695   1.524   4.577  0.7251  0.0081  0.4975
 5048SOL    HW126606   3.613   1.504   4.623 -0.3738  2.0040 -0.6223
 5048SOL    HW226607   3.720   1.440   4.537  1.2758  0.7482 -0.7072
 5049SOL     OW26608   0.945   4.197   3.561 -0.2979  0.2443 -0.2823
 5049SOL    HW126609   0.950   4.288   3.529 -1.2181  0.2892 -0.2848
 5049SOL    HW226610   0.872   4.157   3.514 -1.2609  0.6087  0.9084
 5050SOL     OW26611   1.425   1.551   5.192 -0.1082 -0.6164 -0.0708
 5050SOL    HW126612   1.412   1.459   5.168 -0.4010 -0.8192  0.8453
 5050SOL    HW226613   1.378   1.601   5.126 -0.5402 -1.3688 -0.3330
 5051SOL     OW26614   2.095   3.037   0.077 -0.1370 -0.4378  0.3237
 5051SOL    HW126615   2.031   2.966   0.078  0.7899 -1.2946 -0.0319
 5051SOL    HW226616   2.076   3.085  17.689  1.1598 -0.7871 -0.1905
 5052SOL     OW26617   2.881   3.148   1.940 -0.3671 -0.6068  0.2762
 5052SOL    HW126618   2.917   3.237   1.940  1.8860 -1.4926 -1.1612
 5052SOL    HW226619   2.788   3.166   1.953 -0.9291 -2.5842 -0.9554
 5053SOL     OW26620   1.276   2.064   4.342 -0.3477  0.2449 -0.6449
 5053SOL    HW126621   1.318   2.039   4.259 -0.7090 -1.4539 -0.3032
 5053SOL    HW226622   1.230   2.145   4.319  1.1317  0.7301 -1.9214
 5054SOL     OW26623   1.545   3.057   5.316 -0.0863  0.1344 -0.5121
 5054SOL    HW126624   1.519   3.059   5.224 -0.4549  1.5951 -0.3861
 5054SOL    HW226625   1.627   3.103   5.299  0.1499 -0.1646 -0.1864
 5055SOL     OW26626   2.687   2.960  17.487  0.6276  0.3981  0.4418
 5055SOL    HW126627   2.742   3.014  17.543 -1.2854  0.5516  2.1884
 5055SOL    HW226628   2.642   2.903  17.550  4.0291 -1.3307  1.3131
 5056SOL     OW26629   2.101   1.480  14.251 -0.0233  0.4560  0.0940
 5056SOL    HW126630   2.088   1.559  14.198 -0.5496  0.6371  0.4976
 5056SOL    HW226631   2.124   1.516  14.337 -0.7901  0.9441  0.0893
 5057SOL     OW26632   1.500   1.851  12.957  0.9737  0.2874 -0.0896
 5057SOL    HW126633   1.426   1.792  12.941 -0.1804  1.2321  1.7437
 5057SOL    HW226634   1.466   1.899  13.033 -0.2435 -3.1241  1.5139
 5058SOL     OW26635   1.377   1.857   0.067 -0.6500 -0.1919  0.2870
 5058SOL    HW126636   1.356   1.854  17.666  0.3650 -0.1841  0.0507
 5058SOL    HW226637   1.380   1.763   0.081  1.6940 -0.3357 -1.0898
 5059SOL     OW26638   1.062   2.565   4.033 -0.1492 -0.4730 -0.1987
 5059SOL    HW126639   1.106   2.548   4.116 -0.5905  2.1367  0.5432
 5059SOL    HW226640   1.127   2.533   3.971 -0.3270  0.0907 -0.6719
 5060SOL     OW26641   2.572   0.972   9.183 -0.1597 -0.1256  0.3102
 5060SOL    HW126642   2.621   0.891   9.169 -1.9924 -1.2365  0.4357
 5060SOL    HW226643   2.486   0.942   9.212 -1.0550 -0.2547 -2.5522
 5061SOL     OW26644   2.468   0.518   7.563 -0.7730 -0.4289  0.1559
 5061SOL    HW126645   2.448   0.523   7.656 -1.6368 -1.1300  0.0037
 5061SOL    HW226646   2.561   0.542   7.564 -0.8423 -0.1175 -0.7865
 5062SOL     OW26647   1.181   2.018   4.970 -0.2682  0.1046 -0.5284
 5062SOL    HW126648   1.110   2.076   4.942 -1.5026 -1.1784 -0.0594
 5062SOL    HW226649   1.186   1.944   4.909 -0.6319 -1.3574  1.2078
 5063SOL     OW26650   3.166   2.209   4.081 -0.1262  0.2821 -0.2491
 5063SOL    HW126651   3.216   2.160   4.146 -1.0507  0.5037  0.6393
 5063SOL    HW226652   3.103   2.255   4.137  0.5906  2.6890 -1.4397
 5064SOL     OW26653   3.765   2.373   0.799  0.1468  0.0438  0.2366
 5064SOL    HW126654   3.779   2.285   0.764 -0.2472  0.4660 -0.9662
 5064SOL    HW226655   3.671   2.371   0.782  0.2272 -2.4594  0.1666
 5065SOL     OW26656   3.071   3.542   8.720  0.8996 -0.2715 -0.3090
 5065SOL    HW126657   3.143   3.603   8.735  0.0493  0.5612  0.3566
 5065SOL    HW226658   3.112   3.473   8.772  1.3939 -0.1446 -0.5241
 5066SOL     OW26659   3.538   3.713   5.908  0.4156  0.1085 -0.1580
 5066SOL    HW126660   3.466   3.776   5.911  0.3276  0.1657 -3.5653
 5066SOL    HW226661   3.618   3.767   5.903  0.0754  0.9195  3.1851
 5067SOL     OW26662   0.684   3.117   1.837 -0.0802 -0.2958 -0.4484
 5067SOL    HW126663   0.771   3.079   1.822 -0.0963 -0.0754 -1.0946
 5067SOL    HW226664   0.690   3.168   1.917 -2.3912 -1.4550  0.4476
 5068SOL     OW26665   0.083   4.248   7.305  0.2690 -0.0409 -0.1920
 5068SOL    HW126666   0.080   4.343   7.314 -0.6730 -0.1817  1.0124
 5068SOL    HW226667   0.168   4.227   7.346 -0.0363 -2.8694 -1.0142
 5069SOL     OW26668   1.746   4.377   3.305 -0.1570 -0.1564  0.3466
 5069SOL    HW126669   1.738   4.401   3.398  1.1753 -0.7552  0.6127
 5069SOL    HW226670   1.785   4.291   3.314  0.5226  0.0610 -0.5382
 5070SOL     OW26671   1.003   1.800  17.580 -0.1610  0.5311 -0.2088
 5070SOL    HW126672   1.019   1.758  17.664 -4.7753 -0.7296  0.0400
 5070SOL    HW226673   0.976   1.725  17.527  0.2001  0.8382 -0.8351
 5071SOL     OW26674   2.238   3.968  16.445 -0.1635  0.1821  0.3373
 5071SOL    HW126675   2.297   3.924  16.506 -0.0762  0.0377  0.1463
 5071SOL    HW226676   2.300   4.023  16.396  1.2233 -1.7055 -0.0162
 5072SOL     OW26677   1.368   1.282   7.648 -0.2553 -0.3364 -0.3399
 5072SOL    HW126678   1.308   1.353   7.627 -1.1487 -0.3548  2.1364
 5072SOL    HW226679   1.444   1.337   7.668 -0.3261 -0.3102 -0.1428
 5073SOL     OW26680   3.499   3.892   8.415 -0.2526 -0.0753  0.2557
 5073SOL    HW126681   3.556   3.895   8.491  0.8905  2.5462 -0.7010
 5073SOL    HW226682   3.437   3.829   8.450 -0.1821  0.4321  1.2912
 5074SOL     OW26683   4.444   0.193   0.391 -0.0516 -0.2790 -0.5099
 5074SOL    HW126684   4.476   0.176   0.302  0.9685  1.1686 -0.4199
 5074SOL    HW226685   4.370   0.132   0.396 -0.3102  0.1755  1.1811
 5075SOL     OW26686   2.123   1.417   8.042 -0.1719 -0.3819 -0.0863
 5075SOL    HW126687   2.125   1.469   7.961 -0.2305  3.5152  2.4536
 5075SOL    HW226688   2.125   1.484   8.109 -0.7262  1.3283 -1.7816
 5076SOL     OW26689   0.245   0.711   7.885 -0.1668  0.2886 -0.0903
 5076SOL    HW126690   0.178   0.778   7.901 -0.2592  0.4088 -0.9699
 5076SOL    HW226691   0.310   0.765   7.842  0.0072 -0.5549 -0.8983
 5077SOL     OW26692   1.051   0.821  14.125  0.0798 -0.2716  0.2916
 5077SOL    HW126693   1.110   0.797  14.054 -1.0484 -1.1006 -0.3542
 5077SOL    HW226694   1.011   0.738  14.150 -0.4368  0.3374  1.4966
 5078SOL     OW26695   4.019   0.549   8.393 -0.1977 -0.6253  0.4479
 5078SOL    HW126696   4.079   0.613   8.430 -0.0816  0.5094 -1.6713
 5078SOL    HW226697   3.945   0.595   8.353  0.4026 -0.4400 -0.4618
 5079SOL     OW26698   4.166   0.696   3.605  0.2892  0.0145  0.2100
 5079SOL    HW126699   4.238   0.678   3.665  0.2984 -1.4247 -0.2316
 5079SOL    HW226700   4.089   0.708   3.661  0.7693 -0.2675  0.9389
 5080SOL     OW26701   1.001   3.169   0.130 -0.5487  0.2157 -0.1292
 5080SOL    HW126702   1.084   3.213   0.150 -0.3710 -0.8087  1.3361
 5080SOL    HW226703   1.032   3.113   0.059 -0.2955  0.1243  0.0539
 5081SOL     OW26704   1.026   3.404  11.111  0.3332  0.3578  0.2611
 5081SOL    HW126705   1.091   3.423  11.178  1.7552 -2.5260 -0.2869
 5081SOL    HW226706   1.012   3.312  11.135 -0.7816  0.3203 -0.4757
 5082SOL     OW26707   0.863   2.473   4.244 -0.0506 -0.0996  0.2020
 5082SOL    HW126708   0.809   2.532   4.192  1.3632 -1.8026 -3.2097
 5082SOL    HW226709   0.936   2.446   4.188  0.3157 -0.4078  0.8289
 5083SOL     OW26710   1.362   4.331  12.661  0.0122 -0.6231  0.2852
 5083SOL    HW126711   1.429   4.386  12.621 -1.4696  0.3184 -0.8580
 5083SOL    HW226712   1.326   4.389  12.728  1.0505 -1.0394  1.2130
 5084SOL     OW26713   1.914   1.559  13.166  0.5857 -0.6448  0.2533
 5084SOL    HW126714   1.877   1.518  13.244 -1.0371  1.5354  0.6390
 5084SOL    HW226715   1.840   1.579  13.109  0.7782 -0.8565 -0.0675
 5085SOL     OW26716   3.127   1.881   3.871  0.0436  0.1896 -0.3235
 5085SOL    HW126717   3.168   1.867   3.956  2.6395  0.4598 -1.5204
 5085SOL    HW226718   3.171   1.962   3.846  1.3251 -0.5389 -0.4232
 5086SOL     OW26719   2.858   0.046   6.441 -0.1470 -0.1332  0.5199
 5086SOL    HW126720   2.769   0.074   6.464 -0.3821 -0.9687  0.6327
 5086SOL    HW226721   2.901   0.101   6.506  1.3504 -0.2933 -0.3389
 5087SOL     OW26722   1.397   0.912   6.957 -0.3502 -0.2481  0.0911
 5087SOL    HW126723   1.411   0.818   6.941  1.6504  0.0796 -0.0723
 5087SOL    HW226724   1.333   0.923   6.886  0.4777  0.0496 -0.6063
 5088SOL     OW26725   3.731   2.690  16.530  0.7651  0.2325 -0.5553
 5088SOL    HW126726   3.706   2.706  16.620 -2.8980  0.3611 -1.5947
 5088SOL    HW226727   3.745   2.595  16.537  1.4144  0.4138  0.5576
 5089SOL     OW26728   2.455   2.092   5.350  0.1558 -0.3497 -0.0656
 5089SOL    HW126729   2.404   2.141   5.414  1.3219  2.9348 -1.6485
 5089SOL    HW226730   2.407   2.094   5.267  0.4283 -3.9636 -0.3431
 5090SOL     OW26731   2.692   3.951   2.363 -0.5719 -0.2953  0.4215
 5090SOL    HW126732   2.618   3.920   2.311  0.3882 -0.2128 -0.9919
 5090SOL    HW226733   2.642   3.940   2.444  1.0233 -0.5539  1.3758
 5091SOL     OW26734   1.620   0.925  10.546 -0.6136 -0.1523  0.2105
 5091SOL    HW126735   1.593   0.834  10.552  0.9318 -0.5147  1.5569
 5091SOL    HW226736   1.548   0.971  10.502  1.0217  1.7106 -0.4904
 5092SOL     OW26737   4.158   4.193  16.839  0.8922  0.0948  0.1359
 5092SOL    HW126738   4.080   4.247  16.851  0.2899 -0.2004 -2.4998
 5092SOL    HW226739   4.186   4.208  16.749  0.1325  1.1535  0.0839
 5093SOL     OW26740   0.802   3.707   0.052 -0.4307  0.4956  0.3739
 5093SOL    HW126741   0.785   3.789   0.099  1.4790  1.7769 -1.1510
 5093SOL    HW226742   0.778   3.648   0.123  1.2518  0.1355  0.6374
 5094SOL     OW26743   3.117   1.568   5.838  0.6987  0.8775  0.4909
 5094SOL    HW126744   3.096   1.638   5.900 -2.2307 -0.1706  0.6677
 5094SOL    HW226745   3.209   1.593   5.835  0.9938 -0.2826  0.3169
 5095SOL     OW26746   3.957   0.842  16.726 -0.3593 -0.2621  0.0949
 5095SOL    HW126747   3.899   0.782  16.772 -1.2393  0.4571 -0.0916
 5095SOL    HW226748   4.039   0.793  16.729 -0.2552 -0.1448 -1.1703
 5096SOL     OW26749   2.501   4.228  12.558 -0.1004  0.5054 -0.0920
 5096SOL    HW126750   2.570   4.247  12.494  0.5384 -1.4013  0.0303
 5096SOL    HW226751   2.521   4.141  12.593  3.2729  1.3536  0.0706
 5097SOL     OW26752   1.264   4.399  17.193  0.3233 -0.0751  0.4012
 5097SOL    HW126753   1.202   4.377  17.125 -0.6114 -0.1358  1.2729
 5097SOL    HW226754   1.344   4.428  17.148  0.0391  0.4702  0.2421
 5098SOL     OW26755   3.471   2.854  13.487  0.4335 -0.2807 -1.0957
 5098SOL    HW126756   3.550   2.885  13.444  1.7312 -0.3495  1.2541
 5098SOL    HW226757   3.509   2.854  13.575 -1.3597 -0.0480 -0.3228
 5099SOL     OW26758   3.695   1.549   8.628 -0.5170  0.4081 -0.7668
 5099SOL    HW126759   3.788   1.527   8.632 -0.8705 -1.6211 -3.3428
 5099SOL    HW226760   3.655   1.465   8.606  0.4774  0.1471 -1.5887
 5100SOL     OW26761   2.582   1.407   5.135  0.1119 -0.0362 -0.0095
 5100SOL    HW126762   2.500   1.456   5.145 -0.0726 -0.4876  0.6667
 5100SOL    HW226763   2.547   1.318   5.127  0.9617 -0.4519  1.0199
 5101SOL     OW26764   0.498   3.962  11.148 -0.0242 -0.0615  0.2233
 5101SOL    HW126765   0.479   4.012  11.069 -3.7588 -1.2892  0.3288
 5101SOL    HW226766   0.418   3.983  11.197 -0.0997 -0.9589  0.4916
 5102SOL     OW26767   0.540   2.755   9.140 -0.1236  0.3302  0.3109
 5102SOL    HW126768   0.485   2.703   9.198  1.3072 -0.8248  0.6172
 5102SOL    HW226769   0.534   2.713   9.054  0.3503 -1.4173  1.1438
 5103SOL     OW26770   1.376   1.672   6.430  0.2522 -0.4066 -0.0064
 5103SOL    HW126771   1.292   1.709   6.457  0.5525 -0.0393  0.4146
 5103SOL    HW226772   1.349   1.654   6.340 -0.8279 -0.1733  0.2788
 5104SOL     OW26773   3.626   3.082   0.993 -0.2091  0.2972 -0.3374
 5104SOL    HW126774   3.686   3.092   0.919  0.5609 -0.9279  0.1106
 5104SOL    HW226775   3.675   3.130   1.060  1.2546 -1.3299 -0.2180
 5105SOL     OW26776   0.330   1.861   9.131  0.4925  0.7253  0.0348
 5105SOL    HW126777   0.375   1.933   9.087  0.5116  2.0307  2.1683
 5105SOL    HW226778   0.359   1.797   9.067 -0.4967  0.1154  0.2029
 5106SOL     OW26779   1.882   3.634   2.648  0.2029  0.5184  0.1940
 5106SOL    HW126780   1.974   3.625   2.674  0.7304 -2.0712 -2.5700
 5106SOL    HW226781   1.881   3.697   2.575 -0.1953  0.6972  0.3519
 5107SOL     OW26782   2.279   1.479   8.317  0.4136  0.1253  0.1843
 5107SOL    HW126783   2.294   1.543   8.387 -3.0431  0.6299  0.4416
 5107SOL    HW226784   2.196   1.444   8.349 -2.0247  2.0179 -4.0954
 5108SOL     OW26785   2.586   2.552  14.128 -0.5800  0.4475 -0.4893
 5108SOL    HW126786   2.563   2.488  14.061 -0.4593  0.4239 -0.5093
 5108SOL    HW226787   2.587   2.631  14.073  1.1415 -0.0655 -1.2175
 5109SOL     OW26788   2.071   1.209   3.137 -0.6372  0.5012 -0.1855
 5109SOL    HW126789   2.137   1.142   3.153 -0.2943  0.8899  0.0173
 5109SOL    HW226790   2.123   1.280   3.100  1.4351 -0.5473  0.7020
 5110SOL     OW26791   2.771   3.348  17.088  0.6007 -0.0094 -0.4491
 5110SOL    HW126792   2.750   3.323  17.178  0.4168 -1.6460 -0.9381
 5110SOL    HW226793   2.683   3.378  17.065 -0.0698 -1.9157 -0.3648
 5111SOL     OW26794   1.856   1.221   6.498  0.0923  0.1854  0.0097
 5111SOL    HW126795   1.846   1.175   6.415  1.3603 -0.2733  0.1113
 5111SOL    HW226796   1.942   1.261   6.482  0.3445  0.4644  2.1234
 5112SOL     OW26797   0.632   0.903  15.908 -0.1916  0.6119 -0.2778
 5112SOL    HW126798   0.578   0.903  15.987 -1.2130 -2.3894 -0.9974
 5112SOL    HW226799   0.561   0.902  15.843  0.0935 -2.6571 -0.5320
 5113SOL     OW26800   0.413   3.807  12.188  0.6735  0.0862  0.5931
 5113SOL    HW126801   0.431   3.882  12.244 -0.3313  1.1987 -0.5793
 5113SOL    HW226802   0.445   3.848  12.108 -0.0355  0.6754  0.6123
 5114SOL     OW26803   3.162   2.485   6.237 -0.4744 -0.1530 -0.0561
 5114SOL    HW126804   3.088   2.429   6.263 -0.6878 -1.0337 -2.4985
 5114SOL    HW226805   3.111   2.544   6.181 -0.2183 -0.4036 -0.5619
 5115SOL     OW26806   4.321   1.146   8.005 -0.4589 -0.4018  0.3515
 5115SOL    HW126807   4.327   1.083   8.077 -0.6363 -2.8216 -1.7457
 5115SOL    HW226808   4.233   1.120   7.980  0.8846 -2.5881 -2.0916
 5116SOL     OW26809   0.268   3.106  15.722 -0.1831 -0.5430 -0.2051
 5116SOL    HW126810   0.289   3.199  15.712 -1.2173 -0.0942  1.8936
 5116SOL    HW226811   0.184   3.078  15.684  0.5654 -1.2512 -1.3473
 5117SOL     OW26812   0.826   0.369  14.517 -0.3650 -0.3977 -0.3398
 5117SOL    HW126813   0.885   0.300  14.548  0.4890 -0.4736 -2.1645
 5117SOL    HW226814   0.819   0.356  14.423  1.7282 -0.2243 -0.5308
 5118SOL     OW26815   0.959   2.771   2.375 -0.5957  0.1866 -0.0532
 5118SOL    HW126816   0.929   2.728   2.455  0.4156 -1.3823 -0.5116
 5118SOL    HW226817   1.050   2.783   2.404 -0.9703  0.3626  1.0432
 5119SOL     OW26818   1.154   3.204  17.263  0.3663 -0.0831 -0.8593
 5119SOL    HW126819   1.217   3.138  17.291 -0.3279 -0.4932 -0.2716
 5119SOL    HW226820   1.097   3.135  17.228  4.5391 -3.2385 -1.4121
 5120SOL     OW26821   1.701   1.650   7.630 -0.3069  0.1086  0.4629
 5120SOL    HW126822   1.615   1.692   7.632  0.3917  1.6269 -1.6474
 5120SOL    HW226823   1.734   1.673   7.717 -0.6298 -2.8655  1.3785
 5121SOL     OW26824   3.287   0.198  14.995 -0.5646  0.4136 -0.4102
 5121SOL    HW126825   3.355   0.177  15.060 -0.1870  1.9207 -0.3267
 5121SOL    HW226826   3.211   0.145  15.017 -1.4160  2.3840  1.3484
 5122SOL     OW26827   3.763   4.547   5.212 -0.9488  0.2424  0.7904
 5122SOL    HW126828   3.850   4.561   5.174 -0.8859  0.9980  1.2283
 5122SOL    HW226829   3.787   4.472   5.267  1.0398 -0.9361 -1.6748
 5123SOL     OW26830   0.362   2.364  11.076  0.5227  0.4591  0.1353
 5123SOL    HW126831   0.344   2.398  11.164 -0.1498 -0.7344  0.4662
 5123SOL    HW226832   0.304   2.288  11.083  1.0332  0.1166  0.6341
 5124SOL     OW26833   2.624   4.548  16.981 -0.2966 -0.3962 -0.0024
 5124SOL    HW126834   2.709   4.562  16.938 -0.2380  0.5166  0.4180
 5124SOL    HW226835   2.611   4.453  16.971  0.2534 -0.5967  1.1773
 5125SOL     OW26836   3.754   2.340   6.532  0.2962  0.1020  0.1516
 5125SOL    HW126837   3.755   2.408   6.464  2.3071 -0.0815 -0.0024
 5125SOL    HW226838   3.769   2.401   6.604  1.4759  0.1794 -0.1544
 5126SOL     OW26839   0.049   0.912  10.408  0.0390  0.1395  0.4345
 5126SOL    HW126840   0.050   0.903  10.503 -0.0487  0.2681  0.4478
 5126SOL    HW226841   4.681   0.944  10.408  0.7587  2.2104 -2.7572
 5127SOL     OW26842   2.376   4.674   5.031  0.5123  0.3238 -0.4515
 5127SOL    HW126843   2.346   4.586   5.052 -1.5340  1.4540  1.2303
 5127SOL    HW226844   2.460   4.657   4.988 -0.2092  1.1859 -2.2114
 5128SOL     OW26845   1.235   2.661   4.457  0.4399  0.0037 -0.0065
 5128SOL    HW126846   1.237   2.583   4.403 -2.4358 -1.0101  1.3714
 5128SOL    HW226847   1.219   2.624   4.544  0.2725 -1.4499 -0.6641
 5129SOL     OW26848   3.189   0.460  10.934 -0.1511 -0.3654  0.5885
 5129SOL    HW126849   3.107   0.416  10.912 -1.8036  3.0970 -0.3071
 5129SOL    HW226850   3.257   0.393  10.925 -0.1800 -0.3277  0.0815
 5130SOL     OW26851   0.591   0.142   6.374 -0.6875  0.6175  0.3644
 5130SOL    HW126852   0.588   0.054   6.336  1.6713  1.0673 -0.8492
 5130SOL    HW226853   0.537   0.190   6.311 -1.2261 -0.5087 -0.0462
 5131SOL     OW26854   1.699   2.996  10.020  0.4253 -0.0824 -0.3014
 5131SOL    HW126855   1.767   2.932  10.041  2.4601  1.8464 -1.0650
 5131SOL    HW226856   1.622   2.942  10.002  0.3175  0.1039 -0.3992
 5132SOL     OW26857   4.714   3.192  11.483  0.2938 -0.1599  0.2070
 5132SOL    HW126858   4.641   3.155  11.533  0.9359 -1.9057 -0.1561
 5132SOL    HW226859   0.039   3.237  11.553  2.5122  0.9729 -2.0334
 5133SOL     OW26860   0.247   3.662   6.262 -0.1230 -0.1773 -0.0501
 5133SOL    HW126861   0.301   3.741   6.259  0.1583 -0.3610  0.1131
 5133SOL    HW226862   0.315   3.604   6.297  0.4259  1.2756  1.2310
 5134SOL     OW26863   3.770   1.992   1.462  0.2752 -0.1421  0.1373
 5134SOL    HW126864   3.813   2.070   1.427 -2.2170  1.3107  0.3550
 5134SOL    HW226865   3.819   1.919   1.425  2.0192  1.2506 -0.3015
 5135SOL     OW26866   1.875   4.472   4.856  0.4343  0.1775  0.2133
 5135SOL    HW126867   1.835   4.554   4.884 -2.2600 -1.7412  2.0825
 5135SOL    HW226868   1.954   4.459   4.909  0.8114 -1.3777 -0.7294
 5136SOL     OW26869   4.659   1.983   6.039 -0.5523 -0.0210 -0.5330
 5136SOL    HW126870   4.703   1.946   5.963  0.8654  2.7005 -1.0464
 5136SOL    HW226871   4.568   1.959   6.023 -0.2454 -1.0744 -0.7217
 5137SOL     OW26872   0.714   3.236   6.594  0.0817  0.0564 -0.3073
 5137SOL    HW126873   0.641   3.177   6.609 -0.3877  1.3513  2.4342
 5137SOL    HW226874   0.753   3.230   6.681 -2.0373 -2.3390  0.4691
 5138SOL     OW26875   1.326   4.142  15.990  0.1992  0.1543  0.5801
 5138SOL    HW126876   1.404   4.092  16.014  0.7366  0.0386 -1.4540
 5138SOL    HW226877   1.271   4.079  15.944  0.2010 -0.0904  0.9171
 5139SOL     OW26878   3.792   2.221   8.865 -0.2076  0.1980 -0.4176
 5139SOL    HW126879   3.858   2.200   8.931 -1.9375 -0.9881  0.9140
 5139SOL    HW226880   3.773   2.310   8.893 -0.1647 -0.1802  0.7944
 5140SOL     OW26881   2.360   0.070   5.653  0.0117  0.0026  0.7967
 5140SOL    HW126882   2.275   0.106   5.627 -0.0023 -1.3200 -0.9631
 5140SOL    HW226883   2.351   0.060   5.748  0.6729  1.9602  1.0729
 5141SOL     OW26884   3.092   3.336   4.568 -0.4762 -0.3315 -0.7104
 5141SOL    HW126885   3.084   3.290   4.652  2.2668  0.1481 -0.1729
 5141SOL    HW226886   3.010   3.386   4.570  0.9226  1.9191  0.0043
 5142SOL     OW26887   2.337   3.216  16.928 -0.2425  0.4494  0.4550
 5142SOL    HW126888   2.301   3.245  17.012  0.4941 -0.3166  1.0204
 5142SOL    HW226889   2.296   3.135  16.898 -2.2043  1.5410  0.1221
 5143SOL     OW26890   1.005   1.818  14.391 -0.4016  0.1729 -0.1055
 5143SOL    HW126891   1.073   1.839  14.326 -0.5064 -1.0179 -0.5952
 5143SOL    HW226892   0.954   1.751  14.346 -1.9520  0.5719  1.0667
 5144SOL     OW26893   0.665   0.264   7.037  0.2894 -0.3725  0.1018
 5144SOL    HW126894   0.680   0.190   6.978  1.2363 -1.1226  1.2799
 5144SOL    HW226895   0.748   0.311   7.042 -1.2815  2.4295  0.1535
 5145SOL     OW26896   0.767   3.994  12.996 -0.5720 -0.1134  0.2624
 5145SOL    HW126897   0.734   3.971  12.909  1.3534  0.1513 -0.5450
 5145SOL    HW226898   0.692   3.972  13.050  0.1299 -0.1571  1.2183
 5146SOL     OW26899   0.487   3.730   5.322  0.2622  0.1158 -0.6021
 5146SOL    HW126900   0.400   3.730   5.281  0.3488 -1.1068 -0.7949
 5146SOL    HW226901   0.466   3.715   5.415  1.5586  1.9065 -0.0256
 5147SOL     OW26902   1.972   2.995  13.521 -0.1905 -0.3332  0.1339
 5147SOL    HW126903   2.015   2.913  13.547 -0.7332 -1.0613 -1.2260
 5147SOL    HW226904   1.889   2.949  13.535 -0.1785 -0.2251  0.5539
 5148SOL     OW26905   1.154   3.563   3.630 -0.5020 -0.1987 -0.4460
 5148SOL    HW126906   1.248   3.573   3.646 -0.3934 -0.3726 -0.9841
 5148SOL    HW226907   1.128   3.569   3.722  1.6450  2.7151 -0.0316
 5149SOL     OW26908   1.450   3.399   7.775 -0.4777  0.2685  0.6357
 5149SOL    HW126909   1.462   3.482   7.820  0.9039 -0.4272  1.5788
 5149SOL    HW226910   1.456   3.347   7.855  1.0692 -1.6040 -0.7049
 5150SOL     OW26911   3.450   4.248   4.952 -0.4055  0.6870  0.1797
 5150SOL    HW126912   3.486   4.316   4.896 -2.6286  0.0780 -1.9604
 5150SOL    HW226913   3.358   4.273   4.947 -0.2093  1.0040 -1.5859
 5151SOL     OW26914   0.800   3.365   6.170 -0.2340  0.7635  0.2853
 5151SOL    HW126915   0.728   3.327   6.119  0.7780  0.4507 -0.9015
 5151SOL    HW226916   0.839   3.284   6.204 -1.0874  0.0036 -0.5385
 5152SOL     OW26917   4.642   3.021   8.271  0.0352  0.0729  0.1421
 5152SOL    HW126918   4.637   2.925   8.273 -0.3459  0.1374  2.7738
 5152SOL    HW226919   4.689   3.029   8.188  0.7663  2.1793  0.7785
 5153SOL     OW26920   3.331   4.212   4.429 -0.5212 -0.0059  0.3218
 5153SOL    HW126921   3.304   4.152   4.360 -2.6879  0.3374  0.8539
 5153SOL    HW226922   3.361   4.163   4.505 -2.0132  0.0228  0.9218
 5154SOL     OW26923   2.914   0.223  10.489 -0.2991 -0.0489  0.0360
 5154SOL    HW126924   2.851   0.216  10.561 -1.0214  0.3983 -0.5523
 5154SOL    HW226925   2.965   0.296  10.524 -0.8177  0.2920  0.0844
 5155SOL     OW26926   1.957   0.508   7.465  0.0823 -0.4343  0.6703
 5155SOL    HW126927   1.985   0.599   7.462 -0.3226 -0.3006  1.0157
 5155SOL    HW226928   1.875   0.520   7.417  0.4299 -0.0128  0.1815
 5156SOL     OW26929   0.111   1.951  11.619 -0.4934  0.8322  0.3365
 5156SOL    HW126930   0.067   1.937  11.702  0.8232 -0.7870  0.7596
 5156SOL    HW226931   0.162   2.029  11.641  2.2117 -1.6169  2.6356
 5157SOL     OW26932   2.211   0.461   3.137 -0.2402  0.3082 -0.2362
 5157SOL    HW126933   2.140   0.440   3.077  0.1451  0.8511 -0.8695
 5157SOL    HW226934   2.199   0.381   3.188  0.9483 -0.6950 -1.5331
 5158SOL     OW26935   4.038   3.029   8.984 -0.7692  0.1622 -0.2908
 5158SOL    HW126936   4.044   3.013   8.890 -0.1377 -0.2812 -0.1808
 5158SOL    HW226937   4.079   3.115   8.978 -1.1271  0.2309 -1.6275
 5159SOL     OW26938   4.583   3.277  17.678  0.0530 -0.3576  0.4427
 5159SOL    HW126939   4.563   3.370  17.689 -0.1730 -0.3453 -0.1134
 5159SOL    HW226940   4.531   3.253  17.602  0.1880 -0.1011  0.2692
 5160SOL     OW26941   2.727   0.325  13.754 -0.0888 -0.0245  0.3331
 5160SOL    HW126942   2.749   0.240  13.792 -2.0782 -0.4997  0.4345
 5160SOL    HW226943   2.636   0.348  13.772 -0.9247  0.3664 -4.4299
 5161SOL     OW26944   0.411   4.143   0.017 -0.0582  0.4920 -0.1950
 5161SOL    HW126945   0.444   4.103  17.629  0.3378 -1.5361  0.9804
 5161SOL    HW226946   0.478   4.211   0.030  1.2245 -0.7774 -0.1945
 5162SOL     OW26947   3.893   3.065   8.016 -0.6672  0.3331  0.2732
 5162SOL    HW126948   3.852   2.986   7.980 -0.0515  0.0496  0.1870
 5162SOL    HW226949   3.980   3.028   8.035  0.4753  3.1297  0.5006
 5163SOL     OW26950   0.564   4.030   8.316 -0.0267  0.0676 -0.1693
 5163SOL    HW126951   0.546   3.939   8.341 -1.2529  0.1146 -0.8348
 5163SOL    HW226952   0.481   4.060   8.279  0.2578  0.2271 -0.6803
 5164SOL     OW26953   1.662   0.307   1.623  0.0802 -0.1211 -0.0625
 5164SOL    HW126954   1.626   0.395   1.635  0.8253  0.4884 -2.3249
 5164SOL    HW226955   1.584   0.254   1.639 -0.0959  0.4209  0.8411
 5165SOL     OW26956   0.030   2.015   6.314  0.2810  0.2116 -0.0923
 5165SOL    HW126957   0.094   2.086   6.317 -1.3308  1.6910 -0.6601
 5165SOL    HW226958   4.716   2.002   6.227  1.4379  0.7895 -0.6653
 5166SOL     OW26959   0.003   2.117   7.596  0.3262 -0.1843  0.3128
 5166SOL    HW126960   0.052   2.179   7.543 -3.9238  2.8489 -0.0193
 5166SOL    HW226961   4.640   2.123   7.553  2.1783 -0.0156 -3.3060
 5167SOL     OW26962   2.725   2.255   5.059  0.4556  0.2211 -0.1678
 5167SOL    HW126963   2.679   2.233   4.978  0.1287 -0.8801  0.3197
 5167SOL    HW226964   2.665   2.250   5.133 -0.6141  1.9887 -0.9231
 5168SOL     OW26965   1.430   3.586   6.712 -0.6817 -0.0210 -0.5383
 5168SOL    HW126966   1.400   3.630   6.633  0.0113  4.2902  1.6154
 5168SOL    HW226967   1.430   3.661   6.772  1.3896 -0.1679 -0.3364
 5169SOL     OW26968   4.672   3.594   6.289 -0.4058 -0.2037 -0.8533
 5169SOL    HW126969   4.656   3.500   6.301  0.8523 -0.6785 -2.8667
 5169SOL    HW226970   0.012   3.596   6.217 -1.2819 -0.1477 -1.6089
 5170SOL     OW26971   1.410   0.116  16.324 -0.1050 -0.5381 -0.7188
 5170SOL    HW126972   1.488   0.091  16.275  0.8001 -0.4140  0.6348
 5170SOL    HW226973   1.439   0.100  16.414  2.4842  0.4365 -1.3760
 5171SOL     OW26974   0.903   3.560   0.658  0.0314  0.1256 -0.5448
 5171SOL    HW126975   0.808   3.551   0.660 -0.0335  1.2522  0.9360
 5171SOL    HW226976   0.919   3.586   0.567  1.4196  0.6746 -0.1401
 5172SOL     OW26977   2.563   0.302   7.425 -0.1750  0.3113 -0.5419
 5172SOL    HW126978   2.508   0.226   7.445 -0.1281  0.6041  0.7337
 5172SOL    HW226979   2.520   0.374   7.471  2.2636  1.2518  0.2447
 5173SOL     OW26980   0.603   0.738   9.215  0.3487  0.5926 -0.0054
 5173SOL    HW126981   0.613   0.689   9.134 -2.2504 -0.6011  0.3940
 5173SOL    HW226982   0.515   0.714   9.245 -0.1741  1.1598 -1.0958
 5174SOL     OW26983   2.288   0.445   9.002  0.7541  0.0815  0.6528
 5174SOL    HW126984   2.347   0.410   8.936  0.2438  1.5210 -0.5705
 5174SOL    HW226985   2.317   0.398   9.080  1.5640 -1.6609 -0.7199
 5175SOL     OW26986   4.280   4.109   3.651  0.2713  0.5573  0.8880
 5175SOL    HW126987   4.287   4.196   3.612 -3.1392 -0.2496 -1.5859
 5175SOL    HW226988   4.363   4.064   3.632  0.8766  1.1189  2.2455
 5176SOL     OW26989   1.199   3.703   5.456 -0.4036 -0.6725 -0.4653
 5176SOL    HW126990   1.205   3.720   5.550 -0.6334 -2.0685 -0.1968
 5176SOL    HW226991   1.191   3.791   5.419 -1.7413 -0.3387  0.6288
 5177SOL     OW26992   0.092   3.327  11.713 -0.6803  0.1495 -0.0034
 5177SOL    HW126993   0.159   3.393  11.726  2.1049 -2.2112 -2.4727
 5177SOL    HW226994   0.013   3.373  11.744 -1.0203 -0.6887  0.3778
 5178SOL     OW26995   4.562   0.374   6.496 -0.6920 -0.7379 -0.0362
 5178SOL    HW126996   4.549   0.410   6.584 -2.1738 -1.9184  0.2197
 5178SOL    HW226997   4.614   0.446   6.460 -0.0689 -1.4056 -0.4564
 5179SOL     OW26998   0.247   3.178   7.821  0.5097 -0.3011 -0.6834
 5179SOL    HW126999   0.205   3.264   7.819  2.6850  0.7646 -0.5315
 5179SOL    HW227000   0.341   3.190   7.812  0.4232  1.1795  0.4837
 5180SOL     OW27001   2.162   0.789   5.096  0.2550 -0.0938  0.5121
 5180SOL    HW127002   2.214   0.762   5.020  0.9700  1.1433  0.5570
 5180SOL    HW227003   2.179   0.705   5.138 -2.8419 -0.5809  0.7802
 5181SOL     OW27004   2.639   2.142   4.014  0.3289 -0.0776  0.1021
 5181SOL    HW127005   2.734   2.147   4.000  0.5388  0.7469  1.8122
 5181SOL    HW227006   2.609   2.091   3.939  2.6848 -0.8491 -0.3448
 5182SOL     OW27007   3.900   1.847   3.083  0.5992  0.3371  0.0685
 5182SOL    HW127008   3.985   1.804   3.095 -0.5454 -2.0475 -0.2936
 5182SOL    HW227009   3.863   1.789   3.015  0.5665 -0.5435  0.8380
 5183SOL     OW27010   2.805   2.628   1.377  0.1401  0.0954  0.3643
 5183SOL    HW127011   2.893   2.645   1.343  0.8348 -0.9125  1.6344
 5183SOL    HW227012   2.814   2.545   1.426  2.4873 -1.3888 -2.5819
 5184SOL     OW27013   4.274   4.155   0.673  0.7977  0.5807 -0.7410
 5184SOL    HW127014   4.341   4.122   0.734 -0.4335  0.3090  0.4751
 5184SOL    HW227015   4.301   4.247   0.669 -1.0264  1.0800 -1.1362
 5185SOL     OW27016   4.578   3.364   1.152 -0.3340 -0.2077 -0.3214
 5185SOL    HW127017   4.491   3.402   1.160 -0.3702  0.2361 -2.8992
 5185SOL    HW227018   4.625   3.412   1.220 -0.9115  0.8110 -0.6415
 5186SOL     OW27019   3.105   1.823  17.369  0.1913 -0.0931 -0.0578
 5186SOL    HW127020   3.105   1.900  17.427  3.6650  1.5726 -2.2050
 5186SOL    HW227021   3.014   1.802  17.351  0.7339 -0.7810 -1.9812
 5187SOL     OW27022   4.623   3.543   2.348  0.3392  0.3436  0.3832
 5187SOL    HW127023   4.571   3.574   2.422 -1.7699  0.4162 -1.1102
 5187SOL    HW227024   4.614   3.450   2.370  3.6179 -0.4290 -1.4281
 5188SOL     OW27025   0.737   0.034   6.835  0.0537 -0.2292 -0.0343
 5188SOL    HW127026   0.712   4.665   6.846 -2.5609  0.4734 -0.1666
 5188SOL    HW227027   0.826   0.019   6.802  0.4427 -0.3983  1.0824
 5189SOL     OW27028   3.291   1.427   8.315 -0.0732 -0.0876 -0.4019
 5189SOL    HW127029   3.370   1.375   8.304  2.2375  3.1098  0.9715
 5189SOL    HW227030   3.315   1.475   8.395  1.2589  0.6532 -1.2405
 5190SOL     OW27031   2.306   3.702   1.910  0.0997  0.3374 -0.0209
 5190SOL    HW127032   2.282   3.710   1.818  2.2844  1.6383 -0.4862
 5190SOL    HW227033   2.370   3.631   1.908 -2.0846 -1.6139  0.1032
 5191SOL     OW27034   3.872   2.337  10.552  0.0149  0.1780 -0.0407
 5191SOL    HW127035   3.855   2.299  10.466  0.9930 -0.8170  0.2085
 5191SOL    HW227036   3.954   2.299  10.582 -0.3325 -0.5219  0.0129
 5192SOL     OW27037   0.745   1.110   2.893  0.5304 -0.4405  0.0138
 5192SOL    HW127038   0.774   1.074   2.977 -0.5834 -1.6869 -0.1365
 5192SOL    HW227039   0.815   1.170   2.867 -0.6176  1.0075  0.2672
 5193SOL     OW27040   3.572   0.977   8.390 -0.2277  0.5713 -0.1135
 5193SOL    HW127041   3.602   0.980   8.480 -0.0065  1.0521 -0.2009
 5193SOL    HW227042   3.481   0.950   8.400 -0.3147  1.0136  0.2990
 5194SOL     OW27043   1.258   1.848   4.492 -0.5972  0.2154 -0.0893
 5194SOL    HW127044   1.338   1.845   4.545 -1.5944  0.1132  1.4083
 5194SOL    HW227045   1.277   1.914   4.426  1.1289 -1.1365 -0.9323
 5195SOL     OW27046   1.233   3.210   4.401  0.0196 -0.0087  0.0926
 5195SOL    HW127047   1.221   3.304   4.393 -1.6133 -0.1832  0.6110
 5195SOL    HW227048   1.252   3.183   4.311  1.9501  0.9787  0.2123
 5196SOL     OW27049   4.170   4.434   3.067 -0.0515 -0.0650  0.5892
 5196SOL    HW127050   4.101   4.395   3.012 -0.1979  1.2987 -0.2125
 5196SOL    HW227051   4.221   4.356   3.087  0.2129 -1.0037 -3.7524
 5197SOL     OW27052   0.595   0.536   6.801  0.5504  0.5724  0.3257
 5197SOL    HW127053   0.608   0.504   6.890  1.0346  1.3174  0.5174
 5197SOL    HW227054   0.660   0.480   6.757 -0.7407 -1.1044  0.5373
 5198SOL     OW27055   3.261   3.817   4.505 -0.0403  0.4751 -0.3691
 5198SOL    HW127056   3.281   3.772   4.423 -1.3818  0.1140 -0.5007
 5198SOL    HW227057   3.237   3.739   4.556  0.9112 -0.2917 -1.1075
 5199SOL     OW27058   0.025   4.524   1.469 -0.2835  0.2009 -0.2332
 5199SOL    HW127059   4.702   4.594   1.423 -0.3701  0.7105  0.6196
 5199SOL    HW227060   0.096   4.501   1.409  1.2050  2.8369  0.5016
 5200SOL     OW27061   2.401   1.892  16.314  0.3175  0.3155 -0.5766
 5200SOL    HW127062   2.464   1.870  16.245 -2.6625  0.0135 -3.2048
 5200SOL    HW227063   2.373   1.804  16.339 -0.0346  0.2797 -1.0832
 5201SOL     OW27064   2.920   1.851   2.047 -0.1411  0.4173  0.1589
 5201SOL    HW127065   2.837   1.821   2.084  0.8080  0.6735  2.4677
 5201SOL    HW227066   2.934   1.786   1.978  1.7668  1.7124 -0.6688
 5202SOL     OW27067   3.412   1.531   4.451 -0.4577 -0.2434 -0.6578
 5202SOL    HW127068   3.332   1.557   4.407 -1.0622 -1.8684 -0.5167
 5202SOL    HW227069   3.430   1.456   4.394 -0.9307  0.0492 -1.1889
 5203SOL     OW27070   2.391   3.767   1.057  0.5386 -0.6023  0.0067
 5203SOL    HW127071   2.397   3.716   0.976  0.7277 -1.4247  0.5379
 5203SOL    HW227072   2.301   3.798   1.050  0.4040 -0.4846  2.5544
 5204SOL     OW27073   2.712   1.378   5.388  0.1558  0.3011  0.0862
 5204SOL    HW127074   2.724   1.389   5.294 -0.2805  2.0065  0.2296
 5204SOL    HW227075   2.655   1.301   5.384 -0.4197  0.6464  1.3908
 5205SOL     OW27076   1.274   4.403   4.838 -0.8361 -0.3075 -0.3641
 5205SOL    HW127077   1.280   4.335   4.906 -2.2313  0.3009  0.3706
 5205SOL    HW227078   1.210   4.375   4.772  0.1334 -2.2468 -0.4646
 5206SOL     OW27079   0.653   4.183  14.824 -0.4937 -0.2747 -0.6569
 5206SOL    HW127080   0.575   4.138  14.856  0.3667 -0.9231  0.5114
 5206SOL    HW227081   0.631   4.274  14.803 -1.1962 -0.1482  0.6412
 5207SOL     OW27082   2.779   4.585   8.857 -0.8224  0.0242 -0.3798
 5207SOL    HW127083   2.801   4.511   8.801 -0.9224 -2.4175  2.8257
 5207SOL    HW227084   2.798   4.539   8.939 -1.4073 -0.1472 -0.3353
 5208SOL     OW27085   0.321   2.377   4.194  0.3507 -0.0114 -0.1434
 5208SOL    HW127086   0.299   2.325   4.118 -1.3710  0.5318 -0.0105
 5208SOL    HW227087   0.236   2.381   4.237  0.2002 -0.0366 -0.4444
 5209SOL     OW27088   1.226   3.514  11.244 -0.1364 -0.0901  0.0464
 5209SOL    HW127089   1.274   3.484  11.167 -1.2094  1.7421 -1.3527
 5209SOL    HW227090   1.241   3.608  11.235 -0.0167 -0.0629  0.5599
 5210SOL     OW27091   2.271   2.530   2.886  0.8270 -0.7167 -0.3686
 5210SOL    HW127092   2.241   2.519   2.796 -2.2182 -0.4254  0.5998
 5210SOL    HW227093   2.347   2.588   2.881  0.7950 -0.5648  0.8805
 5211SOL     OW27094   1.300   1.905   8.123  0.0937  0.0979  0.3208
 5211SOL    HW127095   1.224   1.951   8.087  0.4871 -0.4202 -1.1420
 5211SOL    HW227096   1.372   1.950   8.078 -0.2838  0.4279  0.0407
 5212SOL     OW27097   1.289   1.674  12.870  0.0219  0.5020 -0.2095
 5212SOL    HW127098   1.292   1.637  12.782 -0.1364  0.6890 -0.2926
 5212SOL    HW227099   1.205   1.637  12.897  0.3859 -1.0726 -1.1963
 5213SOL     OW27100   1.700   3.039   7.934  0.0202 -0.6419 -0.1115
 5213SOL    HW127101   1.751   2.977   7.985  1.2423  0.3527 -0.1194
 5213SOL    HW227102   1.716   3.114   7.992  1.6756 -0.9872 -0.1495
 5214SOL     OW27103   1.131   4.459  15.708  0.0083 -0.1130 -0.2546
 5214SOL    HW127104   1.095   4.482  15.622  1.2065  0.3230 -0.6385
 5214SOL    HW227105   1.051   4.429  15.751  0.4910  0.0039  0.7160
 5215SOL     OW27106   1.604   2.739   1.981  0.6828  0.0058  0.0242
 5215SOL    HW127107   1.575   2.656   2.018  1.4682 -1.0704 -1.7785
 5215SOL    HW227108   1.608   2.790   2.062  1.2397 -1.0072  0.6329
 5216SOL     OW27109   0.658   2.207   1.425  0.2746  0.2197 -0.0573
 5216SOL    HW127110   0.714   2.238   1.353 -0.5677  2.4926  0.2837
 5216SOL    HW227111   0.668   2.111   1.426 -2.1887  0.0020  2.3416
 5217SOL     OW27112   1.610   2.756   4.552 -0.1215  0.5367  0.4050
 5217SOL    HW127113   1.544   2.723   4.614  0.0452 -1.8332 -0.6524
 5217SOL    HW227114   1.570   2.840   4.529 -0.1548  0.5114  0.3703
 5218SOL     OW27115   1.812   0.735   2.445 -0.3858 -0.1053  0.3909
 5218SOL    HW127116   1.778   0.819   2.413  2.4057  0.6866 -0.4858
 5218SOL    HW227117   1.749   0.678   2.400 -1.8661  0.0597  2.2204
 5219SOL     OW27118   3.195   4.567   3.375 -0.0872  0.1700  0.7303
 5219SOL    HW127119   3.104   4.592   3.360  0.1169  0.5022  0.0454
 5219SOL    HW227120   3.223   4.570   3.283  0.8996  1.0088  1.0598
 5220SOL     OW27121   2.868   3.395   2.862  0.0080  0.1997 -0.6006
 5220SOL    HW127122   2.946   3.343   2.844  0.8355  1.5652 -0.9686
 5220SOL    HW227123   2.860   3.380   2.956 -0.1159  1.6356 -0.3758
 5221SOL     OW27124   2.847   0.788   1.715  0.1573  0.2124  0.4448
 5221SOL    HW127125   2.816   0.877   1.735  1.9802  0.8908  0.2168
 5221SOL    HW227126   2.761   0.748   1.728  1.0106 -1.6893  0.2167
 5222SOL     OW27127   0.683   3.509   6.590 -0.1102 -0.2634 -0.0552
 5222SOL    HW127128   0.710   3.417   6.587  1.9921  0.3820 -0.8097
 5222SOL    HW227129   0.750   3.534   6.654 -0.9709  2.2915 -0.1821
 5223SOL     OW27130   1.448   2.612  11.348  0.0085  0.3127 -0.6061
 5223SOL    HW127131   1.540   2.610  11.374 -0.5085  0.5814  1.2933
 5223SOL    HW227132   1.428   2.705  11.360  0.5309  0.2223  1.0182
 5224SOL     OW27133   4.417   0.942   2.783  0.4681 -0.1864  0.2737
 5224SOL    HW127134   4.383   0.860   2.819  0.1462  0.9890  2.6523
 5224SOL    HW227135   4.466   0.909   2.708 -1.0755  0.5709 -1.0734
 5225SOL     OW27136   1.017   4.460   2.167 -0.9107  0.3833  0.1884
 5225SOL    HW127137   0.978   4.526   2.224 -0.1293 -0.0405  1.2092
 5225SOL    HW227138   0.962   4.478   2.091 -1.2209 -0.2259  0.2653
 5226SOL     OW27139   3.203   3.291  13.720  0.1033 -0.4181 -0.0172
 5226SOL    HW127140   3.158   3.206  13.717  0.3579 -0.5625  0.2520
 5226SOL    HW227141   3.145   3.353  13.676  1.3372  1.3424  0.8403
 5227SOL     OW27142   3.175   1.155   8.287  0.1234  0.1062 -0.5973
 5227SOL    HW127143   3.115   1.133   8.359  1.6896 -0.5774  0.5284
 5227SOL    HW227144   3.200   1.245   8.306  2.0881 -0.8960  1.7104
 5228SOL     OW27145   0.233   4.277   6.527 -0.0648 -0.4180  0.5205
 5228SOL    HW127146   0.198   4.325   6.451  0.0972  1.2654  1.5142
 5228SOL    HW227147   0.185   4.333   6.588 -0.6009 -1.4663  1.0402
 5229SOL     OW27148   2.254   2.843   0.129 -0.0360 -0.5967 -0.6946
 5229SOL    HW127149   2.322   2.876   0.070  0.6437 -2.2985 -0.8392
 5229SOL    HW227150   2.188   2.913   0.124 -1.1607 -1.5515  0.9191
 5230SOL     OW27151   0.914   2.219   1.646 -0.1069 -0.1299  0.0508
 5230SOL    HW127152   0.921   2.252   1.556 -1.3434 -0.0921 -0.0333
 5230SOL    HW227153   0.870   2.297   1.680 -0.6711 -0.8438  0.9508
 5231SOL     OW27154   4.436   0.104  12.946  0.2270  0.3983 -0.1288
 5231SOL    HW127155   4.459   0.019  12.983 -1.5957 -0.2606 -0.5162
 5231SOL    HW227156   4.447   0.153  13.027  2.5870  1.1016 -0.8759
 5232SOL     OW27157   1.542   0.151  11.097 -0.1563 -1.0697 -0.6056
 5232SOL    HW127158   1.565   0.234  11.055  0.4626 -1.5040 -1.1237
 5232SOL    HW227159   1.499   0.178  11.178  0.6306 -0.4562 -0.3926
 5233SOL     OW27160   0.706   4.274   1.767 -0.8693 -0.3530 -0.6849
 5233SOL    HW127161   0.730   4.216   1.839 -0.4415  0.1334 -0.4316
 5233SOL    HW227162   0.617   4.295   1.794 -1.2109 -1.2242 -1.1269
 5234SOL     OW27163   0.746   3.489   2.563 -0.3604 -0.0312 -0.1740
 5234SOL    HW127164   0.738   3.423   2.493  1.6039  0.8464 -1.2332
 5234SOL    HW227165   0.823   3.539   2.536  0.8188 -1.2680  0.9241
 5235SOL     OW27166   3.345   4.500   7.574  0.1591 -0.2242  0.2597
 5235SOL    HW127167   3.386   4.426   7.528 -1.3786  0.1865 -1.7402
 5235SOL    HW227168   3.327   4.472   7.664 -0.9116  1.0754  0.4395
 5236SOL     OW27169   3.843   3.438  13.176 -0.3483  0.0233 -0.4082
 5236SOL    HW127170   3.847   3.382  13.098  0.8212  1.1588 -1.1748
 5236SOL    HW227171   3.874   3.525  13.150  0.3261 -0.7287 -2.1538
 5237SOL     OW27172   3.207   4.437   2.794  0.2618 -0.4144  0.3493
 5237SOL    HW127173   3.251   4.356   2.770  0.8359  0.4963 -1.6406
 5237SOL    HW227174   3.147   4.421   2.867  0.1890  1.0105  0.5999
 5238SOL     OW27175   3.022   0.426   2.246 -0.1269  0.3898  0.0995
 5238SOL    HW127176   2.985   0.380   2.321  1.6967 -1.5376 -0.1756
 5238SOL    HW227177   3.117   0.423   2.261  0.0402 -0.4905 -1.1001
 5239SOL     OW27178   0.979   0.805   7.870  0.5544  0.3587  0.1925
 5239SOL    HW127179   0.888   0.822   7.895  0.3313 -2.4137  1.2841
 5239SOL    HW227180   0.981   0.881   7.812 -2.3434 -0.1884 -0.6467
 5240SOL     OW27181   1.081   1.992   9.901  0.0784  0.2329 -0.0090
 5240SOL    HW127182   1.022   2.054   9.859  0.8760  1.8048  1.2018
 5240SOL    HW227183   1.110   2.051   9.971  1.9990 -0.3589 -0.3161
 5241SOL     OW27184   0.263   1.835   5.011 -0.6958 -0.2019  0.0993
 5241SOL    HW127185   0.338   1.787   5.045 -0.1813  0.9861  0.6702
 5241SOL    HW227186   0.201   1.795   5.072 -0.7956  1.2042  0.9407
 5242SOL     OW27187   0.845   0.940   6.610  0.1986 -0.3150 -0.5882
 5242SOL    HW127188   0.801   0.945   6.525  2.8251 -0.8816 -1.9768
 5242SOL    HW227189   0.901   0.864   6.594 -0.4976 -1.1433  0.9177
 5243SOL     OW27190   1.877   0.432   7.089 -0.0954 -0.8552 -0.2024
 5243SOL    HW127191   1.822   0.443   7.167  2.1738  0.7173  1.1515
 5243SOL    HW227192   1.958   0.397   7.126  1.0320 -0.4631 -2.3006
 5244SOL     OW27193   0.991   2.096  11.254 -0.1858 -0.0350 -0.1942
 5244SOL    HW127194   1.080   2.065  11.241  0.4038  1.7715 -0.5793
 5244SOL    HW227195   0.990   2.181  11.209  0.1984  0.7738  1.3205
 5245SOL     OW27196   1.107   1.778   0.426  0.2022 -0.2646 -0.2193
 5245SOL    HW127197   1.057   1.823   0.358  1.5852 -1.5832 -2.1080
 5245SOL    HW227198   1.076   1.688   0.414  1.0714 -0.4709 -0.8645
 5246SOL     OW27199   3.490   4.590   3.249  0.0232 -0.1810  0.7709
 5246SOL    HW127200   3.554   4.584   3.177 -0.1690  1.7886  0.4443
 5246SOL    HW227201   3.418   4.536   3.216 -0.8966 -0.8006  3.8411
 5247SOL     OW27202   1.132   1.290  11.977 -0.2437 -0.7730  0.1450
 5247SOL    HW127203   1.115   1.238  12.055 -0.4831 -0.8620  0.0344
 5247SOL    HW227204   1.169   1.222  11.921 -0.0989 -0.1417 -0.5294
 5248SOL     OW27205   1.405   2.044   9.651 -0.1978  0.5960 -0.1275
 5248SOL    HW127206   1.368   2.132   9.644  0.9630  1.1746  1.0162
 5248SOL    HW227207   1.460   2.067   9.727 -0.3544  0.0672  0.1438
 5249SOL     OW27208   1.762   0.667   8.319 -0.0670  0.0218  0.2596
 5249SOL    HW127209   1.808   0.718   8.252 -1.4764  0.5953 -0.2743
 5249SOL    HW227210   1.814   0.587   8.324 -0.4426 -0.3311 -1.4264
 5250SOL     OW27211   2.300   2.086   4.652 -0.2976 -0.5225  0.2289
 5250SOL    HW127212   2.384   2.059   4.615  1.1446  2.7049  1.0966
 5250SOL    HW227213   2.248   2.063   4.575 -0.2163 -0.3178  0.1130
 5251SOL     OW27214   4.110   2.635  14.722  0.0326  0.2836 -0.1044
 5251SOL    HW127215   4.039   2.646  14.659  1.2380  3.2818 -0.9906
 5251SOL    HW227216   4.126   2.544  14.699 -0.4383  0.0966  0.3283
 5252SOL     OW27217   1.049   3.977   2.595  0.4234 -0.2237 -0.6239
 5252SOL    HW127218   1.063   3.945   2.505  1.0522 -1.2768 -0.1570
 5252SOL    HW227219   1.124   3.928   2.628 -0.1585  0.1537  1.2295
 5253SOL     OW27220   0.427   0.403  11.526  0.3475  0.2019 -0.3793
 5253SOL    HW127221   0.460   0.314  11.530  2.0395  0.8517  0.2565
 5253SOL    HW227222   0.335   0.391  11.551  0.5549  0.4380  0.4860
 5254SOL     OW27223   1.111   1.224   5.762 -0.2288  0.6471 -0.5233
 5254SOL    HW127224   1.075   1.296   5.711 -0.7808  0.5178 -0.3180
 5254SOL    HW227225   1.200   1.259   5.762 -0.3475  0.9445 -1.7437
 5255SOL     OW27226   2.600   0.112   6.430 -0.1457  0.2504 -0.0278
 5255SOL    HW127227   2.589   0.206   6.416  0.4274  0.3507  0.1796
 5255SOL    HW227228   2.550   0.113   6.511 -1.3477 -0.1406 -0.7624
 5256SOL     OW27229   3.951   0.406   3.338 -0.3788 -0.6053  0.3844
 5256SOL    HW127230   3.951   0.311   3.352 -0.4347 -0.5604  0.6854
 5256SOL    HW227231   3.933   0.409   3.244  1.9640 -0.4083 -0.0630
 5257SOL     OW27232   2.907   2.968   2.971 -0.3253 -0.0531  0.3523
 5257SOL    HW127233   2.972   2.900   2.950  0.1017  0.4553  0.0291
 5257SOL    HW227234   2.852   2.963   2.893  1.6682  2.0036 -1.1969
 5258SOL     OW27235   2.173   3.299   8.066 -0.1735 -0.1710 -0.2716
 5258SOL    HW127236   2.259   3.258   8.054 -0.0457  0.0911 -0.2461
 5258SOL    HW227237   2.167   3.350   7.985  0.3462  3.0438  1.7391
 5259SOL     OW27238   2.810   2.244  11.682  0.1986  0.6461  0.2186
 5259SOL    HW127239   2.748   2.213  11.749  1.0609  0.1511  0.7892
 5259SOL    HW227240   2.889   2.193  11.695  0.1528  0.7502  0.9520
 5260SOL     OW27241   4.311   1.487   6.829 -0.2761 -0.5144 -0.5208
 5260SOL    HW127242   4.319   1.581   6.812 -0.1097 -0.1895  1.3892
 5260SOL    HW227243   4.223   1.468   6.863 -0.1094 -1.9345 -0.8630
 5261SOL     OW27244   2.559   0.588   2.442  0.5992 -0.1012 -0.0144
 5261SOL    HW127245   2.586   0.538   2.519  0.9174  1.6051  0.9865
 5261SOL    HW227246   2.525   0.665   2.487 -1.4997 -0.2458 -1.3259
 5262SOL     OW27247   0.375   2.792  15.101  0.2259  0.1688 -0.0709
 5262SOL    HW127248   0.347   2.740  15.026  1.2071 -0.0686 -0.2840
 5262SOL    HW227249   0.362   2.883  15.078 -0.2153  0.1766  0.2221
 5263SOL     OW27250   0.141   1.428   8.403 -0.1712 -0.0116  0.2026
 5263SOL    HW127251   0.093   1.355   8.442 -0.0354  0.0270  0.4382
 5263SOL    HW227252   0.098   1.450   8.320 -1.9215  1.0527  1.3788
 5264SOL     OW27253   3.304   4.069  14.475  0.0471  0.0050 -0.0919
 5264SOL    HW127254   3.307   4.104  14.386  0.0076  1.0158  0.2989
 5264SOL    HW227255   3.213   4.045  14.489  0.1378 -0.2462  0.0747
 5265SOL     OW27256   3.249   3.456   7.734 -0.4258 -0.2540 -0.6846
 5265SOL    HW127257   3.280   3.538   7.695 -1.0343  0.5297  0.4629
 5265SOL    HW227258   3.284   3.382   7.684  2.1769 -0.0158  0.7481
 5266SOL     OW27259   1.002   1.545   0.379 -0.4222  0.1558  0.7910
 5266SOL    HW127260   0.917   1.515   0.412 -0.5769 -0.4342 -0.1457
 5266SOL    HW227261   1.066   1.492   0.427 -1.8121 -2.0765  0.2030
 5267SOL     OW27262   4.703   2.688   7.056 -0.0982 -0.0158  0.1636
 5267SOL    HW127263   0.029   2.642   7.125 -0.9891  0.5860  1.1957
 5267SOL    HW227264   4.690   2.777   7.088  0.4497 -0.2373  1.0218
 5268SOL     OW27265   1.041   1.503   3.624 -0.1874 -0.2260 -0.5025
 5268SOL    HW127266   1.086   1.501   3.708 -0.0302 -1.3323 -0.6138
 5268SOL    HW227267   0.977   1.434   3.642  1.2155 -1.2004  0.8351
 5269SOL     OW27268   3.854   4.417   5.681  0.6451  0.2999 -0.2161
 5269SOL    HW127269   3.790   4.480   5.648 -2.3774 -2.7960 -0.1789
 5269SOL    HW227270   3.825   4.334   5.642 -0.4187  0.2513  0.6801
 5270SOL     OW27271   2.938   4.072  11.644  0.1687  0.0703 -0.4447
 5270SOL    HW127272   3.034   4.072  11.648  0.1383  1.4160  0.0440
 5270SOL    HW227273   2.909   4.003  11.703 -0.1093  0.4314 -0.1639
 5271SOL     OW27274   3.359   0.597   7.284 -0.3663  0.2801 -0.1347
 5271SOL    HW127275   3.440   0.608   7.335  0.1393 -2.7284 -0.2535
 5271SOL    HW227276   3.390   0.544   7.210 -0.6651 -0.8605  0.5481
 5272SOL     OW27277   2.040   1.058  17.492 -0.1057  0.6327 -0.3176
 5272SOL    HW127278   2.087   1.054  17.408 -0.8238  0.9888 -0.7308
 5272SOL    HW227279   1.974   1.127  17.483 -0.8250  0.0266  0.4097
 5273SOL     OW27280   3.269   3.410  15.777  0.2720 -0.0767 -0.2644
 5273SOL    HW127281   3.186   3.371  15.805  1.3098 -2.9579 -1.1758
 5273SOL    HW227282   3.254   3.504  15.789 -0.0257 -0.6955  4.2218
 5274SOL     OW27283   3.250   3.123   9.018 -0.4089  0.2839  0.5856
 5274SOL    HW127284   3.292   3.085   9.095 -0.0990 -0.6833 -0.0654
 5274SOL    HW227285   3.302   3.090   8.945 -1.0608  1.1644 -0.2757
 5275SOL     OW27286   4.497   0.439   4.232 -0.0990 -0.2505  0.3533
 5275SOL    HW127287   4.507   0.534   4.229 -0.2910 -0.2169  0.7560
 5275SOL    HW227288   4.531   0.406   4.149  0.6855 -0.9949  0.9745
 5276SOL     OW27289   3.641   2.416   7.648 -0.2005 -0.6014  0.1059
 5276SOL    HW127290   3.686   2.391   7.567  0.0638  0.1715  0.0132
 5276SOL    HW227291   3.714   2.448   7.701  0.4249 -1.2528 -0.3458
 5277SOL     OW27292   4.045   3.812   6.409  1.0033  0.4496  0.1432
 5277SOL    HW127293   4.021   3.855   6.491 -1.9653 -0.5957 -0.1669
 5277SOL    HW227294   4.006   3.863   6.339  0.7188  0.7648  0.5279
 5278SOL     OW27295   0.835   2.952  16.199  0.1337 -0.0676  0.7423
 5278SOL    HW127296   0.881   2.878  16.160 -0.2366  0.3492 -0.4884
 5278SOL    HW227297   0.778   2.899  16.256 -2.4174 -2.0704 -3.7142
 5279SOL     OW27298   1.724   2.018   9.379 -0.9863 -0.1485 -0.1584
 5279SOL    HW127299   1.694   2.093   9.430  1.8372  0.2354  0.9391
 5279SOL    HW227300   1.663   1.950   9.407 -0.6769 -0.1164  0.6100
 5280SOL     OW27301   2.734   0.788  10.571  0.2265  0.5730  0.5808
 5280SOL    HW127302   2.749   0.810  10.663 -0.0649 -2.7771  1.4116
 5280SOL    HW227303   2.683   0.865  10.546  1.1123  0.5993 -1.1551
 5281SOL     OW27304   0.541   2.439  10.681 -0.0512 -0.4024 -0.1884
 5281SOL    HW127305   0.511   2.407  10.596 -2.8528 -0.3826  0.7955
 5281SOL    HW227306   0.588   2.360  10.708  3.3509  0.8111 -2.5419
 5282SOL     OW27307   1.419   0.584   3.919  0.3243 -0.5579  0.1721
 5282SOL    HW127308   1.405   0.647   3.989 -0.4930 -0.4191 -0.1171
 5282SOL    HW227309   1.394   0.640   3.845 -0.9819 -1.6361 -0.1982
 5283SOL     OW27310   0.759   0.833   8.002 -0.0262  0.4771  0.3316
 5283SOL    HW127311   0.692   0.882   8.049  0.0866 -0.2761  1.2917
 5283SOL    HW227312   0.706   0.756   7.979  2.3233 -1.0459 -0.0212
 5284SOL     OW27313   2.844   2.424   8.065  0.3443  0.3028 -0.0824
 5284SOL    HW127314   2.890   2.364   8.123 -0.8952 -2.6385 -2.1107
 5284SOL    HW227315   2.779   2.471   8.118  0.2343  0.7315 -0.5947
 5285SOL     OW27316   3.071   1.453   9.990 -0.5142  0.0084 -0.4607
 5285SOL    HW127317   3.154   1.487   9.958  0.6059  0.0750  2.5646
 5285SOL    HW227318   3.033   1.387   9.931 -1.2542 -0.4785  0.5521
 5286SOL     OW27319   2.262   3.300   9.330  0.2657 -0.1476 -0.2608
 5286SOL    HW127320   2.213   3.372   9.369 -0.7635 -1.4414  0.8554
 5286SOL    HW227321   2.217   3.296   9.246  0.1375  0.0274 -0.1999
 5287SOL     OW27322   2.583   3.973   3.314  0.3959  0.1884 -0.5543
 5287SOL    HW127323   2.668   4.017   3.306 -0.6286  2.6636  2.2359
 5287SOL    HW227324   2.566   3.931   3.230  0.4256 -2.7099  0.9066
 5288SOL     OW27325   0.012   1.651   7.435 -0.1167  0.2763  0.5159
 5288SOL    HW127326   0.007   1.678   7.343 -0.5242  2.6225  1.2529
 5288SOL    HW227327   0.098   1.611   7.447  0.3497  0.9118 -0.6967
 5289SOL     OW27328   2.641   3.057   8.369  0.2145 -0.3493  0.2918
 5289SOL    HW127329   2.712   3.122   8.376 -0.7843  0.8500 -0.7505
 5289SOL    HW227330   2.674   3.011   8.292  1.0596 -0.9181  0.9977
 5290SOL     OW27331   4.223   0.049   0.423  0.6171  0.1863  0.1491
 5290SOL    HW127332   4.155   0.083   0.481  0.5463 -0.5204  0.4735
 5290SOL    HW227333   4.256   4.690   0.460  1.2336 -0.8225 -2.6297
 5291SOL     OW27334   3.781   2.813   7.952 -0.0113 -0.1289 -0.1321
 5291SOL    HW127335   3.692   2.827   7.921 -0.8087 -0.8979  1.7926
 5291SOL    HW227336   3.791   2.735   7.898 -1.7752 -2.0482  2.3246
 5292SOL     OW27337   3.651   0.232  16.392 -0.0491  0.6598  0.4313
 5292SOL    HW127338   3.656   0.143  16.427 -1.1906  0.6491  0.5823
 5292SOL    HW227339   3.615   0.217  16.304  3.0982 -1.0161 -0.5667
 5293SOL     OW27340   2.580   4.603  14.430  0.3700 -0.2709  0.1227
 5293SOL    HW127341   2.596   4.512  14.404 -0.3336 -0.5035  0.5051
 5293SOL    HW227342   2.550   4.590  14.520 -0.4775  2.6748  0.2615
 5294SOL     OW27343   4.620   1.488   2.931  0.3674  0.1445  0.3096
 5294SOL    HW127344   4.660   1.475   3.017  1.4061 -0.1878 -0.2352
 5294SOL    HW227345   4.530   1.486   2.966  0.9137  0.4021  1.7498
 5295SOL     OW27346   0.361   0.258   8.415  0.5609 -0.2183 -0.1752
 5295SOL    HW127347   0.408   0.334   8.382 -1.0591  1.9542  2.5303
 5295SOL    HW227348   0.305   0.297   8.482  0.9611  2.4920 -1.4133
 5296SOL     OW27349   1.097   4.520   4.140 -0.0436  0.7281 -0.5438
 5296SOL    HW127350   1.188   4.546   4.160 -0.1329  1.5384 -1.1788
 5296SOL    HW227351   1.088   4.558   4.053  0.6379  2.8445  0.3028
 5297SOL     OW27352   2.182   0.913   4.460 -0.0294  0.0315  0.1127
 5297SOL    HW127353   2.168   0.858   4.382 -1.4167 -0.6674  0.8596
 5297SOL    HW227354   2.207   0.837   4.513  3.3347  1.6610  0.8668
 5298SOL     OW27355   1.831   0.224   5.321  0.0364 -0.4591 -0.0574
 5298SOL    HW127356   1.736   0.235   5.311 -0.1512 -1.1372  0.9892
 5298SOL    HW227357   1.835   0.131   5.301 -1.7991  0.0045 -2.5085
 5299SOL     OW27358   3.167   0.530   6.978  0.5620  0.0833 -0.9358
 5299SOL    HW127359   3.258   0.500   6.972  0.4143 -0.2316 -1.6126
 5299SOL    HW227360   3.180   0.607   7.032 -0.9671  0.1199 -0.6245
 5300SOL     OW27361   4.386   0.076  17.255 -0.1156  0.1398  0.2540
 5300SOL    HW127362   4.312   0.017  17.239 -1.3090  1.4884  0.7737
 5300SOL    HW227363   4.358   0.149  17.200  0.7005  0.7881  0.6907
 5301SOL     OW27364   2.969   0.403   8.014  0.0242  0.3078 -0.0364
 5301SOL    HW127365   3.046   0.432   7.965 -0.9774  1.9246 -0.6658
 5301SOL    HW227366   2.950   0.470   8.079  0.7352  0.3613  0.1163
 5302SOL     OW27367   2.336   4.668   7.813 -0.2674 -0.0473 -0.2881
 5302SOL    HW127368   2.361   4.584   7.776  0.3172  0.3959 -0.9051
 5302SOL    HW227369   2.281   4.635   7.883  0.7497 -1.6766 -0.2689
 5303SOL     OW27370   2.851   3.481   1.231 -0.0195 -0.9179  0.0492
 5303SOL    HW127371   2.812   3.444   1.311  1.8017 -2.4660  0.2052
 5303SOL    HW227372   2.890   3.551   1.284 -0.8712 -1.0188  0.8166
 5304SOL     OW27373   0.031   3.694   2.133  0.4463 -0.4377  0.3055
 5304SOL    HW127374   0.013   3.613   2.180  2.1447 -0.4701  0.9027
 5304SOL    HW227375   0.064   3.658   2.051  2.2584  0.3966  0.6763
 5305SOL     OW27376   1.718   2.904  16.372 -0.2752 -0.7200  0.1245
 5305SOL    HW127377   1.690   2.939  16.456  1.1877 -0.4548  0.4933
 5305SOL    HW227378   1.723   2.980  16.313 -0.8196 -1.9533 -1.5299
 5306SOL     OW27379   2.821   3.173   5.377 -0.0660  0.3037  0.0918
 5306SOL    HW127380   2.848   3.137   5.292 -1.3626 -2.3114  0.7963
 5306SOL    HW227381   2.777   3.256   5.359  0.1277  0.3268 -0.2754
 5307SOL     OW27382   3.944   1.392   5.999 -0.4866 -0.3138 -0.1120
 5307SOL    HW127383   3.982   1.307   5.977 -0.0121  0.3001 -1.7254
 5307SOL    HW227384   3.895   1.410   5.918 -0.5433  1.2186  0.2575
 5308SOL     OW27385   3.946   3.637   3.135  0.2290 -0.0244 -0.4598
 5308SOL    HW127386   3.955   3.682   3.219 -0.2678 -0.9971  0.1195
 5308SOL    HW227387   3.974   3.705   3.073  1.7156 -0.9016 -0.7445
 5309SOL     OW27388   1.011   1.308  16.245 -0.4390 -0.2988  0.6120
 5309SOL    HW127389   0.934   1.263  16.211 -1.2477  1.5498 -0.0142
 5309SOL    HW227390   1.076   1.241  16.223  0.8855  1.3101 -0.3575
 5310SOL     OW27391   2.039   0.373  12.169  0.2915  0.6643  0.3708
 5310SOL    HW127392   2.096   0.409  12.101 -0.3490  1.9904  0.5212
 5310SOL    HW227393   2.099   0.372  12.244  1.9654 -0.4455 -0.9814
 5311SOL     OW27394   0.988   0.566   4.136  0.0057 -0.3175  0.0561
 5311SOL    HW127395   1.080   0.546   4.118  0.4048  1.2273  0.3474
 5311SOL    HW227396   0.972   0.492   4.195  0.3784 -0.1657  0.3523
 5312SOL     OW27397   1.886   2.352   5.281  0.5631  0.0675 -0.0539
 5312SOL    HW127398   1.967   2.303   5.270  0.4856 -0.5973  2.4166
 5312SOL    HW227399   1.858   2.317   5.366 -1.2763 -2.1114 -1.5823
 5313SOL     OW27400   3.531   1.813   8.571  0.0925  0.1223 -0.3792
 5313SOL    HW127401   3.507   1.763   8.492 -1.2101  2.0028 -1.1757
 5313SOL    HW227402   3.626   1.810   8.562  0.1649 -2.1866  1.1352
 5314SOL     OW27403   3.647   2.705   1.969  0.1554 -0.1538  0.4267
 5314SOL    HW127404   3.553   2.723   1.975  0.3305  0.5122  1.0306
 5314SOL    HW227405   3.695   2.768   2.022  1.1617 -2.0285  1.7671
 5315SOL     OW27406   0.468   3.745   2.453  0.0572  0.2474 -0.2373
 5315SOL    HW127407   0.480   3.663   2.501  0.1799 -1.0152 -2.4052
 5315SOL    HW227408   0.414   3.723   2.377  0.1676 -1.6983  0.2485
 5316SOL     OW27409   0.809   4.498   6.576 -0.4893 -0.0289 -0.6764
 5316SOL    HW127410   0.807   4.594   6.576 -0.1552 -0.0569 -4.6123
 5316SOL    HW227411   0.876   4.477   6.642 -0.0229  2.3394 -0.3954
 5317SOL     OW27412   3.370   1.326  15.420  0.0972  0.1475 -0.0452
 5317SOL    HW127413   3.286   1.372  15.411 -0.0879 -0.4521 -1.3051
 5317SOL    HW227414   3.421   1.390  15.470 -1.2469  0.4194  0.9764
 5318SOL     OW27415   4.050   3.389   7.408 -0.1605  0.0895  0.0635
 5318SOL    HW127416   4.065   3.445   7.484 -0.5816  0.2978 -0.0079
 5318SOL    HW227417   3.957   3.380   7.427 -0.2545  0.6960 -0.1192
 5319SOL     OW27418   3.310   2.696   3.799 -0.0022  0.5132  0.0808
 5319SOL    HW127419   3.348   2.630   3.740 -0.2512 -0.4700  1.0188
 5319SOL    HW227420   3.380   2.708   3.863 -0.1856 -0.0020  0.3780
 5320SOL     OW27421   4.529   0.300   8.854 -0.1376  0.1867  0.1311
 5320SOL    HW127422   4.544   0.393   8.843  2.2099 -0.2929 -0.6504
 5320SOL    HW227423   4.501   0.300   8.946 -1.5807 -1.0464 -0.3069
 5321SOL     OW27424   3.754   1.513   3.876 -0.7864  0.2177 -0.3002
 5321SOL    HW127425   3.738   1.511   3.970 -1.3199 -3.4006 -0.4487
 5321SOL    HW227426   3.663   1.507   3.848 -0.5361 -0.7819 -0.9236
 5322SOL     OW27427   3.682   1.781   5.731 -0.1909  0.5233  0.1906
 5322SOL    HW127428   3.751   1.739   5.680 -0.5767  0.3075 -0.1542
 5322SOL    HW227429   3.613   1.714   5.726 -0.2087  0.4213  1.8400
 5323SOL     OW27430   2.892   2.185   3.938  0.4983  0.3722 -0.8593
 5323SOL    HW127431   2.963   2.187   4.001  0.7973 -0.4369 -1.1681
 5323SOL    HW227432   2.863   2.276   3.948  1.4302  0.3288  2.0266
 5324SOL     OW27433   1.646   3.005   6.490  0.5258 -0.2483 -0.0610
 5324SOL    HW127434   1.567   3.038   6.531  0.6106  0.2757 -0.3206
 5324SOL    HW227435   1.704   3.081   6.498 -0.0470  0.1940 -0.1348
 5325SOL     OW27436   0.171   2.506   3.911  0.2932 -0.8720  0.6273
 5325SOL    HW127437   0.135   2.451   3.841 -1.2783  0.1324  0.6509
 5325SOL    HW227438   0.266   2.494   3.912  0.4373  0.2995  0.3483
 5326SOL     OW27439   0.947   3.518   7.459  0.0820 -0.9029 -0.2337
 5326SOL    HW127440   0.926   3.538   7.550  0.0991 -0.8214 -0.2480
 5326SOL    HW227441   0.862   3.487   7.427  0.2671 -0.5386 -1.0757
 5327SOL     OW27442   2.685   4.009  15.382  0.0476 -0.1606 -0.2277
 5327SOL    HW127443   2.632   4.059  15.320 -0.9370 -0.4518  0.3624
 5327SOL    HW227444   2.636   4.024  15.463  1.7856  0.6138  0.6772
 5328SOL     OW27445   1.823   3.031   5.612 -0.4047 -0.3918 -0.0861
 5328SOL    HW127446   1.853   2.943   5.591  0.5199 -0.8403  3.1162
 5328SOL    HW227447   1.742   3.023   5.663 -1.0839 -1.5473 -1.3246
 5329SOL     OW27448   2.455   4.289   2.423  0.4177  0.0649  1.0089
 5329SOL    HW127449   2.453   4.268   2.516  1.5863 -0.0274  1.0161
 5329SOL    HW227450   2.543   4.261   2.399 -0.0801 -1.2745  0.7518
 5330SOL     OW27451   2.417   3.063   1.357 -0.0172  0.0128 -0.3795
 5330SOL    HW127452   2.383   3.001   1.421 -1.0647  1.5336  0.5482
 5330SOL    HW227453   2.462   3.005   1.295 -0.7141 -1.5509  0.5921
 5331SOL     OW27454   3.295   3.878   6.907 -0.8263  0.3614  0.6585
 5331SOL    HW127455   3.247   3.949   6.950 -1.1371  0.4272  0.1996
 5331SOL    HW227456   3.383   3.878   6.945 -0.5428 -0.7782  0.0131
 5332SOL     OW27457   1.808   4.351   8.959 -0.1702  0.3170  0.8783
 5332SOL    HW127458   1.795   4.288   8.888 -3.6189  2.2412 -0.1824
 5332SOL    HW227459   1.792   4.293   9.033  1.2870 -3.2255 -1.5546
 5333SOL     OW27460   0.983   1.952   0.872  0.4805  0.1872  0.3364
 5333SOL    HW127461   1.045   1.880   0.856  0.0153 -0.1224 -0.0735
 5333SOL    HW227462   0.995   1.988   0.784 -0.6059 -0.7663 -0.1965
 5334SOL     OW27463   3.486   0.166   7.426 -0.0134  0.4608 -0.2944
 5334SOL    HW127464   3.391   0.159   7.436 -0.1455  2.3620 -0.0704
 5334SOL    HW227465   3.493   0.253   7.467  0.0500  0.1685  0.3071
 5335SOL     OW27466   0.382   0.415   2.779 -0.1863  0.3504 -0.1480
 5335SOL    HW127467   0.364   0.323   2.763 -0.1089 -0.4162  4.0059
 5335SOL    HW227468   0.393   0.416   2.875  2.1209 -1.1390 -0.3849
 5336SOL     OW27469   2.439   2.394   8.237  0.1927 -0.0355  0.0027
 5336SOL    HW127470   2.523   2.351   8.251 -0.6307 -0.8408  2.5290
 5336SOL    HW227471   2.403   2.401   8.326 -2.0532 -1.4949 -0.7914
 5337SOL     OW27472   2.424   3.193   8.055  0.0325  0.2455  0.1350
 5337SOL    HW127473   2.416   3.158   8.144  0.8066  1.1032  0.5387
 5337SOL    HW227474   2.492   3.259   8.072 -0.8677  0.9241  1.1499
 5338SOL     OW27475   1.920   2.606   0.690 -0.0404 -0.0216 -0.2094
 5338SOL    HW127476   1.989   2.627   0.628 -0.8422  1.3125 -0.6453
 5338SOL    HW227477   1.861   2.574   0.622  0.7698 -1.9736  0.0152
 5339SOL     OW27478   2.129   0.024   9.827 -0.1671 -0.4353 -0.3583
 5339SOL    HW127479   2.101   0.093   9.887  1.8952  0.5424 -0.5214
 5339SOL    HW227480   2.132   0.068   9.742  0.6851 -0.1782 -0.1959
 5340SOL     OW27481   4.102   3.162   6.338  0.1143  0.1229  0.0064
 5340SOL    HW127482   4.051   3.220   6.394 -0.3953 -0.6757  0.3602
 5340SOL    HW227483   4.047   3.171   6.261 -0.4846  1.0485  0.5448
 5341SOL     OW27484   2.590   3.694   5.968 -0.3649  0.0112 -0.5075
 5341SOL    HW127485   2.502   3.732   5.967 -0.7731 -0.9059  0.0471
 5341SOL    HW227486   2.577   3.599   5.970  1.4619 -0.2406 -0.7923
 5342SOL     OW27487   1.735   4.687   7.736 -0.1058  0.2107  0.1484
 5342SOL    HW127488   1.691   4.675   7.820  0.7073  0.5591  0.6228
 5342SOL    HW227489   1.824   4.684   7.772 -0.3131 -3.0296  0.4016
 5343SOL     OW27490   0.422   0.835  12.919  0.3765  0.4533  0.0411
 5343SOL    HW127491   0.420   0.763  12.982 -1.4854  0.4060 -0.0508
 5343SOL    HW227492   0.481   0.813  12.847  0.2263 -0.6577  0.2622
 5344SOL     OW27493   4.375   0.926   8.691 -0.7786 -0.1744 -0.1530
 5344SOL    HW127494   4.298   0.969   8.655  0.1217  0.0052 -1.8464
 5344SOL    HW227495   4.415   0.993   8.746  0.8822 -1.3399  0.0573
 5345SOL     OW27496   3.831   3.485   9.987  0.1811 -0.6632  0.3609
 5345SOL    HW127497   3.892   3.558   9.980 -3.1267  2.1423  1.1557
 5345SOL    HW227498   3.823   3.479  10.082  0.4505 -0.3188  0.4041
 5346SOL     OW27499   2.040   1.397   8.447 -0.1655  0.0815  0.2471
 5346SOL    HW127500   1.952   1.434   8.458  1.3275  2.9649  2.3483
 5346SOL    HW227501   2.082   1.418   8.530 -0.4543 -1.0122  0.6672
 5347SOL     OW27502   1.809   3.398   6.709  0.2159  0.2209  0.3352
 5347SOL    HW127503   1.872   3.390   6.781  0.8688 -2.8119 -0.5307
 5347SOL    HW227504   1.725   3.412   6.752  1.2273 -1.0071  2.7096
 5348SOL     OW27505   3.578   0.458   5.836  0.0612 -0.0653  0.4642
 5348SOL    HW127506   3.521   0.523   5.877  0.4576  1.2903 -1.1163
 5348SOL    HW227507   3.650   0.459   5.900 -0.6568 -2.1879  1.2998
 5349SOL     OW27508   3.789   1.466   2.520 -0.9241  0.6089  0.1506
 5349SOL    HW127509   3.736   1.505   2.451  0.2050 -0.6266 -1.4225
 5349SOL    HW227510   3.852   1.416   2.468 -1.4934 -1.0631  1.0808
 5350SOL     OW27511   1.858   4.474  12.292  0.2124 -0.2887 -0.5172
 5350SOL    HW127512   1.885   4.454  12.202  2.3177 -0.5578  0.1741
 5350SOL    HW227513   1.836   4.382  12.309  0.7587 -0.3810 -0.3214
 5351SOL     OW27514   0.428   3.788   5.577 -1.0401 -0.5594 -0.7528
 5351SOL    HW127515   0.393   3.809   5.664  1.5318 -0.0224  0.1526
 5351SOL    HW227516   0.479   3.868   5.579 -0.2458 -1.0099 -3.1375
 5352SOL     OW27517   1.212   2.879   7.463 -0.2419  0.0559 -0.6884
 5352SOL    HW127518   1.228   2.878   7.558 -0.9845 -0.9842 -0.5694
 5352SOL    HW227519   1.304   2.897   7.445 -0.8974  0.2204 -3.7691
 5353SOL     OW27520   0.532   2.830   0.422 -0.1476 -0.5646  0.0687
 5353SOL    HW127521   0.508   2.764   0.487 -1.1261 -0.5658 -0.2899
 5353SOL    HW227522   0.453   2.882   0.407  2.0662  2.7419 -0.4269
 5354SOL     OW27523   3.258   0.847   0.826 -1.1357 -0.3825 -0.0070
 5354SOL    HW127524   3.209   0.767   0.805  0.4176 -0.9830 -1.3407
 5354SOL    HW227525   3.209   0.906   0.770  0.2983  0.6602 -0.1465
 5355SOL     OW27526   2.022   1.132   8.355 -0.3905  0.1511 -0.3241
 5355SOL    HW127527   2.045   1.094   8.439 -0.2425 -0.0508 -0.4552
 5355SOL    HW227528   2.030   1.226   8.371  1.1709  0.4437 -2.8567
 5356SOL     OW27529   4.146   0.320   3.890  0.1645 -0.3216 -0.1225
 5356SOL    HW127530   4.167   0.363   3.808 -0.4508  1.8751  0.8567
 5356SOL    HW227531   4.204   0.360   3.955  3.2346  1.0088 -3.6910
 5357SOL     OW27532   3.264   0.753  15.692 -0.3185  0.0478 -0.0068
 5357SOL    HW127533   3.182   0.771  15.739 -0.4333  2.1887 -1.0249
 5357SOL    HW227534   3.236   0.735  15.602  2.4229 -0.4554 -0.7391
 5358SOL     OW27535   0.970   4.491  13.495 -0.4902 -0.0399  0.5955
 5358SOL    HW127536   0.962   4.400  13.523 -2.3881 -0.0980 -0.1801
 5358SOL    HW227537   0.915   4.497  13.417 -0.2939 -0.1703  0.4466
 5359SOL     OW27538   2.088   1.243   7.204  0.3529  0.5917 -0.1516
 5359SOL    HW127539   2.075   1.166   7.149 -0.3538 -0.2653  1.2260
 5359SOL    HW227540   2.065   1.192   7.282 -0.9209  1.6851  0.1929
 5360SOL     OW27541   1.247   0.255   6.208 -0.2126 -0.0978  0.1295
 5360SOL    HW127542   1.318   0.204   6.246 -1.1197  0.0740  2.0299
 5360SOL    HW227543   1.239   0.328   6.270  1.1638  0.2951 -0.1531
 5361SOL     OW27544   1.601   4.312  11.341  0.4359 -0.1332  0.1867
 5361SOL    HW127545   1.531   4.268  11.292  2.8742  0.5106 -3.9043
 5361SOL    HW227546   1.554   4.329  11.422 -0.8526 -1.8377 -0.2092
 5362SOL     OW27547   1.332   3.163   2.018 -0.0450  0.0207  0.4958
 5362SOL    HW127548   1.287   3.078   2.023 -0.3515  0.1031 -1.0300
 5362SOL    HW227549   1.413   3.135   2.061  0.7702  0.3538 -0.8298
 5363SOL     OW27550   3.938   3.498   8.455  0.0523 -0.2662  0.1003
 5363SOL    HW127551   3.916   3.583   8.417 -0.0820  1.0623  3.1930
 5363SOL    HW227552   3.968   3.452   8.376 -3.5604 -0.9888 -0.8533
 5364SOL     OW27553   1.711   3.517  10.443  0.3642 -0.4096 -0.5641
 5364SOL    HW127554   1.622   3.517  10.478  1.1563  1.0495  1.4427
 5364SOL    HW227555   1.729   3.425  10.463  0.0024 -0.9609 -2.7732
 5365SOL     OW27556   0.985   2.106  14.720  0.0417 -0.5678  0.3500
 5365SOL    HW127557   0.969   2.198  14.739  1.5480 -0.7246  2.3420
 5365SOL    HW227558   0.991   2.109  14.625 -0.3729 -1.3486  0.2942
 5366SOL     OW27559   0.899   2.740   5.913  0.0735 -0.0921 -0.2181
 5366SOL    HW127560   0.971   2.683   5.939  1.0840  0.8463 -0.9864
 5366SOL    HW227561   0.926   2.817   5.964 -1.3364 -0.3325  0.9121
 5367SOL     OW27562   3.078   3.129  11.915 -0.1366  0.1447 -0.3270
 5367SOL    HW127563   3.056   3.041  11.947  2.2020  0.2311  1.5215
 5367SOL    HW227564   3.092   3.110  11.822 -3.4243 -0.5471 -0.6976
 5368SOL     OW27565   3.934   1.136   5.358  0.2721 -0.1687  0.0836
 5368SOL    HW127566   4.015   1.115   5.405  0.3213 -2.6637 -1.1561
 5368SOL    HW227567   3.923   1.231   5.366 -0.2923 -0.2248 -0.0188
 5369SOL     OW27568   0.237   0.129   7.394 -0.1777  0.1194 -0.4245
 5369SOL    HW127569   0.192   0.051   7.362  0.1256  0.6275 -2.1125
 5369SOL    HW227570   0.327   0.096   7.401 -0.1921 -0.0158 -0.8858
 5370SOL     OW27571   0.288   0.999  17.538 -0.3155  0.3355  0.2531
 5370SOL    HW127572   0.211   0.946  17.517 -0.2001  0.0890  0.4618
 5370SOL    HW227573   0.312   0.958  17.621 -2.5620 -2.5856 -0.5498
 5371SOL     OW27574   0.749   1.084   4.120  0.5699  0.2461  0.4500
 5371SOL    HW127575   0.673   1.026   4.126  0.1092  0.8228  0.2032
 5371SOL    HW227576   0.799   1.030   4.058 -0.4806 -0.2419  0.0283
 5372SOL     OW27577   2.036   4.504   7.489 -0.6533  0.6010  0.0598
 5372SOL    HW127578   2.000   4.592   7.475  0.3344  1.5288  3.4055
 5372SOL    HW227579   1.962   4.457   7.450  0.0831 -0.9600  0.5402
 5373SOL     OW27580   4.399   1.673  15.572  0.4561  0.7088  0.3085
 5373SOL    HW127581   4.396   1.579  15.590 -2.7390  0.8423  0.4467
 5373SOL    HW227582   4.433   1.703  15.656  1.1938  0.9508 -0.0774
 5374SOL     OW27583   4.498   0.098   7.241  0.2585 -0.6774  0.2594
 5374SOL    HW127584   4.468   0.050   7.163 -0.1395  0.5090 -0.3095
 5374SOL    HW227585   4.421   0.148   7.265  0.3172 -0.6168  0.3195
 5375SOL     OW27586   2.807   3.719   4.203 -0.0270  0.0546  0.6255
 5375SOL    HW127587   2.714   3.728   4.220  0.1314  0.1112  1.4314
 5375SOL    HW227588   2.803   3.707   4.108  1.7099  1.9471  0.3075
 5376SOL     OW27589   0.030   3.097   8.023 -0.1823 -0.1709  0.1795
 5376SOL    HW127590   4.706   3.043   7.958 -0.2705 -0.9557  0.8968
 5376SOL    HW227591   0.103   3.136   7.974 -0.6674  0.3967 -0.0916
 5377SOL     OW27592   3.559   1.513   9.288 -0.3532  1.0795  0.1223
 5377SOL    HW127593   3.510   1.563   9.223 -1.2180 -0.1597 -0.1734
 5377SOL    HW227594   3.524   1.549   9.370 -0.7415 -1.0693  0.9129
 5378SOL     OW27595   3.489   2.404   5.952  0.0385 -0.1226  0.7496
 5378SOL    HW127596   3.400   2.424   5.982 -0.7782  0.8975 -2.3771
 5378SOL    HW227597   3.516   2.482   5.904  1.6262 -2.0367 -1.4954
 5379SOL     OW27598   3.387   4.077   0.307  0.2033  0.4325  0.8359
 5379SOL    HW127599   3.443   4.141   0.351 -1.1494  2.1665  0.0454
 5379SOL    HW227600   3.396   4.002   0.366  0.9792  2.6324  3.4944
 5380SOL     OW27601   2.904   3.932   7.018 -0.7138  0.3123 -0.2375
 5380SOL    HW127602   2.931   3.883   6.941  0.6129  0.5154  0.1056
 5380SOL    HW227603   2.844   3.999   6.984 -0.1570  0.4169 -1.0045
 5381SOL     OW27604   0.826   0.084   6.540 -0.1522 -0.7616  0.0196
 5381SOL    HW127605   0.760   0.086   6.470  0.2803  3.2210 -0.2577
 5381SOL    HW227606   0.901   0.085   6.480 -0.3308  1.4598 -0.1614
 5382SOL     OW27607   0.744   1.361   0.467  0.3555  0.4643 -0.6339
 5382SOL    HW127608   0.790   1.277   0.469  0.4800  0.6404  3.1565
 5382SOL    HW227609   0.652   1.339   0.451  0.6933  0.5116 -2.6829
 5383SOL     OW27610   1.896   4.638   4.052  0.0645  0.0045 -0.4228
 5383SOL    HW127611   1.966   4.601   4.105 -2.3472 -1.6683  1.5577
 5383SOL    HW227612   1.925   0.006   4.043  1.2815 -0.3540 -0.1450
 5384SOL     OW27613   3.880   2.791   2.849  0.2701  0.0592  0.1559
 5384SOL    HW127614   3.927   2.764   2.771 -1.4005 -1.3492 -0.3674
 5384SOL    HW227615   3.823   2.858   2.812  0.9487  0.8245  0.5075
 5385SOL     OW27616   1.865   1.917  10.016  0.3275  0.4971  0.3338
 5385SOL    HW127617   1.772   1.939  10.020  0.3596  0.9892 -1.2576
 5385SOL    HW227618   1.874   1.831  10.055  0.9223  0.1151 -0.6345
 5386SOL     OW27619   4.420   4.555   3.758 -0.0521  0.3376  0.8489
 5386SOL    HW127620   4.334   4.590   3.778  0.6142  1.9417  0.9469
 5386SOL    HW227621   4.422   4.488   3.826 -0.3156 -1.3497 -0.8047
 5387SOL     OW27622   0.697   0.464   0.486  0.2900  1.0925 -0.4117
 5387SOL    HW127623   0.653   0.524   0.426 -0.9313  2.3845  1.7693
 5387SOL    HW227624   0.677   0.377   0.450 -0.6857  1.1945 -0.1289
 5388SOL     OW27625   1.853   3.653   3.476  0.0280 -0.0136 -0.0790
 5388SOL    HW127626   1.928   3.594   3.472 -0.3092 -0.2923 -1.8279
 5388SOL    HW227627   1.780   3.592   3.474  1.5610 -1.8575  0.5024
 5389SOL     OW27628   1.311   4.168  15.297  0.0087  0.5526 -0.6058
 5389SOL    HW127629   1.396   4.209  15.314  0.5763 -0.4342 -1.1042
 5389SOL    HW227630   1.338   4.098  15.239 -0.5188 -1.4927  1.6254
 5390SOL     OW27631   3.523   3.696  10.043 -0.1274 -0.1587 -0.1810
 5390SOL    HW127632   3.427   3.696  10.036 -0.4101 -0.6446  3.5516
 5390SOL    HW227633   3.562   3.737   9.966  0.7801 -0.0926  0.3253
 5391SOL     OW27634   4.087   1.361   2.578  0.7774  0.2066  0.4103
 5391SOL    HW127635   4.052   1.272   2.582 -0.4022  0.6798  0.7681
 5391SOL    HW227636   4.086   1.383   2.485  0.4521 -0.3248  0.2906
 5392SOL     OW27637   3.466   2.266  10.313  0.7747 -0.1097 -0.7691
 5392SOL    HW127638   3.474   2.316  10.394  0.9574 -1.9277  0.3341
 5392SOL    HW227639   3.532   2.199  10.328 -1.3411 -2.1446 -0.5411
 5393SOL     OW27640   1.315   4.099  11.011  0.2889 -0.1046 -0.3458
 5393SOL    HW127641   1.347   4.084  11.100 -0.8318  2.1702  0.4487
 5393SOL    HW227642   1.388   4.153  10.980  0.8243 -1.1262 -0.8651
 5394SOL     OW27643   3.616   1.663   8.857  0.0311  0.0536  0.5093
 5394SOL    HW127644   3.705   1.698   8.868 -0.1384  0.8843 -0.8118
 5394SOL    HW227645   3.615   1.625   8.770 -1.9740  1.7788 -0.2359
 5395SOL     OW27646   1.907   1.121   9.802 -0.4476 -0.2362  0.0757
 5395SOL    HW127647   1.881   1.125   9.710 -0.3846  1.1289  0.1210
 5395SOL    HW227648   2.002   1.112   9.795 -0.7085 -1.2304 -2.2724
 5396SOL     OW27649   2.456   2.483   8.757  0.2687 -0.0470 -0.9160
 5396SOL    HW127650   2.549   2.461   8.756  0.7351  1.9155 -1.3234
 5396SOL    HW227651   2.454   2.557   8.818  0.2994 -2.3566  1.8684
 5397SOL     OW27652   4.543   1.097   9.938  0.2639  0.0265 -0.4470
 5397SOL    HW127653   4.484   1.145   9.996  0.8966  1.4551 -0.9857
 5397SOL    HW227654   4.598   1.053  10.002  1.2509  1.9026 -0.0138
 5398SOL     OW27655   0.959   2.874   2.040  0.3051 -0.0985 -0.0088
 5398SOL    HW127656   1.019   2.809   2.078  0.4304  0.1666  0.2503
 5398SOL    HW227657   0.883   2.817   2.052  1.3260 -1.2073  1.2859
 5399SOL     OW27658   3.843   2.693  12.507 -0.0899  0.4706 -0.7250
 5399SOL    HW127659   3.841   2.789  12.504 -0.4633  0.4830  0.0436
 5399SOL    HW227660   3.871   2.679  12.598  2.7106  1.0209 -1.4827
 5400SOL     OW27661   1.662   1.894  11.032 -0.0363  0.3516 -0.3676
 5400SOL    HW127662   1.744   1.938  11.012  1.1040 -1.3439  0.5778
 5400SOL    HW227663   1.679   1.808  10.993  2.0327  1.2155 -1.3459
 5401SOL     OW27664   0.970   0.353   9.731  0.0510  0.2736  0.1914
 5401SOL    HW127665   1.042   0.382   9.676 -0.9605  0.5517 -0.9692
 5401SOL    HW227666   0.984   0.402   9.812  0.4181  1.3117 -0.5058
 5402SOL     OW27667   1.803   3.348   7.537 -0.2138 -0.1326 -0.5056
 5402SOL    HW127668   1.786   3.256   7.516  1.4681 -0.4537 -0.4369
 5402SOL    HW227669   1.852   3.334   7.618  1.5584  0.3574 -1.4908
 5403SOL     OW27670   2.655   0.910   5.419 -0.5225 -0.2427 -0.7393
 5403SOL    HW127671   2.626   0.862   5.496  1.5063 -0.4782 -0.1060
 5403SOL    HW227672   2.715   0.852   5.371  0.2371  0.4491 -0.6359
 5404SOL     OW27673   1.827   2.391   9.729  0.3127 -0.4387 -0.3133
 5404SOL    HW127674   1.854   2.483   9.726  0.5880 -0.5094 -0.0573
 5404SOL    HW227675   1.763   2.384   9.800  0.7991  0.9080  0.2591
 5405SOL     OW27676   4.275   4.129   5.050 -0.2108  0.1129 -0.5016
 5405SOL    HW127677   4.263   4.061   5.116 -0.0532 -0.7393 -1.3483
 5405SOL    HW227678   4.365   4.122   5.018  0.3538  1.9184  0.7039
 5406SOL     OW27679   1.655   2.906   2.890  0.1363 -0.0842  0.4211
 5406SOL    HW127680   1.639   2.855   2.970  0.7787 -0.3553  0.3854
 5406SOL    HW227681   1.570   2.940   2.865  0.3653  0.4143  0.3176
 5407SOL     OW27682   4.142   1.897   1.742  0.5539 -0.0467  0.0180
 5407SOL    HW127683   4.048   1.918   1.746  0.7752  1.3305 -1.7816
 5407SOL    HW227684   4.162   1.987   1.768  1.5627 -0.1663 -0.3720
 5408SOL     OW27685   3.609   3.298   4.946 -0.2155  0.3203 -0.7633
 5408SOL    HW127686   3.669   3.283   4.873  0.7382  0.8961 -0.1031
 5408SOL    HW227687   3.549   3.365   4.913  1.2793  1.4095 -1.3210
 5409SOL     OW27688   4.556   1.111  10.362 -0.0925 -0.1672 -0.2273
 5409SOL    HW127689   4.550   1.161  10.443 -3.9465  0.1492 -0.6772
 5409SOL    HW227690   4.462   1.116  10.342 -0.4459 -0.2725  1.3571
 5410SOL     OW27691   3.175   3.918   8.707  0.4106 -0.5819 -0.2179
 5410SOL    HW127692   3.215   3.836   8.735  1.3833 -0.4118 -1.1224
 5410SOL    HW227693   3.095   3.926   8.759  0.0609 -0.9643 -0.6898
 5411SOL     OW27694   0.449   0.915   8.453 -0.2667 -0.1007  0.7492
 5411SOL    HW127695   0.416   0.826   8.455 -0.0633 -0.2380 -1.7261
 5411SOL    HW227696   0.536   0.885   8.478  0.7825 -0.4773 -3.3446
 5412SOL     OW27697   4.221   4.405   8.560 -0.2859 -0.2404 -0.1821
 5412SOL    HW127698   4.191   4.453   8.637 -0.0076 -1.6377  0.8130
 5412SOL    HW227699   4.279   4.344   8.606  0.5777  0.4968 -0.2887
 5413SOL     OW27700   1.219   4.544   7.321  0.0876  0.2674 -0.0809
 5413SOL    HW127701   1.304   4.501   7.330  0.4021  0.8728 -0.1659
 5413SOL    HW227702   1.175   4.463   7.346  2.3491 -0.6645  0.8951
 5414SOL     OW27703   0.871   1.000   6.977 -0.1684 -0.0925  0.3569
 5414SOL    HW127704   0.792   1.038   7.016 -0.5458 -1.3049  0.7634
 5414SOL    HW227705   0.840   0.969   6.893 -2.3993  1.0212  0.7654
 5415SOL     OW27706   0.862   2.169   8.816 -0.2492  0.6239  0.0567
 5415SOL    HW127707   0.769   2.158   8.835  0.0321 -0.1572  1.0222
 5415SOL    HW227708   0.883   2.095   8.760 -2.1932  1.3473 -1.6090
 5416SOL     OW27709   2.598   0.527   6.867 -0.2075 -0.3473  0.0122
 5416SOL    HW127710   2.554   0.559   6.788 -2.3822 -0.0416  1.3512
 5416SOL    HW227711   2.664   0.596   6.871 -0.7043  0.0051  1.8996
 5417SOL     OW27712   0.075   0.864  17.444 -0.1500 -0.7962  0.9664
 5417SOL    HW127713   0.058   0.777  17.479 -0.9211 -0.9981  0.0662
 5417SOL    HW227714   0.104   0.839  17.357 -1.2749 -1.8495  0.8938
 5418SOL     OW27715   3.637   1.936   2.796  0.0642 -0.0060 -0.0943
 5418SOL    HW127716   3.681   1.852   2.786 -1.5741 -0.7886 -0.6576
 5418SOL    HW227717   3.645   1.966   2.705 -1.5462 -0.2626 -0.3089
 5419SOL     OW27718   4.679   2.774   3.113  0.5539 -0.2695 -0.4698
 5419SOL    HW127719   0.018   2.846   3.127 -0.3336  0.6607 -1.3631
 5419SOL    HW227720   4.668   2.727   3.196 -1.6467  0.3910 -0.3723
 5420SOL     OW27721   1.753   1.763   2.074 -0.4007 -0.2463 -0.1412
 5420SOL    HW127722   1.834   1.721   2.045 -0.8549 -0.2063 -1.4404
 5420SOL    HW227723   1.696   1.693   2.107 -0.7820  0.9686  1.7786
 5421SOL     OW27724   3.178   2.583  17.343 -0.1224  0.0734 -0.0441
 5421SOL    HW127725   3.125   2.659  17.367  1.3932  0.9865  0.4478
 5421SOL    HW227726   3.252   2.631  17.306  0.4206  0.4913  1.5418
 5422SOL     OW27727   0.248   3.860   5.826 -0.7158 -0.0318  0.3153
 5422SOL    HW127728   0.214   3.935   5.779  0.5632  1.2895  1.4834
 5422SOL    HW227729   0.242   3.884   5.919  0.9945 -0.2609  0.4878
 5423SOL     OW27730   4.700   3.033   6.884  0.4789  0.2135  0.1828
 5423SOL    HW127731   0.060   2.988   6.868 -0.3368 -0.5342 -1.9466
 5423SOL    HW227732   4.688   3.018   6.977 -1.4147  0.8850  0.0597
 5424SOL     OW27733   1.412   4.638   1.727 -0.1235 -0.0424 -0.1088
 5424SOL    HW127734   1.468   4.687   1.787 -1.4977  0.2912  0.9093
 5424SOL    HW227735   1.448   4.634   1.639 -0.0049  0.2871 -0.0748
 5425SOL     OW27736   0.612   0.028   5.003  0.3341 -0.2283  0.1138
 5425SOL    HW127737   0.688   0.004   5.056  2.0006  0.3854 -2.0049
 5425SOL    HW227738   0.558   4.671   5.012  0.7705 -0.4498  0.7103
 5426SOL     OW27739   3.889   0.159  14.801  0.7592 -0.6753 -0.0823
 5426SOL    HW127740   3.962   0.119  14.847  1.1024 -0.1876 -0.1990
 5426SOL    HW227741   3.932   0.178  14.717  0.3645 -0.0631 -0.1536
 5427SOL     OW27742   3.501   3.362  16.319 -0.9369 -0.0946  0.3809
 5427SOL    HW127743   3.525   3.294  16.257 -1.5052  0.5461 -0.5408
 5427SOL    HW227744   3.471   3.317  16.398  1.8692  0.2046  1.6055
 5428SOL     OW27745   3.494   0.377  12.760  0.3777 -0.0295  0.1526
 5428SOL    HW127746   3.571   0.342  12.803  2.9269  3.8170 -1.2623
 5428SOL    HW227747   3.447   0.304  12.720 -0.1520 -0.3280  1.3259
 5429SOL     OW27748   2.572   3.939   6.524  0.0257 -0.2519  0.3313
 5429SOL    HW127749   2.557   3.991   6.603  0.6131 -0.4808  0.5946
 5429SOL    HW227750   2.486   3.899   6.513  0.8004 -2.2701  1.7144
 5430SOL     OW27751   0.867   0.460   2.306 -0.0083 -0.2611  0.0063
 5430SOL    HW127752   0.924   0.506   2.244 -1.0446  0.9684 -0.0376
 5430SOL    HW227753   0.920   0.407   2.366 -1.5258 -1.3482  0.3600
 5431SOL     OW27754   2.893   4.553   3.140 -0.0383 -0.0606  0.6998
 5431SOL    HW127755   2.853   4.598   3.215  0.2309 -0.1105  0.8777
 5431SOL    HW227756   2.842   4.582   3.064 -1.1137 -1.8422  0.7568
 5432SOL     OW27757   1.090   0.077   3.726  0.3561  0.0755 -0.2476
 5432SOL    HW127758   1.074   0.021   3.650  1.0802 -0.6095  0.0996
 5432SOL    HW227759   1.100   0.160   3.680  1.5935  1.9767  3.4422
 5433SOL     OW27760   4.158   4.530  15.434 -0.6649 -0.6638 -0.3693
 5433SOL    HW127761   4.156   4.459  15.498 -1.6183  1.3062  1.7581
 5433SOL    HW227762   4.206   4.481  15.367 -2.1356 -0.4045 -1.6307
 5434SOL     OW27763   4.164   1.635  13.121 -0.1994 -0.4252  0.7828
 5434SOL    HW127764   4.185   1.577  13.194 -0.9444 -0.6143  0.8397
 5434SOL    HW227765   4.100   1.582  13.073 -0.2733  0.6956 -0.3716
 5435SOL     OW27766   0.400   4.324   4.832  0.4508 -0.2030 -0.6646
 5435SOL    HW127767   0.425   4.272   4.756 -1.6883 -1.0078 -0.8094
 5435SOL    HW227768   0.374   4.401   4.783  0.7234 -0.6612 -1.5256
 5436SOL     OW27769   4.425   2.171   1.788 -0.5498  0.0860 -0.2402
 5436SOL    HW127770   4.391   2.223   1.860 -0.2439 -0.6677  0.4513
 5436SOL    HW227771   4.512   2.208   1.776 -0.2503 -0.9216 -1.1810
 5437SOL     OW27772   0.879   3.624  14.434  0.4992  0.0132  0.5434
 5437SOL    HW127773   0.864   3.717  14.415  1.4100 -0.3944 -2.1532
 5437SOL    HW227774   0.871   3.577  14.351 -1.4843  0.4887  0.4532
 5438SOL     OW27775   0.691   2.057   1.677 -0.3350 -0.0826  0.1314
 5438SOL    HW127776   0.693   1.993   1.605 -2.1116  0.1057 -0.0875
 5438SOL    HW227777   0.774   2.104   1.665 -0.0784 -0.9476 -1.4282
 5439SOL     OW27778   3.832   0.110   7.445  0.6022 -0.4164 -0.5543
 5439SOL    HW127779   3.796   0.158   7.520 -0.9089  0.5730 -1.9089
 5439SOL    HW227780   3.773   0.127   7.372  2.9647  0.9970 -2.1343
 5440SOL     OW27781   2.453   4.547   2.845  0.3190  0.1962  0.1121
 5440SOL    HW127782   2.358   4.554   2.838  0.2523 -0.0761  0.7082
 5440SOL    HW227783   2.478   4.636   2.869  0.4061  0.1637  0.1404
 5441SOL     OW27784   1.204   2.024   8.628 -0.0461  0.2195 -0.0858
 5441SOL    HW127785   1.296   2.017   8.655  0.4795 -1.0132 -2.1416
 5441SOL    HW227786   1.217   2.071   8.546 -1.9088 -4.6059 -3.1520
 5442SOL     OW27787   2.520   1.831   7.553  0.1421 -0.2065 -0.1018
 5442SOL    HW127788   2.542   1.918   7.585  0.1958 -0.4695  0.5847
 5442SOL    HW227789   2.609   1.798   7.541  0.5954  1.7657 -2.0176
 5443SOL     OW27790   0.111   0.963   4.136  0.2021 -0.0596  0.1016
 5443SOL    HW127791   0.113   0.875   4.174 -1.8802  0.8018  2.2279
 5443SOL    HW227792   0.200   0.997   4.147 -0.2675  0.7276  1.5233
 5444SOL     OW27793   3.505   1.395  11.589  0.0253  0.1347  0.1381
 5444SOL    HW127794   3.487   1.481  11.550  1.6918  0.9357  1.1282
 5444SOL    HW227795   3.487   1.416  11.681  0.7983 -0.3232  0.3927
 5445SOL     OW27796   3.549   2.427   2.325 -0.4362  0.3277 -0.3938
 5445SOL    HW127797   3.612   2.496   2.343 -1.2745  1.3274 -1.3000
 5445SOL    HW227798   3.552   2.438   2.230 -1.0703  0.5505 -0.3867
 5446SOL     OW27799   1.835   2.642  15.363  0.0041  0.3850  0.0900
 5446SOL    HW127800   1.749   2.633  15.404 -1.1410 -0.2444 -2.4461
 5446SOL    HW227801   1.848   2.734  15.382  1.6593 -0.1441  1.5185
 5447SOL     OW27802   3.044   2.973  11.291 -0.4649 -0.0828 -0.1294
 5447SOL    HW127803   3.068   3.034  11.221 -0.2574  0.1135  0.1134
 5447SOL    HW227804   3.108   2.902  11.277  1.3413  0.9678  2.7870
 5448SOL     OW27805   0.571   0.703   0.991  0.0442  0.5252  0.3675
 5448SOL    HW127806   0.493   0.743   0.954 -1.1267 -1.9041  0.2142
 5448SOL    HW227807   0.625   0.713   0.912  0.4812 -1.5255  0.4136
 5449SOL     OW27808   0.610   1.672   1.550  0.4916 -0.2591 -0.1301
 5449SOL    HW127809   0.566   1.715   1.623  0.7370 -1.1368  0.5286
 5449SOL    HW227810   0.536   1.633   1.503  0.2190  0.2061 -0.0813
 5450SOL     OW27811   4.676   1.378   4.160  0.8330 -0.0636  0.3269
 5450SOL    HW127812   4.707   1.447   4.102  0.2761 -0.0360  0.0634
 5450SOL    HW227813   4.584   1.403   4.155 -0.0044 -3.2481 -0.4456
 5451SOL     OW27814   0.905   3.410  16.188 -0.0981 -0.2218 -0.2847
 5451SOL    HW127815   0.920   3.331  16.241 -2.2196  0.2564  1.0456
 5451SOL    HW227816   0.955   3.399  16.107  0.2023 -0.2519 -0.0966
 5452SOL     OW27817   0.744   3.940  12.513 -0.1138 -0.7246 -0.1556
 5452SOL    HW127818   0.786   4.025  12.497 -1.9433  0.6338  2.2821
 5452SOL    HW227819   0.782   3.892  12.440  2.8970  1.1806  0.1766
 5453SOL     OW27820   0.957   0.938   8.692  0.4321  1.0405  0.0060
 5453SOL    HW127821   0.944   0.908   8.783  1.6634  2.5803  0.6923
 5453SOL    HW227822   0.911   1.022   8.697 -1.8229 -0.2093  0.2328
 5454SOL     OW27823   4.503   3.681  10.695  0.3418 -0.3813 -0.2623
 5454SOL    HW127824   4.412   3.665  10.717 -0.1867  1.8383 -0.7873
 5454SOL    HW227825   4.487   3.657  10.604  2.0425 -1.7107 -0.2069
 5455SOL     OW27826   1.956   3.516   7.293  0.7733  0.3375 -0.3397
 5455SOL    HW127827   2.014   3.447   7.324 -0.0849  0.3727  1.3615
 5455SOL    HW227828   1.880   3.506   7.350  1.3012 -1.0862  0.1022
 5456SOL     OW27829   2.485   0.733  15.460  0.1303  0.1458  0.1241
 5456SOL    HW127830   2.409   0.695  15.416 -1.5261  1.2831  2.0017
 5456SOL    HW227831   2.498   0.813  15.409  3.1336 -1.6814 -1.9115
 5457SOL     OW27832   0.269   1.710  17.629 -0.3802 -0.0688  0.1713
 5457SOL    HW127833   0.360   1.725  17.656 -0.2590 -1.8583  0.7516
 5457SOL    HW227834   0.229   1.795  17.641 -0.0923 -0.0820  1.1840
 5458SOL     OW27835   4.167   0.401   5.521 -0.2562  0.2313  0.6988
 5458SOL    HW127836   4.260   0.423   5.525 -0.1770  0.2063 -1.0049
 5458SOL    HW227837   4.124   0.480   5.488  1.1302  1.0623  0.8863
 5459SOL     OW27838   4.623   0.195  15.282 -0.0229 -0.0843  0.2756
 5459SOL    HW127839   4.569   0.239  15.217 -0.0339  2.5303  2.0778
 5459SOL    HW227840   4.711   0.207  15.247  0.2246 -0.0160  0.9215
 5460SOL     OW27841   4.460   2.274  17.503 -0.4074  0.1509 -0.2246
 5460SOL    HW127842   4.396   2.309  17.565 -0.0054  1.5937 -0.6068
 5460SOL    HW227843   4.412   2.203  17.462 -0.6990 -0.2792  0.8767
 5461SOL     OW27844   3.000   0.225   1.645  0.0058  0.9011  0.6866
 5461SOL    HW127845   2.907   0.243   1.631  0.0533  1.4709  1.0699
 5461SOL    HW227846   3.010   0.162   1.717  0.9386  0.1585 -0.0921
 5462SOL     OW27847   1.282   3.476   2.488 -0.1831  0.2109  0.5771
 5462SOL    HW127848   1.277   3.436   2.575 -2.6112 -1.1380 -0.1747
 5462SOL    HW227849   1.343   3.549   2.496  1.8438 -1.5784  1.2869
 5463SOL     OW27850   2.303   3.353   2.536 -0.5772  0.3723  0.0276
 5463SOL    HW127851   2.383   3.331   2.489  0.6676  1.2096  1.7605
 5463SOL    HW227852   2.233   3.359   2.471  0.2671 -2.0621 -1.0806
 5464SOL     OW27853   4.534   0.072   1.677 -0.4796  0.5730  0.1823
 5464SOL    HW127854   4.481   0.023   1.740  2.0382  0.5250  2.2803
 5464SOL    HW227855   4.547   0.152   1.729  0.3833 -0.6746  1.8882
 5465SOL     OW27856   1.429   0.211  13.803  0.3647 -0.6114  0.0089
 5465SOL    HW127857   1.385   0.139  13.757  2.2388 -1.4589 -0.4613
 5465SOL    HW227858   1.447   0.154  13.878  0.9979  1.6287  1.5304
 5466SOL     OW27859   0.196   2.300   4.514 -0.7839 -0.2421  0.3372
 5466SOL    HW127860   0.167   2.383   4.478  1.7424 -0.0569 -1.3147
 5466SOL    HW227861   0.230   2.322   4.601  0.2077 -0.3507 -0.0259
 5467SOL     OW27862   2.634   0.606   6.555  0.2593  0.3005 -0.8507
 5467SOL    HW127863   2.728   0.604   6.574  0.2997  2.3530 -0.8469
 5467SOL    HW227864   2.621   0.700   6.542  2.5743  0.6686 -0.4557
 5468SOL     OW27865   3.048   4.350   2.989 -0.0548  0.1166  0.2381
 5468SOL    HW127866   3.030   4.348   3.083 -2.2350  0.9351 -0.1535
 5468SOL    HW227867   2.993   4.284   2.946  3.8697 -3.7510  1.2465
 5469SOL     OW27868   0.927   2.150   4.920  0.3272 -1.6117  0.0550
 5469SOL    HW127869   0.844   2.105   4.908 -0.0174 -1.0667  0.4225
 5469SOL    HW227870   0.929   2.206   4.842  0.0877 -1.4789  0.1452
 5470SOL     OW27871   2.487   2.689   4.845 -0.6966  0.1727 -0.8608
 5470SOL    HW127872   2.455   2.780   4.842 -0.2742  0.3470 -0.1147
 5470SOL    HW227873   2.426   2.649   4.783 -2.0316  0.5929  0.1908
 5471SOL     OW27874   0.132   3.577   0.065 -0.1029  0.3397 -0.1519
 5471SOL    HW127875   0.218   3.608   0.092 -0.5036  0.5324  0.9026
 5471SOL    HW227876   0.083   3.657   0.043 -1.3956 -1.6635 -4.5758
 5472SOL     OW27877   3.972   0.742  15.031  0.1495  0.4772  0.3028
 5472SOL    HW127878   3.914   0.765  15.103 -1.2091 -1.1414 -0.2817
 5472SOL    HW227879   3.965   0.818  14.974 -0.3224 -0.3575 -0.7521
 5473SOL     OW27880   2.270   1.523  11.961 -0.2798  0.7887  0.5047
 5473SOL    HW127881   2.227   1.591  12.013  1.2672 -0.4468  3.3780
 5473SOL    HW227882   2.281   1.448  12.018 -0.0688 -0.1175 -0.7372
 5474SOL     OW27883   1.878   3.926   6.438  0.6049 -0.5519 -0.2529
 5474SOL    HW127884   1.961   3.900   6.399  0.1172 -0.7312 -1.1685
 5474SOL    HW227885   1.876   3.875   6.520  0.6130 -0.0038  0.0906
 5475SOL     OW27886   0.541   3.058   8.870 -0.0198 -0.0151  0.1461
 5475SOL    HW127887   0.466   3.007   8.899 -2.0196  1.5165 -2.3531
 5475SOL    HW227888   0.580   3.104   8.944  0.6030  1.5451 -1.1396
 5476SOL     OW27889   3.162   3.932   6.213  0.1559 -0.0243  0.7018
 5476SOL    HW127890   3.140   3.908   6.123 -1.8441 -0.5094  1.3315
 5476SOL    HW227891   3.082   3.915   6.262 -0.4426 -1.3408 -0.7344
 5477SOL     OW27892   4.160   3.498   4.310  0.0332 -0.3475 -0.6613
 5477SOL    HW127893   4.102   3.424   4.327  0.2958 -0.5783 -0.7697
 5477SOL    HW227894   4.115   3.544   4.239 -0.4976 -1.5216 -1.0838
 5478SOL     OW27895   0.113   0.723   8.215 -0.0721  0.1187  0.5508
 5478SOL    HW127896   0.096   0.809   8.253  0.3786  0.9437 -1.0985
 5478SOL    HW227897   0.090   0.672   8.292 -0.1460  0.4403  0.7431
 5479SOL     OW27898   0.643   0.040  11.290  0.0064 -0.0538  0.6892
 5479SOL    HW127899   0.686   4.710  11.224 -2.2310 -1.0593  0.0150
 5479SOL    HW227900   0.670   0.131  11.281  3.4096 -1.0596  0.9112
 5480SOL     OW27901   3.666   2.273   4.585  0.3334  0.0704 -0.5965
 5480SOL    HW127902   3.736   2.249   4.646 -0.0573 -0.3336 -0.3137
 5480SOL    HW227903   3.634   2.187   4.556  2.3492 -1.2216  1.0037
 5481SOL     OW27904   3.860   1.873   2.133  0.0152 -0.2967  0.2282
 5481SOL    HW127905   3.932   1.899   2.190  0.2590  1.3615 -0.8342
 5481SOL    HW227906   3.866   1.782   2.162  1.0165 -0.6129 -0.9749
 5482SOL     OW27907   3.293   3.275   7.546 -0.2399  0.1423  0.3747
 5482SOL    HW127908   3.199   3.266   7.531 -0.1769  0.4085 -0.1838
 5482SOL    HW227909   3.323   3.207   7.484  0.7121 -0.9096  1.9872
 5483SOL     OW27910   4.036   4.690   6.100  0.1306  0.4217 -0.0258
 5483SOL    HW127911   4.124   4.713   6.130  0.3354 -1.0356  0.4656
 5483SOL    HW227912   4.010   0.041   6.044 -1.1358  0.4887  0.6458
 5484SOL     OW27913   1.011   0.573   5.169  0.2469 -0.0636  0.0115
 5484SOL    HW127914   0.952   0.530   5.106 -0.1202  2.5603 -1.4573
 5484SOL    HW227915   1.061   0.494   5.190  0.7506  0.3093  0.1783
 5485SOL     OW27916   4.186   4.129   6.759 -0.2991 -0.5550 -0.0145
 5485SOL    HW127917   4.105   4.107   6.805 -1.1928  2.4856 -0.1297
 5485SOL    HW227918   4.245   4.063   6.796 -0.8158 -1.1821 -0.3226
 5486SOL     OW27919   1.687   1.599   3.437  0.5291  0.6292  0.3347
 5486SOL    HW127920   1.664   1.644   3.356  1.5244 -0.0425 -0.3147
 5486SOL    HW227921   1.624   1.528   3.444 -0.6888  1.6869  0.0492
 5487SOL     OW27922   3.251   0.403   2.764  0.1904 -0.4232 -0.3344
 5487SOL    HW127923   3.284   0.372   2.849  2.1740 -0.6916 -1.2128
 5487SOL    HW227924   3.317   0.365   2.707  2.6928  0.4813  1.9612
 5488SOL     OW27925   1.331   3.200  16.871 -0.1616  0.4986  0.2458
 5488SOL    HW127926   1.419   3.184  16.904 -0.6757 -1.5145  0.6852
 5488SOL    HW227927   1.292   3.117  16.899 -2.9934  2.4337  1.9963
 5489SOL     OW27928   4.283   1.226  11.255  0.6050  0.0074  0.4453
 5489SOL    HW127929   4.361   1.227  11.198  2.0994  2.1497  2.5535
 5489SOL    HW227930   4.204   1.216  11.203  0.1801 -0.6925  1.2276
 5490SOL     OW27931   2.627   1.640   6.724 -0.0362  0.0100 -0.0209
 5490SOL    HW127932   2.547   1.648   6.775 -0.6668  3.5690 -1.5945
 5490SOL    HW227933   2.623   1.713   6.663  0.2013  1.1590  1.3477
 5491SOL     OW27934   1.038   3.750  10.706 -0.0689  0.0382  0.0123
 5491SOL    HW127935   1.044   3.689  10.780 -0.8948  2.3838  1.9797
 5491SOL    HW227936   1.107   3.814  10.721  0.9621 -0.1689 -3.6821
 5492SOL     OW27937   0.353   3.153   5.880  0.3315  0.3172  0.1256
 5492SOL    HW127938   0.394   3.070   5.903  2.2036  1.3400  0.4806
 5492SOL    HW227939   0.305   3.116   5.806 -1.2614  1.6011  0.5122
 5493SOL     OW27940   3.261   3.717   7.439  0.2792 -0.8984 -0.0238
 5493SOL    HW127941   3.231   3.807   7.427 -0.6684 -1.0008  1.4763
 5493SOL    HW227942   3.301   3.691   7.357 -1.0238  0.5326 -1.1231
 5494SOL     OW27943   3.776   3.879   5.840 -0.0707  0.0177 -0.4159
 5494SOL    HW127944   3.841   3.817   5.807 -0.6416 -0.9472  0.2658
 5494SOL    HW227945   3.808   3.968   5.825 -0.0941 -0.3281 -2.4106
 5495SOL     OW27946   1.448   3.367   4.934 -0.4576 -0.0839  0.5892
 5495SOL    HW127947   1.410   3.454   4.930 -1.7953 -0.6682  0.6146
 5495SOL    HW227948   1.500   3.372   5.014  0.7414 -0.5671 -0.1486
 5496SOL     OW27949   3.335   0.667   3.614 -0.5642  0.1286 -0.2102
 5496SOL    HW127950   3.268   0.610   3.578  0.9402 -3.5273  2.7548
 5496SOL    HW227951   3.402   0.614   3.659 -0.2543  0.5425 -0.1807
 5497SOL     OW27952   0.030   4.172  11.176 -0.3261 -1.2274  0.7165
 5497SOL    HW127953   0.002   4.220  11.098  0.2532 -0.1179  1.1969
 5497SOL    HW227954   4.686   4.200  11.238  0.1737 -0.7591  1.0513
 5498SOL     OW27955   2.712   2.707   7.796 -0.9050  0.3378 -0.3139
 5498SOL    HW127956   2.783   2.749   7.843 -0.3726 -1.8568  0.8709
 5498SOL    HW227957   2.720   2.614   7.820 -1.3301  0.2692 -0.4204
 5499SOL     OW27958   2.415   2.226   7.461  0.1235  0.5885 -0.0925
 5499SOL    HW127959   2.446   2.315   7.472  2.4668 -0.0535 -1.5575
 5499SOL    HW227960   2.320   2.229   7.446 -0.1167  1.0487  1.4867
 5500SOL     OW27961   0.740   2.287   5.277  0.3481  0.1372  0.1851
 5500SOL    HW127962   0.656   2.247   5.300  0.0522  0.4478 -0.3584
 5500SOL    HW227963   0.792   2.264   5.354 -0.7587  0.8199  1.1346
 5501SOL     OW27964   0.607   3.920   7.466  0.5105  0.0426 -0.4644
 5501SOL    HW127965   0.612   4.015   7.473  0.8679 -0.0100 -0.0132
 5501SOL    HW227966   0.702   3.908   7.471  0.6559  1.5251  0.1976
 5502SOL     OW27967   3.199   2.420  13.661 -0.2756  0.1732  0.3251
 5502SOL    HW127968   3.222   2.477  13.588  3.4743  1.3668  2.4056
 5502SOL    HW227969   3.173   2.337  13.622  1.0004 -1.4312  2.8919
 5503SOL     OW27970   1.511   0.748   2.036  0.2240  0.2747 -0.1039
 5503SOL    HW127971   1.571   0.710   1.972 -0.1688  0.6732 -0.7069
 5503SOL    HW227972   1.563   0.809   2.088 -3.1315  2.2870  0.8120
 5504SOL     OW27973   1.440   1.424   4.348  0.1288  0.1532 -0.1252
 5504SOL    HW127974   1.415   1.463   4.432 -0.4952 -0.2720 -0.1127
 5504SOL    HW227975   1.368   1.361   4.342 -0.5143  0.5721  3.3771
 5505SOL     OW27976   4.196   0.956   3.662 -0.2515  0.2945 -0.3384
 5505SOL    HW127977   4.187   0.874   3.614 -1.4857  1.0521 -1.4052
 5505SOL    HW227978   4.216   1.022   3.595  2.3621  0.2461  0.4041
 5506SOL     OW27979   0.804   3.177   6.839 -0.1040  0.6167 -0.3470
 5506SOL    HW127980   0.843   3.091   6.821 -1.7951 -0.4326  0.8651
 5506SOL    HW227981   0.875   3.222   6.885 -1.0208  1.6691  0.0358
 5507SOL     OW27982   2.832   0.401  10.306 -0.5964 -0.7330  0.4450
 5507SOL    HW127983   2.876   0.341  10.366 -0.9010 -0.2690  1.1347
 5507SOL    HW227984   2.782   0.342  10.249  1.0741 -0.6299 -1.1441
 5508SOL     OW27985   1.622   0.275  13.629  0.1407  0.1033 -0.2464
 5508SOL    HW127986   1.585   0.303  13.545 -1.2512 -0.2563  0.2379
 5508SOL    HW227987   1.550   0.295  13.689 -0.5349  1.0841 -1.3673
 5509SOL     OW27988   0.393   4.325  11.281 -0.2062  0.3879  0.0161
 5509SOL    HW127989   0.357   4.401  11.327  1.1210  1.4214 -0.6573
 5509SOL    HW227990   0.334   4.252  11.297  0.6090  0.0637  1.6073
 5510SOL     OW27991   1.649   1.783   5.890 -0.8621 -0.4851  0.0715
 5510SOL    HW127992   1.598   1.783   5.972 -0.4325  0.0887  0.3392
 5510SOL    HW227993   1.579   1.792   5.826 -2.3409 -0.6459  1.6661
 5511SOL     OW27994   0.563   3.747   0.420 -0.1563 -0.1081  0.7416
 5511SOL    HW127995   0.609   3.673   0.382  0.7344  0.5757  0.5060
 5511SOL    HW227996   0.570   3.815   0.353 -1.9008 -1.3852 -0.7213
 5512SOL     OW27997   4.183   3.718  11.026 -0.0723  0.2266 -0.2295
 5512SOL    HW127998   4.255   3.771  11.062 -1.5500  2.5402 -0.7025
 5512SOL    HW227999   4.174   3.658  11.100  3.9444  1.4519  1.2873
 5513SOL     OW28000   0.548   1.497   5.304 -0.0640 -0.4730 -0.7327
 5513SOL    HW128001   0.546   1.476   5.398 -0.0424  0.6858 -0.4720
 5513SOL    HW228002   0.606   1.425   5.280  1.5471  1.2316 -1.9513
 5514SOL     OW28003   4.367   0.839   7.649 -0.4558 -0.2753  0.4340
 5514SOL    HW128004   4.373   0.931   7.674  2.3334 -0.2217 -0.4795
 5514SOL    HW228005   4.372   0.855   7.555  0.9030 -1.5343  0.2820
 5515SOL     OW28006   0.119   4.576  11.193  0.0861  0.6648 -0.3290
 5515SOL    HW128007   0.146   4.651  11.140 -1.6804  1.3507 -0.2860
 5515SOL    HW228008   0.061   4.528  11.133 -0.1560  0.5115  0.0303
 5516SOL     OW28009   3.944   2.878  13.785 -0.5787  0.3608 -0.2880
 5516SOL    HW128010   3.882   2.951  13.775 -1.7992 -0.0721  3.7719
 5516SOL    HW228011   3.886   2.818  13.833 -2.1647  1.5538 -0.6905
 5517SOL     OW28012   2.982   4.457   7.860  0.2907 -0.4158 -0.4102
 5517SOL    HW128013   2.965   4.478   7.952 -0.0559 -1.1016 -0.3140
 5517SOL    HW228014   2.914   4.509   7.819 -0.4309 -0.2682  0.9711
 5518SOL     OW28015   4.221   0.562   4.034  0.2131  0.2643  0.0502
 5518SOL    HW128016   4.272   0.596   4.108  1.6118  0.1979 -0.8859
 5518SOL    HW228017   4.142   0.614   4.050  1.0711  1.5750  0.0092
 5519SOL     OW28018   0.498   0.258   4.115 -0.0106 -0.0829 -0.6680
 5519SOL    HW128019   0.462   0.196   4.052 -1.3319  0.6837 -0.6568
 5519SOL    HW228020   0.440   0.333   4.109  0.8926  0.8425  2.0705
 5520SOL     OW28021   1.123   1.686   7.017 -0.8562  0.4816 -0.2314
 5520SOL    HW128022   1.218   1.683   7.003 -0.5933  0.2394  1.6736
 5520SOL    HW228023   1.091   1.661   6.930 -0.2687  2.7309 -1.0797
 5521SOL     OW28024   1.347   0.930   6.664 -0.0495  0.6149 -0.4400
 5521SOL    HW128025   1.429   0.979   6.663  1.3567 -1.7066 -0.2007
 5521SOL    HW228026   1.381   0.844   6.690 -0.0724  0.8564  0.3622
 5522SOL     OW28027   3.904   3.750   2.733  0.2982 -0.5600  0.2942
 5522SOL    HW128028   3.843   3.810   2.690  0.0786 -1.7727 -1.0861
 5522SOL    HW228029   3.939   3.791   2.812 -1.3101  2.3809 -0.5209
 5523SOL     OW28030   3.850   3.729  15.577 -0.0521  0.4113  0.2625
 5523SOL    HW128031   3.822   3.645  15.543 -0.6780  1.1397 -1.0378
 5523SOL    HW228032   3.867   3.702  15.667 -1.9892 -3.7651 -0.6798
 5524SOL     OW28033   3.979   2.960   1.708 -0.0157  0.1347 -0.0413
 5524SOL    HW128034   3.940   2.885   1.755  1.8422  0.3244  1.8153
 5524SOL    HW228035   4.072   2.942   1.723  0.2498  0.7209 -0.9940
 5525SOL     OW28036   3.399   0.840   9.523 -0.0242 -0.6713 -0.0611
 5525SOL    HW128037   3.350   0.869   9.445 -0.6498  0.1318  0.6281
 5525SOL    HW228038   3.485   0.843   9.482  0.6667  0.3281  1.4719
 5526SOL     OW28039   2.169   4.001   8.069  0.4216 -0.1348  0.1035
 5526SOL    HW128040   2.188   4.089   8.036  0.9218 -0.0999  0.4988
 5526SOL    HW228041   2.196   3.948   7.995  1.3652  1.0278 -0.3735
 5527SOL     OW28042   3.609   1.587   2.331  0.5602  0.3598 -0.5073
 5527SOL    HW128043   3.591   1.674   2.296 -0.6248  0.7811  1.1401
 5527SOL    HW228044   3.549   1.537   2.275  1.9118  0.1129 -1.7053
 5528SOL     OW28045   2.655   2.341   9.722 -0.1301 -0.1779 -0.6079
 5528SOL    HW128046   2.561   2.359   9.724 -0.3333 -1.3185 -0.0924
 5528SOL    HW228047   2.682   2.374   9.636 -1.1381 -0.0888 -0.8872
 5529SOL     OW28048   1.430   0.899   4.415  0.1325 -1.0271 -0.3837
 5529SOL    HW128049   1.521   0.927   4.402  0.0456  0.4579  2.2503
 5529SOL    HW228050   1.417   0.919   4.507 -0.2145 -0.2671 -0.5958
 5530SOL     OW28051   4.631   2.524   1.000  0.2598 -0.5101 -0.2845
 5530SOL    HW128052   4.642   2.558   1.088 -0.7752  0.5723 -0.5852
 5530SOL    HW228053   4.596   2.436   1.016 -0.7473 -0.1810 -0.6755
 5531SOL     OW28054   0.165   4.283   3.798 -0.2507  0.0447  0.0717
 5531SOL    HW128055   0.193   4.270   3.708  0.1083  0.0446  0.1857
 5531SOL    HW228056   0.072   4.259   3.796  0.3235 -2.2322  0.2548
 5532SOL     OW28057   0.752   4.119  17.641  0.2256 -0.0900 -0.5732
 5532SOL    HW128058   0.778   4.123  17.549  1.9849  0.1580 -0.0668
 5532SOL    HW228059   0.766   4.210  17.667 -3.0446 -0.4355  2.2828
 5533SOL     OW28060   3.501   3.873   3.757  0.6596 -0.2578 -0.0810
 5533SOL    HW128061   3.494   3.966   3.736 -1.2243 -0.5641 -0.8190
 5533SOL    HW228062   3.422   3.861   3.808  1.6169 -1.1316  1.1946
 5534SOL     OW28063   2.950   2.068   2.221  0.2506 -0.3952 -0.1600
 5534SOL    HW128064   2.913   2.046   2.135 -1.1487 -2.2389  0.9084
 5534SOL    HW228065   2.954   1.982   2.263 -1.3066 -0.7888 -0.7997
 5535SOL     OW28066   0.633   1.549   6.760 -0.4913 -0.0140  0.7949
 5535SOL    HW128067   0.685   1.507   6.829 -1.3463  0.3000  1.6317
 5535SOL    HW228068   0.560   1.589   6.806 -0.5214  1.2298 -0.3416
 5536SOL     OW28069   3.991   2.734  16.494 -0.1419 -0.6341  0.2723
 5536SOL    HW128070   4.019   2.652  16.452 -0.0937 -1.2163  1.4370
 5536SOL    HW228071   3.897   2.721  16.504 -0.7471  1.6426 -2.4601
 5537SOL     OW28072   0.575   3.697   1.159  0.3368  0.0313  0.5230
 5537SOL    HW128073   0.626   3.764   1.204  1.4180  0.1609 -0.9103
 5537SOL    HW228074   0.633   3.639   1.111  1.7772  1.1361  0.9334
 5538SOL     OW28075   0.273   2.197   3.991 -0.2434 -0.4807  1.0190
 5538SOL    HW128076   0.283   2.110   4.030  1.3231 -0.5556  0.4742
 5538SOL    HW228077   0.328   2.183   3.914 -1.3642 -2.2946  0.5475
 5539SOL     OW28078   2.330   3.758   5.331 -0.2049  1.0414 -0.0687
 5539SOL    HW128079   2.247   3.713   5.319  1.0570 -1.5262  0.9162
 5539SOL    HW228080   2.351   3.771   5.239  2.7056 -0.2146  0.4202
 5540SOL     OW28081   2.070   1.552   4.014  0.1860 -0.1908  0.1626
 5540SOL    HW128082   2.162   1.553   3.989  0.5664 -2.0121  1.5407
 5540SOL    HW228083   2.084   1.529   4.106 -0.9280  0.0129  0.3913
 5541SOL     OW28084   1.620   3.909  16.425 -0.4031  0.3775  0.3640
 5541SOL    HW128085   1.602   3.999  16.397  2.7801  1.0989  0.5970
 5541SOL    HW228086   1.703   3.889  16.381 -0.1681  1.8146  0.1429
 5542SOL     OW28087   1.919   2.094   8.717 -0.4400  0.3423  0.8454
 5542SOL    HW128088   1.895   2.178   8.678  2.1877  1.5927  1.9456
 5542SOL    HW228089   1.927   2.124   8.808  0.7017 -0.5846  1.0562
 5543SOL     OW28090   3.855   2.851  11.073 -0.7619  0.1117 -0.5716
 5543SOL    HW128091   3.776   2.851  11.019 -0.4603  1.7838 -1.0128
 5543SOL    HW228092   3.817   2.887  11.152  0.1988 -0.6726  0.2519
 5544SOL     OW28093   1.273   2.395   4.577  0.3834 -0.3390  0.1560
 5544SOL    HW128094   1.215   2.347   4.517 -1.6833  1.0297  1.0558
 5544SOL    HW228095   1.311   2.328   4.633 -0.4572  0.1279  1.2891
 5545SOL     OW28096   3.920   3.897   6.646 -0.1201  0.2268  0.0812
 5545SOL    HW128097   3.939   3.984   6.680 -0.3440 -0.1270  1.1396
 5545SOL    HW228098   3.834   3.871   6.682  0.5906  1.2855  2.5582
 5546SOL     OW28099   2.335   3.003   5.353 -0.3768  0.2619 -0.3987
 5546SOL    HW128100   2.353   2.966   5.439  0.7018  0.0847 -0.6962
 5546SOL    HW228101   2.400   2.971   5.290  0.1133 -0.2438  0.3670
 5547SOL     OW28102   0.248   2.643  14.910  0.2718 -0.5919  0.5399
 5547SOL    HW128103   0.160   2.633  14.945  1.1005 -1.0255  2.5323
 5547SOL    HW228104   0.219   2.627  14.820  1.3225 -1.6353  0.3931
 5548SOL     OW28105   0.436   4.467  11.672  0.7733 -0.4765 -0.1225
 5548SOL    HW128106   0.406   4.536  11.612 -2.1317 -1.5083  0.1764
 5548SOL    HW228107   0.372   4.456  11.742  1.3353 -0.3365  0.4203
 5549SOL     OW28108   3.613   4.003  14.595 -0.3472 -0.9508  0.3239
 5549SOL    HW128109   3.607   4.003  14.500 -0.6068 -0.0995  0.3404
 5549SOL    HW228110   3.523   3.988  14.625 -1.5211  0.9522 -2.2576
 5550SOL     OW28111   1.438   3.462   0.591  0.1312  0.0896  0.8569
 5550SOL    HW128112   1.374   3.475   0.660 -3.0730  0.1984 -2.1170
 5550SOL    HW228113   1.430   3.545   0.543  0.5955 -0.4028 -0.0842
 5551SOL     OW28114   2.678   2.636   4.105 -0.1910 -0.1937  0.0232
 5551SOL    HW128115   2.727   2.681   4.174 -2.5923 -0.6326  2.0183
 5551SOL    HW228116   2.599   2.619   4.156 -0.5489  0.3654 -0.3547
 5552SOL     OW28117   4.356   3.513  11.145 -0.5137 -0.1396 -0.1101
 5552SOL    HW128118   4.408   3.466  11.210  1.0068  1.4855 -0.1416
 5552SOL    HW228119   4.423   3.573  11.112 -0.4147 -0.0919  0.1771
 5553SOL     OW28120   1.644   1.829   3.788 -0.1880  0.5640  0.0246
 5553SOL    HW128121   1.650   1.871   3.874 -3.7453  1.8855 -0.3675
 5553SOL    HW228122   1.738   1.826   3.767 -0.6028  0.1683 -1.8193
 5554SOL     OW28123   2.503   0.745  12.289  0.0203  0.0218 -0.3218
 5554SOL    HW128124   2.527   0.681  12.221 -0.0158 -0.3619  0.0310
 5554SOL    HW228125   2.409   0.753  12.273  0.5518  2.8723 -2.1523
 5555SOL     OW28126   2.958   0.384   7.078 -0.9067 -0.6069  0.0346
 5555SOL    HW128127   3.021   0.429   7.021  1.2954 -3.0072  0.5873
 5555SOL    HW228128   3.018   0.363   7.150  0.8840  1.4308 -0.8548
 5556SOL     OW28129   1.763   4.457   3.579  0.1114 -0.2024  0.0958
 5556SOL    HW128130   1.819   4.406   3.637  1.0006  1.1324  0.4003
 5556SOL    HW228131   1.825   4.516   3.537  0.6151 -0.8962 -0.1350
 5557SOL     OW28132   0.739   2.594   3.245  0.2939  0.0369 -0.3783
 5557SOL    HW128133   0.819   2.542   3.232 -0.4482 -0.5420 -2.6809
 5557SOL    HW228134   0.765   2.668   3.190  2.8366 -0.5203  0.0408
 5558SOL     OW28135   2.627   2.044   2.576 -0.4516  0.6168 -0.0817
 5558SOL    HW128136   2.646   2.065   2.668  2.9208 -1.3070 -0.3496
 5558SOL    HW228137   2.652   1.952   2.581 -1.5942  0.4504  2.5480
 5559SOL     OW28138   1.648   2.977  16.616  0.1184  0.5489  0.1143
 5559SOL    HW128139   1.588   2.912  16.654 -0.6898  0.6993 -0.9053
 5559SOL    HW228140   1.711   2.992  16.686  1.1816  0.4343 -0.8204
 5560SOL     OW28141   4.671   1.650   0.438  0.5689 -0.1020 -0.2907
 5560SOL    HW128142   4.652   1.557   0.451  0.4482  0.3805  3.0454
 5560SOL    HW228143   0.040   1.658   0.464  0.3188  0.0276  0.5457
 5561SOL     OW28144   2.427   2.238   5.587 -0.1001  0.3136 -0.0803
 5561SOL    HW128145   2.369   2.315   5.588 -0.8439 -0.2434 -1.0048
 5561SOL    HW228146   2.497   2.287   5.542  0.5921  0.5429  1.2382
 5562SOL     OW28147   1.306   0.776  17.291  0.0808  0.0772  0.0781
 5562SOL    HW128148   1.283   0.856  17.339 -1.6346 -0.5594  0.3320
 5562SOL    HW228149   1.267   0.706  17.344 -0.6381  0.1058 -0.4090
 5563SOL     OW28150   4.190   1.218   6.462 -0.3298  0.6543 -0.8089
 5563SOL    HW128151   4.212   1.256   6.377 -1.1485  1.6466 -0.5820
 5563SOL    HW228152   4.249   1.261   6.524 -0.6500 -0.3499  0.1958
 5564SOL     OW28153   0.047   1.606   9.722 -0.0921  0.2867 -0.7429
 5564SOL    HW128154   0.014   1.525   9.684 -0.6555 -0.2261  0.8703
 5564SOL    HW228155   0.012   1.605   9.811  1.4082  1.0159 -0.1430
 5565SOL     OW28156   4.033   0.970   6.224 -0.0595 -0.1554  0.5001
 5565SOL    HW128157   4.070   1.036   6.283  2.6465  0.3546 -1.7915
 5565SOL    HW228158   4.102   0.942   6.164  0.6255  1.5020  0.5069
 5566SOL     OW28159   2.384   1.196   7.212 -0.4089 -0.1873 -0.5849
 5566SOL    HW128160   2.413   1.261   7.277 -1.4431  0.8482 -1.1586
 5566SOL    HW228161   2.289   1.193   7.226  0.0475 -0.6129  2.5541
 5567SOL     OW28162   0.088   4.175   0.873  0.2731  0.2009 -0.5985
 5567SOL    HW128163   0.037   4.186   0.953  0.0317 -1.2704 -0.5533
 5567SOL    HW228164   0.108   4.082   0.883 -1.7051 -0.1407  0.1909
 5568SOL     OW28165   2.544   4.694  16.759 -0.1601 -0.0819 -0.5587
 5568SOL    HW128166   2.568   4.642  16.836  0.8082 -1.4088 -1.7418
 5568SOL    HW228167   2.451   4.677  16.742 -0.1743  0.0916 -0.6606
 5569SOL     OW28168   3.347   0.117  11.127  0.3196  0.4167  0.0741
 5569SOL    HW128169   3.384   0.041  11.082  0.0246  0.1942  0.2078
 5569SOL    HW228170   3.320   0.180  11.060  0.8742  2.7476  2.0520
 5570SOL     OW28171   3.392   3.753  16.571 -0.0640  0.3719 -0.4584
 5570SOL    HW128172   3.339   3.682  16.533  1.0387 -0.8846  0.3415
 5570SOL    HW228173   3.475   3.712  16.546  0.1174 -0.0401  0.8354
 5571SOL     OW28174   3.340   0.809  10.187  0.2670 -0.3129  0.1621
 5571SOL    HW128175   3.421   0.762  10.166 -0.6202 -1.9637  0.4398
 5571SOL    HW228176   3.272   0.764  10.138  0.9019 -1.5050  0.3645
 5572SOL     OW28177   1.661   2.181   3.199 -0.1926 -0.0637 -0.1332
 5572SOL    HW128178   1.693   2.170   3.110 -0.3128  2.2783 -0.4608
 5572SOL    HW228179   1.690   2.265   3.234 -0.9537  0.2436 -0.2660
 5573SOL     OW28180   1.562   3.912   1.952  0.1459  0.2827  0.2190
 5573SOL    HW128181   1.632   3.946   1.897  0.0535 -0.1170 -0.1530
 5573SOL    HW228182   1.595   3.948   2.034  1.1951 -1.9394  0.7549
 5574SOL     OW28183   3.092   3.543   1.663  0.4333 -0.4426  0.5415
 5574SOL    HW128184   3.092   3.449   1.682  3.4357 -1.3402 -3.8220
 5574SOL    HW228185   3.125   3.566   1.750  2.1974  0.9195 -0.5042
 5575SOL     OW28186   1.880   1.139   5.343  0.0309 -0.1404  0.0612
 5575SOL    HW128187   1.890   1.129   5.437 -0.3598  1.3720  0.2644
 5575SOL    HW228188   1.972   1.155   5.326 -0.0639 -1.0944 -1.3564
 5576SOL     OW28189   0.672   3.446   9.950  0.3225 -0.3336  0.6636
 5576SOL    HW128190   0.636   3.505  10.017 -3.7132 -1.4305 -0.5470
 5576SOL    HW228191   0.717   3.508   9.892  1.7155 -0.4899  1.5544
 5577SOL     OW28192   1.422   1.026   6.005 -0.0938 -0.4418  0.0094
 5577SOL    HW128193   1.375   1.079   6.069  1.9398  1.5570 -0.1283
 5577SOL    HW228194   1.407   1.068   5.920  0.3203 -3.6574 -1.6238
 5578SOL     OW28195   3.141   1.798   6.035  0.3737  0.1400  0.4720
 5578SOL    HW128196   3.169   1.883   6.003  2.1449 -1.7515 -2.9793
 5578SOL    HW228197   3.069   1.820   6.095 -0.4114 -0.5125 -0.2275
 5579SOL     OW28198   0.038   0.209  12.185  0.2443  0.4187  0.7832
 5579SOL    HW128199   4.721   0.166  12.109  0.0849 -0.3668  1.3057
 5579SOL    HW228200   4.696   0.270  12.220 -2.4457 -2.6958  1.2605
 5580SOL     OW28201   0.020   3.647  14.039 -0.1017  0.4804 -0.5241
 5580SOL    HW128202   0.031   3.733  14.079 -1.2306 -0.9021  2.7392
 5580SOL    HW228203   4.647   3.654  14.036 -0.0482  1.0261 -1.2406
 5581SOL     OW28204   3.004   1.082   8.480  0.1736 -0.0283 -0.3323
 5581SOL    HW128205   2.987   1.007   8.536 -3.2745 -1.1482 -2.8134
 5581SOL    HW228206   2.943   1.148   8.513 -0.6370 -0.7711 -0.3499
 5582SOL     OW28207   0.578   0.993   7.516 -0.3918 -0.7149  0.0053
 5582SOL    HW128208   0.534   0.928   7.572 -0.5607  0.0481  0.7637
 5582SOL    HW228209   0.597   1.057   7.584 -0.6852 -0.9367  0.2984
 5583SOL     OW28210   1.517   3.471   7.514  0.9084 -0.0148  0.1114
 5583SOL    HW128211   1.584   3.402   7.511  0.0222 -0.9038  0.7074
 5583SOL    HW228212   1.468   3.438   7.589 -0.6956 -0.4914 -1.1308
 5584SOL     OW28213   2.848   1.711   5.234 -0.9768 -0.2321 -0.8477
 5584SOL    HW128214   2.812   1.692   5.321  1.3464 -1.9645 -0.2740
 5584SOL    HW228215   2.793   1.653   5.182  1.5262 -1.7398 -1.8193
 5585SOL     OW28216   0.508   3.422   2.236 -0.4817  0.4108 -0.3260
 5585SOL    HW128217   0.590   3.390   2.276 -1.5041  0.6068  1.9562
 5585SOL    HW228218   0.491   3.343   2.185 -0.8275  1.7283 -2.2252
 5586SOL     OW28219   0.064   2.595   4.848 -0.5209 -0.9033 -0.6576
 5586SOL    HW128220   0.047   2.527   4.912  2.1337 -1.6812 -0.7551
 5586SOL    HW228221   0.157   2.585   4.825 -0.8182  1.1677 -2.7979
 5587SOL     OW28222   4.279   0.953   4.705 -0.6139 -0.3022  0.0655
 5587SOL    HW128223   4.200   0.954   4.759 -2.6583  0.0211 -2.8810
 5587SOL    HW228224   4.239   0.947   4.618 -2.3860  0.3645  0.8352
 5588SOL     OW28225   1.402   4.450   2.405 -0.0843  0.1829 -0.7618
 5588SOL    HW128226   1.348   4.501   2.344  0.9633  0.8843 -1.1164
 5588SOL    HW228227   1.484   4.457   2.355 -0.5968  1.4017 -1.4461
 5589SOL     OW28228   1.173   2.524  14.516 -0.4884 -0.2775  0.0522
 5589SOL    HW128229   1.255   2.566  14.543 -0.1322 -2.1878  1.9242
 5589SOL    HW228230   1.139   2.475  14.591  1.4251  1.9275  2.3616
 5590SOL     OW28231   3.159   1.580   2.209 -0.3806  0.1848 -0.0024
 5590SOL    HW128232   3.227   1.544   2.266 -0.2757  0.7870  0.2465
 5590SOL    HW228233   3.083   1.526   2.233  0.1657 -1.2182 -1.4041
 5591SOL     OW28234   4.207   2.909   8.391  0.7253  0.1218  0.0759
 5591SOL    HW128235   4.188   2.830   8.442 -2.3698  1.1254  0.4702
 5591SOL    HW228236   4.275   2.869   8.336  0.0598 -0.5193 -0.2680
 5592SOL     OW28237   0.947   4.029   1.083 -0.4344 -0.1509  0.4844
 5592SOL    HW128238   0.906   4.049   0.999  0.6164  1.4735  0.3716
 5592SOL    HW228239   0.948   4.113   1.129  0.4521 -0.2655  0.6774
 5593SOL     OW28240   2.515   0.296  17.115  0.4610  0.0545 -0.1949
 5593SOL    HW128241   2.555   0.218  17.154  0.2147  0.8685  1.6852
 5593SOL    HW228242   2.593   0.350  17.102  0.3943  0.1764 -0.0945
 5594SOL     OW28243   3.717   1.823  11.860  0.2374 -0.1812  0.2030
 5594SOL    HW128244   3.804   1.847  11.829  1.1870 -0.7291  2.4866
 5594SOL    HW228245   3.714   1.899  11.918  1.9845  1.6978 -2.1477
 5595SOL     OW28246   0.169   1.756   1.611  0.3009 -0.3727 -0.3200
 5595SOL    HW128247   0.093   1.710   1.575 -0.8988 -0.3887  2.2670
 5595SOL    HW228248   0.198   1.801   1.531  0.3081  2.5336  1.3168
 5596SOL     OW28249   1.666   3.554  11.438  0.1173  0.4669  0.3342
 5596SOL    HW128250   1.691   3.470  11.399  1.5201  1.0180  0.0265
 5596SOL    HW228251   1.573   3.549  11.459 -0.2987  2.5229 -1.1187
 5597SOL     OW28252   4.131   3.972   4.887 -0.7676 -0.5957  0.2717
 5597SOL    HW128253   4.051   3.949   4.935 -2.1008 -1.0161 -2.1780
 5597SOL    HW228254   4.177   4.035   4.942 -0.0328 -2.8691  2.3116
 5598SOL     OW28255   3.706   2.274  10.780  0.5566  0.2469 -0.3740
 5598SOL    HW128256   3.632   2.234  10.734 -0.7238  0.8370  1.1507
 5598SOL    HW228257   3.755   2.329  10.719 -0.2873  1.6917  0.2487
 5599SOL     OW28258   3.215   0.121   7.475 -0.2825  0.1188 -0.1843
 5599SOL    HW128259   3.139   0.068   7.453 -0.6750  1.1139 -1.1855
 5599SOL    HW228260   3.218   0.107   7.570 -0.9038  2.0435  0.1195
 5600SOL     OW28261   3.789   1.063   8.153 -0.3017 -0.0033 -0.2833
 5600SOL    HW128262   3.838   0.989   8.118 -0.2546 -1.0546  2.0023
 5600SOL    HW228263   3.746   1.017   8.225  0.1084 -1.8878 -1.2283
 5601SOL     OW28264   4.127   0.492   7.590 -0.0786  0.2113  0.6546
 5601SOL    HW128265   4.167   0.532   7.667  0.4291 -1.0467  1.0422
 5601SOL    HW228266   4.197   0.436   7.558 -0.1344  0.8894 -0.6670
 5602SOL     OW28267   1.620   2.201   1.790 -0.3695 -0.0504 -0.1086
 5602SOL    HW128268   1.623   2.111   1.821  0.3161 -0.9106 -2.6281
 5602SOL    HW228269   1.591   2.186   1.700 -2.2124  3.3692 -0.0717
 5603SOL     OW28270   2.836   2.940  10.908  0.1532  0.0815 -0.0808
 5603SOL    HW128271   2.834   3.029  10.941  0.2936  0.1034 -0.1296
 5603SOL    HW228272   2.914   2.948  10.852 -1.3227  0.2796 -2.1115
 5604SOL     OW28273   2.675   2.091   7.249  0.5554  0.4383 -0.1344
 5604SOL    HW128274   2.650   1.998   7.246  0.7656  0.4017 -0.7376
 5604SOL    HW228275   2.605   2.136   7.201  1.4368  0.2004 -1.6554
 5605SOL     OW28276   2.087   3.648   1.103 -0.0082 -0.7169  0.0138
 5605SOL    HW128277   2.038   3.646   1.185 -1.3776  1.7437 -0.7424
 5605SOL    HW228278   2.021   3.632   1.036  0.3125  0.1081 -0.5015
 5606SOL     OW28279   0.542   1.522  11.099 -0.1318  0.2576  0.2239
 5606SOL    HW128280   0.560   1.515  11.192  0.6837 -0.2929  0.0292
 5606SOL    HW228281   0.546   1.618  11.094 -1.2691  0.2050 -1.8666
 5607SOL     OW28282   2.930   2.332   9.466  0.1019 -0.3674  0.1006
 5607SOL    HW128283   2.860   2.393   9.490 -0.6813 -0.2216 -2.5489
 5607SOL    HW228284   2.970   2.380   9.393 -0.6381 -0.6835 -0.5174
 5608SOL     OW28285   2.558   1.420   8.023  0.0599  0.3621  0.4946
 5608SOL    HW128286   2.488   1.408   8.087  0.5239 -1.6820  0.5897
 5608SOL    HW228287   2.549   1.513   8.002  0.1254  0.1563 -0.4401
 5609SOL     OW28288   1.378   0.719   6.404  0.0761 -0.8033  0.6264
 5609SOL    HW128289   1.335   0.682   6.327  0.3818  3.3738 -1.5500
 5609SOL    HW228290   1.344   0.809   6.406  1.7925 -0.1313 -1.1539
 5610SOL     OW28291   2.324   1.533  11.683  0.6122  0.1246 -0.0843
 5610SOL    HW128292   2.381   1.459  11.702  0.7218  0.6946  1.8294
 5610SOL    HW228293   2.311   1.561  11.774  2.3551  1.2270 -0.1833
 5611SOL     OW28294   0.451   3.923   7.244 -0.4211  0.0588 -0.3684
 5611SOL    HW128295   0.471   3.934   7.337 -1.6964  0.0270 -0.0983
 5611SOL    HW228296   0.533   3.949   7.201  0.0318 -1.9117 -0.6829
 5612SOL     OW28297   3.196   2.690   4.992 -0.1510 -0.1179 -1.0328
 5612SOL    HW128298   3.215   2.728   4.906 -2.3951 -0.4314 -1.6535
 5612SOL    HW228299   3.116   2.735   5.019  0.9355  2.6342 -2.4572
 5613SOL     OW28300   4.329   1.887   5.603 -0.3349  0.0112 -0.3831
 5613SOL    HW128301   4.339   1.982   5.608  0.5074 -0.1646  1.3842
 5613SOL    HW228302   4.363   1.850   5.685  0.0753  0.2020 -0.4712
 5614SOL     OW28303   3.594   1.901   7.531 -0.9179  0.0377 -0.1417
 5614SOL    HW128304   3.524   1.865   7.477 -1.4718  0.6570  0.1722
 5614SOL    HW228305   3.628   1.821   7.572  1.7989  0.4139 -1.6332
 5615SOL     OW28306   0.666   0.607   5.767  0.2225 -0.2755  0.2061
 5615SOL    HW128307   0.631   0.566   5.846 -0.4948 -2.5338 -1.2642
 5615SOL    HW228308   0.593   0.592   5.707 -1.0175 -1.8587  2.0912
 5616SOL     OW28309   2.807   4.674   2.912 -0.2754 -0.2170 -0.0951
 5616SOL    HW128310   2.810   4.650   2.820 -0.4312 -1.8523  0.3309
 5616SOL    HW228311   2.899   4.697   2.922 -0.7166 -0.1085  3.7794
 5617SOL     OW28312   3.626   2.408   8.338  0.5421  0.2904 -0.2345
 5617SOL    HW128313   3.698   2.452   8.294  0.4256  1.8381  1.1269
 5617SOL    HW228314   3.657   2.412   8.428  0.5782 -0.4464 -0.2080
 5618SOL     OW28315   1.691   0.124   3.378  0.3011  0.0215 -0.0577
 5618SOL    HW128316   1.689   0.209   3.335  0.8723  0.7530  1.3570
 5618SOL    HW228317   1.672   0.142   3.470 -1.6098 -4.1440  0.3830
 5619SOL     OW28318   1.169   2.394   5.797 -0.2485 -0.0043  0.0832
 5619SOL    HW128319   1.125   2.458   5.853  2.5232  2.3120 -0.3794
 5619SOL    HW228320   1.257   2.426   5.815 -0.3498 -0.4124  1.2873
 5620SOL     OW28321   0.551   3.897  13.137  0.2093  0.1044 -0.4732
 5620SOL    HW128322   0.574   3.868  13.225  0.2306 -0.8532 -0.7937
 5620SOL    HW228323   0.532   3.811  13.098 -0.2836 -0.2371  0.5320
 5621SOL     OW28324   4.176   2.132  14.801  0.3635  0.1459 -0.8528
 5621SOL    HW128325   4.126   2.213  14.811  0.9895  0.2285  1.6745
 5621SOL    HW228326   4.247   2.156  14.861 -0.2523  0.9695 -0.4673
 5622SOL     OW28327   1.314   2.736  11.605 -0.1397  0.0123 -0.0725
 5622SOL    HW128328   1.268   2.740  11.522 -1.2681 -1.2746  0.4869
 5622SOL    HW228329   1.322   2.830  11.619 -0.8702  0.2535 -1.3191
 5623SOL     OW28330   1.086   2.546  11.461  0.0535  0.0264 -0.1398
 5623SOL    HW128331   1.003   2.510  11.494 -1.3737  1.6734 -1.9993
 5623SOL    HW228332   1.130   2.464  11.435 -3.1784 -2.1728  1.2904
 5624SOL     OW28333   0.867   4.127   1.966 -0.2067  0.0884 -0.7444
 5624SOL    HW128334   0.912   4.046   1.988 -1.9703 -0.2126  1.8035
 5624SOL    HW228335   0.939   4.188   1.950 -1.7236  1.7898 -1.0867
 5625SOL     OW28336   1.230   1.121   2.435  0.3788 -0.1249 -0.3721
 5625SOL    HW128337   1.194   1.162   2.356  0.1315 -1.5409 -1.0023
 5625SOL    HW228338   1.295   1.066   2.392 -1.7900 -1.5974 -1.8000
 5626SOL     OW28339   4.011   3.869   2.988  0.4315 -0.0875  0.5630
 5626SOL    HW128340   4.088   3.886   2.934  0.3784 -1.7714 -0.0273
 5626SOL    HW228341   4.022   3.928   3.063 -0.6130 -0.3209  0.8913
 5627SOL     OW28342   3.820   1.090   7.725  0.1522 -0.2027 -0.1291
 5627SOL    HW128343   3.835   1.001   7.758 -0.0083  0.8408  2.7846
 5627SOL    HW228344   3.789   1.132   7.806 -2.8833  0.9886 -1.9077
 5628SOL     OW28345   2.273   1.825   0.068  0.1337  0.2467 -0.1173
 5628SOL    HW128346   2.259   1.883  17.685 -0.8691  0.4281  0.2137
 5628SOL    HW228347   2.241   1.746   0.024 -0.3822  1.5250 -2.0540
 5629SOL     OW28348   1.533   1.909   3.156 -0.1858  0.6127  0.0568
 5629SOL    HW128349   1.610   1.944   3.111 -0.3826 -0.9640 -1.5310
 5629SOL    HW228350   1.560   1.819   3.172  1.4905  0.9253 -1.0440
 5630SOL     OW28351   3.811   0.714  15.693  0.1581 -0.0241  0.1207
 5630SOL    HW128352   3.736   0.770  15.713 -0.4497 -1.0742  0.8121
 5630SOL    HW228353   3.872   0.734  15.764 -0.8174  1.3757  0.5630
 5631SOL     OW28354   1.344   3.131   6.319  0.2436  0.1050 -0.0795
 5631SOL    HW128355   1.273   3.194   6.312  0.5879  0.6957  1.8407
 5631SOL    HW228356   1.382   3.127   6.231 -1.4442  0.2084 -0.8148
 5632SOL     OW28357   0.704   3.159   7.385 -0.2220 -0.8001  0.6926
 5632SOL    HW128358   0.702   3.240   7.435 -1.5195 -1.4357  1.6803
 5632SOL    HW228359   0.784   3.168   7.333  0.1568 -1.0930  1.2265
 5633SOL     OW28360   3.589   3.205   7.215  0.0146 -0.5592  0.1041
 5633SOL    HW128361   3.618   3.187   7.125 -2.8368 -2.3437 -0.4496
 5633SOL    HW228362   3.537   3.283   7.196 -0.5091 -0.9024  0.1438
 5634SOL     OW28363   3.415   1.725  15.462 -0.1602  0.3136 -0.0717
 5634SOL    HW128364   3.336   1.726  15.409 -0.5170  0.4374  0.4596
 5634SOL    HW228365   3.467   1.785  15.409  1.9461 -2.5220 -1.2145
 5635SOL     OW28366   1.218   3.417   7.607 -0.0768  0.1344 -0.0846
 5635SOL    HW128367   1.190   3.500   7.646  2.4219  2.0211 -2.3180
 5635SOL    HW228368   1.292   3.404   7.667  1.4798  1.1888 -1.7901
 5636SOL     OW28369   2.789   0.994   7.484  0.2549  0.2496  0.1591
 5636SOL    HW128370   2.748   1.029   7.405 -0.6826 -0.8487  0.1612
 5636SOL    HW228371   2.863   0.955   7.438  0.4976  3.2382 -2.0095
 5637SOL     OW28372   0.806   3.712   3.422 -0.2260  0.0137 -0.1129
 5637SOL    HW128373   0.831   3.766   3.496 -1.0035 -0.5633  0.5668
 5637SOL    HW228374   0.859   3.745   3.349  1.0086  0.7674  1.1293
 5638SOL     OW28375   2.288   3.535  11.828 -0.3460  0.0882  0.0518
 5638SOL    HW128376   2.327   3.480  11.760  0.0114 -1.2161  1.2975
 5638SOL    HW228377   2.205   3.563  11.790  0.0296  2.1290  0.7281
 5639SOL     OW28378   2.514   4.602  14.694  0.3203  0.1579 -0.2618
 5639SOL    HW128379   2.437   4.651  14.722  0.6746  1.5518 -1.6671
 5639SOL    HW228380   2.527   4.550  14.773 -1.3504 -0.6049 -0.4924
 5640SOL     OW28381   2.801   3.428   3.977 -0.4497  0.1683  0.3260
 5640SOL    HW128382   2.836   3.516   3.989 -0.5559  0.5160 -2.0265
 5640SOL    HW228383   2.845   3.381   3.906 -3.3470 -1.7478 -0.2177
 5641SOL     OW28384   2.542   4.073   3.876 -0.4793 -0.4159  0.5198
 5641SOL    HW128385   2.500   4.084   3.791 -0.5803 -0.9442  0.5024
 5641SOL    HW228386   2.559   3.979   3.879  0.1713 -0.3011  0.5471
 5642SOL     OW28387   2.004   1.539   6.078 -0.4580  0.0779 -0.6160
 5642SOL    HW128388   1.951   1.579   6.008 -0.8573  0.4949 -0.0739
 5642SOL    HW228389   2.070   1.503   6.019 -1.0794 -0.7332 -0.8071
 5643SOL     OW28390   3.003   2.518   6.753  0.1855  0.3464 -0.0283
 5643SOL    HW128391   3.062   2.460   6.704  0.2063  0.2880  0.0663
 5643SOL    HW228392   2.921   2.469   6.747  1.0915 -1.1503 -0.1901
 5644SOL     OW28393   1.222   2.268  13.963  0.8342  0.0569  0.1664
 5644SOL    HW128394   1.174   2.323  13.901  1.3037 -0.0109 -0.2602
 5644SOL    HW228395   1.313   2.279  13.934  0.7789 -0.2989 -0.1524
 5645SOL     OW28396   3.191   2.832   2.416 -0.1098 -0.3724 -0.4709
 5645SOL    HW128397   3.284   2.825   2.394 -0.2803  1.3393 -1.7936
 5645SOL    HW228398   3.154   2.763   2.362  0.9010 -0.5922 -0.8888
 5646SOL     OW28399   1.788   3.646  16.916  0.0460  0.0440 -0.4827
 5646SOL    HW128400   1.795   3.721  16.856 -0.7064  0.7230  0.2860
 5646SOL    HW228401   1.746   3.670  16.999  3.5182  0.6572  1.1074
 5647SOL     OW28402   0.256   1.199   2.274 -0.0124  0.4184 -0.1092
 5647SOL    HW128403   0.277   1.286   2.307 -0.1748 -0.6109  2.7207
 5647SOL    HW228404   0.300   1.151   2.344  1.1566 -3.4676 -3.5746
 5648SOL     OW28405   1.346   2.667  17.402  0.1933 -0.3407 -0.1596
 5648SOL    HW128406   1.403   2.591  17.407  0.9949  0.3723  1.3423
 5648SOL    HW228407   1.372   2.703  17.317 -2.8393  0.5548 -0.6985
 5649SOL     OW28408   3.683   2.032   7.748  0.1513  0.1868  0.2151
 5649SOL    HW128409   3.633   1.983   7.684 -2.2457  1.4115  1.1417
 5649SOL    HW228410   3.752   2.072   7.695  0.6195 -1.5185 -0.4500
 5650SOL     OW28411   4.267   4.451  13.082 -0.2122 -0.3815 -0.3996
 5650SOL    HW128412   4.270   4.452  12.987  2.8487  2.7113 -0.2673
 5650SOL    HW228413   4.331   4.512  13.116  0.2554 -1.0631 -0.0514
 5651SOL     OW28414   1.729   0.980   8.787 -0.1630 -0.9793 -0.6707
 5651SOL    HW128415   1.770   0.941   8.711  1.2294  0.3156 -0.5651
 5651SOL    HW228416   1.707   0.898   8.832 -1.9616  0.5696  1.3140
 5652SOL     OW28417   2.425   3.146   8.643  0.0939  0.0925  0.1330
 5652SOL    HW128418   2.397   3.160   8.733  1.0211 -1.9461  0.7517
 5652SOL    HW228419   2.348   3.166   8.589 -1.5343  0.9055  2.7786
 5653SOL     OW28420   3.713   3.338  13.640  0.5698  0.0507 -0.4249
 5653SOL    HW128421   3.804   3.367  13.639 -0.2739  2.7406 -1.3974
 5653SOL    HW228422   3.693   3.357  13.548 -0.8821  2.0428  0.3080
 5654SOL     OW28423   1.513   0.674  10.554 -0.1440 -0.0148 -0.0651
 5654SOL    HW128424   1.497   0.588  10.595 -2.4450  0.8262  0.7589
 5654SOL    HW228425   1.437   0.683  10.496 -0.6702 -2.7704  0.1965
 5655SOL     OW28426   3.753   0.980   3.935 -0.2028 -0.5863 -0.3126
 5655SOL    HW128427   3.817   1.019   3.876  0.5222 -0.9223  0.2518
 5655SOL    HW228428   3.742   0.897   3.888 -0.9636 -1.0582  0.6972
 5656SOL     OW28429   0.216   4.307   8.577 -0.5248 -0.2695  0.2935
 5656SOL    HW128430   0.170   4.391   8.569 -0.1894 -0.4228 -3.1028
 5656SOL    HW228431   0.244   4.308   8.669  0.2092 -2.2072  0.0866
 5657SOL     OW28432   2.860   2.628   3.399 -0.5012  0.0434 -0.0112
 5657SOL    HW128433   2.798   2.698   3.418 -2.2466 -1.8821  1.4276
 5657SOL    HW228434   2.864   2.631   3.303  0.7151 -0.3883  0.0327
 5658SOL     OW28435   1.734   4.640   2.446 -0.2076  0.4374  0.2538
 5658SOL    HW128436   1.700   4.709   2.389 -1.5663 -0.0091  0.5154
 5658SOL    HW228437   1.720   4.565   2.389 -1.3428 -1.3192  2.8288
 5659SOL     OW28438   2.528   0.330   3.341  0.1234  0.0801  0.1878
 5659SOL    HW128439   2.533   0.320   3.436  1.2181 -0.6477  0.0577
 5659SOL    HW228440   2.519   0.425   3.340  0.3948  0.1120  0.6171
 5660SOL     OW28441   1.784   2.321   4.451  0.4270  0.0548 -0.4575
 5660SOL    HW128442   1.743   2.244   4.492 -0.7367  1.0459  0.2642
 5660SOL    HW228443   1.812   2.365   4.531 -0.1545  0.6218 -0.5631
 5661SOL     OW28444   4.117   4.488   7.238 -0.4291 -0.7162  0.0574
 5661SOL    HW128445   4.126   4.573   7.196  1.2743 -0.4096  1.0288
 5661SOL    HW228446   4.032   4.501   7.279  0.7734 -0.4188  2.4627
 5662SOL     OW28447   2.000   1.891   2.523 -0.7654 -0.3580  0.3030
 5662SOL    HW128448   2.001   1.933   2.437  1.8696 -1.1313 -0.0404
 5662SOL    HW228449   1.967   1.970   2.565  0.5951 -0.2787  1.2099
 5663SOL     OW28450   1.317   0.080  11.814  0.5074  0.1863  0.1661
 5663SOL    HW128451   1.405   0.101  11.846 -0.1278  1.3230  1.1755
 5663SOL    HW228452   1.285   0.165  11.847 -2.4863 -1.5440  1.7451
 5664SOL     OW28453   0.008   4.165   2.267  0.4431  0.2334 -0.4012
 5664SOL    HW128454   0.095   4.203   2.255  0.7372 -0.7138 -1.1476
 5664SOL    HW228455   4.687   4.248   2.248  1.6397  1.1850  0.8884
 5665SOL     OW28456   4.429   1.339   7.453 -0.2958  0.1559 -0.3574
 5665SOL    HW128457   4.347   1.371   7.416  0.1085 -0.2535 -1.6437
 5665SOL    HW228458   4.402   1.247   7.445 -0.1996  0.0202  0.9005
 5666SOL     OW28459   3.911   2.518   7.255  0.2718 -0.3617 -0.1258
 5666SOL    HW128460   3.937   2.527   7.164 -1.1892  0.2950 -0.4767
 5666SOL    HW228461   3.917   2.604   7.296 -2.7663 -0.6498  0.9898
 5667SOL     OW28462   3.350   0.136   5.102 -0.4142 -0.8092  0.1676
 5667SOL    HW128463   3.278   0.088   5.062  0.4650 -1.4792 -0.6112
 5667SOL    HW228464   3.401   0.166   5.027 -0.9489  1.4464  0.6985
 5668SOL     OW28465   1.855   4.094  14.223  0.1335 -0.1594 -0.1196
 5668SOL    HW128466   1.873   4.183  14.191  1.7690  0.0152  1.3117
 5668SOL    HW228467   1.785   4.079  14.159  0.4470  0.2739 -0.5673
 5669SOL     OW28468   2.525   2.210   0.143  0.0902 -0.3683  0.1758
 5669SOL    HW128469   2.581   2.180   0.072 -1.4313 -0.8154 -0.8407
 5669SOL    HW228470   2.497   2.123   0.173 -1.8168  0.4840  0.8999
 5670SOL     OW28471   4.271   3.937  14.898  0.0667 -0.0865 -0.4761
 5670SOL    HW128472   4.280   3.969  14.988  1.7785  1.4224 -1.1739
 5670SOL    HW228473   4.240   4.017  14.855 -1.4955 -0.1904  0.4693
 5671SOL     OW28474   3.557   2.027  12.670  0.2674 -0.2601  0.6747
 5671SOL    HW128475   3.631   1.980  12.707 -0.3721 -1.0338  0.9665
 5671SOL    HW228476   3.598   2.082  12.603  0.8052 -1.0743  0.3311
 5672SOL     OW28477   2.357   3.402  10.079 -0.4264  0.8658 -0.2592
 5672SOL    HW128478   2.373   3.432   9.989  0.2815 -0.0403 -0.4422
 5672SOL    HW228479   2.304   3.323  10.066  1.9411 -0.6473 -0.7959
 5673SOL     OW28480   1.102   0.737  10.941  0.1772  0.1221 -0.0927
 5673SOL    HW128481   1.134   0.826  10.953 -2.3616  0.6993  2.4105
 5673SOL    HW228482   1.017   0.742  10.985  0.0359 -1.8438 -0.1573
 5674SOL     OW28483   2.083   3.304   5.483  0.0285 -0.3812 -0.3312
 5674SOL    HW128484   2.069   3.245   5.409 -2.0004  0.5230 -0.6717
 5674SOL    HW228485   2.020   3.376   5.468  1.9126  1.1125 -1.0962
 5675SOL     OW28486   4.294   1.378   1.851  0.0467 -0.2017 -0.6282
 5675SOL    HW128487   4.252   1.396   1.767 -0.5643  0.8040 -0.1038
 5675SOL    HW228488   4.382   1.369   1.813 -0.9982 -1.5595 -2.7281
 5676SOL     OW28489   4.118   2.671   4.656 -0.7228 -0.6118  0.2988
 5676SOL    HW128490   4.040   2.678   4.711  0.9799  0.5890  2.5724
 5676SOL    HW228491   4.071   2.691   4.574 -2.9341 -0.0108  1.7142
 5677SOL     OW28492   4.520   0.357   7.492 -0.4030 -0.4264  0.4077
 5677SOL    HW128493   4.591   0.387   7.435  0.8653 -2.2748  0.9783
 5677SOL    HW228494   4.509   0.436   7.545 -2.4943 -0.3289 -0.1974
 5678SOL     OW28495   2.369   2.035  16.806  0.3936  0.7015  0.7424
 5678SOL    HW128496   2.295   2.088  16.775  1.1781  0.6517 -1.1928
 5678SOL    HW228497   2.415   2.027  16.722 -0.5001  1.4007  0.1865
 5679SOL     OW28498   0.602   2.814   8.038  0.1162 -0.1804  0.3039
 5679SOL    HW128499   0.590   2.827   8.132 -1.7021 -3.3244  0.4883
 5679SOL    HW228500   0.518   2.779   8.007  1.3929 -2.7487 -0.2192
 5680SOL     OW28501   0.583   0.977   0.777 -0.9108 -0.5373 -0.0373
 5680SOL    HW128502   0.551   0.888   0.786  0.7121 -1.2427 -1.3105
 5680SOL    HW228503   0.653   0.968   0.712 -0.8117 -0.8666  0.1187
 5681SOL     OW28504   0.172   3.383   2.075 -0.3279  0.2467 -0.1141
 5681SOL    HW128505   0.139   3.293   2.070 -1.8466  0.8153 -0.1680
 5681SOL    HW228506   0.256   3.372   2.120  0.3644  0.8701 -1.2612
 5682SOL     OW28507   4.583   4.580   7.935 -0.1243  1.1497 -0.2244
 5682SOL    HW128508   4.494   4.547   7.922  0.6079 -0.5403 -0.9775
 5682SOL    HW228509   4.580   4.645   8.005 -1.2185  1.4195 -0.5298
 5683SOL     OW28510   0.265   1.650   9.481  0.7493  0.4634 -0.3784
 5683SOL    HW128511   0.276   1.565   9.523  0.2380  0.2742 -0.6284
 5683SOL    HW228512   0.202   1.682   9.546 -0.7763  0.3700 -1.8015
 5684SOL     OW28513   4.102   1.373   5.081 -0.0591 -0.8377 -0.3371
 5684SOL    HW128514   4.091   1.300   5.020  0.4010 -2.2590  1.2611
 5684SOL    HW228515   4.089   1.450   5.026  0.2394 -1.6215 -1.5139
 5685SOL     OW28516   4.500   2.408   3.706  0.9220 -0.1716  0.3923
 5685SOL    HW128517   4.500   2.498   3.674 -2.6092 -0.1373  0.4707
 5685SOL    HW228518   4.594   2.391   3.710  1.1437  1.3185  1.6929
 5686SOL     OW28519   3.567   1.349   7.687  0.1236 -0.2771  0.3498
 5686SOL    HW128520   3.564   1.302   7.770 -0.5061 -0.1914  0.3752
 5686SOL    HW228521   3.490   1.405   7.693  1.1274  1.0119  1.3926
 5687SOL     OW28522   3.524   4.507   6.686  0.2319 -0.2225 -0.3584
 5687SOL    HW128523   3.462   4.446   6.646 -2.6382  1.5206  1.3858
 5687SOL    HW228524   3.572   4.552   6.617 -1.5598 -0.6836 -1.9160
 5688SOL     OW28525   0.695   1.737   5.259  0.1593  0.4766  0.0855
 5688SOL    HW128526   0.656   1.656   5.291 -1.0083  1.1678  0.4325
 5688SOL    HW228527   0.621   1.798   5.256 -0.6959 -0.5790 -0.1021
 5689SOL     OW28528   1.830   4.720   7.467  0.1623 -0.0899 -0.1537
 5689SOL    HW128529   1.794   0.012   7.555  0.3746  0.3622 -0.1437
 5689SOL    HW228530   1.830   0.085   7.429 -1.6963  0.8801  2.0621
 5690SOL     OW28531   0.679   1.352  13.306  0.1539  0.1608 -0.6906
 5690SOL    HW128532   0.593   1.391  13.320 -0.2464 -0.6364 -0.9346
 5690SOL    HW228533   0.667   1.276  13.363 -1.0202 -0.9543 -2.4205
 5691SOL     OW28534   4.322   3.756   4.976  0.2769  0.1508  0.1665
 5691SOL    HW128535   4.242   3.719   5.014  0.9298 -1.6785 -0.2583
 5691SOL    HW228536   4.289   3.835   4.933  1.2214 -0.2556 -1.3092
 5692SOL     OW28537   3.693   0.389   7.101 -0.2223  0.2073 -0.3456
 5692SOL    HW128538   3.647   0.434   7.172  1.1799 -1.7818  1.8094
 5692SOL    HW228539   3.689   0.298   7.129  1.7547  0.3421  0.3297
 5693SOL     OW28540   4.432   0.592  13.037  0.4887 -0.2037  0.2355
 5693SOL    HW128541   4.385   0.564  13.115 -1.3978 -0.6019 -1.0382
 5693SOL    HW228542   4.454   0.514  12.986  3.2155 -0.3311  1.6377
 5694SOL     OW28543   0.711   4.397   4.790  0.3657  0.2565  0.8410
 5694SOL    HW128544   0.676   4.308   4.789 -0.3890  0.5675 -0.3460
 5694SOL    HW228545   0.632   4.448   4.806  0.0370  0.4652 -1.4228
 5695SOL     OW28546   4.367   0.590   0.733  0.1504 -0.2519  0.6536
 5695SOL    HW128547   4.378   0.513   0.677 -1.8561  0.3773 -0.6202
 5695SOL    HW228548   4.272   0.600   0.739  0.0996  0.5336 -1.5034
 5696SOL     OW28549   1.620   3.483   6.894 -0.1223 -0.0121  0.1890
 5696SOL    HW128550   1.650   3.574   6.895 -1.6472  0.4943 -0.4108
 5696SOL    HW228551   1.537   3.498   6.849 -0.3797 -0.1931  0.6048
 5697SOL     OW28552   2.318   3.439   6.228 -0.1652 -1.1695  0.0904
 5697SOL    HW128553   2.354   3.524   6.252 -0.4881 -1.3991  1.4156
 5697SOL    HW228554   2.386   3.408   6.169 -0.6523 -1.7822 -0.1597
 5698SOL     OW28555   2.910   2.094  10.081 -0.3481  0.3894 -0.3613
 5698SOL    HW128556   2.890   2.053  10.165  0.7367 -0.7295 -0.6502
 5698SOL    HW228557   2.983   2.148  10.111 -1.1079  1.5061 -0.5170
 5699SOL     OW28558   3.856   2.518   8.231 -0.5107 -0.1877  0.5820
 5699SOL    HW128559   3.875   2.612   8.226 -1.7904  0.1818  2.5381
 5699SOL    HW228560   3.943   2.481   8.215 -0.5845  0.6813 -1.9249
 5700SOL     OW28561   2.533   0.087   2.813 -0.1343  0.0718 -0.5478
 5700SOL    HW128562   2.481   0.165   2.794 -1.3147 -0.5214  0.2164
 5700SOL    HW228563   2.610   0.124   2.857  0.2572 -1.6962  0.2740
 5701SOL     OW28564   2.327   4.277   8.628 -0.7087  0.0843  0.5948
 5701SOL    HW128565   2.361   4.193   8.596  1.0770  1.4246 -1.0377
 5701SOL    HW228566   2.343   4.347   8.565 -2.1485 -0.1459 -0.0183
 5702SOL     OW28567   2.963   0.633  11.962  0.2970 -0.1112 -0.2256
 5702SOL    HW128568   2.914   0.595  11.889 -0.2845  1.0702 -0.4323
 5702SOL    HW228569   3.001   0.560  12.012 -1.1311 -0.3697  0.4562
 5703SOL     OW28570   1.982   2.620   6.475  0.1243  0.0458  0.5875
 5703SOL    HW128571   1.942   2.707   6.472  1.7221  0.7838  0.7429
 5703SOL    HW228572   1.947   2.580   6.395  0.9378  1.4014 -0.4375
 5704SOL     OW28573   1.542   0.024   5.576  0.7228 -0.3082  0.1524
 5704SOL    HW128574   1.495   4.671   5.541  0.6336 -1.1981  2.1673
 5704SOL    HW228575   1.530   0.090   5.508 -0.7250 -0.5344  0.1766
 5705SOL     OW28576   0.290   0.757  12.383  0.7021  0.2591  0.1239
 5705SOL    HW128577   0.352   0.694  12.346 -0.4241  0.7301 -2.4914
 5705SOL    HW228578   0.347   0.826  12.419  0.0909  1.9381 -2.1402
 5706SOL     OW28579   0.758   0.506   9.681 -0.3771  0.3455  0.1173
 5706SOL    HW128580   0.751   0.484   9.588  1.0447 -2.5181  0.7017
 5706SOL    HW228581   0.836   0.459   9.710 -1.0405 -0.5292  0.5026
 5707SOL     OW28582   1.270   0.673   0.422 -0.2940 -0.0678 -0.5046
 5707SOL    HW128583   1.216   0.674   0.501  1.0499  0.9098  0.3833
 5707SOL    HW228584   1.351   0.627   0.444  0.2313  0.9756 -0.2930
 5708SOL     OW28585   2.801   2.037   5.994 -0.1760 -0.1637 -0.1101
 5708SOL    HW128586   2.752   2.115   6.023 -1.0090 -1.2332  1.3688
 5708SOL    HW228587   2.833   2.077   5.914  0.7687  2.2814  1.4746
 5709SOL     OW28588   0.650   1.405  12.324 -0.1105  0.3380  0.4261
 5709SOL    HW128589   0.598   1.373  12.250  1.5759  1.9538 -1.4732
 5709SOL    HW228590   0.738   1.403  12.284 -0.1459 -0.1279  0.3627
 5710SOL     OW28591   1.263   3.681   7.184  0.4338  0.3992  0.3385
 5710SOL    HW128592   1.269   3.600   7.233  1.8270 -1.0970 -2.2841
 5710SOL    HW228593   1.175   3.709   7.210  0.2501 -1.5525  1.7981
 5711SOL     OW28594   3.025   0.862   8.699  0.6700  0.4652  0.3464
 5711SOL    HW128595   3.002   0.770   8.684 -0.0232  0.6467  0.2954
 5711SOL    HW228596   3.119   0.856   8.685  0.4527 -0.4563 -0.7056
 5712SOL     OW28597   0.553   0.899   2.500  0.0731  0.8236  0.7284
 5712SOL    HW128598   0.634   0.853   2.478 -1.3984  0.2767 -3.4936
 5712SOL    HW228599   0.551   0.888   2.595  0.2006  0.9530  0.7475
 5713SOL     OW28600   3.584   1.847   1.299 -0.1464 -0.5893  0.0275
 5713SOL    HW128601   3.648   1.898   1.349 -1.2035 -0.3808  1.1693
 5713SOL    HW228602   3.523   1.915   1.271  1.5832  0.0268 -2.2043
 5714SOL     OW28603   3.168   0.931   1.799  0.3953 -0.6484 -0.8055
 5714SOL    HW128604   3.208   0.982   1.869 -0.3951 -0.9441 -0.1354
 5714SOL    HW228605   3.192   0.987   1.725 -0.5624  1.6864  0.6696
 5715SOL     OW28606   1.541   1.449   8.586 -0.1381  0.6476 -0.0469
 5715SOL    HW128607   1.448   1.436   8.569  0.3330 -1.7011 -0.7606
 5715SOL    HW228608   1.547   1.447   8.681 -0.9013 -1.1664 -0.0470
 5716SOL     OW28609   1.006   3.511   2.483  0.7450 -0.0402  0.0839
 5716SOL    HW128610   1.098   3.506   2.511  0.3240  0.0073  1.4917
 5716SOL    HW228611   1.016   3.449   2.411  0.5512 -2.4683  2.1098
 5717SOL     OW28612   0.742   3.550   0.279 -0.0397  0.4765 -0.8298
 5717SOL    HW128613   0.757   3.458   0.299  1.4728  1.2063  1.3364
 5717SOL    HW228614   0.817   3.590   0.322 -1.8041  1.2302  1.4897
 5718SOL     OW28615   1.675   1.756  17.577  0.2346 -0.4019 -0.5417
 5718SOL    HW128616   1.626   1.689  17.528 -0.8773 -0.1132  0.1883
 5718SOL    HW228617   1.613   1.825  17.557 -0.7302 -1.8795 -2.6980
 5719SOL     OW28618   0.963   4.480  12.603  0.0274 -0.4477 -0.2522
 5719SOL    HW128619   0.878   4.450  12.636 -0.7078  1.0522 -0.8035
 5719SOL    HW228620   0.946   4.572  12.585 -4.8514 -1.1999  0.4448
 5720SOL     OW28621   1.142   0.712  12.827 -0.3287 -0.4347 -0.0720
 5720SOL    HW128622   1.075   0.668  12.880 -1.1342  1.0093  0.0988
 5720SOL    HW228623   1.094   0.791  12.802 -0.1944 -0.1926  0.4410
 5721SOL     OW28624   3.749   0.165   3.589 -0.5809 -0.0497 -0.1717
 5721SOL    HW128625   3.786   0.253   3.591  1.6999 -1.0573  2.5823
 5721SOL    HW228626   3.675   0.170   3.529 -0.6035 -0.3567 -0.1688
 5722SOL     OW28627   1.649   0.611   2.270  0.0509  0.1780 -0.1367
 5722SOL    HW128628   1.638   0.633   2.178  0.3408  0.4625 -0.0985
 5722SOL    HW228629   1.565   0.567   2.286 -0.2304  0.5944 -0.4997
 5723SOL     OW28630   3.646   3.274  11.141 -0.2479  0.6783 -0.7558
 5723SOL    HW128631   3.674   3.189  11.176  0.3918  0.6959 -1.2221
 5723SOL    HW228632   3.721   3.286  11.083 -0.1072  1.5420 -0.3969
 5724SOL     OW28633   3.738   2.831   0.031  0.8797 -0.4729 -0.3800
 5724SOL    HW128634   3.673   2.792   0.089  0.5907 -4.6468 -3.5601
 5724SOL    HW228635   3.785   2.894   0.086  0.0089  0.7715 -1.0452
 5725SOL     OW28636   3.015   4.256  14.338  0.3574  0.2743  0.2235
 5725SOL    HW128637   2.986   4.346  14.326 -1.9933 -0.2247  2.2249
 5725SOL    HW228638   2.947   4.227  14.399  1.7578 -1.1187  1.1218
 5726SOL     OW28639   1.497   4.718  14.652  0.6890  0.3832  0.4131
 5726SOL    HW128640   1.508   4.717  14.747 -3.6508 -3.1068  0.8819
 5726SOL    HW228641   1.435   0.067  14.637  0.7650  0.2640 -0.4905
 5727SOL     OW28642   2.704   3.691  15.099 -0.4287  0.7026 -0.4273
 5727SOL    HW128643   2.701   3.666  15.191  0.1436 -0.5772 -0.7538
 5727SOL    HW228644   2.616   3.724  15.085 -0.1059  0.8162 -2.1579
 5728SOL     OW28645   2.978   3.603   7.482  0.1708 -0.4281  0.3195
 5728SOL    HW128646   3.070   3.626   7.495 -0.5928  2.0111  1.2949
 5728SOL    HW228647   2.966   3.638   7.394 -0.5348  2.0112  1.3997
 5729SOL     OW28648   0.482   3.993  12.378  0.1579  0.1013  0.3648
 5729SOL    HW128649   0.539   4.070  12.368  0.7222 -0.2656  0.7431
 5729SOL    HW228650   0.536   3.938  12.435  1.0377  0.9079  0.3142
 5730SOL     OW28651   2.394   2.284  10.711  0.7659  0.0034  0.4812
 5730SOL    HW128652   2.432   2.297  10.624 -1.3682 -0.9814 -0.5971
 5730SOL    HW228653   2.335   2.358  10.717 -0.1956 -0.5174 -2.1989
 5731SOL     OW28654   2.461   0.590   3.272  0.1624  0.0354  0.2740
 5731SOL    HW128655   2.372   0.591   3.307 -0.1669  2.3632 -0.6369
 5731SOL    HW228656   2.471   0.684   3.255 -0.4317  0.4347  2.1353
 5732SOL     OW28657   1.109   4.126   9.229 -0.2943 -0.3909  0.2883
 5732SOL    HW128658   1.171   4.063   9.267  1.5250 -0.7533 -3.2446
 5732SOL    HW228659   1.170   4.192   9.199  1.9566 -2.4881  0.2349
 5733SOL     OW28660   0.114   2.547   6.139  0.0159 -0.2053  0.6881
 5733SOL    HW128661   0.076   2.537   6.226  1.1371  0.2580  1.2275
 5733SOL    HW228662   0.202   2.576   6.163 -0.5761 -0.0655  2.6991
 5734SOL     OW28663   2.360   4.068  12.216  0.3394 -0.3971 -0.0986
 5734SOL    HW128664   2.359   4.011  12.293  0.9955 -0.4410 -0.1218
 5734SOL    HW228665   2.455   4.080  12.213  0.5076 -1.4368  0.9719
 5735SOL     OW28666   1.266   1.657   8.234  0.2294 -0.1222  0.5568
 5735SOL    HW128667   1.268   1.739   8.183 -0.4040 -0.7167 -0.4279
 5735SOL    HW228668   1.233   1.684   8.319 -0.2982  3.0277 -0.6386
 5736SOL     OW28669   1.361   4.420  13.007  0.4491  0.1315 -0.3144
 5736SOL    HW128670   1.309   4.387  13.080  0.9606  1.7341  0.7923
 5736SOL    HW228671   1.300   4.461  12.947  0.8238 -2.1695 -2.2792
 5737SOL     OW28672   0.950   1.715   7.617  0.0577  0.1525  0.4490
 5737SOL    HW128673   0.957   1.765   7.536  0.9119  0.8695  0.9662
 5737SOL    HW228674   1.040   1.720   7.648 -1.0746  3.5885  3.2552
 5738SOL     OW28675   0.859   2.359   5.839  0.9572 -0.3728  0.1809
 5738SOL    HW128676   0.910   2.413   5.779  1.2866 -0.0985  0.7132
 5738SOL    HW228677   0.770   2.395   5.834  0.5032 -1.3981  0.8086
 5739SOL     OW28678   1.339   4.272   3.187  0.3632 -0.7143  0.7343
 5739SOL    HW128679   1.270   4.280   3.254  0.2862  0.3794  0.5267
 5739SOL    HW228680   1.381   4.196   3.226  2.0694 -0.6126 -0.9112
 5740SOL     OW28681   2.735   1.629   2.860 -0.1382 -0.5062  0.2191
 5740SOL    HW128682   2.757   1.537   2.845 -0.2365 -0.3525 -0.9047
 5740SOL    HW228683   2.725   1.630   2.955  0.1215 -0.0273  0.2423
 5741SOL     OW28684   2.117   0.146   5.626 -0.4617  0.2516  0.9463
 5741SOL    HW128685   2.080   0.116   5.709  1.0736  3.1534  2.6794
 5741SOL    HW228686   2.100   0.064   5.579  2.3043  0.2196  0.0060
 5742SOL     OW28687   3.766   3.535   5.634 -0.4573  0.1004  0.0508
 5742SOL    HW128688   3.798   3.448   5.609 -0.9355  0.0300 -0.2960
 5742SOL    HW228689   3.840   3.586   5.669 -2.4072  0.5516  3.4894
 5743SOL     OW28690   0.227   1.518  15.769  0.2109  0.1001 -0.5191
 5743SOL    HW128691   0.134   1.541  15.766  0.8465  2.6378 -0.5834
 5743SOL    HW228692   0.207   1.429  15.797  1.5779 -0.2737 -0.7513
 5744SOL     OW28693   2.277   3.910   2.972  0.4270 -0.2101  0.1795
 5744SOL    HW128694   2.250   3.956   2.892  2.3229  0.8766  0.1679
 5744SOL    HW228695   2.355   3.860   2.950  1.3858  1.5761 -0.4733
 5745SOL     OW28696   1.309   4.234  15.636 -0.1045  0.2103 -0.4451
 5745SOL    HW128697   1.259   4.314  15.648 -0.0163  0.1094  0.5536
 5745SOL    HW228698   1.250   4.184  15.579 -0.1485 -0.5770  0.2965
 5746SOL     OW28699   3.663   4.113   4.304  0.4256 -0.2937 -0.9186
 5746SOL    HW128700   3.730   4.082   4.366  1.2060  2.2248 -0.5065
 5746SOL    HW228701   3.670   4.208   4.304 -2.7044 -0.0501  0.5729
 5747SOL     OW28702   1.260   2.568  11.014 -0.2484  0.1522 -0.1134
 5747SOL    HW128703   1.295   2.653  11.038 -1.4918  0.7326 -0.3714
 5747SOL    HW228704   1.340   2.517  11.000 -1.4758 -2.3479  1.9322
 5748SOL     OW28705   0.607   3.375   4.979  0.6580  0.1000 -0.6890
 5748SOL    HW128706   0.647   3.452   4.939 -0.2636 -1.0461 -3.7788
 5748SOL    HW228707   0.615   3.396   5.072 -1.9027 -2.2200  0.0676
 5749SOL     OW28708   4.364   0.542   8.222  0.2061  0.0534  0.0302
 5749SOL    HW128709   4.339   0.605   8.290  1.5046  1.5736 -0.9164
 5749SOL    HW228710   4.295   0.476   8.221  1.3802 -1.1192 -2.4343
 5750SOL     OW28711   0.225   2.127   2.634  0.3172  0.6233 -0.1394
 5750SOL    HW128712   0.193   2.063   2.698  2.8890 -1.0281 -0.5136
 5750SOL    HW228713   0.303   2.165   2.674  1.1931  0.5181 -1.7618
 5751SOL     OW28714   2.350   3.896  10.450  0.3130 -0.4675  0.7469
 5751SOL    HW128715   2.360   3.920  10.358  0.7092 -1.3350  0.5624
 5751SOL    HW228716   2.266   3.850  10.440  0.3594 -0.0477 -1.5839
 5752SOL     OW28717   2.906   3.263   0.214  0.1279  0.3165  0.0422
 5752SOL    HW128718   2.975   3.200   0.236 -0.9796 -1.1463 -0.6102
 5752SOL    HW228719   2.938   3.338   0.263 -1.9206  1.4407 -0.3501
 5753SOL     OW28720   4.539   0.780   9.117 -0.2145 -0.0834  0.7613
 5753SOL    HW128721   4.593   0.707   9.086  0.9911  0.8090  0.7761
 5753SOL    HW228722   4.492   0.741   9.191 -0.3975 -1.3191 -0.0067
 5754SOL     OW28723   0.759   4.064   6.043 -0.1108 -0.1523 -0.2511
 5754SOL    HW128724   0.812   4.094   6.116 -3.0179  1.9507  1.0207
 5754SOL    HW228725   0.674   4.040   6.080 -0.1651  1.5905  0.7483
 5755SOL     OW28726   1.389   0.088  13.434 -0.3647 -0.7764 -0.4593
 5755SOL    HW128727   1.341   0.063  13.513  0.2431 -1.6018 -0.3549
 5755SOL    HW228728   1.475   0.055  13.461  0.5380  0.5529 -1.6862
 5756SOL     OW28729   3.721   1.861   7.068  0.4568 -0.0614 -0.2864
 5756SOL    HW128730   3.663   1.934   7.046  0.4020 -0.3862 -1.2335
 5756SOL    HW228731   3.736   1.882   7.160 -2.9035 -1.7238  0.6200
 5757SOL     OW28732   0.982   1.333   4.478  0.4650 -0.1610  0.3102
 5757SOL    HW128733   0.995   1.372   4.391  1.7740 -0.9521  0.1603
 5757SOL    HW228734   0.968   1.241   4.457 -0.3922 -0.5520  2.6089
 5758SOL     OW28735   1.325   2.775  15.437 -0.2239 -0.4335 -0.1128
 5758SOL    HW128736   1.286   2.858  15.467 -0.0044  0.2235 -1.6328
 5758SOL    HW228737   1.262   2.703  15.431  0.7655 -1.4502  1.8964
 5759SOL     OW28738   0.681   4.214   4.071 -0.0256  0.5358 -0.6104
 5759SOL    HW128739   0.709   4.296   4.029  2.8768 -1.2411 -2.1200
 5759SOL    HW228740   0.751   4.197   4.133 -2.8522 -1.1339  2.1017
 5760SOL     OW28741   1.341   3.459  10.992 -0.3115  0.4334  0.6066
 5760SOL    HW128742   1.378   3.390  10.938 -1.1555 -0.0931  0.6895
 5760SOL    HW228743   1.284   3.510  10.934  2.4180  0.0463 -2.3765
 5761SOL     OW28744   3.724   4.346   6.847 -0.4832  0.1038  0.2871
 5761SOL    HW128745   3.774   4.381   6.773  2.8698 -1.1952  1.9561
 5761SOL    HW228746   3.634   4.367   6.820 -0.7682  0.5581  1.5981
 5762SOL     OW28747   2.845   1.604  11.055 -0.1330 -0.5161 -0.5533
 5762SOL    HW128748   2.915   1.642  11.001  0.7351  0.1138  1.0215
 5762SOL    HW228749   2.843   1.671  11.123 -3.4426 -1.5950  0.3871
 5763SOL     OW28750   1.527   1.566   2.080 -0.3463 -0.0060  0.3596
 5763SOL    HW128751   1.509   1.476   2.054  2.4729 -0.1009 -1.2667
 5763SOL    HW228752   1.567   1.533   2.161  1.8129  0.3741 -0.5346
 5764SOL     OW28753   4.212   4.511   2.722  0.1646  0.2817  0.6183
 5764SOL    HW128754   4.161   4.551   2.651  0.5862 -0.4916 -0.1243
 5764SOL    HW228755   4.235   4.591   2.769  1.8469 -1.7344  3.2161
 5765SOL     OW28756   0.930   3.991  10.494 -0.4616  0.7922 -0.0840
 5765SOL    HW128757   0.998   3.944  10.445 -0.6723  1.2466 -0.8236
 5765SOL    HW228758   0.941   3.954  10.581 -2.1722  1.5531  0.4487
 5766SOL     OW28759   1.103   4.483   9.481  0.2185  0.0982  0.3755
 5766SOL    HW128760   1.022   4.489   9.531  1.1282  0.6582  1.8107
 5766SOL    HW228761   1.145   4.558   9.524 -0.3914  1.0483 -0.6626
 5767SOL     OW28762   2.700   0.425   7.091  0.1676  0.6145 -0.4909
 5767SOL    HW128763   2.795   0.431   7.086  0.2588 -0.2506  0.0987
 5767SOL    HW228764   2.661   0.449   7.007  0.7016 -2.6580 -1.6769
 5768SOL     OW28765   1.612   4.605   6.534 -0.8011 -0.0145 -0.1762
 5768SOL    HW128766   1.613   4.691   6.577  1.2248 -0.3011  0.3704
 5768SOL    HW228767   1.656   4.553   6.602  0.7283  0.9450 -0.4163
 5769SOL     OW28768   1.984   1.805  13.282  0.4139  0.1180 -0.6193
 5769SOL    HW128769   1.923   1.734  13.264 -0.1716  0.6567 -0.7653
 5769SOL    HW228770   1.984   1.851  13.198  2.1487  1.8847  0.3415
 5770SOL     OW28771   0.289   4.032   8.192 -0.5901 -0.2882  0.0000
 5770SOL    HW128772   0.239   4.107   8.224  0.8611  0.6308  0.1472
 5770SOL    HW228773   0.299   4.044   8.097  0.1641  1.0235  0.2508
 5771SOL     OW28774   1.714   4.722  14.477  0.7077  0.0402  0.1411
 5771SOL    HW128775   1.750   4.691  14.560  2.9744  2.3796  0.0627
 5771SOL    HW228776   1.629   0.019  14.516  1.6714  0.0217  2.2520
 5772SOL     OW28777   2.636   2.722   3.257 -0.4022  0.1304 -0.0315
 5772SOL    HW128778   2.584   2.648   3.290 -2.2201  1.2348 -0.3931
 5772SOL    HW228779   2.648   2.692   3.167  1.1112  1.1738 -0.1764
 5773SOL     OW28780   1.909   0.779   7.005 -0.1501 -0.3741 -0.1918
 5773SOL    HW128781   1.907   0.705   6.944  0.0343 -0.9937  0.5557
 5773SOL    HW228782   1.819   0.810   7.013 -0.5920 -1.6300 -0.3197
 5774SOL     OW28783   3.010   1.165  13.970  0.4554 -0.5019  0.0210
 5774SOL    HW128784   2.968   1.079  13.974  0.3277 -0.3927  0.9347
 5774SOL    HW228785   2.929   1.214  13.960  0.1837 -1.0032 -0.2490
 5775SOL     OW28786   2.425   3.220   2.172  0.5632 -0.4541 -0.5384
 5775SOL    HW128787   2.453   3.221   2.263  0.7536 -2.7469 -0.5672
 5775SOL    HW228788   2.340   3.178   2.176  0.3009 -0.0938 -2.0539
 5776SOL     OW28789   3.968   1.231   7.399  0.1502  0.4246 -0.2134
 5776SOL    HW128790   3.974   1.278   7.482  0.7400 -2.2053  1.2042
 5776SOL    HW228791   3.890   1.262   7.354  1.8825  1.2531 -2.6858
 5777SOL     OW28792   2.706   4.586   9.304 -0.4345 -0.2381  0.0517
 5777SOL    HW128793   2.622   4.632   9.293  0.0074  0.2594 -1.3005
 5777SOL    HW228794   2.724   4.561   9.213 -0.9486  0.4065 -0.2304
 5778SOL     OW28795   0.114   1.950   2.799 -0.2735  0.0064 -0.2017
 5778SOL    HW128796   0.163   1.888   2.854  3.3297  2.2169 -0.9573
 5778SOL    HW228797   0.091   2.024   2.855 -1.8608  0.2015 -1.1119
 5779SOL     OW28798   0.658   1.879   1.930  0.3664 -0.5698  0.5459
 5779SOL    HW128799   0.686   1.923   1.849 -0.5004 -1.2342 -0.1115
 5779SOL    HW228800   0.669   1.955   1.987  0.4247  0.4390 -0.8156
 5780SOL     OW28801   2.367   1.493  17.525 -0.0558  0.2277 -0.1988
 5780SOL    HW128802   2.432   1.559  17.503  0.8883 -0.9549 -0.9575
 5780SOL    HW228803   2.400   1.466  17.611  0.2439  0.8395 -0.1230
 5781SOL     OW28804   1.008   1.595  12.885  0.0043 -0.3567 -0.7146
 5781SOL    HW128805   0.977   1.549  12.807 -0.4611 -0.5930 -0.3860
 5781SOL    HW228806   0.935   1.578  12.944  0.1480 -1.6692 -0.9191
 5782SOL     OW28807   1.672   1.673   3.139 -0.2652  0.1125 -0.2512
 5782SOL    HW128808   1.761   1.694   3.113 -0.7116  0.5017 -1.4632
 5782SOL    HW228809   1.654   1.598   3.082  0.0035 -0.0231 -0.1557
 5783SOL     OW28810   1.631   2.865   5.091 -0.3372  0.6589  0.3686
 5783SOL    HW128811   1.700   2.828   5.146 -0.1504  1.2421  0.5263
 5783SOL    HW228812   1.550   2.868   5.143 -0.0644 -0.6112  0.8676
 5784SOL     OW28813   1.251   3.490   4.399 -0.2653 -0.1974  0.0258
 5784SOL    HW128814   1.293   3.569   4.366  1.3621  0.0631  2.7082
 5784SOL    HW228815   1.167   3.529   4.422 -0.8370 -0.4209 -1.6872
 5785SOL     OW28816   3.378   4.605   5.909  0.0338 -0.0750  0.0349
 5785SOL    HW128817   3.452   4.571   5.858 -0.1266  0.2340 -0.4098
 5785SOL    HW228818   3.310   4.538   5.893  0.6359 -1.6462  3.9921
 5786SOL     OW28819   1.173   2.811   2.564 -0.1911 -0.7490 -0.2658
 5786SOL    HW128820   1.108   2.801   2.633 -0.1476 -1.4906 -0.3317
 5786SOL    HW228821   1.188   2.905   2.557  1.3407 -0.9598  0.0375
 5787SOL     OW28822   2.287   0.140   5.229 -0.1973 -0.0102  0.1990
 5787SOL    HW128823   2.317   0.072   5.169 -0.1349  0.0236  0.1922
 5787SOL    HW228824   2.373   0.174   5.252 -0.3348  0.7924 -0.4416
 5788SOL     OW28825   4.419   2.290   4.216  0.1700 -0.1343 -0.0046
 5788SOL    HW128826   4.358   2.297   4.289  0.9138 -0.9416  0.6890
 5788SOL    HW228827   4.437   2.196   4.215 -0.9454 -0.3415 -0.6297
 5789SOL     OW28828   3.847   3.049   0.182  0.4371  0.4291  0.5601
 5789SOL    HW128829   3.875   3.079   0.268  2.8836 -0.0694 -0.0411
 5789SOL    HW228830   3.823   3.129   0.135  2.4589  0.5773 -0.2310
 5790SOL     OW28831   0.678   1.584  12.673 -0.4165 -0.2059  0.5032
 5790SOL    HW128832   0.613   1.520  12.701 -0.3759  0.1740  1.4610
 5790SOL    HW228833   0.762   1.539  12.681 -0.1790  0.4748  1.8893
 5791SOL     OW28834   1.186   2.731   8.153  0.1289 -0.3415 -0.0481
 5791SOL    HW128835   1.237   2.806   8.122  0.1706  0.8879  3.0100
 5791SOL    HW228836   1.217   2.716   8.243  0.5168 -1.0350 -0.3003
 5792SOL     OW28837   1.427   1.210   5.139 -0.1167 -0.2284  0.5790
 5792SOL    HW128838   1.444   1.189   5.047 -2.9993 -1.3467  0.3216
 5792SOL    HW228839   1.391   1.127   5.169 -1.2258 -0.1743 -0.6275
 5793SOL     OW28840   3.509   2.561   6.782  0.4508  0.7511 -0.0777
 5793SOL    HW128841   3.433   2.616   6.764 -0.5058  0.0387  1.9135
 5793SOL    HW228842   3.556   2.578   6.700 -1.1143 -0.1961 -1.1787
 5794SOL     OW28843   4.362   1.190  12.121  0.4104 -0.3937 -0.6051
 5794SOL    HW128844   4.359   1.118  12.059  0.9946  1.2529 -2.5454
 5794SOL    HW228845   4.310   1.259  12.080  0.4064  1.5401  2.6615
 5795SOL     OW28846   3.036   1.173   7.997  0.7536 -0.2870 -0.3650
 5795SOL    HW128847   3.033   1.078   8.003 -0.7932 -0.2944 -1.0533
 5795SOL    HW228848   2.942   1.190   8.006  0.8502  0.8490 -1.4923
 5796SOL     OW28849   0.928   3.694   0.416 -0.0654  0.2135 -0.4666
 5796SOL    HW128850   0.905   3.784   0.441  2.1011  1.1302 -1.7543
 5796SOL    HW228851   1.020   3.710   0.398  0.5623  0.0321  2.5065
 5797SOL     OW28852   3.542   4.667   1.286  0.6868  0.0623  0.2017
 5797SOL    HW128853   3.624   4.647   1.331  1.1889  0.9558 -0.3074
 5797SOL    HW228854   3.545   0.038   1.266 -1.5654  0.0436 -0.2462
 5798SOL     OW28855   0.461   2.720   2.729 -0.1580 -0.5810 -0.3361
 5798SOL    HW128856   0.434   2.631   2.705 -0.0951 -1.1314  1.6584
 5798SOL    HW228857   0.423   2.766   2.654  0.6162 -0.9452 -0.9531
 5799SOL     OW28858   1.446   1.170   7.045  0.5119  0.1239  0.1355
 5799SOL    HW128859   1.508   1.152   7.115  1.6148  0.4659 -0.7499
 5799SOL    HW228860   1.430   1.080   7.016  0.7970  0.6464 -1.6518
 5800SOL     OW28861   1.376   4.414   2.965  0.1797 -0.5495 -0.4494
 5800SOL    HW128862   1.471   4.418   2.974 -0.0144  0.5756  1.1761
 5800SOL    HW228863   1.356   4.381   3.053  1.5557  0.6305  0.3081
 5801SOL     OW28864   2.438   3.155   6.397  0.3556  0.1533  0.2843
 5801SOL    HW128865   2.464   3.131   6.486  0.5324  1.1679  0.5055
 5801SOL    HW228866   2.370   3.221   6.410 -0.3805 -0.8852  1.7132
 5802SOL     OW28867   0.975   0.176   1.931 -0.1485 -0.2357 -0.1424
 5802SOL    HW128868   0.978   0.268   1.907 -0.4727 -0.4825 -1.1415
 5802SOL    HW228869   1.047   0.143   1.876  0.7247  1.0977  0.1963
 5803SOL     OW28870   2.669   3.559   1.632  0.2625  0.5551 -0.3660
 5803SOL    HW128871   2.739   3.612   1.670 -0.9302  1.2993  0.8091
 5803SOL    HW228872   2.610   3.628   1.601 -1.1523 -0.6218 -0.3115
 5804SOL     OW28873   2.400   2.287  17.597  0.3426  0.3814  0.1797
 5804SOL    HW128874   2.416   2.376  17.628 -0.1916  0.9815 -1.2963
 5804SOL    HW228875   2.449   2.241  17.667  0.9702 -1.0629 -1.2047
 5805SOL     OW28876   4.683   2.034  17.550 -0.1800  0.6554  0.0832
 5805SOL    HW128877   4.588   2.023  17.539 -0.2207  0.5262  0.5893
 5805SOL    HW228878   4.705   2.089  17.475 -2.6189  1.3394 -0.1158
 5806SOL     OW28879   1.707   4.260   2.514 -0.1735 -0.0703 -0.4848
 5806SOL    HW128880   1.723   4.168   2.536 -0.6582  0.4451  1.9817
 5806SOL    HW228881   1.795   4.296   2.510 -0.1259 -0.2346 -0.9671
 5807SOL     OW28882   3.400   3.150   5.406  0.7475  0.6760 -0.5627
 5807SOL    HW128883   3.431   3.205   5.478  1.0234 -2.0752  1.4180
 5807SOL    HW228884   3.324   3.197   5.372  0.8813 -0.9071 -3.0707
 5808SOL     OW28885   1.763   1.027   4.896 -0.6324  0.0516  0.2003
 5808SOL    HW128886   1.782   0.974   4.973  1.6613  1.0582  0.3093
 5808SOL    HW228887   1.807   0.969   4.835  1.3436  0.5586  1.1494
 5809SOL     OW28888   1.585   2.883   9.672  0.4159 -0.2480  0.5478
 5809SOL    HW128889   1.654   2.821   9.650  1.2764  0.0575  2.4414
 5809SOL    HW228890   1.574   2.851   9.761 -0.3317  0.9991  0.9020
 5810SOL     OW28891   3.950   3.291   5.513 -0.0848  0.0069 -0.0761
 5810SOL    HW128892   3.944   3.352   5.440  1.2169 -0.8337 -0.8850
 5810SOL    HW228893   4.042   3.267   5.512  0.5038  2.2223  1.5799
 5811SOL     OW28894   3.682   3.910  12.231 -0.5912 -0.1068  0.3684
 5811SOL    HW128895   3.701   3.872  12.145 -0.5074  2.0714 -0.5854
 5811SOL    HW228896   3.750   3.977  12.224 -0.7850  0.2247  1.6897
 5812SOL     OW28897   4.541   0.806  16.539 -0.5674  0.2071 -0.2841
 5812SOL    HW128898   4.448   0.815  16.560 -0.5299 -1.2800  0.5375
 5812SOL    HW228899   4.559   0.712  16.531  1.7622  0.5809  0.3876
 5813SOL     OW28900   4.095   3.915   3.575  0.1551 -0.0627 -0.0041
 5813SOL    HW128901   4.002   3.936   3.573  0.3719  0.9193  0.5585
 5813SOL    HW228902   4.140   3.999   3.578 -2.6354  1.3564  1.2055
 5814SOL     OW28903   3.218   0.928   4.454 -0.1138 -0.5298 -0.1479
 5814SOL    HW128904   3.286   0.996   4.460  1.0621 -1.6529 -0.5373
 5814SOL    HW228905   3.164   0.943   4.377 -0.7215  1.0999  0.5876
 5815SOL     OW28906   1.407   3.114   5.088  0.3280  0.1475 -0.5163
 5815SOL    HW128907   1.327   3.061   5.092  0.9401 -0.5870  1.8009
 5815SOL    HW228908   1.363   3.189   5.047 -1.8902 -1.3078 -0.7981
 5816SOL     OW28909   1.340   3.993   3.284  0.2016  0.2872 -0.5206
 5816SOL    HW128910   1.367   3.933   3.215  1.3794  1.4014 -1.0294
 5816SOL    HW228911   1.336   3.935   3.360  0.6163  2.3626  1.0873
 5817SOL     OW28912   3.975   2.172   2.120  0.8975  1.0981  0.1750
 5817SOL    HW128913   4.049   2.181   2.180  0.3397  1.4122  0.8159
 5817SOL    HW228914   3.913   2.237   2.152 -1.0985 -0.0955 -1.1980
 5818SOL     OW28915   4.451   3.119   6.143 -0.6673 -0.3571 -0.4380
 5818SOL    HW128916   4.465   3.080   6.230  0.1153  1.1254  0.0997
 5818SOL    HW228917   4.539   3.140   6.111  0.0462 -0.9753  1.0599
 5819SOL     OW28918   4.289   0.786  15.997 -0.1002 -0.2547 -0.1577
 5819SOL    HW128919   4.332   0.810  16.079  0.8291 -0.5076 -0.5667
 5819SOL    HW228920   4.257   0.872  15.971 -1.3401  0.0037  2.2403
 5820SOL     OW28921   1.104   3.920   9.805 -0.1599  0.2873  0.3224
 5820SOL    HW128922   1.041   3.850   9.822 -0.2082 -0.2500 -2.0908
 5820SOL    HW228923   1.057   3.979   9.747  0.3119 -0.8762 -1.2504
 5821SOL     OW28924   0.630   0.240   8.840  0.2273 -0.2739 -0.3792
 5821SOL    HW128925   0.628   0.285   8.924 -0.8072  2.0370 -1.6355
 5821SOL    HW228926   0.548   0.192   8.836  0.4697 -0.6176 -1.3182
 5822SOL     OW28927   2.047   0.266   4.560  0.7641  0.8692  0.2262
 5822SOL    HW128928   2.141   0.273   4.549  0.9728  1.9350  2.6241
 5822SOL    HW228929   2.038   0.226   4.474  1.4220 -0.0784  0.6047
 5823SOL     OW28930   4.215   1.672   7.215 -0.1082  0.5861 -0.4916
 5823SOL    HW128931   4.302   1.710   7.203 -0.0713  0.4803 -0.5520
 5823SOL    HW228932   4.174   1.719   7.142  0.6748  2.8029  0.4914
 5824SOL     OW28933   1.930   3.747   9.750 -0.4359 -0.0187 -0.3365
 5824SOL    HW128934   1.997   3.680   9.769 -0.6512 -0.0055  0.4583
 5824SOL    HW228935   1.898   3.773   9.836  1.2896 -0.5544  0.4739
 5825SOL     OW28936   2.247   3.873   4.774 -0.0929 -0.2962 -0.6528
 5825SOL    HW128937   2.156   3.899   4.783 -0.0984  0.1165 -1.8786
 5825SOL    HW228938   2.239   3.810   4.703 -1.0735 -0.0676 -0.7421
 5826SOL     OW28939   3.142   3.737   1.046  0.0468 -0.6449 -0.3406
 5826SOL    HW128940   3.070   3.758   1.104  1.2205 -0.7702  1.1498
 5826SOL    HW228941   3.139   3.641   1.054 -2.3545 -0.3796  1.8321
 5827SOL     OW28942   4.586   0.037   6.147 -0.0419  0.2154  0.6070
 5827SOL    HW128943   4.640   4.698   6.195  0.0549  0.9286  1.4040
 5827SOL    HW228944   4.579   0.106   6.213  0.9705  3.2465 -2.4466
 5828SOL     OW28945   3.837   1.011   2.808  0.1354 -0.6171  0.4004
 5828SOL    HW128946   3.746   1.009   2.839 -0.4969 -0.8963 -1.4187
 5828SOL    HW228947   3.811   0.999   2.716  0.8479 -2.6507  0.4532
 5829SOL     OW28948   2.290   1.868  13.038 -0.1915 -0.4349  0.0925
 5829SOL    HW128949   2.261   1.948  12.995 -2.6878 -1.4579 -0.1524
 5829SOL    HW228950   2.269   1.795  12.980 -1.1562 -0.7929  0.8926
 5830SOL     OW28951   3.788   3.299   8.554 -0.4115 -0.4307 -0.1755
 5830SOL    HW128952   3.806   3.381   8.509 -0.8794  0.6661  1.6518
 5830SOL    HW228953   3.819   3.321   8.642 -2.0923  2.9898 -0.4739
 5831SOL     OW28954   2.995   0.906   8.279 -0.0209 -0.1606  0.0694
 5831SOL    HW128955   2.986   0.989   8.326 -0.8350  0.3667 -1.0260
 5831SOL    HW228956   2.974   0.925   8.188 -0.4869 -3.4219 -0.5289
 5832SOL     OW28957   4.321   0.744   8.897  0.3006  0.3409  0.3415
 5832SOL    HW128958   4.385   0.765   8.966  1.3796 -2.2366  0.1526
 5832SOL    HW228959   4.355   0.803   8.830 -0.7219  0.0711 -0.4099
 5833SOL     OW28960   3.233   1.173   6.743  0.0952 -0.0933 -0.3358
 5833SOL    HW128961   3.247   1.256   6.697 -0.6572  0.6759  0.8010
 5833SOL    HW228962   3.239   1.196   6.836 -1.1763  2.0868 -0.7897
 5834SOL     OW28963   2.661   3.834   3.792 -0.1955  0.1166  0.2033
 5834SOL    HW128964   2.577   3.789   3.781 -0.7154  0.3299  3.1194
 5834SOL    HW228965   2.684   3.877   3.710  0.4870 -1.8384 -0.6045
 5835SOL     OW28966   3.880   4.297   8.742  0.5259  0.7337  0.0716
 5835SOL    HW128967   3.794   4.336   8.723  0.4513  0.7998  0.5363
 5835SOL    HW228968   3.874   4.210   8.702 -1.7894  0.8439  0.1343
 5836SOL     OW28969   2.119   0.289   6.706  0.3030 -0.2419  0.0669
 5836SOL    HW128970   2.038   0.265   6.752 -0.0663 -0.0686 -0.4834
 5836SOL    HW228971   2.160   0.343   6.773 -1.0665  2.2340 -1.1127
 5837SOL     OW28972   3.001   4.516  11.707 -0.4194 -0.2925  0.3524
 5837SOL    HW128973   3.089   4.489  11.732 -0.0771  1.0953  0.6467
 5837SOL    HW228974   2.938   4.458  11.750  0.4338 -1.5210 -0.0606
 5838SOL     OW28975   2.258   2.652   6.114  0.3071  0.0848 -0.1369
 5838SOL    HW128976   2.186   2.594   6.088 -2.3058  2.6819  1.3869
 5838SOL    HW228977   2.299   2.672   6.030 -0.4164 -1.1108 -0.7787
 5839SOL     OW28978   1.158   4.294   7.404 -0.4117 -0.2701 -0.7532
 5839SOL    HW128979   1.081   4.237   7.398 -0.0502 -0.8156 -0.2205
 5839SOL    HW228980   1.233   4.235   7.414 -0.9463 -1.4032 -3.4831
 5840SOL     OW28981   3.580   0.319   4.666  0.0497 -0.0479 -0.1505
 5840SOL    HW128982   3.641   0.392   4.668 -0.3336  0.3093 -1.9294
 5840SOL    HW228983   3.599   0.270   4.586 -0.0490  0.7289 -0.6424
 5841SOL     OW28984   1.512   2.344   0.235 -0.0958  0.3022  0.1194
 5841SOL    HW128985   1.485   2.264   0.189  4.5037 -0.6307 -0.9727
 5841SOL    HW228986   1.606   2.338   0.220 -0.2374  1.9880 -1.5247
 5842SOL     OW28987   4.131   1.962   6.828 -0.0696 -0.0692 -0.5808
 5842SOL    HW128988   4.187   2.039   6.835  0.0756  0.1164 -4.1450
 5842SOL    HW228989   4.045   1.997   6.804 -0.4101 -2.2240 -2.4707
 5843SOL     OW28990   2.534   4.684   7.615 -0.2737  0.0197 -0.1806
 5843SOL    HW128991   2.474   4.704   7.686 -0.5581 -1.0859 -0.1127
 5843SOL    HW228992   2.490   0.009   7.544 -1.5555  0.0946  0.6643
 5844SOL     OW28993   1.368   3.331  17.442 -0.7115 -0.3226 -0.3709
 5844SOL    HW128994   1.318   3.249  17.447 -0.6681 -0.2961  0.4289
 5844SOL    HW228995   1.314   3.371  17.374  0.7435  0.6226 -0.9854
 5845SOL     OW28996   3.586   0.242   3.370  0.3218 -0.2741  0.6478
 5845SOL    HW128997   3.501   0.200   3.380  1.1306 -1.8280  0.9533
 5845SOL    HW228998   3.618   0.194   3.294  0.4861  0.6021  0.1603
 5846SOL     OW28999   2.467   4.671  14.114 -0.5805  0.5633 -0.2979
 5846SOL    HW129000   2.551   4.652  14.072  1.0361  2.3018  2.1552
 5846SOL    HW229001   2.450   0.039  14.088 -0.1599  0.2944 -1.5160
 5847SOL     OW29002   3.847   4.030  11.066 -0.9531  0.8449 -0.2937
 5847SOL    HW129003   3.864   3.948  11.020 -0.8602  0.9667 -0.4790
 5847SOL    HW229004   3.917   4.086  11.029 -1.4164  0.7733 -1.2698
 5848SOL     OW29005   4.032   1.316  14.437 -0.1645  0.5775 -0.3707
 5848SOL    HW129006   4.055   1.400  14.475 -0.3957 -0.1057  1.2877
 5848SOL    HW229007   4.108   1.304  14.381  1.6158  1.5455  1.8315
 5849SOL     OW29008   3.723   3.704   4.169  0.4711 -1.1829  0.3444
 5849SOL    HW129009   3.648   3.762   4.178 -0.4434 -2.2709 -0.1880
 5849SOL    HW229010   3.792   3.769   4.175  1.3016 -1.7279 -3.0034
 5850SOL     OW29011   1.925   0.430   5.071 -0.1567  0.2099 -0.0987
 5850SOL    HW129012   1.911   0.363   5.137  2.9668 -1.1826 -0.8766
 5850SOL    HW229013   1.919   0.507   5.127  2.8573 -1.1400  2.0463
 5851SOL     OW29014   1.423   4.181   2.296 -0.6798  0.0567  0.1980
 5851SOL    HW129015   1.361   4.169   2.224 -0.9434 -0.3070  0.4856
 5851SOL    HW229016   1.388   4.259   2.338  2.9405  0.1954  2.8831
 5852SOL     OW29017   1.535   2.942  15.342 -0.5224 -0.4940 -0.1561
 5852SOL    HW129018   1.600   2.930  15.411 -0.9109  0.3226  0.3528
 5852SOL    HW229019   1.465   2.886  15.374 -2.1348  1.7898  0.3482
 5853SOL     OW29020   1.466   4.384  11.557 -0.4254  0.0420 -0.2053
 5853SOL    HW129021   1.454   4.460  11.614  0.1298 -1.1651  1.5143
 5853SOL    HW229022   1.387   4.334  11.579 -0.5975 -0.4543 -1.9450
 5854SOL     OW29023   0.165   1.315   4.349 -0.0115 -1.0194 -0.2087
 5854SOL    HW129024   0.115   1.254   4.403 -2.5629  0.3487 -1.0300
 5854SOL    HW229025   0.092   1.325   4.288 -0.7412 -0.5201  0.7663
 5855SOL     OW29026   3.324   3.491   4.571  0.6476  0.0842  0.1186
 5855SOL    HW129027   3.341   3.521   4.481  2.0159  0.8653  0.6288
 5855SOL    HW229028   3.239   3.448   4.570 -0.0193  1.3868 -0.3392
 5856SOL     OW29029   3.916   1.695   6.595  0.3832  0.3066  0.6776
 5856SOL    HW129030   4.004   1.731   6.581  0.8457  0.1327  3.0450
 5856SOL    HW229031   3.879   1.768   6.645  2.4966  2.0191 -0.2953
 5857SOL     OW29032   2.657   4.188   4.210  0.0679 -0.2179 -0.1175
 5857SOL    HW129033   2.653   4.166   4.118 -1.0780  0.4099 -0.2229
 5857SOL    HW229034   2.741   4.233   4.210  0.4726 -0.9767  2.1903
 5858SOL     OW29035   2.533   3.428  16.972  0.1940  0.5955 -0.3630
 5858SOL    HW129036   2.503   3.469  16.891  1.8754  1.9755 -0.2803
 5858SOL    HW229037   2.466   3.360  16.970  0.6017  0.2433 -1.7789
 5859SOL     OW29038   0.060   3.228  10.086 -0.5851  0.4572  0.1251
 5859SOL    HW129039   4.715   3.174  10.127 -0.2589  0.3619  0.5422
 5859SOL    HW229040   0.026   3.317  10.076 -1.5023  0.2931  1.8601
 5860SOL     OW29041   0.043   3.071   2.382 -0.2020 -0.2283 -0.3196
 5860SOL    HW129042   0.132   3.095   2.407 -0.3020 -0.9378  0.7376
 5860SOL    HW229043   0.031   3.000   2.445  1.1152 -0.8345 -0.7662
 5861SOL     OW29044   2.242   3.396   3.826  0.2490 -0.3942  0.5671
 5861SOL    HW129045   2.153   3.403   3.793  0.6198  2.5999  0.1644
 5861SOL    HW229046   2.296   3.383   3.748 -1.8068 -1.6293 -0.6478
 5862SOL     OW29047   4.284   1.854  13.018 -0.2620 -0.1871  0.0871
 5862SOL    HW129048   4.261   1.926  13.076 -2.3085 -2.1390  1.7214
 5862SOL    HW229049   4.264   1.772  13.063  0.0413 -1.1790 -1.5614
 5863SOL     OW29050   3.213   2.196   9.944 -0.4104  0.1709 -0.1282
 5863SOL    HW129051   3.289   2.187   9.885  1.0944  0.7926  1.7352
 5863SOL    HW229052   3.166   2.113   9.950  2.8955 -1.6455  0.9278
 5864SOL     OW29053   4.524   4.210  10.185  0.1718  0.3621  0.4648
 5864SOL    HW129054   4.555   4.150  10.252 -2.7068 -1.3401  0.2730
 5864SOL    HW229055   4.576   4.182  10.110  0.3759 -0.5566  0.9586
 5865SOL     OW29056   4.484   4.055   8.238  0.0112 -0.1638 -0.4398
 5865SOL    HW129057   4.515   3.965   8.222  2.8662  1.2280 -2.6828
 5865SOL    HW229058   4.530   4.094   8.164  0.2164  0.5497  0.0719
 5866SOL     OW29059   3.506   3.691   7.240 -0.0132  0.2763  0.2715
 5866SOL    HW129060   3.491   3.782   7.268 -1.3327 -0.3291  1.5401
 5866SOL    HW229061   3.596   3.691   7.210  0.6687  0.2130  2.3078
 5867SOL     OW29062   1.781   3.362   0.365  0.0942  0.3044 -0.2364
 5867SOL    HW129063   1.789   3.317   0.449 -2.7296  1.0496  0.4436
 5867SOL    HW229064   1.865   3.407   0.362  0.8071 -1.0676 -0.8219
 5868SOL     OW29065   4.645   4.350   4.277  0.0164  0.1179 -0.0992
 5868SOL    HW129066   4.594   4.286   4.326  0.3524 -0.5275 -0.6003
 5868SOL    HW229067   4.623   4.331   4.186  0.3662 -1.8573  0.2306
 5869SOL     OW29068   0.760   2.587   6.380 -0.5493 -0.2202  0.7653
 5869SOL    HW129069   0.848   2.592   6.416  0.1360 -2.0006 -0.7111
 5869SOL    HW229070   0.720   2.516   6.430 -0.7288 -2.4051 -2.4816
 5870SOL     OW29071   4.173   2.254  10.788 -0.7446  0.2274 -0.5305
 5870SOL    HW129072   4.133   2.223  10.707 -2.0506 -2.2478  1.0344
 5870SOL    HW229073   4.127   2.334  10.814  1.4235  1.8186 -1.6374
 5871SOL     OW29074   1.226   2.440   6.627  0.5563 -0.0204  0.4697
 5871SOL    HW129075   1.284   2.364   6.631  2.9988  1.9227  2.0140
 5871SOL    HW229076   1.281   2.504   6.671  0.4031  0.9340 -0.7226
 5872SOL     OW29077   3.383   1.721   2.037 -0.3781 -0.0273  0.6406
 5872SOL    HW129078   3.374   1.796   2.095  1.7437  2.3682 -2.1234
 5872SOL    HW229079   3.365   1.763   1.953  0.8046 -0.3073  0.2475
 5873SOL     OW29080   3.646   0.713   7.584  0.7865  0.3414 -0.2947
 5873SOL    HW129081   3.678   0.800   7.563 -2.0033  1.5947  0.7213
 5873SOL    HW229082   3.721   0.658   7.559  0.1767 -1.1809  1.2237
 5874SOL     OW29083   3.923   2.170   8.174  0.4185  0.7782  0.2779
 5874SOL    HW129084   3.848   2.208   8.129 -0.0093 -1.0481 -0.5531
 5874SOL    HW229085   3.976   2.250   8.173  2.5922 -0.6789  0.6939
 5875SOL     OW29086   1.374   0.056   5.119  0.0511  0.4183 -0.3458
 5875SOL    HW129087   1.354   4.708   5.059 -1.6894  2.1465 -1.7771
 5875SOL    HW229088   1.381   0.131   5.060 -0.2704  0.4147 -0.3860
 5876SOL     OW29089   3.271   1.375   7.503 -0.6390  0.4899 -0.0794
 5876SOL    HW129090   3.318   1.362   7.586 -1.2680  1.8908  0.4975
 5876SOL    HW229091   3.268   1.469   7.487  2.4468  0.7350  0.7856
 5877SOL     OW29092   4.164   2.080   5.357  0.0369 -0.2921  0.2460
 5877SOL    HW129093   4.166   2.175   5.343 -3.2181 -0.5252 -1.9181
 5877SOL    HW229094   4.195   2.042   5.275 -0.6284 -1.0951  0.3674
 5878SOL     OW29095   0.835   3.393   1.184  0.2375 -0.0225 -0.2864
 5878SOL    HW129096   0.863   3.436   1.103  2.1458 -2.7695 -1.0948
 5878SOL    HW229097   0.763   3.336   1.156  1.2889 -1.2962 -0.4175
 5879SOL     OW29098   2.761   1.226   3.417 -0.2895  0.0269  0.4012
 5879SOL    HW129099   2.790   1.207   3.506 -0.1152 -0.1089  0.3189
 5879SOL    HW229100   2.828   1.291   3.395 -1.4481  2.6476  4.6539
 5880SOL     OW29101   2.888   4.103   7.788  0.1514  0.7866 -0.2405
 5880SOL    HW129102   2.867   4.188   7.748 -0.5845  0.1525 -1.2199
 5880SOL    HW229103   2.983   4.106   7.789  0.2535 -3.8709  2.7411
 5881SOL     OW29104   0.824   1.385   7.215 -0.0254  0.3523 -0.2459
 5881SOL    HW129105   0.800   1.422   7.300 -0.0397 -2.2496  0.8872
 5881SOL    HW229106   0.854   1.297   7.240  0.1250  0.4173 -0.1991
 5882SOL     OW29107   4.669   4.249   1.098 -0.0234  0.6799 -0.3316
 5882SOL    HW129108   0.005   4.242   1.174  0.9085 -1.6293 -1.2459
 5882SOL    HW229109   4.680   4.337   1.063  0.0186  0.5175 -0.7341
 5883SOL     OW29110   1.279   0.358   2.750 -0.0212 -0.1761  0.4850
 5883SOL    HW129111   1.363   0.314   2.765 -0.3712 -0.5766  1.2714
 5883SOL    HW229112   1.272   0.349   2.655  1.4159 -0.6074  0.4278
 5884SOL     OW29113   1.469   3.993  15.148 -0.4451  0.5543  0.0138
 5884SOL    HW129114   1.559   4.027  15.150 -0.2728  0.1445 -0.6112
 5884SOL    HW229115   1.453   3.981  15.054  2.0283 -2.5096 -0.0426
 5885SOL     OW29116   3.253   0.747   9.101 -0.1423  0.0985  0.6154
 5885SOL    HW129117   3.314   0.734   9.028 -0.7280 -1.4917  0.3998
 5885SOL    HW229118   3.228   0.839   9.093  1.0453  0.3706  0.1882
 5886SOL     OW29119   0.471   2.850  15.361 -0.3005  0.1399  0.7674
 5886SOL    HW129120   0.517   2.925  15.323 -0.5872  0.9154  1.9275
 5886SOL    HW229121   0.438   2.810  15.281  2.2498 -0.8878  0.2194
 5887SOL     OW29122   3.310   0.863   8.391  0.6066  0.4037  0.1443
 5887SOL    HW129123   3.243   0.929   8.406 -0.0247 -0.2865  0.3937
 5887SOL    HW229124   3.305   0.852   8.296  1.1134  1.5929 -0.0189
 5888SOL     OW29125   1.346   3.172   1.738  0.3355  0.2430  0.0530
 5888SOL    HW129126   1.322   3.206   1.824 -1.2180 -0.8609  0.0484
 5888SOL    HW229127   1.376   3.083   1.759  0.3657 -0.1474 -1.6731
 5889SOL     OW29128   4.177   1.730   8.182  0.4480  0.4837 -0.0077
 5889SOL    HW129129   4.219   1.743   8.096 -1.0453  0.6665 -0.7157
 5889SOL    HW229130   4.248   1.678   8.218 -0.1389 -0.5858 -0.4110
 5890SOL     OW29131   3.388   1.954  12.869 -0.6626 -0.5127  0.4224
 5890SOL    HW129132   3.470   1.969  12.823 -0.2063 -0.6436  1.1827
 5890SOL    HW229133   3.355   1.873  12.830  1.3953 -0.0415 -2.3004
 5891SOL     OW29134   4.360   4.428   7.925 -0.3381 -0.0026 -0.0633
 5891SOL    HW129135   4.277   4.475   7.919  1.2782  2.8533 -0.0615
 5891SOL    HW229136   4.358   4.401   8.017 -0.5671  0.6485  0.1160
 5892SOL     OW29137   2.094   0.565   1.942  0.1128 -0.3200 -0.0421
 5892SOL    HW129138   2.186   0.591   1.938 -0.5887  2.5236  1.9625
 5892SOL    HW229139   2.102   0.482   1.894 -2.9254 -0.5995 -0.0737
 5893SOL     OW29140   2.098   3.363   3.017 -0.0083  0.2730  0.0067
 5893SOL    HW129141   2.077   3.397   2.930 -0.3404 -0.2527 -0.1237
 5893SOL    HW229142   2.097   3.269   3.000 -1.3944  0.0435  1.3661
 5894SOL     OW29143   3.346   3.976  17.493 -0.3066 -0.7556  0.5143
 5894SOL    HW129144   3.378   4.040  17.556 -2.1347 -1.0728  1.7650
 5894SOL    HW229145   3.265   4.024  17.472  0.0338 -0.7620 -0.8521
 5895SOL     OW29146   2.382   1.787  15.512  0.2549  0.6465  0.3287
 5895SOL    HW129147   2.470   1.772  15.477  0.1883  0.4787  0.2315
 5895SOL    HW229148   2.343   1.700  15.509  3.9846 -0.9640 -0.4811
 5896SOL     OW29149   4.366   3.750   3.780 -0.2935  0.5696  0.1062
 5896SOL    HW129150   4.457   3.737   3.805  0.1492  0.7024 -1.4685
 5896SOL    HW229151   4.367   3.751   3.684 -0.2310 -1.3106  0.0830
 5897SOL     OW29152   4.463   4.656   2.173 -0.7504 -0.2676  0.2788
 5897SOL    HW129153   4.546   4.637   2.216 -0.7960 -0.2517  0.3755
 5897SOL    HW229154   4.424   4.571   2.153  0.3707 -1.0476  1.3861
 5898SOL     OW29155   4.068   2.668   1.879 -0.1352 -0.3927  0.5468
 5898SOL    HW129156   4.085   2.751   1.922 -0.1761 -1.2678  2.2640
 5898SOL    HW229157   4.075   2.608   1.954 -0.4688  0.3739  1.1917
 5899SOL     OW29158   4.188   0.198   7.029  0.1835 -0.4512 -0.0618
 5899SOL    HW129159   4.100   0.200   6.990  1.1143 -1.1498 -2.1975
 5899SOL    HW229160   4.171   0.252   7.106 -2.1205 -1.6578  0.2741
 5900SOL     OW29161   3.032   0.077   2.932  0.1481 -0.1704 -0.1277
 5900SOL    HW129162   3.021   0.147   2.997 -1.2892  0.1294 -0.6933
 5900SOL    HW229163   3.108   0.031   2.968 -0.7121 -1.4301  0.0580
 5901SOL     OW29164   2.437   3.694   6.347  0.2900  0.1169 -0.0136
 5901SOL    HW129165   2.530   3.701   6.327 -0.0945  2.3389 -1.0338
 5901SOL    HW229166   2.435   3.648   6.431  2.5034 -0.7647 -0.4618
 5902SOL     OW29167   0.217   0.278  10.694 -0.1253  0.2622 -0.0192
 5902SOL    HW129168   0.244   0.321  10.614  0.6328  1.3337  0.8090
 5902SOL    HW229169   0.139   0.331  10.711  1.5890  2.5334  0.6459
 5903SOL     OW29170   4.162   1.308   3.179 -0.2310 -0.0360 -0.4392
 5903SOL    HW129171   4.191   1.217   3.184 -0.5790 -0.0190  2.1524
 5903SOL    HW229172   4.096   1.299   3.111 -2.3425  0.1354  1.5834
 5904SOL     OW29173   3.913   4.414  17.157 -0.1426  0.2473 -0.1274
 5904SOL    HW129174   3.919   4.334  17.210  0.7701  0.5431  0.2018
 5904SOL    HW229175   3.834   4.456  17.192  1.2017  1.2408  1.7389
 5905SOL     OW29176   0.216   1.771   8.784  0.5432  0.2540 -0.1502
 5905SOL    HW129177   0.299   1.754   8.829  0.3489 -1.8680 -0.6115
 5905SOL    HW229178   0.169   1.700   8.826 -1.7580  2.1107  0.4120
 5906SOL     OW29179   3.067   0.241  10.820  0.5819 -0.1502 -0.2775
 5906SOL    HW129180   3.108   0.193  10.748 -0.1036 -2.8031  1.1198
 5906SOL    HW229181   3.026   0.175  10.876  0.1474 -0.0250 -0.4465
 5907SOL     OW29182   1.732   4.522   5.518 -0.6139 -0.1150 -0.4183
 5907SOL    HW129183   1.675   4.592   5.486  0.9070  0.7484 -1.2550
 5907SOL    HW229184   1.726   4.466   5.441 -0.9210  3.2260 -2.8179
 5908SOL     OW29185   2.897   1.101  10.964  0.7264 -0.1385 -0.4810
 5908SOL    HW129186   2.825   1.075  10.907 -0.9346  0.7555  1.2317
 5908SOL    HW229187   2.853   1.168  11.017 -0.5839  1.2720 -3.3610
 5909SOL     OW29188   3.355   0.627   8.500  0.5500  0.0572  0.0099
 5909SOL    HW129189   3.262   0.610   8.513  0.2371 -0.3359 -2.6534
 5909SOL    HW229190   3.343   0.714   8.462  2.5180  0.5532  0.5144
 5910SOL     OW29191   0.517   2.550   6.883  0.5826  0.1342  0.3071
 5910SOL    HW129192   0.586   2.499   6.927  0.6875  1.0979  1.2574
 5910SOL    HW229193   0.484   2.475   6.833  0.0238  1.6532 -1.5520
 5911SOL     OW29194   0.725   4.596  12.725  0.6247  0.2460  0.4383
 5911SOL    HW129195   0.751   4.667  12.666  1.2713 -2.0692 -2.0267
 5911SOL    HW229196   0.631   4.613  12.725  0.6836  0.4927 -1.9735
 5912SOL     OW29197   2.528   0.912   3.222  0.1745  0.0120 -0.2841
 5912SOL    HW129198   2.508   0.960   3.302  2.4220  1.8489 -0.8376
 5912SOL    HW229199   2.617   0.882   3.239 -0.3428 -0.5788  1.3794
 5913SOL     OW29200   2.476   1.134   5.044 -0.0896 -0.3093 -0.4083
 5913SOL    HW129201   2.525   1.063   5.001 -1.3958 -1.0559 -0.6803
 5913SOL    HW229202   2.387   1.098   5.048  0.0901 -0.7366 -0.2931
 5914SOL     OW29203   4.548   0.868   1.429 -0.1901  0.6566 -0.4660
 5914SOL    HW129204   4.602   0.919   1.369 -2.3261  1.3157 -1.8146
 5914SOL    HW229205   4.468   0.920   1.439  0.6097  1.4659  1.6823
 5915SOL     OW29206   2.048   0.159   4.307 -0.0695  0.3645 -0.1966
 5915SOL    HW129207   2.069   0.218   4.235  1.2683  1.1405  0.8402
 5915SOL    HW229208   1.961   0.129   4.280  0.4545  1.5984 -3.2204
 5916SOL     OW29209   4.270   0.875   6.083  0.1075  0.0117 -0.3142
 5916SOL    HW129210   4.342   0.933   6.057  0.4147 -0.9631 -1.6102
 5916SOL    HW229211   4.326   0.798   6.089 -0.3337 -0.3606 -0.9759
 5917SOL     OW29212   2.686   2.870   5.887 -0.3771  0.3726  0.4157
 5917SOL    HW129213   2.770   2.828   5.902  1.1686  3.8736  1.5871
 5917SOL    HW229214   2.647   2.798   5.838 -0.7762 -0.3757  1.8382
 5918SOL     OW29215   4.141   1.217   5.511  0.6801 -0.1749 -0.8432
 5918SOL    HW129216   4.103   1.305   5.518  2.0241  0.3397 -0.1475
 5918SOL    HW229217   4.214   1.218   5.573 -0.7128 -1.3231  0.8084
 5919SOL     OW29218   3.250   0.958  17.459  0.1999  0.1080  0.5304
 5919SOL    HW129219   3.236   0.909  17.540  1.1346 -1.8684 -0.4809
 5919SOL    HW229220   3.341   0.937  17.437  0.3069 -0.2856  1.3416
 5920SOL     OW29221   3.495   3.687  12.259 -0.1529  0.1689 -0.0556
 5920SOL    HW129222   3.549   3.765  12.265 -0.0036  0.1144 -0.7113
 5920SOL    HW229223   3.540   3.645  12.186  0.0417 -0.6406  0.5252
 5921SOL     OW29224   1.699   1.720   7.132  0.1743  0.2304  0.3868
 5921SOL    HW129225   1.686   1.668   7.212  0.0960  0.4285  0.5038
 5921SOL    HW229226   1.770   1.664   7.101 -0.2090 -0.1499  0.2062
 5922SOL     OW29227   4.101   1.678   5.740 -0.2770  0.1676  0.2048
 5922SOL    HW129228   4.047   1.755   5.760  1.2324  0.9523  1.2290
 5922SOL    HW229229   4.189   1.715   5.747  0.3100 -0.9915 -1.0338
 5923SOL     OW29230   4.291   2.009   2.213 -0.2166 -0.4628 -0.2524
 5923SOL    HW129231   4.315   1.992   2.122  2.3462  0.1342  0.3264
 5923SOL    HW229232   4.375   1.987   2.253 -0.0805 -0.1538 -0.3682
 5924SOL     OW29233   4.533   4.108   5.283 -0.5365  0.0879 -0.0201
 5924SOL    HW129234   4.577   4.057   5.215 -0.7699 -0.7581  0.4477
 5924SOL    HW229235   4.527   4.190   5.236  0.2475 -0.3497 -0.8825
 5925SOL     OW29236   2.895   1.307  15.382  0.3789 -0.6759  0.0932
 5925SOL    HW129237   2.927   1.238  15.440  0.9637 -0.9069 -0.4956
 5925SOL    HW229238   2.806   1.299  15.416  1.3067  1.7625  3.0947
 5926SOL     OW29239   1.777   0.674   5.821  0.3997 -0.2526  0.6158
 5926SOL    HW129240   1.770   0.673   5.917  0.4248  0.2707  0.6212
 5926SOL    HW229241   1.866   0.709   5.820  0.2874  0.0700  1.6051
 5927SOL     OW29242   3.061   4.276   3.292  0.0945 -0.5219 -0.6494
 5927SOL    HW129243   3.108   4.226   3.359 -1.3933  0.7804  1.3791
 5927SOL    HW229244   3.012   4.323   3.359  1.8298  1.5777 -0.8569
 5928SOL     OW29245   0.975   3.046   2.266 -0.6442 -0.6363  0.0390
 5928SOL    HW129246   0.994   3.000   2.184 -1.6250 -1.7816  0.4585
 5928SOL    HW229247   0.983   2.972   2.326  2.4909 -2.3310 -2.4610
 5929SOL     OW29248   3.044   4.211   4.752  0.2412  0.0624 -0.2999
 5929SOL    HW129249   2.955   4.210   4.716 -0.0986 -0.5063  0.5688
 5929SOL    HW229250   3.098   4.252   4.684 -1.5019  0.6563 -1.3233
 5930SOL     OW29251   0.933   3.134   0.517 -0.3812 -0.2993  0.7766
 5930SOL    HW129252   0.874   3.113   0.589 -2.1564  1.0859 -0.2622
 5930SOL    HW229253   0.989   3.208   0.541  2.1914 -2.2856  0.9451
 5931SOL     OW29254   0.400   0.432   3.045  0.6547  0.4300 -0.2389
 5931SOL    HW129255   0.423   0.450   3.136  0.8590  0.7910 -0.3625
 5931SOL    HW229256   0.441   0.346   3.039  0.5878  0.3527  0.3952
 5932SOL     OW29257   0.884   4.251   5.028  0.1270 -0.1131 -0.1455
 5932SOL    HW129258   0.848   4.296   4.951 -0.6210  0.5348  0.5857
 5932SOL    HW229259   0.882   4.162   4.994 -1.0471  0.4954 -1.6855
 5933SOL     OW29260   4.479   0.043   5.896  0.0616  0.4709  0.3786
 5933SOL    HW129261   4.497   0.039   5.991 -3.0333 -1.3071  0.8803
 5933SOL    HW229262   4.528   0.120   5.868  0.1482  0.9061  1.6837
 5934SOL     OW29263   3.556   2.902   2.933  0.0894  0.2753  0.1596
 5934SOL    HW129264   3.577   2.818   2.974  0.8017  0.4533  0.1543
 5934SOL    HW229265   3.612   2.909   2.856  0.8376  1.1100  0.7897
 5935SOL     OW29266   4.218   4.654  15.897  0.6944  0.1192  0.5575
 5935SOL    HW129267   4.147   4.716  15.914  0.2217 -0.1283 -0.5438
 5935SOL    HW229268   4.259   4.672  15.812  4.7173 -0.2742  2.3718
 5936SOL     OW29269   3.186   2.042  14.694 -0.0203  0.1800 -0.3755
 5936SOL    HW129270   3.190   2.137  14.709 -1.1007  0.2987 -0.8353
 5936SOL    HW229271   3.261   2.000  14.737 -2.0920  0.8263  3.8258
 5937SOL     OW29272   0.160   3.996   4.253 -0.4096 -0.1309 -0.4245
 5937SOL    HW129273   0.186   4.031   4.168  1.7523 -1.4953 -0.3121
 5937SOL    HW229274   0.205   3.911   4.252 -2.2891 -1.1319 -1.5529
 5938SOL     OW29275   4.034   4.555  13.219  0.2462 -0.0815 -0.3937
 5938SOL    HW129276   4.047   4.637  13.170  0.2290 -1.0202 -1.9757
 5938SOL    HW229277   4.088   4.491  13.173  0.2645  1.0517 -1.9413
 5939SOL     OW29278   4.435   2.730   5.800  0.3604 -0.2377  0.2385
 5939SOL    HW129279   4.407   2.769   5.883 -2.1936 -0.8434 -0.3621
 5939SOL    HW229280   4.523   2.767   5.806  0.9840 -1.9458  1.7233
 5940SOL     OW29281   0.831   3.690  10.170  0.8215  0.2422  0.1664
 5940SOL    HW129282   0.761   3.703  10.106 -0.3254 -0.3400  1.2889
 5940SOL    HW229283   0.782   3.722  10.246 -0.9392  0.1592 -0.9220
 5941SOL     OW29284   0.925   4.100  12.405  0.4744 -0.0523 -0.2146
 5941SOL    HW129285   0.926   4.085  12.311  0.9724 -0.2694 -0.1763
 5941SOL    HW229286   1.019   4.106  12.423  0.6453 -0.5643 -0.9127
 5942SOL     OW29287   1.142   1.586   2.101 -0.1536  0.1335  0.8530
 5942SOL    HW129288   1.193   1.506   2.113  1.1379  0.9933  1.1874
 5942SOL    HW229289   1.051   1.557   2.106 -0.1496 -0.2847 -1.8794
 5943SOL     OW29290   2.604   0.886   6.035  0.1437 -0.2363 -0.5725
 5943SOL    HW129291   2.682   0.896   5.979 -0.7339  1.2668 -1.5438
 5943SOL    HW229292   2.566   0.971   6.011 -2.2758 -1.2022 -0.1292
 5944SOL     OW29293   0.493   3.740   1.727 -0.3413  0.1556  0.2716
 5944SOL    HW129294   0.487   3.779   1.814 -0.6246  0.1569  0.2517
 5944SOL    HW229295   0.504   3.648   1.753 -1.2042 -0.4131 -1.3714
 5945SOL     OW29296   1.823   1.994   5.034  0.4283 -0.2585 -0.0723
 5945SOL    HW129297   1.814   1.917   5.089 -0.2538 -0.3706 -0.3333
 5945SOL    HW229298   1.773   2.058   5.085  0.3043 -0.1131 -0.3749
 5946SOL     OW29299   1.867   1.944   4.521 -0.0818 -0.0656  0.0853
 5946SOL    HW129300   1.814   1.898   4.456  1.0853 -0.0858 -0.8691
 5946SOL    HW229301   1.808   2.002   4.569  2.3888  3.0472 -0.6592
 5947SOL     OW29302   4.667   1.413  10.951 -0.2055  0.0002  0.1274
 5947SOL    HW129303   4.643   1.502  10.928  0.4878  0.2836  0.5272
 5947SOL    HW229304   0.028   1.429  10.995  0.0544  0.2292 -0.4529
 5948SOL     OW29305   3.215   2.944   1.271 -0.1245  0.1539  0.1576
 5948SOL    HW129306   3.248   2.915   1.186 -0.9899  0.4163 -0.2693
 5948SOL    HW229307   3.213   2.856   1.309  3.0161  0.0183 -0.0161
 5949SOL     OW29308   0.089   0.276   3.671 -0.2546  0.3866  0.2908
 5949SOL    HW129309   0.173   0.246   3.637  0.0008  1.6782 -0.2299
 5949SOL    HW229310   0.027   0.204   3.660 -1.3645  1.6156 -1.5935
 5950SOL     OW29311   2.485   2.955  17.309  0.0013 -0.2053 -0.7555
 5950SOL    HW129312   2.517   2.961  17.219 -1.3261 -2.6226 -1.3730
 5950SOL    HW229313   2.570   2.954  17.353 -0.3197 -1.0687 -0.1759
 5951SOL     OW29314   3.826   4.484   6.614 -0.8985 -0.4445 -0.1609
 5951SOL    HW129315   3.883   4.558   6.637 -0.9690 -0.2520 -0.6010
 5951SOL    HW229316   3.767   4.520   6.547 -0.8228  2.1858  1.1652
 5952SOL     OW29317   0.246   1.657   2.580 -0.7672  0.3030 -0.6674
 5952SOL    HW129318   0.231   1.644   2.674  0.0845  0.0736 -0.5613
 5952SOL    HW229319   0.186   1.727   2.557 -0.6604  0.6498  0.0995
 5953SOL     OW29320   3.840   2.494   1.979  0.3348  0.0316  0.2917
 5953SOL    HW129321   3.756   2.537   1.997  0.7957  0.4827  1.3769
 5953SOL    HW229322   3.815   2.454   1.896  0.4917 -2.0597  1.2476
 5954SOL     OW29323   3.118   2.920   5.262 -0.0673 -0.1904 -0.1986
 5954SOL    HW129324   3.083   2.997   5.216  1.6094  0.2803 -0.6853
 5954SOL    HW229325   3.054   2.851   5.244 -0.1747  0.1616 -1.1633
 5955SOL     OW29326   2.046   0.016  13.623 -0.0746 -0.3544  0.1874
 5955SOL    HW129327   1.958   0.051  13.632  0.0164 -0.2934  0.8404
 5955SOL    HW229328   2.029   4.648  13.597  1.8457 -0.2169 -1.5829
 5956SOL     OW29329   4.461   1.539   6.368 -0.5292  0.4378  0.1810
 5956SOL    HW129330   4.492   1.626   6.345 -2.3579  0.8237 -0.8395
 5956SOL    HW229331   4.449   1.512   6.277  0.3746 -1.1403  0.5281
 5957SOL     OW29332   1.339   3.263   0.367 -0.0528  0.4496  0.7373
 5957SOL    HW129333   1.360   3.293   0.456  1.5836 -2.4128  1.3054
 5957SOL    HW229334   1.256   3.309   0.356  0.4407  0.9872 -0.7077
 5958SOL     OW29335   4.560   0.988   9.350  0.2178 -0.2967  0.1261
 5958SOL    HW129336   4.630   0.961   9.291 -0.5031 -1.3946 -0.2329
 5958SOL    HW229337   4.563   0.921   9.418 -1.9075  1.1440  1.6412
 5959SOL     OW29338   0.081   3.212   3.786 -0.1448 -0.3610 -0.3079
 5959SOL    HW129339   0.157   3.173   3.828  0.9736  1.2037 -0.8728
 5959SOL    HW229340   0.131   3.267   3.726  0.8304 -1.6064 -0.6176
 5960SOL     OW29341   3.990   4.094   5.208  0.4413  0.1513 -0.2860
 5960SOL    HW129342   4.058   4.117   5.271 -1.9578  0.7670  2.0894
 5960SOL    HW229343   4.028   4.007   5.203 -1.4688 -0.7526  1.3011
 5961SOL     OW29344   2.703   2.780   9.868  0.0133  0.1969  0.8415
 5961SOL    HW129345   2.761   2.849   9.899  0.1313  0.2065  0.5966
 5961SOL    HW229346   2.620   2.817   9.897 -0.6648  0.3315 -1.2098
 5962SOL     OW29347   2.652   0.353   1.933  0.2333 -0.4389 -0.5244
 5962SOL    HW129348   2.746   0.357   1.950  0.5643 -0.8213 -2.2763
 5962SOL    HW229349   2.615   0.355   2.021  2.3113 -0.2085  0.3618
 5963SOL     OW29350   0.466   4.118   9.621  0.1887 -0.1966 -0.1823
 5963SOL    HW129351   0.525   4.055   9.580 -2.9722 -1.4007 -2.8645
 5963SOL    HW229352   0.428   4.078   9.698 -0.6145 -0.0375 -0.5015
 5964SOL     OW29353   2.716   3.057   7.825  0.1503 -0.1635  0.0163
 5964SOL    HW129354   2.697   3.142   7.786 -0.7615 -1.4542 -2.2924
 5964SOL    HW229355   2.794   3.042   7.772  1.1634 -0.0271  1.4661
 5965SOL     OW29356   4.272   0.458   6.641 -0.2254  0.1629 -0.3803
 5965SOL    HW129357   4.356   0.492   6.671 -0.1312 -1.9931  1.7144
 5965SOL    HW229358   4.201   0.513   6.673 -1.5618 -1.2410 -0.8877
 5966SOL     OW29359   4.379   3.989   6.931  0.1499 -0.8271 -0.2982
 5966SOL    HW129360   4.373   4.048   7.006  1.6038  0.4347 -1.1658
 5966SOL    HW229361   4.320   3.919   6.958  0.7290 -0.3580  2.1247
 5967SOL     OW29362   4.319   4.666   6.704 -0.6628  0.0889 -0.0346
 5967SOL    HW129363   4.378   4.593   6.684 -3.2518 -1.7568 -1.0625
 5967SOL    HW229364   4.367   0.012   6.657 -1.6661  1.9079  1.6039
 5968SOL     OW29365   3.990   3.797   8.757 -0.5700  0.0103 -0.0217
 5968SOL    HW129366   3.910   3.744   8.752 -0.1465 -0.5604 -0.6133
 5968SOL    HW229367   4.046   3.757   8.691 -0.2388  0.1658  0.1681
 5969SOL     OW29368   0.064   0.659   2.815 -0.3221  0.5535 -0.4641
 5969SOL    HW129369   0.036   0.749   2.829  1.4896  1.0182  0.1734
 5969SOL    HW229370   0.136   0.651   2.878 -0.9684  0.7583  0.2978
 5970SOL     OW29371   1.975   3.689   1.377 -0.3501  0.6050 -0.4670
 5970SOL    HW129372   1.932   3.633   1.442 -0.1886  1.9755  0.8221
 5970SOL    HW229373   1.902   3.719   1.324 -1.2517  0.9779  0.9668
 5971SOL     OW29374   3.762   3.952   0.968  0.5915  0.3378 -0.5110
 5971SOL    HW129375   3.852   3.953   0.934 -0.2205 -1.3157 -2.6813
 5971SOL    HW229376   3.725   4.011   0.903  0.6222 -0.0500 -0.8752
 5972SOL     OW29377   3.055   1.169  12.812  0.5038  0.2003  0.0825
 5972SOL    HW129378   2.977   1.117  12.833  0.4268 -0.3750 -1.5660
 5972SOL    HW229379   3.062   1.216  12.895  1.8023 -1.5676  0.9741
 5973SOL     OW29380   0.781   3.366   3.115 -0.0765 -0.5230  0.2582
 5973SOL    HW129381   0.862   3.352   3.163 -1.0381 -1.0887  1.7159
 5973SOL    HW229382   0.724   3.303   3.159  0.5592  0.0342  1.9027
 5974SOL     OW29383   3.164   1.431   3.000 -0.3464 -0.3134  0.0114
 5974SOL    HW129384   3.115   1.514   3.004 -1.8145 -1.1459 -0.8400
 5974SOL    HW229385   3.252   1.463   2.978  0.2392 -0.6164  1.9885
 5975SOL     OW29386   0.976   4.095   3.025 -0.0286  0.0106 -0.0253
 5975SOL    HW129387   1.067   4.073   3.044 -0.4217 -1.7240 -0.1643
 5975SOL    HW229388   0.944   4.014   2.987 -1.2754  0.5989 -0.2327
 5976SOL     OW29389   1.772   3.076   6.972 -0.4688  0.3695 -0.2384
 5976SOL    HW129390   1.738   3.077   7.061 -1.5668  1.0619 -0.6678
 5976SOL    HW229391   1.802   3.162   6.941 -0.0361  0.3359  0.0804
 5977SOL     OW29392   2.851   0.593   1.347 -0.2410  0.1066 -1.0310
 5977SOL    HW129393   2.811   0.680   1.350 -2.4136 -0.9547  0.7844
 5977SOL    HW229394   2.777   0.539   1.376  0.4826  0.1595  0.8698
 5978SOL     OW29395   1.635   4.647   7.254 -0.1531  0.3216  0.2234
 5978SOL    HW129396   1.569   4.592   7.296  2.4305 -0.5366  3.2057
 5978SOL    HW229397   1.700   4.645   7.324  0.2934  0.6127 -0.1818
 5979SOL     OW29398   4.587   1.196   3.197 -0.8145 -0.3813  0.2588
 5979SOL    HW129399   4.646   1.178   3.123  0.3289 -0.4309  1.1888
 5979SOL    HW229400   4.551   1.109   3.211  0.1776 -0.8208  0.0892
 5980SOL     OW29401   0.850   2.508  17.601  0.1430 -0.5327 -0.1635
 5980SOL    HW129402   0.933   2.549  17.621 -0.0599  0.4164 -1.2668
 5980SOL    HW229403   0.874   2.416  17.589 -2.9023 -1.3305 -0.1247
 5981SOL     OW29404   0.500   0.716   4.731  0.3447  0.2273  0.1434
 5981SOL    HW129405   0.561   0.657   4.775 -0.3243 -0.9566 -0.5128
 5981SOL    HW229406   0.567   0.774   4.694  1.7557 -0.8652  1.0264
 5982SOL     OW29407   3.198   4.016   5.307 -0.2041 -0.0796 -0.2166
 5982SOL    HW129408   3.273   3.977   5.353 -0.8513 -0.6120  0.3916
 5982SOL    HW229409   3.125   3.967   5.344 -0.4149 -1.8083 -2.9350
 5983SOL     OW29410   0.382   0.612  16.410  0.2573  0.0698 -0.0573
 5983SOL    HW129411   0.358   0.564  16.330  1.9212  1.1292 -1.1929
 5983SOL    HW229412   0.451   0.666  16.370  0.7220  1.0330  2.0662
 5984SOL     OW29413   0.512   3.997   5.724  0.1065  0.0208 -0.7100
 5984SOL    HW129414   0.427   4.040   5.733  0.4813  0.9130 -1.4763
 5984SOL    HW229415   0.565   4.070   5.692  1.0974 -0.2845  0.2166
 5985SOL     OW29416   3.344   3.060  14.839 -0.2854  0.1088  0.1394
 5985SOL    HW129417   3.374   2.969  14.840 -2.4559 -0.5918  1.3756
 5985SOL    HW229418   3.413   3.115  14.802 -1.1158  0.3187 -1.0829
 5986SOL     OW29419   3.956   4.501   9.323 -0.1004  0.8459  0.4031
 5986SOL    HW129420   3.987   4.575   9.271 -2.8234  1.7557  0.0805
 5986SOL    HW229421   3.892   4.466   9.261  1.2799 -0.9021 -0.0522
 5987SOL     OW29422   2.683   0.404   5.922 -1.0801 -0.3662 -0.2085
 5987SOL    HW129423   2.593   0.436   5.929 -1.1130 -0.5298  0.1797
 5987SOL    HW229424   2.726   0.484   5.895 -0.1843 -0.1061  1.9624
 5988SOL     OW29425   1.569   3.105   4.482  0.0369  0.1730 -0.0617
 5988SOL    HW129426   1.520   3.043   4.427 -0.0771  0.9699 -0.8488
 5988SOL    HW229427   1.498   3.127   4.543  0.3835  1.8376 -0.2655
 5989SOL     OW29428   4.304   1.782   4.195  0.5220  0.0407 -0.3788
 5989SOL    HW129429   4.226   1.732   4.222  0.6492  0.0673  0.0412
 5989SOL    HW229430   4.269   1.804   4.109 -2.4168 -1.2901  0.4606
 5990SOL     OW29431   1.096   3.309  10.629  0.4725 -0.1974  0.4584
 5990SOL    HW129432   1.173   3.269  10.589  1.3279  0.7268  1.1686
 5990SOL    HW229433   1.099   3.402  10.605  0.5623 -0.6396 -1.2509
 5991SOL     OW29434   2.696   2.282   6.042  0.3562 -0.0404 -0.4269
 5991SOL    HW129435   2.688   2.280   6.137 -0.5286  0.0769 -0.4982
 5991SOL    HW229436   2.616   2.323   6.009  0.7196  0.8206 -0.2281
 5992SOL     OW29437   2.936   3.818   8.053 -0.2331  0.7450  0.6289
 5992SOL    HW129438   2.851   3.776   8.039  0.6501 -0.9849  0.4078
 5992SOL    HW229439   2.961   3.841   7.964 -0.6857 -1.2011  0.0068
 5993SOL     OW29440   0.387   4.191   5.497 -0.1775  0.3323 -0.4562
 5993SOL    HW129441   0.416   4.235   5.577  1.0208 -2.2257  0.5574
 5993SOL    HW229442   0.452   4.231   5.439 -1.5659  2.5453 -0.4688
 5994SOL     OW29443   3.880   1.926   9.302  0.0703 -0.4993  0.0746
 5994SOL    HW129444   3.892   2.020   9.305 -0.3536 -0.3986 -1.7177
 5994SOL    HW229445   3.799   1.906   9.350  0.5734  0.7890  1.4612
 5995SOL     OW29446   3.885   2.521  14.598  0.0566  0.0506 -0.2495
 5995SOL    HW129447   3.836   2.491  14.675  0.1773  1.9291  0.5483
 5995SOL    HW229448   3.899   2.434  14.560 -2.0607  1.1348 -3.5294
 5996SOL     OW29449   0.787   4.347  12.083  0.0819  0.0771  0.1102
 5996SOL    HW129450   0.867   4.305  12.116  0.6746  1.9554  1.1044
 5996SOL    HW229451   0.778   4.426  12.137 -0.3192 -0.2363  0.4992
 5997SOL     OW29452   1.046   2.422   9.899 -0.3308  0.4334  0.5067
 5997SOL    HW129453   1.011   2.336   9.876  0.7493 -0.2960  1.5718
 5997SOL    HW229454   1.028   2.438   9.991  0.0164  1.5997  0.3816
 5998SOL     OW29455   3.650   0.139   7.743  0.3619 -0.1203  0.4774
 5998SOL    HW129456   3.622   0.088   7.818  1.7742  0.5188  1.4367
 5998SOL    HW229457   3.612   0.074   7.683 -0.0805 -1.5051  2.2648
 5999SOL     OW29458   3.522   1.850   6.443  0.3427  0.2846 -0.1121
 5999SOL    HW129459   3.602   1.812   6.407  0.7056 -0.0887  1.0906
 5999SOL    HW229460   3.547   1.941   6.427 -3.1897  1.4893  1.1457
 6000SOL     OW29461   3.929   0.073   3.359 -0.0765  0.2228 -0.0185
 6000SOL    HW129462   3.974   0.043   3.280  1.9947  1.4392  0.6948
 6000SOL    HW229463   3.844   0.095   3.323 -0.3674  0.2923  0.7046
 6001SOL     OW29464   3.512   1.258   8.263 -0.2787  0.3575  0.4813
 6001SOL    HW129465   3.531   1.289   8.175 -0.8822 -1.1793 -0.1920
 6001SOL    HW229466   3.559   1.178   8.287 -0.2448  0.4526  0.7277
 6002SOL     OW29467   1.825   1.344   3.153  0.4225 -0.2483  0.6567
 6002SOL    HW129468   1.836   1.438   3.141  2.4492 -0.4773  0.8272
 6002SOL    HW229469   1.907   1.306   3.123  0.6550 -0.9029  2.0992
 6003SOL     OW29470   3.206   3.826   8.130  0.5487 -0.2530 -0.0623
 6003SOL    HW129471   3.239   3.826   8.040 -0.1511  1.9646 -0.3285
 6003SOL    HW229472   3.112   3.823   8.117  0.5660  0.2083 -0.3022
 6004SOL     OW29473   1.887   3.618  15.556 -0.3641  0.1648 -0.0465
 6004SOL    HW129474   1.945   3.681  15.597  0.0454  0.1228 -0.5558
 6004SOL    HW229475   1.801   3.661  15.552 -1.0874 -1.2163  0.8794
 6005SOL     OW29476   2.321   3.700   0.786  0.7261  0.0267  0.4426
 6005SOL    HW129477   2.234   3.663   0.771  0.2385  1.1703  0.4511
 6005SOL    HW229478   2.344   3.692   0.694  1.7399 -1.2294  0.8044
 6006SOL     OW29479   1.702   2.558   0.100 -0.1933 -0.1759 -0.1519
 6006SOL    HW129480   1.787   2.541   0.140  0.7021 -1.6337 -2.6569
 6006SOL    HW229481   1.665   2.619   0.164 -1.4862  1.6146 -2.5869
 6007SOL     OW29482   1.182   1.750   8.511  0.4296 -0.1302 -0.0324
 6007SOL    HW129483   1.240   1.773   8.583 -0.1832 -1.4746  0.8979
 6007SOL    HW229484   1.099   1.729   8.552 -0.4175 -0.2307 -1.8178
 6008SOL     OW29485   0.322   1.118   7.005  0.4858 -0.1381  0.3308
 6008SOL    HW129486   0.389   1.055   6.982 -0.6780 -1.1657 -0.2616
 6008SOL    HW229487   0.343   1.137   7.096  2.7004  0.1245 -0.2371
 6009SOL     OW29488   4.294   3.012   6.635 -0.3626  0.4850  0.1094
 6009SOL    HW129489   4.272   3.105   6.631 -1.9761  0.1146  0.2381
 6009SOL    HW229490   4.361   3.004   6.703 -0.0770 -0.2919 -0.2567
 6010SOL     OW29491   0.109   1.283   2.794 -0.1356 -0.4379 -0.2449
 6010SOL    HW129492   0.022   1.315   2.818  0.9089  1.6601  0.7959
 6010SOL    HW229493   0.118   1.327   2.709 -0.0394 -1.6912 -0.8783
 6011SOL     OW29494   1.160   3.364  17.050 -0.2954  0.1062 -0.3409
 6011SOL    HW129495   1.148   3.299  17.119 -0.2417 -0.1659 -0.5892
 6011SOL    HW229496   1.188   3.309  16.977  0.8117 -0.3565  0.4148
 6012SOL     OW29497   3.262   1.398   3.289 -0.1313  0.2641  0.7354
 6012SOL    HW129498   3.329   1.460   3.258  0.4757 -1.4712 -1.4341
 6012SOL    HW229499   3.188   1.458   3.291 -0.1024  0.2986  0.7938
 6013SOL     OW29500   4.198   1.540   8.507  0.2754 -0.4979 -0.5829
 6013SOL    HW129501   4.243   1.545   8.423 -1.1418 -1.7330 -1.3976
 6013SOL    HW229502   4.237   1.616   8.551  1.7882 -2.0243  0.7326
 6014SOL     OW29503   2.038   2.288   5.774 -1.0415  0.0131 -0.1649
 6014SOL    HW129504   2.094   2.212   5.789 -0.2672  0.5631 -0.2944
 6014SOL    HW229505   1.950   2.251   5.784 -1.3925  0.5044 -1.4313
 6015SOL     OW29506   3.104   3.257   2.843  0.7521 -0.1187 -0.2322
 6015SOL    HW129507   3.093   3.313   2.766 -0.1392 -1.1145 -0.8367
 6015SOL    HW229508   3.182   3.214   2.808 -1.1167 -1.5916 -2.5499
 6016SOL     OW29509   3.309   2.043  12.561  0.9324  0.3891 -0.5038
 6016SOL    HW129510   3.382   2.011  12.613  0.7375  0.2409 -0.3262
 6016SOL    HW229511   3.296   2.133  12.593 -1.0678 -0.1863  0.3088
 6017SOL     OW29512   3.556   0.440   8.651 -0.0176  0.3506  0.2422
 6017SOL    HW129513   3.531   0.532   8.646  1.1342  0.6033 -1.0944
 6017SOL    HW229514   3.632   0.450   8.709 -1.4470  1.9584  1.8081
 6018SOL     OW29515   3.742   4.649  11.862  0.6153  0.1985  0.4856
 6018SOL    HW129516   3.664   4.639  11.917  1.1849 -4.5179  0.4306
 6018SOL    HW229517   3.749   0.022  11.863  2.2305  0.0890  0.1782
 6019SOL     OW29518   1.783   1.490   9.069  0.3686 -0.1146 -0.2925
 6019SOL    HW129519   1.796   1.531   8.984 -2.0169  0.0036 -0.5823
 6019SOL    HW229520   1.718   1.546   9.111  0.5915  0.3982 -0.6454
 6020SOL     OW29521   0.964   2.465   3.195 -0.5048  0.4696  0.3046
 6020SOL    HW129522   0.998   2.440   3.109  1.9562 -1.2333  1.7625
 6020SOL    HW229523   1.047   2.485   3.239 -0.2019 -0.4465  0.1493
 6021SOL     OW29524   3.845   0.609   9.155  0.3426 -0.0244 -0.0161
 6021SOL    HW129525   3.886   0.538   9.204  0.9236 -0.6777 -1.4331
 6021SOL    HW229526   3.907   0.609   9.082  0.6548 -0.0819  0.2493
 6022SOL     OW29527   4.059   3.425  13.343  0.8321 -0.1440  0.1635
 6022SOL    HW129528   3.989   3.400  13.283  0.6743  3.2205 -1.0417
 6022SOL    HW229529   4.126   3.357  13.331  0.9001  0.7163 -4.3457
 6023SOL     OW29530   1.418   0.909   0.208 -0.0085  0.6670 -0.1903
 6023SOL    HW129531   1.451   0.820   0.206  0.3187  0.7319  1.8804
 6023SOL    HW229532   1.470   0.948   0.138  0.1924 -0.7997 -0.8339
 6024SOL     OW29533   3.176   0.528   9.274  0.4073 -0.3944  0.4331
 6024SOL    HW129534   3.225   0.447   9.257  0.4010 -0.2783 -0.1544
 6024SOL    HW229535   3.211   0.597   9.217  1.6795  0.3892  2.1553
 6025SOL     OW29536   2.016   2.710  17.508 -0.2427 -0.2983 -0.1778
 6025SOL    HW129537   2.035   2.666  17.591 -0.2986 -0.1216 -0.0730
 6025SOL    HW229538   2.096   2.761  17.498 -1.3861  2.0221  2.3951
 6026SOL     OW29539   2.425   3.532   7.865  0.3700  0.4797 -0.2068
 6026SOL    HW129540   2.478   3.482   7.927 -1.2107 -0.4555  0.3887
 6026SOL    HW229541   2.409   3.459   7.805  0.9806 -1.4309  1.9612
 6027SOL     OW29542   4.073   1.087   4.341 -0.5713 -0.3752  0.2856
 6027SOL    HW129543   3.998   1.083   4.281 -0.5472 -1.3654  0.3243
 6027SOL    HW229544   4.143   1.114   4.281  0.6822 -0.0824  1.9063
 6028SOL     OW29545   0.951   2.220   3.927 -0.6991 -0.0663  0.1377
 6028SOL    HW129546   0.966   2.128   3.950 -3.2915 -0.6816 -0.6797
 6028SOL    HW229547   1.035   2.240   3.885 -0.5785  3.0900  1.8544
 6029SOL     OW29548   0.630   4.063   6.571  0.8565  0.0700  0.3602
 6029SOL    HW129549   0.544   4.091   6.603  1.1809  1.3193  0.1242
 6029SOL    HW229550   0.619   3.968   6.564  0.6118  0.0930  0.4402
 6030SOL     OW29551   4.602   3.616   4.010 -0.0212  0.3469  0.4948
 6030SOL    HW129552   4.615   3.536   3.960  0.8487  1.9452 -1.8471
 6030SOL    HW229553   4.526   3.593   4.063 -2.0608  2.7307 -1.3450
 6031SOL     OW29554   2.196   3.193   9.998 -0.3441  0.7168  0.3002
 6031SOL    HW129555   2.112   3.239   9.996 -2.2148 -2.8568 -2.7258
 6031SOL    HW229556   2.157   3.107  10.012 -0.0752  0.4025 -0.8960
 6032SOL     OW29557   2.773   4.128   8.069 -0.4800 -0.1610 -0.0012
 6032SOL    HW129558   2.735   4.046   8.102 -1.3281 -0.0454 -0.6873
 6032SOL    HW229559   2.774   4.108   7.975  0.5228 -2.3300  0.4758
 6033SOL     OW29560   4.619   4.219   6.392  0.0808  0.1780 -0.4328
 6033SOL    HW129561   4.547   4.278   6.369 -0.9288 -0.0996  2.0679
 6033SOL    HW229562   4.657   4.252   6.473  0.6975  0.1217 -0.7020
 6034SOL     OW29563   4.538   1.514   9.308 -0.5174 -0.1114 -0.0355
 6034SOL    HW129564   4.572   1.429   9.338 -0.7652 -0.9258 -2.0401
 6034SOL    HW229565   4.473   1.529   9.377  0.7499  0.2059  1.0714
 6035SOL     OW29566   3.929   3.166   3.543  0.3726  0.0900 -0.2393
 6035SOL    HW129567   3.884   3.223   3.480  0.0637 -1.2288 -1.2128
 6035SOL    HW229568   3.854   3.113   3.571 -1.2340  0.9245 -2.9753
 6036SOL     OW29569   2.310   0.098   2.502 -0.1312  0.3337  0.5373
 6036SOL    HW129570   2.397   0.057   2.504 -0.2022  0.0744 -1.5318
 6036SOL    HW229571   2.312   0.108   2.406  1.1234 -0.5867  0.4623
 6037SOL     OW29572   1.195   0.709   7.253 -0.4419 -0.2954  0.5820
 6037SOL    HW129573   1.264   0.715   7.188  0.3507 -1.4137  1.3303
 6037SOL    HW229574   1.234   0.783   7.300 -0.1821  0.2420 -0.4793
 6038SOL     OW29575   1.071   1.850  12.879 -0.0979  0.1054 -0.7482
 6038SOL    HW129576   1.036   1.761  12.876  0.4813 -0.1556  0.3586
 6038SOL    HW229577   1.163   1.829  12.893 -0.3614 -0.7393 -0.2794
 6039SOL     OW29578   3.081   1.008   4.206 -0.3272  0.0346  0.5339
 6039SOL    HW129579   3.012   1.000   4.140 -0.8610  0.6866  1.0155
 6039SOL    HW229580   3.072   1.101   4.225 -1.5139 -0.2911  1.6139
 6040SOL     OW29581   0.063   1.319   6.264  0.0660  0.1037  0.3315
 6040SOL    HW129582   0.063   1.389   6.199 -1.1758 -0.4310 -0.2404
 6040SOL    HW229583   0.002   1.259   6.221 -0.9201  1.4010 -0.0869
 6041SOL     OW29584   1.162   0.809  15.652 -0.1018  0.1054  0.1729
 6041SOL    HW129585   1.175   0.718  15.625 -0.7447 -0.6710  2.5097
 6041SOL    HW229586   1.238   0.848  15.608 -0.9732  2.4861  0.7984
 6042SOL     OW29587   3.831   0.984   1.003 -0.6978 -0.0471  0.3011
 6042SOL    HW129588   3.851   1.078   1.008  1.6186 -0.3740 -2.5534
 6042SOL    HW229589   3.737   0.993   1.016 -0.3764  2.6828  0.8395
 6043SOL     OW29590   0.995   4.186  12.727 -0.6569  0.0751 -0.4873
 6043SOL    HW129591   1.002   4.271  12.684 -2.1045  0.9619  0.9979
 6043SOL    HW229592   0.998   4.133  12.647 -0.0248  0.7784 -0.9215
 6044SOL     OW29593   1.586   3.664   7.261  0.4321 -0.5117 -0.7626
 6044SOL    HW129594   1.616   3.707   7.182 -0.7128  0.2515 -0.7803
 6044SOL    HW229595   1.571   3.574   7.232  0.4151 -1.5019  2.2367
 6045SOL     OW29596   3.382   2.464   6.993  0.0171 -0.0725 -0.2327
 6045SOL    HW129597   3.342   2.387   6.953 -0.1040  0.6146 -1.4232
 6045SOL    HW229598   3.450   2.487   6.930 -0.2347  1.7083  0.1561
 6046SOL     OW29599   4.323   3.511   9.676 -0.3449 -0.5343  0.5702
 6046SOL    HW129600   4.390   3.442   9.680 -0.1309 -0.5514 -3.4998
 6046SOL    HW229601   4.303   3.506   9.583 -0.9224 -2.7229  0.8083
 6047SOL     OW29602   1.873   3.613   0.905  0.4346 -0.8784  0.3800
 6047SOL    HW129603   1.794   3.642   0.860  1.4411 -1.3414 -1.6603
 6047SOL    HW229604   1.937   3.611   0.835  0.5532 -1.6391  0.5048
 6048SOL     OW29605   2.650   3.997  14.904  0.4687  0.4954 -0.3015
 6048SOL    HW129606   2.636   3.913  14.948  2.7327 -1.4286 -3.3060
 6048SOL    HW229607   2.558   4.023  14.908 -0.0218 -1.3250  0.1708
 6049SOL     OW29608   2.143   0.679   1.104  0.1106  0.0497  0.9290
 6049SOL    HW129609   2.219   0.659   1.050 -1.3551 -0.4190 -0.9733
 6049SOL    HW229610   2.110   0.602   1.149 -0.5243 -0.0248  0.3416
 6050SOL     OW29611   2.534   4.091   6.004  0.1775  0.2669 -0.0153
 6050SOL    HW129612   2.530   4.050   5.917  1.0724 -0.5640  0.3416
 6050SOL    HW229613   2.553   4.026   6.071  1.6895  0.7440  0.0078
 6051SOL     OW29614   0.123   4.577   2.083 -0.2309 -0.0059  0.4511
 6051SOL    HW129615   0.195   4.626   2.122 -0.4784  1.4933 -0.9933
 6051SOL    HW229616   0.077   4.550   2.163 -0.0395 -1.1417  0.1809
 6052SOL     OW29617   1.152   0.327   5.128  0.2071  0.5383 -0.4594
 6052SOL    HW129618   1.151   0.242   5.171  0.7589  0.7304 -0.0655
 6052SOL    HW229619   1.072   0.318   5.076 -0.8298  0.0340  1.2240
 6053SOL     OW29620   0.692   2.098  12.657 -0.7475  0.3271 -0.2414
 6053SOL    HW129621   0.755   2.027  12.642 -0.9782  0.7734 -3.2858
 6053SOL    HW229622   0.618   2.044  12.687  0.1764 -1.3764 -1.0508
 6054SOL     OW29623   0.147   1.262   8.833 -0.2923  0.1843  0.7330
 6054SOL    HW129624   0.193   1.341   8.804  1.2482 -0.9199  0.2064
 6054SOL    HW229625   0.094   1.295   8.905 -2.2252  1.2607 -1.1580
 6055SOL     OW29626   3.716   2.952   2.393  0.1196 -0.5721  0.0135
 6055SOL    HW129627   3.681   3.038   2.367  0.5863  0.3038  2.3132
 6055SOL    HW229628   3.805   2.977   2.419  0.4216 -2.8812  1.1813
 6056SOL     OW29629   4.205   1.088   5.883 -0.6274  0.1742  0.3104
 6056SOL    HW129630   4.128   1.031   5.874  0.6565 -0.8708 -3.9573
 6056SOL    HW229631   4.275   1.024   5.895 -1.5728 -1.3615 -2.5177
 6057SOL     OW29632   1.163   0.956   1.658  0.4023 -0.0249  0.2624
 6057SOL    HW129633   1.245   0.953   1.608 -0.0103  2.5468 -0.5718
 6057SOL    HW229634   1.203   0.927   1.740  0.1059  1.0030  0.7769
 6058SOL     OW29635   0.368   4.491   9.069  0.0191 -0.2525  0.4528
 6058SOL    HW129636   0.298   4.467   9.129  0.5105  0.0628  1.1497
 6058SOL    HW229637   0.432   4.523   9.132  0.8873 -0.7913 -0.1507
 6059SOL     OW29638   4.461   1.909   3.129  0.1391 -0.1255  0.0977
 6059SOL    HW129639   4.506   1.992   3.110  0.2960 -0.6830 -2.0220
 6059SOL    HW229640   4.371   1.935   3.150  0.9059  1.0151  1.9733
 6060SOL     OW29641   4.293   1.581   2.880 -0.2778  0.0986  0.4141
 6060SOL    HW129642   4.321   1.640   2.810 -2.0146  1.4597  0.8601
 6060SOL    HW229643   4.297   1.494   2.840  0.4544 -0.3839  1.5402
 6061SOL     OW29644   4.475   4.654   6.979  0.1384 -0.2617  0.0376
 6061SOL    HW129645   4.416   4.672   6.906  2.5371 -0.2731 -1.8947
 6061SOL    HW229646   4.444   4.577   7.026  0.0301 -1.5460 -2.1344
 6062SOL     OW29647   1.017   2.858   1.200 -0.4273 -0.0538 -0.3560
 6062SOL    HW129648   1.086   2.904   1.152 -0.9866  1.3865  0.2128
 6062SOL    HW229649   1.053   2.863   1.289  0.7504  1.5306 -0.9122
 6063SOL     OW29650   0.941   3.544   6.019  0.1157  0.2171 -0.4221
 6063SOL    HW129651   0.861   3.507   5.982 -0.1565  0.8521 -0.4707
 6063SOL    HW229652   0.942   3.488   6.097  2.3717 -0.0036 -0.6148
 6064SOL     OW29653   4.438   2.922  11.725  1.2703 -0.1029  0.0608
 6064SOL    HW129654   4.512   2.982  11.729 -0.4773  2.0902 -0.3219
 6064SOL    HW229655   4.359   2.971  11.747  2.3910  0.4821  2.7193
 6065SOL     OW29656   0.164   1.707   6.343  0.0488 -0.4467  0.2138
 6065SOL    HW129657   0.169   1.639   6.276  0.0721  0.2169 -0.4480
 6065SOL    HW229658   0.073   1.736   6.344 -0.1139 -1.0031  1.9384
 6066SOL     OW29659   1.652   2.687   7.916 -0.5483 -0.2372  0.6702
 6066SOL    HW129660   1.682   2.690   8.008  0.2861 -1.3001  0.4300
 6066SOL    HW229661   1.739   2.691   7.875  0.0493  2.2793  2.1765
 6067SOL     OW29662   1.433   2.943   8.245 -0.1181  0.2466 -0.2367
 6067SOL    HW129663   1.429   3.011   8.312  0.3903 -0.2458  0.3069
 6067SOL    HW229664   1.361   2.973   8.190  2.8019  2.6876 -2.7069
 6068SOL     OW29665   1.598   0.697   7.596 -0.4297 -0.0774 -0.5619
 6068SOL    HW129666   1.564   0.734   7.515 -1.1036 -2.4558 -1.3745
 6068SOL    HW229667   1.532   0.712   7.663 -0.9312 -2.5024 -0.4912
 6069SOL     OW29668   1.452   3.393   3.680  0.1026  0.3014  0.0049
 6069SOL    HW129669   1.426   3.436   3.762 -2.2266 -0.8901 -0.1066
 6069SOL    HW229670   1.461   3.303   3.711  2.1728 -0.5727 -3.1796
 6070SOL     OW29671   0.289   3.096   3.909  0.0274  0.0802 -0.2219
 6070SOL    HW129672   0.360   3.035   3.928 -0.8749 -0.8705  0.1165
 6070SOL    HW229673   0.284   3.138   3.994  1.8921 -0.6429  0.2477
 6071SOL     OW29674   3.124   1.944  14.089 -0.4432  1.1160 -0.3224
 6071SOL    HW129675   3.129   2.030  14.046 -1.9391  1.9211  1.1054
 6071SOL    HW229676   3.135   1.978  14.178 -1.0891  0.4046  0.0185
 6072SOL     OW29677   2.827   0.720   4.426  0.5028 -0.2863 -1.1729
 6072SOL    HW129678   2.769   0.644   4.432  0.5795 -0.4313 -2.2841
 6072SOL    HW229679   2.903   0.667   4.402  0.6110 -0.2587 -0.8921
 6073SOL     OW29680   1.094   0.901   8.104 -0.4650 -0.8670  0.2688
 6073SOL    HW129681   1.119   0.812   8.127 -1.3861 -0.9329  1.0223
 6073SOL    HW229682   1.046   0.889   8.022  0.8721  1.5163 -0.8547
 6074SOL     OW29683   1.897   1.066   3.305 -0.2208  0.1456  1.1364
 6074SOL    HW129684   1.948   1.130   3.255  1.4046 -1.6861  0.4425
 6074SOL    HW229685   1.836   1.124   3.351  1.0807  1.2880  1.4382
 6075SOL     OW29686   4.170   3.434   5.289 -0.3504  0.1353  0.6142
 6075SOL    HW129687   4.110   3.359   5.292  3.0522 -2.7029 -1.5609
 6075SOL    HW229688   4.186   3.447   5.196  0.8263  1.7413  1.0257
 6076SOL     OW29689   4.068   2.936  11.496  0.1852  0.3270  0.3503
 6076SOL    HW129690   4.159   2.964  11.487  0.6763 -1.6977 -0.8050
 6076SOL    HW229691   4.043   2.936  11.404  0.3967  1.4532  0.2842
 6077SOL     OW29692   2.112   2.961   7.372 -0.4074  0.1119 -0.4332
 6077SOL    HW129693   2.137   3.052   7.390 -1.4426  0.0801  1.2138
 6077SOL    HW229694   2.195   2.915   7.389  0.4601  1.4911 -0.9430
 6078SOL     OW29695   1.187   3.979   3.598 -0.0621 -0.4273 -0.6764
 6078SOL    HW129696   1.223   4.026   3.673 -1.2932 -0.0486 -0.3233
 6078SOL    HW229697   1.096   4.010   3.590  0.5607  1.6609  0.4714
 6079SOL     OW29698   1.222   4.405   6.599 -0.3845 -0.2361  0.5655
 6079SOL    HW129699   1.221   4.483   6.544  2.7172 -1.2640 -1.0113
 6079SOL    HW229700   1.138   4.407   6.644 -1.2903 -0.0652 -1.1259
 6080SOL     OW29701   0.795   1.531  13.074 -0.0063  0.6367 -0.4594
 6080SOL    HW129702   0.848   1.488  13.141  0.4948  0.9631 -0.6450
 6080SOL    HW229703   0.702   1.519  13.092  0.2272 -0.7742 -0.1740
 6081SOL     OW29704   0.085   3.690   2.539 -0.1497 -0.2385  0.2951
 6081SOL    HW129705   0.007   3.672   2.487 -0.8790  0.2137  1.2446
 6081SOL    HW229706   0.102   3.775   2.499  0.0853 -1.7518 -2.9025
 6082SOL     OW29707   0.105   1.812   4.766  0.4187  0.4083 -0.3097
 6082SOL    HW129708   0.173   1.825   4.699  1.7324  0.3626  1.0224
 6082SOL    HW229709   0.156   1.815   4.846  1.7144  2.8755 -1.2255
 6083SOL     OW29710   2.829   2.261   5.418 -0.2638  0.2217  0.1216
 6083SOL    HW129711   2.873   2.322   5.359 -1.0488  1.0406  0.3896
 6083SOL    HW229712   2.741   2.270   5.383 -0.5057  0.5424  0.8226
 6084SOL     OW29713   3.087   2.769   2.889  0.2065  0.0407  0.4011
 6084SOL    HW129714   3.137   2.708   2.943 -0.0646 -1.0489 -0.5740
 6084SOL    HW229715   3.091   2.711   2.812  2.0423  0.3779  0.2391
 6085SOL     OW29716   0.170   2.391   9.968  0.0254  0.1682  0.4495
 6085SOL    HW129717   0.114   2.455  10.012 -2.1565 -1.0218 -0.5598
 6085SOL    HW229718   0.206   2.434   9.890  0.9395  0.0919  0.8362
 6086SOL     OW29719   0.496   2.640   6.577 -0.4323 -0.3899  0.2664
 6086SOL    HW129720   0.479   2.551   6.546 -3.6012  0.2613  0.1850
 6086SOL    HW229721   0.503   2.690   6.496 -0.6185  1.6652  1.5066
 6087SOL     OW29722   2.818   0.771  10.020  0.2216 -0.3013 -0.2076
 6087SOL    HW129723   2.878   0.793   9.948  2.8688 -3.2417  1.0977
 6087SOL    HW229724   2.769   0.852  10.031  0.7427 -0.0515  0.2744
 6088SOL     OW29725   3.857   2.637   5.543 -0.3702 -0.2464 -0.3378
 6088SOL    HW129726   3.938   2.682   5.520 -1.0618  2.3147  2.1950
 6088SOL    HW229727   3.810   2.702   5.596  0.3537 -1.2190  1.5136
 6089SOL     OW29728   2.623   3.906   8.229  0.1952  0.4708 -0.4300
 6089SOL    HW129729   2.578   3.824   8.209  0.9807  0.0075 -0.2967
 6089SOL    HW229730   2.694   3.871   8.283  1.1348  2.0423 -0.6636
 6090SOL     OW29731   0.698   0.832   8.513 -0.1389 -0.1826 -0.0780
 6090SOL    HW129732   0.776   0.866   8.470  0.7087 -2.5358 -0.3827
 6090SOL    HW229733   0.726   0.818   8.604 -0.7519 -1.2412 -0.0527
 6091SOL     OW29734   0.280   3.450  14.791  0.1625 -0.2367  0.0866
 6091SOL    HW129735   0.315   3.515  14.730 -1.0379 -0.5533 -0.9371
 6091SOL    HW229736   0.196   3.485  14.822  1.1442  2.0468  0.1549
 6092SOL     OW29737   3.620   0.676  13.157  0.2005 -0.3434  0.2348
 6092SOL    HW129738   3.588   0.632  13.236 -1.3787  1.1134  0.4059
 6092SOL    HW229739   3.540   0.700  13.111  1.8611  1.2847 -1.8131
 6093SOL     OW29740   0.843   2.734   4.088 -0.1585 -0.7563  0.2722
 6093SOL    HW129741   0.925   2.685   4.092  0.4083  0.2750  1.3731
 6093SOL    HW229742   0.880   2.822   4.092 -1.1028 -0.4727  3.1299
 6094SOL     OW29743   1.758   1.587   7.364  0.1514  0.0320 -0.3947
 6094SOL    HW129744   1.735   1.585   7.457 -3.7515  0.1508 -1.3502
 6094SOL    HW229745   1.846   1.624   7.362 -0.7882  2.2287 -1.2318
 6095SOL     OW29746   2.301   2.276   6.834 -0.2992 -0.0226  0.1782
 6095SOL    HW129747   2.228   2.239   6.884 -0.5247  2.1173  1.3964
 6095SOL    HW229748   2.307   2.368   6.859  0.8837 -0.1533  0.3645
 6096SOL     OW29749   1.568   3.916   6.742  0.2407  0.4560 -0.5756
 6096SOL    HW129750   1.475   3.920   6.763  0.4902 -2.3878  1.0199
 6096SOL    HW229751   1.550   3.983   6.676  0.2235  0.8887 -0.1303
 6097SOL     OW29752   0.402   3.389   8.600 -0.3988 -0.0293 -0.3352
 6097SOL    HW129753   0.427   3.452   8.668  2.0425 -0.9735 -0.3381
 6097SOL    HW229754   0.333   3.443   8.561 -1.8988 -0.4936  1.7004
 6098SOL     OW29755   3.383   2.989   9.697  0.5058  0.4297 -0.2493
 6098SOL    HW129756   3.353   3.057   9.636  0.0852 -1.0340 -1.6471
 6098SOL    HW229757   3.452   3.040   9.740  0.2303 -0.3291  1.1114
 6099SOL     OW29758   2.475   2.063   3.095 -0.5148 -0.5692  0.3767
 6099SOL    HW129759   2.556   2.059   3.045 -0.2729 -0.3396  0.7462
 6099SOL    HW229760   2.469   2.158   3.107 -0.1741 -0.2453 -2.0756
 6100SOL     OW29761   0.196   4.057  12.523 -0.2439 -0.6763  0.4390
 6100SOL    HW129762   0.276   4.007  12.513  0.2008  0.2765 -0.7352
 6100SOL    HW229763   0.186   4.088  12.433  2.0318 -1.4339 -0.0677
 6101SOL     OW29764   0.019   1.852   9.940 -0.0112  0.1904 -0.4297
 6101SOL    HW129765   0.057   1.937   9.965  0.3038  0.3373 -1.4171
 6101SOL    HW229766   4.667   1.879   9.887  0.2245 -1.3936 -1.5348
 6102SOL     OW29767   0.671   0.222   9.343  0.1720  0.5917 -0.5602
 6102SOL    HW129768   0.746   0.165   9.360  1.3748  2.5407  0.6402
 6102SOL    HW229769   0.705   0.310   9.358  2.3803 -0.7967  2.5209
 6103SOL     OW29770   0.759   2.968   7.653 -0.6098  0.1153 -0.6555
 6103SOL    HW129771   0.727   2.892   7.605 -0.1447  0.2545 -1.1856
 6103SOL    HW229772   0.848   2.963   7.619  0.7873  1.0228  2.7845
 6104SOL     OW29773   2.955   0.985   3.953 -0.2078 -0.3687 -0.6251
 6104SOL    HW129774   2.944   0.947   3.866  0.1221 -0.4528 -0.6303
 6104SOL    HW229775   3.024   1.051   3.942 -1.3505  0.9127 -0.0362
 6105SOL     OW29776   4.498   0.455   4.937  0.3005  0.0377 -0.0673
 6105SOL    HW129777   4.581   0.470   4.982 -0.1315  2.1198  0.0564
 6105SOL    HW229778   4.513   0.370   4.897 -0.5222  0.1092 -0.5409
 6106SOL     OW29779   3.047   1.434  16.649  0.2371 -0.3249  0.2602
 6106SOL    HW129780   3.139   1.408  16.639  0.2877 -0.7418  1.8031
 6106SOL    HW229781   3.033   1.420  16.742  1.9505  2.8629  1.0029
 6107SOL     OW29782   0.688   4.705  15.867 -0.2223  0.5262 -0.2970
 6107SOL    HW129783   0.600   0.021  15.871 -0.0590  1.0567 -1.9175
 6107SOL    HW229784   0.708   4.709  15.961  0.3694  0.1717 -0.4081
 6108SOL     OW29785   4.074   1.893   2.338 -0.3138  0.2077 -0.2045
 6108SOL    HW129786   4.149   1.941   2.303 -0.0755  0.6661  0.9205
 6108SOL    HW229787   4.124   1.817   2.368 -0.2080  0.6470  0.7426
 6109SOL     OW29788   2.310   3.407   5.559  0.0271  0.7467 -0.4760
 6109SOL    HW129789   2.228   3.362   5.542  0.2354 -0.2774  1.2822
 6109SOL    HW229790   2.354   3.384   5.477  0.7045  0.9542 -0.1685
 6110SOL     OW29791   0.914   3.692   8.472 -0.4491 -0.2351  0.0918
 6110SOL    HW129792   0.980   3.638   8.429  0.1244  0.3876  0.1989
 6110SOL    HW229793   0.850   3.692   8.400 -2.0299 -1.0240  1.4924
 6111SOL     OW29794   3.314   4.430   3.592 -0.2800  0.2532 -0.0687
 6111SOL    HW129795   3.266   4.467   3.518 -1.5395 -0.6940  0.2678
 6111SOL    HW229796   3.397   4.476   3.591 -0.9455  1.4066 -2.3145
 6112SOL     OW29797   3.026   2.808   2.110  0.2696 -0.3245  0.3089
 6112SOL    HW129798   2.996   2.762   2.188  2.1522  1.5868  2.1550
 6112SOL    HW229799   3.037   2.732   2.054  2.3850 -0.9078  1.5424
 6113SOL     OW29800   2.143   1.084  16.728 -0.0775 -0.4122  0.5576
 6113SOL    HW129801   2.151   1.015  16.794 -1.0224 -0.4947  0.5802
 6113SOL    HW229802   2.139   1.161  16.784  0.0029 -0.5543  0.7601
 6114SOL     OW29803   3.231   2.214   6.837 -0.1481  0.2108 -0.4667
 6114SOL    HW129804   3.158   2.175   6.884 -1.6877  1.6261 -1.6547
 6114SOL    HW229805   3.202   2.255   6.756 -0.1489  0.6224 -0.2575
 6115SOL     OW29806   4.395   1.561  15.168  0.7983 -0.0818  0.1919
 6115SOL    HW129807   4.334   1.488  15.155 -0.1987  0.8561 -0.4062
 6115SOL    HW229808   4.452   1.549  15.244  1.5439  0.3126 -0.3004
 6116SOL     OW29809   4.656   4.283   4.631 -0.1272  1.0611 -0.6900
 6116SOL    HW129810   0.003   4.347   4.613  0.0912  0.6609 -1.2801
 6116SOL    HW229811   4.675   4.221   4.560  0.5415 -0.0231  0.4223
 6117SOL     OW29812   1.164   0.147   5.614  0.4704 -0.0100 -0.6207
 6117SOL    HW129813   1.182   0.068   5.665 -2.2774 -0.0195  0.3171
 6117SOL    HW229814   1.217   0.120   5.539 -0.2643 -0.1752 -1.0901
 6118SOL     OW29815   4.300   3.097   2.350  0.3330  0.5827 -0.2712
 6118SOL    HW129816   4.270   3.008   2.330 -0.2201  0.2700  1.9791
 6118SOL    HW229817   4.219   3.144   2.330  0.5257  1.0657  0.0665
 6119SOL     OW29818   2.952   1.016  10.198  0.1410  0.2922  0.4468
 6119SOL    HW129819   2.889   1.052  10.136  1.3439  0.0098 -0.9240
 6119SOL    HW229820   3.032   1.062  10.171 -0.5537  0.5232 -1.2101
 6120SOL     OW29821   1.071   4.113  16.160  0.0655 -0.1881  0.0861
 6120SOL    HW129822   1.150   4.147  16.118 -0.3368 -0.3654 -0.8085
 6120SOL    HW229823   1.012   4.172  16.112 -0.8022 -1.3263 -0.2412
 6121SOL     OW29824   3.356   0.378   8.239  0.1683  0.5158 -0.0790
 6121SOL    HW129825   3.393   0.342   8.159  1.7892  0.7285  0.5614
 6121SOL    HW229826   3.422   0.445   8.259  0.9448 -0.3003  0.0590
 6122SOL     OW29827   1.771   1.048  13.585  0.1733 -0.2049 -0.5178
 6122SOL    HW129828   1.796   0.987  13.515  1.7713 -0.8513  0.6254
 6122SOL    HW229829   1.809   1.010  13.664 -1.9461 -2.0759 -0.3823
 6123SOL     OW29830   4.155   0.026  14.879  0.0330 -0.0718 -0.5005
 6123SOL    HW129831   4.245   0.052  14.896 -0.5713  2.3410 -1.0960
 6123SOL    HW229832   4.181   4.719  14.792  0.0988  0.0970 -0.5371
 6124SOL     OW29833   4.216   0.293  14.697 -0.5756  0.0473  0.3595
 6124SOL    HW129834   4.311   0.288  14.687 -0.4659  0.9260  0.9734
 6124SOL    HW229835   4.197   0.365  14.757  0.5453 -0.6124  1.5193
 6125SOL     OW29836   3.903   2.988  17.555 -0.0456  0.1665  0.3950
 6125SOL    HW129837   3.889   2.910  17.608 -0.2824 -0.7998 -1.0907
 6125SOL    HW229838   3.836   3.047  17.588  2.3883  4.3889 -2.2015
 6126SOL     OW29839   3.814   0.700   8.537 -0.2243  0.8918 -0.9590
 6126SOL    HW129840   3.726   0.696   8.572  0.3412  0.1326  0.3796
 6126SOL    HW229841   3.851   0.754   8.607  0.0442 -0.3361 -0.1423
 6127SOL     OW29842   0.873   2.703   9.074 -0.0512  0.1871  0.0068
 6127SOL    HW129843   0.872   2.621   9.123  0.7749  1.2300  1.7633
 6127SOL    HW229844   0.850   2.674   8.986  0.9645 -2.0997  0.4871
 6128SOL     OW29845   0.670   0.168  13.519 -0.3239 -0.1861 -0.0409
 6128SOL    HW129846   0.671   0.097  13.583 -0.3042  1.4301  1.7223
 6128SOL    HW229847   0.730   0.230  13.559 -1.4866 -0.5400  2.2140
 6129SOL     OW29848   4.013   3.273   4.687  0.4680 -0.6460  0.1295
 6129SOL    HW129849   4.023   3.233   4.773  3.2309 -2.8816 -1.2061
 6129SOL    HW229850   4.057   3.355   4.706 -0.7933 -0.0206  0.3516
 6130SOL     OW29851   1.898   2.273   6.086 -0.0128  0.0189  0.2095
 6130SOL    HW129852   1.976   2.221   6.065  0.6235  0.9604  0.2489
 6130SOL    HW229853   1.824   2.215   6.065 -0.3496  0.8855 -0.9646
 6131SOL     OW29854   4.530   4.305   6.899  0.3893  0.6246 -0.3546
 6131SOL    HW129855   4.554   4.259   6.979 -1.3616  1.1472  0.4866
 6131SOL    HW229856   4.448   4.347   6.925  1.4665  2.7604 -0.4225
 6132SOL     OW29857   1.857   0.739   8.047 -0.0749  1.1105 -0.0981
 6132SOL    HW129858   1.807   0.821   8.052  0.1810  1.2910 -0.5116
 6132SOL    HW229859   1.880   0.726   7.955  0.5102 -0.4457  0.2692
 6133SOL     OW29860   3.367   3.940   5.078 -0.2216  0.2070  0.0584
 6133SOL    HW129861   3.321   3.969   4.999 -1.4738 -2.7883 -0.3142
 6133SOL    HW229862   3.293   3.935   5.138 -0.3387  0.0911 -0.0962
 6134SOL     OW29863   4.200   3.291   6.615  0.1465 -0.2725  0.2218
 6134SOL    HW129864   4.106   3.275   6.604  0.1453 -0.4642  0.5088
 6134SOL    HW229865   4.223   3.325   6.529 -0.2118  0.7448  0.5324
 6135SOL     OW29866   4.426   4.090   2.217 -0.2693  0.0417  0.4374
 6135SOL    HW129867   4.462   4.016   2.168  1.2049  0.3307  1.0730
 6135SOL    HW229868   4.504   4.143   2.231  1.2561 -1.9764 -0.4245
 6136SOL     OW29869   0.372   2.318   8.293  0.1932  0.3098  0.2367
 6136SOL    HW129870   0.376   2.372   8.372 -0.3036 -0.5741  0.8657
 6136SOL    HW229871   0.429   2.372   8.238  1.0657 -1.6844 -0.8590
 6137SOL     OW29872   0.738   4.345  12.873 -0.0997 -0.0273  0.0887
 6137SOL    HW129873   0.657   4.312  12.835 -0.9977  1.8097  0.3815
 6137SOL    HW229874   0.731   4.439  12.855 -1.2103 -0.6956 -2.9277
 6138SOL     OW29875   3.418   1.474   2.174  0.3914  0.2467 -0.0576
 6138SOL    HW129876   3.384   1.403   2.121  0.1040 -0.4337  1.0236
 6138SOL    HW229877   3.415   1.549   2.115  0.9298 -0.5335 -1.0794
 6139SOL     OW29878   0.492   1.234   8.377  0.0929  0.2714 -0.0782
 6139SOL    HW129879   0.445   1.262   8.298  0.5359  2.9368  0.5880
 6139SOL    HW229880   0.468   1.142   8.374 -0.0164  0.2782  0.4566
 6140SOL     OW29881   4.026   2.709  10.128  0.1397  0.3705  0.0545
 6140SOL    HW129882   4.033   2.796  10.090 -0.6604  0.2874 -0.2883
 6140SOL    HW229883   4.070   2.659  10.059 -0.9318 -0.2917 -0.1500
 6141SOL     OW29884   0.045   3.574  14.860 -0.0666  0.0219 -0.0686
 6141SOL    HW129885   4.684   3.563  14.815 -0.7844 -4.0535  2.1894
 6141SOL    HW229886   0.027   3.640  14.927 -0.2401  0.6877 -0.7843
 6142SOL     OW29887   2.162   1.059   7.665  0.1320 -0.5253  0.4671
 6142SOL    HW129888   2.133   1.045   7.755  1.9934 -1.0465  0.9888
 6142SOL    HW229889   2.224   0.986   7.667 -0.4562 -1.0124  1.0123
 6143SOL     OW29890   4.257   0.525   2.616 -0.1194 -0.2375 -0.0801
 6143SOL    HW129891   4.276   0.435   2.592  0.1041 -0.3645  0.5851
 6143SOL    HW229892   4.297   0.578   2.547  1.6667 -1.5749 -0.0531
 6144SOL     OW29893   3.728   0.720   8.291 -0.0939 -0.1524  0.3401
 6144SOL    HW129894   3.692   0.808   8.291  1.5299  0.5103 -2.9670
 6144SOL    HW229895   3.771   0.735   8.375  0.2644  0.4299  0.0490
 6145SOL     OW29896   2.645   1.735   2.266 -0.1033  0.1026 -0.1263
 6145SOL    HW129897   2.645   1.711   2.173 -1.4070 -2.0892  0.4513
 6145SOL    HW229898   2.588   1.670   2.307  1.7009 -1.0579  0.5336
 6146SOL     OW29899   2.255   2.061  10.616 -0.0955  0.7189  0.0664
 6146SOL    HW129900   2.205   2.017  10.685  0.2970 -0.9356 -0.7117
 6146SOL    HW229901   2.314   2.116  10.667  0.4814 -1.5152  1.8181
 6147SOL     OW29902   4.652   0.269  11.662 -0.0823  0.1463 -0.1325
 6147SOL    HW129903   4.690   0.216  11.732 -0.6487 -1.0463 -0.7263
 6147SOL    HW229904   4.574   0.222  11.631  0.8287 -0.2068 -1.9068
 6148SOL     OW29905   2.707   3.481   2.032  0.0445  0.3218 -0.7656
 6148SOL    HW129906   2.696   3.387   2.019 -0.5987  0.3458 -0.4176
 6148SOL    HW229907   2.780   3.478   2.094 -1.4810  3.0822  1.1685
 6149SOL     OW29908   1.200   3.766   8.093 -0.8026 -0.4086  0.2548
 6149SOL    HW129909   1.137   3.734   8.028 -2.6187  1.2264  1.2199
 6149SOL    HW229910   1.178   3.859   8.090 -0.6441 -0.4106 -0.8397
 6150SOL     OW29911   1.552   3.260   1.586 -0.3877 -0.3086 -0.0354
 6150SOL    HW129912   1.546   3.356   1.583 -0.3409 -0.2335  1.9671
 6150SOL    HW229913   1.476   3.239   1.641 -0.0181  1.4563  1.1594
 6151SOL     OW29914   2.917   3.523   2.224  0.0119  0.5316  0.3055
 6151SOL    HW129915   2.935   3.527   2.318 -0.9316 -1.4633  0.5682
 6151SOL    HW229916   2.885   3.611   2.203 -1.8412 -0.0802  0.6401
 6152SOL     OW29917   2.877   1.116   3.668  0.1648 -0.2757  0.1304
 6152SOL    HW129918   2.873   1.023   3.647  1.0274  0.4771 -3.2207
 6152SOL    HW229919   2.967   1.140   3.650 -0.3695  0.7834 -1.1405
 6153SOL     OW29920   0.437   4.553   5.529 -0.4598 -0.0322  0.1374
 6153SOL    HW129921   0.354   4.596   5.509  0.6233  2.8818  1.8803
 6153SOL    HW229922   0.441   4.564   5.624 -1.7972 -0.6210  0.2654
 6154SOL     OW29923   2.741   2.560   9.096 -0.3521  0.5100  0.3670
 6154SOL    HW129924   2.813   2.614   9.061  0.1633  0.4894  1.4136
 6154SOL    HW229925   2.786   2.521   9.170  0.4530 -0.5192 -0.6605
 6155SOL     OW29926   4.135   1.740   1.220 -0.0853 -0.8406 -0.3660
 6155SOL    HW129927   4.134   1.658   1.170 -1.6814 -1.0384 -0.0247
 6155SOL    HW229928   4.216   1.774   1.184 -0.4939 -0.3018 -0.7639
 6156SOL     OW29929   3.095   0.815   7.753  0.0146 -0.2284 -0.3549
 6156SOL    HW129930   3.109   0.898   7.707  0.1989  0.1001  0.3000
 6156SOL    HW229931   3.122   0.748   7.690  2.0752  0.0648  0.1969
 6157SOL     OW29932   3.169   3.589  16.405  0.3870 -0.1505  0.0389
 6157SOL    HW129933   3.200   3.603  16.316  0.1671 -0.4497 -0.0870
 6157SOL    HW229934   3.188   3.497  16.424 -1.3088  0.0329  2.6863
 6158SOL     OW29935   2.756   3.893   3.523 -0.1272  0.0109  0.0131
 6158SOL    HW129936   2.797   3.849   3.448 -0.3474  0.0108 -0.1066
 6158SOL    HW229937   2.667   3.895   3.490 -0.5158  0.4722  1.0983
 6159SOL     OW29938   0.381   1.092   2.475 -0.0865  0.3589 -0.2559
 6159SOL    HW129939   0.455   1.033   2.489  2.4096  2.9763 -2.5092
 6159SOL    HW229940   0.319   1.055   2.538 -1.2791  2.6051 -0.1006
 6160SOL     OW29941   3.451   2.971  13.996 -0.2411 -0.3222  0.3604
 6160SOL    HW129942   3.441   2.978  14.091  0.2093 -0.7323  0.4405
 6160SOL    HW229943   3.504   3.047  13.974  1.0552 -1.2121  0.3858
 6161SOL     OW29944   1.595   2.008  15.012 -0.2834  0.2939  0.0953
 6161SOL    HW129945   1.587   2.094  14.971 -0.7461  0.2257  0.0362
 6161SOL    HW229946   1.654   2.028  15.085 -0.1065 -0.1806  0.0800
 6162SOL     OW29947   0.336   3.614   7.434 -0.6279  0.4874  0.1065
 6162SOL    HW129948   0.291   3.530   7.445 -0.0508 -0.0789 -2.0194
 6162SOL    HW229949   0.303   3.665   7.508  0.7005  1.2438  0.1664
 6163SOL     OW29950   0.189   3.927  12.892  0.7573  0.0480  0.2368
 6163SOL    HW129951   0.254   3.976  12.943  0.8403  1.3520 -1.0956
 6163SOL    HW229952   0.262   3.888  12.843 -0.1099 -1.1361 -0.1005
 6164SOL     OW29953   0.168   0.809  17.187  0.2918  0.1284 -0.1602
 6164SOL    HW129954   0.187   0.719  17.161  1.9096  0.6226 -0.6318
 6164SOL    HW229955   0.108   0.831  17.116  1.2662 -1.8041 -1.5705
 6165SOL     OW29956   4.281   0.580  11.603 -0.2526 -0.1469 -0.0254
 6165SOL    HW129957   4.272   0.485  11.600  0.8445 -0.2661  0.6738
 6165SOL    HW229958   4.319   0.589  11.690 -0.2608  0.8396 -0.1277
 6166SOL     OW29959   0.678   4.591  12.311  0.0054  0.1041  0.2265
 6166SOL    HW129960   0.603   4.644  12.337  1.5331  2.9870 -1.2268
 6166SOL    HW229961   0.699   4.629  12.225  0.3100 -0.8537 -0.1313
 6167SOL     OW29962   3.427   1.426   2.812 -0.2667 -0.3852  0.3567
 6167SOL    HW129963   3.431   1.521   2.802  0.4059 -0.4626 -0.1449
 6167SOL    HW229964   3.501   1.402   2.756  1.2315  0.0916  2.1485
 6168SOL     OW29965   0.586   1.366   1.284 -0.0752 -0.3025 -0.3138
 6168SOL    HW129966   0.542   1.395   1.204  0.0581 -1.8807 -0.9516
 6168SOL    HW229967   0.652   1.304   1.254 -1.2983 -0.8309 -1.8977
 6169SOL     OW29968   1.646   1.468   6.278 -0.2199 -0.2560 -0.2187
 6169SOL    HW129969   1.566   1.446   6.230 -0.0124  0.3087 -0.8318
 6169SOL    HW229970   1.623   1.430   6.362 -0.1641  1.3017  0.4959
 6170SOL     OW29971   2.757   1.712   7.084  0.2933 -0.4839  0.2349
 6170SOL    HW129972   2.675   1.662   7.087 -0.5878  1.0235  1.3555
 6170SOL    HW229973   2.718   1.794   7.052  0.7407 -0.5184 -0.3956
 6171SOL     OW29974   3.019   4.551   4.776 -0.0654  0.8717 -0.1109
 6171SOL    HW129975   2.959   4.480   4.797  1.1607 -0.4309 -0.9877
 6171SOL    HW229976   3.064   4.521   4.697 -0.1801 -1.6751  0.7682
 6172SOL     OW29977   1.262   1.472   8.564  0.0258 -0.3366  0.1818
 6172SOL    HW129978   1.201   1.400   8.583 -1.1458  0.9354  1.3167
 6172SOL    HW229979   1.206   1.520   8.503 -0.4801 -0.9129  0.1807
 6173SOL     OW29980   2.420   2.117   5.838 -0.1353  0.0700  0.1432
 6173SOL    HW129981   2.430   2.194   5.893  0.0491  0.1819 -0.0470
 6173SOL    HW229982   2.462   2.142   5.755  0.8740 -0.0392  0.6194
 6174SOL     OW29983   4.366   2.769  13.227 -0.4181  0.3604 -0.4685
 6174SOL    HW129984   4.337   2.687  13.266  0.8257  0.1845  0.0832
 6174SOL    HW229985   4.290   2.802  13.180 -1.2256 -1.4217 -0.3959
 6175SOL     OW29986   2.387   2.520   0.047  0.3347 -0.4269  0.0274
 6175SOL    HW129987   2.481   2.525   0.068  0.4225  4.5181 -1.6990
 6175SOL    HW229988   2.354   2.567   0.123 -0.4885  1.5346 -1.5718
 6176SOL     OW29989   1.496   0.607  13.893  0.3113  0.7038  0.9974
 6176SOL    HW129990   1.512   0.695  13.860  1.2871 -0.0842 -0.5677
 6176SOL    HW229991   1.507   0.544  13.822 -0.1306  1.7499  0.0125
 6177SOL     OW29992   1.899   1.481   6.396 -0.7968 -0.1375 -0.1017
 6177SOL    HW129993   1.828   1.504   6.336 -2.0842 -2.5954  0.5015
 6177SOL    HW229994   1.916   1.392   6.363 -0.6981  0.1326 -0.7889
 6178SOL     OW29995   1.412   1.635   7.034  0.5337  0.3779  0.1531
 6178SOL    HW129996   1.470   1.561   7.012 -0.8355 -0.4436 -0.6905
 6178SOL    HW229997   1.469   1.680   7.097  2.6996  1.2007 -2.4053
 6179SOL     OW29998   0.457   2.356   3.771 -0.0779 -0.1326  0.3711
 6179SOL    HW129999   0.403   2.383   3.697 -0.8034 -1.6923  0.3236
 6179SOL    HW230000   0.519   2.428   3.782  1.5105 -1.6635  1.5350
 6180SOL     OW30001   0.157   0.154   8.878 -0.3180 -0.6612 -0.1056
 6180SOL    HW130002   0.245   0.123   8.898 -0.4182 -0.8759  0.0012
 6180SOL    HW230003   0.138   0.165   8.971  2.2415  0.2255  0.3153
 6181SOL     OW30004   0.211   1.869   1.985 -0.2652 -0.2020 -0.1073
 6181SOL    HW130005   0.185   1.778   1.971  0.2751 -0.2904 -0.5212
 6181SOL    HW230006   0.278   1.865   2.053 -0.2041  1.2139 -0.0730
 6182SOL     OW30007   2.688   2.135  17.631  0.1767 -0.2487 -0.6340
 6182SOL    HW130008   2.718   2.141  17.540 -1.3576  2.3403 -0.9716
 6182SOL    HW230009   2.727   2.049  17.647 -0.3602 -0.1334  1.2955
 6183SOL     OW30010   0.700   3.017   4.216  0.2637  0.3039 -0.1447
 6183SOL    HW130011   0.791   2.990   4.228  0.0593 -0.2423  0.1554
 6183SOL    HW230012   0.653   2.980   4.291 -1.1904  1.4931 -0.4758
 6184SOL     OW30013   2.507   2.836  17.649 -0.3817  0.1856  0.1572
 6184SOL    HW130014   2.537   2.799   0.040  0.0929 -0.1725 -0.1768
 6184SOL    HW230015   2.468   2.761  17.604 -1.2470  0.8918 -0.2641
 6185SOL     OW30016   0.594   3.311   5.631  0.5017 -0.6316  0.0064
 6185SOL    HW130017   0.583   3.331   5.724  0.4275 -2.8486  0.4887
 6185SOL    HW230018   0.501   3.300   5.610  0.4538 -0.0562 -0.0846
 6186SOL     OW30019   1.429   2.457   3.433 -0.1774  0.0809 -0.4317
 6186SOL    HW130020   1.437   2.382   3.492 -1.7622  1.6809  1.8432
 6186SOL    HW230021   1.498   2.509   3.476 -1.0366 -0.5369  1.6870
 6187SOL     OW30022   2.077   0.745   8.830  0.3860  0.4518 -0.8365
 6187SOL    HW130023   2.088   0.801   8.907  0.5260 -0.8590  0.1037
 6187SOL    HW230024   2.080   0.659   8.871  0.9909  0.7475 -0.2593
 6188SOL     OW30025   2.913   0.402   2.005  0.0159 -0.1607 -0.0745
 6188SOL    HW130026   2.930   0.429   2.095 -1.9564  1.1842 -0.1091
 6188SOL    HW230027   2.940   0.474   1.948 -1.5632  0.9605  0.6109
 6189SOL     OW30028   4.605   0.565   5.209 -0.4187 -0.4486  0.4520
 6189SOL    HW130029   4.673   0.570   5.142 -1.1497 -1.3900 -0.3656
 6189SOL    HW230030   4.615   0.646   5.258  0.5682 -0.3746  0.1204
 6190SOL     OW30031   1.951   2.556   4.929  0.4416 -0.1207  0.3975
 6190SOL    HW130032   1.876   2.502   4.954  0.9262 -2.3138 -2.8872
 6190SOL    HW230033   1.914   2.596   4.850  0.2954 -0.0077  0.5229
 6191SOL     OW30034   3.952   0.827  15.901  0.2883 -0.7256 -0.0260
 6191SOL    HW130035   4.045   0.841  15.921  0.6644 -2.1833 -0.7414
 6191SOL    HW230036   3.913   0.800  15.984 -1.3924 -2.9567 -1.5237
 6192SOL     OW30037   1.885   2.125   1.991 -0.0512 -0.4418 -0.0070
 6192SOL    HW130038   1.843   2.107   2.076  1.4838  1.1521  1.1008
 6192SOL    HW230039   1.847   2.213   1.997  1.9815  0.3126  1.8279
 6193SOL     OW30040   0.476   4.289   5.724  0.0498  0.6491  0.2545
 6193SOL    HW130041   0.507   4.264   5.811  0.4258  0.2001 -0.0054
 6193SOL    HW230042   0.460   4.382   5.739 -1.2250  0.6179 -0.9283
 6194SOL     OW30043   2.012   1.489   2.248  0.3524 -0.4079 -0.3956
 6194SOL    HW130044   1.918   1.471   2.255  0.1526  1.1244  0.9024
 6194SOL    HW230045   2.016   1.552   2.177 -0.1698 -0.4753 -0.4892
 6195SOL     OW30046   0.228   2.981   6.992 -0.3163 -0.4092  0.7377
 6195SOL    HW130047   0.274   3.031   7.059 -1.8756  1.5466  0.3500
 6195SOL    HW230048   0.253   2.891   7.013  0.3243 -0.0393  1.5596
 6196SOL     OW30049   4.040   1.537  15.048 -0.1138 -0.5069 -0.0063
 6196SOL    HW130050   3.969   1.545  14.984 -0.2250  0.9028  0.2808
 6196SOL    HW230051   3.988   1.527  15.128  0.8542  1.7140  0.8964
 6197SOL     OW30052   0.863   0.077   7.818  0.1280 -0.2767 -0.2054
 6197SOL    HW130053   0.881   0.155   7.870 -1.0276 -1.0526  1.3548
 6197SOL    HW230054   0.812   0.120   7.750 -0.5396  0.0267  0.4935
 6198SOL     OW30055   0.271   0.903   6.795 -0.3755 -0.1353 -0.4085
 6198SOL    HW130056   0.214   0.980   6.801  1.2296  0.9870  0.5547
 6198SOL    HW230057   0.275   0.868   6.884  1.0386  0.0075 -0.4165
 6199SOL     OW30058   3.680   3.354  13.356 -0.1246  0.1355 -0.5199
 6199SOL    HW130059   3.715   3.267  13.338 -0.3229  0.4237 -2.3258
 6199SOL    HW230060   3.729   3.409  13.295  1.4903 -1.2548 -0.4757
 6200SOL     OW30061   3.833   0.067   5.397 -0.0842 -0.7762  0.0152
 6200SOL    HW130062   3.810   0.018   5.318 -0.0223 -2.6644  1.1607
 6200SOL    HW230063   3.811   0.003   5.464  0.0942 -0.9199 -0.0614
 6201SOL     OW30064   3.600   3.131   4.108 -0.1035 -0.1856  0.7033
 6201SOL    HW130065   3.541   3.120   4.182  0.0153  0.1552  0.8458
 6201SOL    HW230066   3.683   3.145   4.153 -0.3700 -1.3191  1.5540
 6202SOL     OW30067   3.446   4.623   2.569 -0.1886 -0.0842 -0.3255
 6202SOL    HW130068   3.363   4.605   2.614  0.1558  2.6500  1.3990
 6202SOL    HW230069   3.469   4.712   2.594  1.9660 -0.0211 -2.5606
 6203SOL     OW30070   3.734   2.616   2.404 -0.5704  0.1814  0.0683
 6203SOL    HW130071   3.703   2.630   2.494  0.1404 -2.4838  0.7220
 6203SOL    HW230072   3.760   2.701   2.369  2.0338 -0.6860 -0.0995
 6204SOL     OW30073   4.061   1.693   4.264 -0.1926 -0.5338  0.2931
 6204SOL    HW130074   4.047   1.757   4.334 -1.1762 -1.5694  1.0489
 6204SOL    HW230075   3.988   1.707   4.204  0.3393  1.0081  0.0040
 6205SOL     OW30076   3.448   4.316   6.253  0.1224  0.3195 -0.3280
 6205SOL    HW130077   3.403   4.299   6.336  0.5045 -0.2955 -0.2455
 6205SOL    HW230078   3.432   4.229   6.217 -0.8774  0.1489  0.5278
 6206SOL     OW30079   2.229   0.665   2.513  0.0073  0.4354 -0.1032
 6206SOL    HW130080   2.145   0.675   2.558 -0.0218 -0.3612  0.0052
 6206SOL    HW230081   2.282   0.719   2.572  1.8406 -1.6953  0.1868
 6207SOL     OW30082   3.877   3.570  11.091  0.4016  0.5232 -0.7354
 6207SOL    HW130083   3.812   3.537  11.153  0.4264  0.6815 -0.6224
 6207SOL    HW230084   3.948   3.506  11.094 -0.2198 -0.1837 -1.2013
 6208SOL     OW30085   1.929   4.131   5.295 -0.6062 -0.1352 -0.2930
 6208SOL    HW130086   1.960   4.050   5.255 -2.3113 -1.2220  0.5694
 6208SOL    HW230087   2.006   4.185   5.279 -0.6209  0.1950  0.7567
 6209SOL     OW30088   1.680   0.489   3.605 -0.5449  0.3383  0.2762
 6209SOL    HW130089   1.675   0.400   3.639  2.2849 -0.4816 -1.4116
 6209SOL    HW230090   1.753   0.522   3.658 -1.6855  2.1546  0.7043
 6210SOL     OW30091   0.465   0.625   3.799  0.2439 -0.4083 -0.0993
 6210SOL    HW130092   0.443   0.534   3.777  1.8902 -1.8743  4.3817
 6210SOL    HW230093   0.533   0.636   3.733 -0.0738  1.1328 -0.1553
 6211SOL     OW30094   3.443   1.705   2.818  0.0218 -0.0444  0.4333
 6211SOL    HW130095   3.401   1.743   2.741  1.1007 -0.9441 -0.5907
 6211SOL    HW230096   3.446   1.786   2.868  1.4976 -2.1114  3.7092
 6212SOL     OW30097   2.995   0.574   8.969  0.4452 -0.4466  0.1152
 6212SOL    HW130098   3.041   0.490   8.969  1.2464 -0.0017 -0.7128
 6212SOL    HW230099   3.056   0.639   9.003  0.2316 -0.6449  0.8991
 6213SOL     OW30100   0.149   1.265  15.804 -0.4232  0.4325 -0.3128
 6213SOL    HW130101   0.186   1.196  15.860 -0.5431  1.0954  0.5890
 6213SOL    HW230102   0.121   1.209  15.732  1.9167 -0.1746 -0.7670
 6214SOL     OW30103   0.509   1.648  13.156 -0.0613 -0.2273  0.0524
 6214SOL    HW130104   0.462   1.716  13.107 -2.1446 -2.3166 -0.8739
 6214SOL    HW230105   0.529   1.695  13.236 -1.1388  1.7220 -0.8263
 6215SOL     OW30106   2.552   4.179  15.189  0.1238 -0.3954 -0.8205
 6215SOL    HW130107   2.642   4.199  15.163  0.0508  1.1538  0.0797
 6215SOL    HW230108   2.495   4.248  15.156 -2.9687 -1.9764  1.2094
 6216SOL     OW30109   0.314   0.627  10.630  0.0501  0.6967  0.3409
 6216SOL    HW130110   0.343   0.718  10.630  1.8913  0.0962  1.1349
 6216SOL    HW230111   0.336   0.607  10.539  0.7834  2.0150  0.2326
 6217SOL     OW30112   0.121   2.915   0.967 -0.6099  0.4729  0.3228
 6217SOL    HW130113   0.148   2.841   0.912 -1.2656  0.6608 -0.2413
 6217SOL    HW230114   0.033   2.931   0.935 -0.6311  0.3984  0.3444
 6218SOL     OW30115   3.255   4.220  16.534 -0.3947 -0.4722 -1.1275
 6218SOL    HW130116   3.222   4.208  16.623 -0.0462  0.4986 -0.8752
 6218SOL    HW230117   3.246   4.127  16.511 -0.6951 -0.4471 -1.1165
 6219SOL     OW30118   1.797   2.539   2.782 -0.4386  0.4058 -0.3472
 6219SOL    HW130119   1.734   2.556   2.712  0.2604  1.0905 -0.7995
 6219SOL    HW230120   1.739   2.523   2.857  0.2069 -0.7923 -0.1156
 6220SOL     OW30121   1.839   1.738   4.057 -0.2231 -0.5692 -0.8844
 6220SOL    HW130122   1.863   1.707   4.144 -0.1551 -0.2722 -0.7989
 6220SOL    HW230123   1.916   1.698   4.018  0.8269  0.1528  0.4622
 6221SOL     OW30124   2.002   3.961  14.809  0.4283 -0.3159 -0.0723
 6221SOL    HW130125   2.077   3.978  14.865 -0.5347 -0.2014  1.1855
 6221SOL    HW230126   1.928   3.996  14.859  0.5906  0.3354 -0.2906
 6222SOL     OW30127   2.465   0.760   4.024 -0.3978 -0.4467 -0.2577
 6222SOL    HW130128   2.460   0.670   3.992 -3.6119 -0.1548 -0.6622
 6222SOL    HW230129   2.551   0.757   4.065  0.0632  2.3032 -1.0298
 6223SOL     OW30130   3.149   1.443  15.361 -0.0098  0.2214 -0.2110
 6223SOL    HW130131   3.068   1.394  15.349  0.3831 -1.2012  2.9383
 6223SOL    HW230132   3.110   1.530  15.345  1.8980  0.5259 -3.1520
 6224SOL     OW30133   3.550   1.130   4.137  0.6438  1.0092 -0.8970
 6224SOL    HW130134   3.487   1.060   4.153  2.3930 -0.1136  1.1065
 6224SOL    HW230135   3.632   1.090   4.108 -1.0250 -2.3947 -0.9488
 6225SOL     OW30136   0.445   4.084   2.135  0.6177 -0.2162  0.0794
 6225SOL    HW130137   0.408   4.058   2.051 -0.0322 -2.6634  1.1157
 6225SOL    HW230138   0.532   4.045   2.122  0.3832 -0.5119 -0.6160
 6226SOL     OW30139   3.291   3.154   7.849 -0.5627  0.2906 -0.2037
 6226SOL    HW130140   3.247   3.192   7.773  2.7391  2.4028 -1.0457
 6226SOL    HW230141   3.347   3.092   7.802  0.1396  2.2612 -1.9612
 6227SOL     OW30142   2.428   2.793   4.412  0.2710  0.2970 -0.2035
 6227SOL    HW130143   2.441   2.864   4.474  2.0273  0.5947 -0.9234
 6227SOL    HW230144   2.391   2.835   4.335 -0.2228  0.2956  0.0285
 6228SOL     OW30145   4.545   2.670  12.759  0.4467 -0.1109  0.3837
 6228SOL    HW130146   4.575   2.760  12.774  0.4180  0.1068 -0.8024
 6228SOL    HW230147   4.492   2.643  12.834  0.4308 -0.0535  0.3937
 6229SOL     OW30148   3.191   3.250   5.323 -0.4064 -0.0269 -0.2058
 6229SOL    HW130149   3.211   3.312   5.253 -4.4547  0.9499 -0.5087
 6229SOL    HW230150   3.097   3.262   5.335 -0.5050 -1.4336  0.3844
 6230SOL     OW30151   4.220   3.991   8.178  0.0013  0.6633  0.1565
 6230SOL    HW130152   4.249   3.901   8.193 -1.3998 -0.7188 -5.4766
 6230SOL    HW230153   4.166   4.003   8.256 -0.0414 -1.4013  0.4417
 6231SOL     OW30154   2.796   2.111   9.533  0.5919 -0.0266 -0.2438
 6231SOL    HW130155   2.818   2.104   9.626 -1.1647  3.5325  0.4414
 6231SOL    HW230156   2.866   2.173   9.511  2.5782 -2.1810 -0.0597
 6232SOL     OW30157   0.789   1.950   9.641  0.1068 -0.4135  0.2074
 6232SOL    HW130158   0.820   1.913   9.723  1.3494 -0.6267 -0.3683
 6232SOL    HW230159   0.701   1.911   9.645  0.6910 -1.8944 -1.7265
 6233SOL     OW30160   3.549   0.071   6.804 -0.2979 -0.3310 -0.6557
 6233SOL    HW130161   3.568   4.708   6.765  5.4212 -0.7555  3.1110
 6233SOL    HW230162   3.632   0.118   6.802 -0.4978  0.0436  0.2278
 6234SOL     OW30163   0.650   1.042   6.751  0.9499 -0.5639 -0.1219
 6234SOL    HW130164   0.722   0.999   6.706  0.5397 -1.2287 -0.1435
 6234SOL    HW230165   0.594   0.965   6.742  1.1238 -0.6062 -0.8537
 6235SOL     OW30166   4.389   3.519  12.654 -0.0744  0.4516  0.0556
 6235SOL    HW130167   4.475   3.489  12.625 -0.7756  1.3526 -2.8866
 6235SOL    HW230168   4.414   3.610  12.670 -0.0330  0.2002  1.4843
 6236SOL     OW30169   0.571   0.372  16.884 -0.0095  0.4294 -0.2503
 6236SOL    HW130170   0.579   0.428  16.806  0.1384 -0.9430 -1.2356
 6236SOL    HW230171   0.483   0.388  16.918  1.2804  1.3455  2.6050
 6237SOL     OW30172   4.414   3.237   5.805  0.1690 -0.2333 -0.4235
 6237SOL    HW130173   4.447   3.325   5.787  0.0064 -0.1732 -0.4266
 6237SOL    HW230174   4.493   3.183   5.801 -0.2819 -0.8917 -0.4246
 6238SOL     OW30175   0.498   3.672  11.195 -0.0236  0.5254 -0.1971
 6238SOL    HW130176   0.505   3.765  11.170 -1.1418  0.2423 -1.5715
 6238SOL    HW230177   0.494   3.625  11.112 -1.2265  1.2953 -0.5667
 6239SOL     OW30178   3.339   2.600  13.508  0.0904 -0.1468  0.3038
 6239SOL    HW130179   3.394   2.558  13.574  0.6554  0.8122  0.4487
 6239SOL    HW230180   3.386   2.683  13.497  0.5629 -0.5671 -0.8765
 6240SOL     OW30181   1.563   1.327   3.068  0.5957 -0.1116 -0.1064
 6240SOL    HW130182   1.536   1.243   3.030  2.6113 -0.6854 -0.2476
 6240SOL    HW230183   1.659   1.328   3.068  0.6092 -1.4110  5.1440
 6241SOL     OW30184   3.329   3.819  16.110 -0.1767 -0.0364 -0.4078
 6241SOL    HW130185   3.349   3.729  16.136  0.8319  1.1115  2.7899
 6241SOL    HW230186   3.417   3.850  16.088 -0.4586  0.8920 -0.2158
 6242SOL     OW30187   1.736   3.553   6.499  0.4408  0.1478  0.0152
 6242SOL    HW130188   1.755   3.498   6.575  2.2594  2.5195  1.2442
 6242SOL    HW230189   1.737   3.641   6.536 -3.9720  0.4319 -0.6422
 6243SOL     OW30190   3.252   3.531   5.446  0.5182 -0.1285  0.0849
 6243SOL    HW130191   3.307   3.483   5.507  1.6749 -1.1680 -1.7880
 6243SOL    HW230192   3.194   3.572   5.510 -0.8204 -2.2925  0.2712
 6244SOL     OW30193   2.912   0.834   3.727 -0.7719 -0.1735 -0.0110
 6244SOL    HW130194   2.971   0.763   3.754  0.5885  1.5575  1.5596
 6244SOL    HW230195   2.853   0.779   3.676 -1.5044  0.2586  0.3584
 6245SOL     OW30196   4.272   0.265   4.286 -0.1671  0.2994 -0.2464
 6245SOL    HW130197   4.257   0.171   4.287 -1.3265  0.4799 -0.3906
 6245SOL    HW230198   4.346   0.284   4.228  0.7546 -0.1883  0.7850
 6246SOL     OW30199   3.310   2.435   3.950  0.2208 -0.2993 -0.2051
 6246SOL    HW130200   3.258   2.360   3.977  0.0095 -0.2799 -0.5539
 6246SOL    HW230201   3.293   2.493   4.025  0.5192  0.8864 -1.0479
 6247SOL     OW30202   2.382   1.646   8.775  0.3171 -0.0199  0.4975
 6247SOL    HW130203   2.411   1.735   8.756  1.2206 -0.1102  1.4649
 6247SOL    HW230204   2.462   1.593   8.773  0.9177  0.8948  0.3588
 6248SOL     OW30205   3.884   4.354   9.542  0.3696 -0.3959 -0.1266
 6248SOL    HW130206   3.895   4.418   9.472  1.2820  1.6177  1.8735
 6248SOL    HW230207   3.791   4.371   9.557  0.2074 -2.3536  1.0542
 6249SOL     OW30208   2.305   1.131   1.886  0.3744  0.0192  0.4765
 6249SOL    HW130209   2.386   1.160   1.843 -0.3603 -0.0827 -0.9626
 6249SOL    HW230210   2.258   1.215   1.885 -0.0059 -0.1698  2.4132
 6250SOL     OW30211   3.650   0.835   8.893  0.5900 -1.1638  0.4555
 6250SOL    HW130212   3.717   0.895   8.926 -0.6476  0.5095 -0.0391
 6250SOL    HW230213   3.638   0.788   8.975  1.4235 -0.5019  0.9607
 6251SOL     OW30214   3.518   0.606  16.300 -0.3269  0.1932  0.6662
 6251SOL    HW130215   3.427   0.592  16.276  0.2346 -1.3947 -0.5673
 6251SOL    HW230216   3.556   0.627  16.214  0.0791 -1.2607  0.4906
 6252SOL     OW30217   0.842   3.069   8.650 -0.3464  0.2063  0.4308
 6252SOL    HW130218   0.755   3.070   8.690 -0.0022 -1.9603  1.2797
 6252SOL    HW230219   0.851   3.161   8.628  0.4176 -0.2894 -1.3458
 6253SOL     OW30220   1.314   4.556   9.028 -0.9093 -0.6302  0.1510
 6253SOL    HW130221   1.307   4.650   9.010  2.7880 -0.7261 -1.8973
 6253SOL    HW230222   1.401   4.527   9.001 -1.4175 -1.0349 -1.1005
 6254SOL     OW30223   1.419   1.799   5.370 -0.1429  0.7416 -0.0923
 6254SOL    HW130224   1.405   1.719   5.320  1.9522 -0.9319  2.0107
 6254SOL    HW230225   1.338   1.846   5.353 -1.1932 -1.0914 -0.1290
 6255SOL     OW30226   3.473   1.962  10.719 -0.6737  0.0995  0.1084
 6255SOL    HW130227   3.558   1.941  10.680  0.7765  1.8918  2.2836
 6255SOL    HW230228   3.454   2.054  10.697  0.2903  0.3925  0.5008
 6256SOL     OW30229   2.930   0.260   6.597  0.0175  0.0606  0.1112
 6256SOL    HW130230   2.890   0.243   6.682 -1.2379 -1.9728 -0.8945
 6256SOL    HW230231   2.900   0.351   6.590 -0.0198  0.0724  0.4385
 6257SOL     OW30232   1.622   3.894  16.715 -0.2560 -0.1739  0.4058
 6257SOL    HW130233   1.620   3.914  16.621 -0.7373  2.2967  0.9368
 6257SOL    HW230234   1.690   3.951  16.749 -0.2069 -0.0082  0.0264
 6258SOL     OW30235   0.343   1.247  10.263 -0.5465  0.2577 -0.0043
 6258SOL    HW130236   0.379   1.226  10.176  2.1897 -0.0860  1.2256
 6258SOL    HW230237   0.301   1.332  10.250 -0.0340  0.3972 -0.7872
 6259SOL     OW30238   4.463   0.667   8.003  0.2670 -0.2010 -0.2170
 6259SOL    HW130239   4.424   0.631   8.083  1.5705  2.0293  1.4369
 6259SOL    HW230240   4.483   0.754   8.037  0.2033  0.7896 -2.7790
 6260SOL     OW30241   4.216   3.348  10.611  0.4683  0.3272 -0.1401
 6260SOL    HW130242   4.287   3.391  10.659  0.0581 -0.7438  1.4198
 6260SOL    HW230243   4.263   3.265  10.600 -0.4814 -0.2986  0.5761
 6261SOL     OW30244   2.698   3.402  16.005 -0.2778  0.5653  0.1687
 6261SOL    HW130245   2.756   3.452  15.949 -0.3093 -0.4805 -0.7977
 6261SOL    HW230246   2.743   3.404  16.090 -0.1850 -3.1286  0.2121
 6262SOL     OW30247   2.774   1.838   8.642 -0.0647  0.4394  0.2573
 6262SOL    HW130248   2.685   1.868   8.662  0.3621 -0.4309  3.5335
 6262SOL    HW230249   2.764   1.743   8.653 -2.4307  0.6325 -0.1241
 6263SOL     OW30250   3.062   2.531   1.959  0.2908  0.3486  0.5771
 6263SOL    HW130251   3.062   2.444   1.999 -0.5622 -1.0571 -2.4838
 6263SOL    HW230252   2.973   2.563   1.973  0.0975  0.0124  0.1191
 6264SOL     OW30253   0.172   0.841  16.613 -0.8053 -0.6225 -0.2596
 6264SOL    HW130254   0.199   0.754  16.645 -1.8868 -1.1094 -0.6983
 6264SOL    HW230255   0.230   0.894  16.669 -0.5431 -0.1718 -0.9621
 6265SOL     OW30256   0.872   1.112   0.522  0.1936  0.7521 -0.1167
 6265SOL    HW130257   0.955   1.103   0.568  1.5490 -1.8454 -3.0862
 6265SOL    HW230258   0.905   1.086   0.437  0.3295 -2.9164  1.0452
 6266SOL     OW30259   4.689   4.287   3.155 -0.2911  0.3701  0.3394
 6266SOL    HW130260   4.658   4.254   3.070  2.1668 -1.1438  0.0147
 6266SOL    HW230261   4.647   4.226   3.216  1.0400  0.2768  1.1651
 6267SOL     OW30262   0.515   2.464   3.102  0.1508  0.5125  0.1318
 6267SOL    HW130263   0.568   2.454   3.181 -0.9922 -0.6895  0.7585
 6267SOL    HW230264   0.577   2.510   3.047  0.7410 -0.1804  0.2156
 6268SOL     OW30265   0.311   2.719   1.184 -0.0949  0.4242  0.0428
 6268SOL    HW130266   0.251   2.684   1.119  0.9182 -2.0353  0.4435
 6268SOL    HW230267   0.302   2.812   1.163  1.3940  0.1785 -1.7479
 6269SOL     OW30268   4.089   3.764   3.871 -0.0644  0.6192  0.0274
 6269SOL    HW130269   4.082   3.668   3.870  0.2052  0.5945  0.4723
 6269SOL    HW230270   4.160   3.785   3.811  0.7249  0.2392  0.8337
 6270SOL     OW30271   3.026   3.366   5.059  0.4148  0.1590  0.3244
 6270SOL    HW130272   3.002   3.377   5.151  0.6433  1.3799  0.2336
 6270SOL    HW230273   2.946   3.347   5.011  0.2899  0.6238  0.3465
 6271SOL     OW30274   2.762   3.242   0.820 -0.3620  0.4680 -0.1020
 6271SOL    HW130275   2.795   3.329   0.844 -0.7358  0.6617 -0.2806
 6271SOL    HW230276   2.823   3.185   0.866 -1.3168 -0.5989 -0.1741
 6272SOL     OW30277   2.327   3.476  13.356 -0.2337 -0.3647 -0.3871
 6272SOL    HW130278   2.314   3.531  13.433  0.1710 -0.2999 -0.3640
 6272SOL    HW230279   2.417   3.451  13.377  0.3585  2.4242  0.3282
 6273SOL     OW30280   3.310   3.134   1.516 -0.3348  0.0743 -0.2174
 6273SOL    HW130281   3.347   3.076   1.583  0.9691  0.4997 -0.5855
 6273SOL    HW230282   3.284   3.208   1.571  1.2466 -1.3124  2.3902
 6274SOL     OW30283   2.092   1.420   3.579 -0.3620 -0.0793  0.1986
 6274SOL    HW130284   2.040   1.468   3.514 -2.3607  0.1115  1.9503
 6274SOL    HW230285   2.044   1.438   3.659  0.5964 -3.0784  1.4357
 6275SOL     OW30286   0.718   3.173   1.489 -0.6073  0.1052  0.5642
 6275SOL    HW130287   0.684   3.124   1.413 -0.3186  1.8941 -0.7133
 6275SOL    HW230288   0.715   3.098   1.548  1.3883 -1.5482 -1.4144
 6276SOL     OW30289   0.341   3.348   1.170  0.4295  0.1575  0.1249
 6276SOL    HW130290   0.330   3.306   1.256  1.9740 -0.6693 -0.0834
 6276SOL    HW230291   0.263   3.404   1.175  0.0298 -0.3813 -0.0513
 6277SOL     OW30292   0.877   0.987   3.119 -0.0583 -0.3921  0.4566
 6277SOL    HW130293   0.947   0.922   3.124  1.8245  1.5313 -0.9554
 6277SOL    HW230294   0.915   1.048   3.182 -0.0553  0.2913 -0.2139
 6278SOL     OW30295   1.287   0.788   1.438 -0.1335  0.0341 -0.2437
 6278SOL    HW130296   1.305   0.740   1.357  0.0479 -1.6157  0.7843
 6278SOL    HW230297   1.372   0.830   1.452 -0.5426  1.1564 -1.1367
 6279SOL     OW30298   2.725   2.862   1.047  0.0979  0.0889  0.0388
 6279SOL    HW130299   2.772   2.941   1.022  1.3409 -0.3304  1.0959
 6279SOL    HW230300   2.739   2.799   0.976 -1.0202 -0.7481  0.5655
 6280SOL     OW30301   3.213   4.475   9.402  0.3471 -0.0382 -0.0594
 6280SOL    HW130302   3.260   4.514   9.476  0.6267 -0.7392  0.1323
 6280SOL    HW230303   3.124   4.492   9.432 -0.2342 -0.1006 -1.7256
 6281SOL     OW30304   1.908   3.122   8.290  0.1091  0.3225 -0.3339
 6281SOL    HW130305   1.983   3.068   8.317 -1.2374 -1.6013 -0.4619
 6281SOL    HW230306   1.847   3.075   8.347  1.8620  0.0534  1.3538
 6282SOL     OW30307   4.640   2.787  13.451  0.2525  0.1580 -0.3769
 6282SOL    HW130308   4.629   2.856  13.517 -1.3554  1.5265 -2.0600
 6282SOL    HW230309   4.657   2.845  13.377  0.9154 -1.4873 -1.4781
 6283SOL     OW30310   1.879   3.951  15.925 -0.2632 -0.2828  0.2758
 6283SOL    HW130311   1.860   4.031  15.975  0.2848 -0.5028  0.8444
 6283SOL    HW230312   1.974   3.957  15.916 -0.3482  1.3958  0.3889
 6284SOL     OW30313   2.529   0.784  11.758  0.9709 -0.0588 -0.1068
 6284SOL    HW130314   2.491   0.778  11.671  1.2696  0.4390 -0.2754
 6284SOL    HW230315   2.622   0.787  11.733  1.4517  0.0732  1.6169
 6285SOL     OW30316   1.117   0.969   4.921  0.5235  0.0657 -0.2520
 6285SOL    HW130317   1.174   0.905   4.962 -1.0914 -1.4248 -0.3187
 6285SOL    HW230318   1.028   0.938   4.937  1.6521 -1.4637  3.0832
 6286SOL     OW30319   3.663   1.857   3.203 -0.4378 -0.6243  0.4600
 6286SOL    HW130320   3.685   1.768   3.230 -0.5223 -1.3177 -1.7839
 6286SOL    HW230321   3.746   1.879   3.161 -0.4542 -0.0778  0.7139
 6287SOL     OW30322   1.777   2.791  10.335  0.2276 -0.7272 -0.6788
 6287SOL    HW130323   1.858   2.807  10.287  0.2006  2.7049  0.3866
 6287SOL    HW230324   1.791   2.717  10.394  2.0709 -0.3406 -0.6454
 6288SOL     OW30325   0.190   2.595   0.956  0.2209 -0.0927 -0.6329
 6288SOL    HW130326   0.175   2.622   0.865  0.2296  3.2685  0.3823
 6288SOL    HW230327   0.104   2.560   0.981 -0.0135  0.1214 -1.1422
 6289SOL     OW30328   3.274   4.017   4.272 -0.5103 -0.7309  0.5423
 6289SOL    HW130329   3.188   4.011   4.232  0.9491 -1.3976 -2.4721
 6289SOL    HW230330   3.265   3.964   4.352  1.1739  1.5107  2.2108
 6290SOL     OW30331   0.989   4.473   6.773  0.1969  0.0284 -0.0898
 6290SOL    HW130332   1.052   4.431   6.832  0.0435 -2.4884 -1.7168
 6290SOL    HW230333   0.913   4.459   6.829  0.9218 -0.1236  0.8595
 6291SOL     OW30334   2.455   1.910   8.495 -0.0000 -0.0626  0.4833
 6291SOL    HW130335   2.398   1.897   8.571  0.9928 -2.2785  0.8196
 6291SOL    HW230336   2.474   2.004   8.503  1.4223 -0.5007  2.2263
 6292SOL     OW30337   0.836   3.945  11.154 -0.5688  0.7280  0.0753
 6292SOL    HW130338   0.814   3.895  11.076 -0.4254 -0.0742  0.5445
 6292SOL    HW230339   0.926   3.972  11.137 -0.9046  0.1943 -2.5503
 6293SOL     OW30340   3.403   3.212  11.666 -0.2281  0.2683 -0.1958
 6293SOL    HW130341   3.375   3.294  11.707  1.5198  1.2413 -0.9432
 6293SOL    HW230342   3.499   3.211  11.676 -0.3433  1.3293  0.9822
 6294SOL     OW30343   3.019   2.314   7.182  0.3568  0.3429 -0.2471
 6294SOL    HW130344   2.965   2.362   7.119  0.5336  0.8608 -0.0052
 6294SOL    HW230345   3.042   2.386   7.241 -0.8199 -0.4478  1.1630
 6295SOL     OW30346   0.187   3.984   6.068  0.2793  0.1836 -0.0894
 6295SOL    HW130347   0.168   4.075   6.044  0.6219  1.0520  2.9832
 6295SOL    HW230348   0.184   3.980   6.164 -0.1531  0.1411 -0.1051
 6296SOL     OW30349   3.977   4.067  14.829  0.3108 -0.4429 -0.2033
 6296SOL    HW130350   4.052   4.124  14.812 -0.3331  0.7164  0.7919
 6296SOL    HW230351   4.011   4.034  14.912  1.2400  0.3601 -0.2676
 6297SOL     OW30352   0.241   0.666   3.034 -0.6309 -0.8315  0.2435
 6297SOL    HW130353   0.258   0.688   3.126  3.1386  1.7881 -1.0802
 6297SOL    HW230354   0.327   0.626   3.024  0.6507  2.1286 -0.7225
 6298SOL     OW30355   0.612   2.393   7.699 -0.2928  0.1902  0.0577
 6298SOL    HW130356   0.656   2.449   7.764  0.0154  1.2596 -1.0712
 6298SOL    HW230357   0.537   2.452   7.690 -0.0667  0.4095 -0.3621
 6299SOL     OW30358   3.237   1.851   5.515  0.4227 -0.0056  0.1721
 6299SOL    HW130359   3.275   1.932   5.548  0.2235  0.7063 -1.3117
 6299SOL    HW230360   3.156   1.857   5.566  0.8010  1.1585  0.6392
 6300SOL     OW30361   2.814   1.474   6.197 -0.8858  0.0308  0.6920
 6300SOL    HW130362   2.831   1.515   6.282 -0.7747  1.4603 -0.0167
 6300SOL    HW230363   2.899   1.431   6.189 -1.4743 -1.2466  1.3577
 6301SOL     OW30364   3.806   3.063   4.313  0.1773  0.3359 -0.5605
 6301SOL    HW130365   3.878   3.119   4.342  1.2281 -1.2905 -0.0470
 6301SOL    HW230366   3.852   3.010   4.248  0.4974 -0.4832  0.3336
 6302SOL     OW30367   0.320   3.735  16.538  0.2968 -0.1567 -0.1020
 6302SOL    HW130368   0.393   3.787  16.573 -0.0595  0.7964 -0.8157
 6302SOL    HW230369   0.333   3.754  16.446  2.0517  0.9594  0.3708
 6303SOL     OW30370   0.134   2.962   2.968 -0.1640  0.1159  0.7635
 6303SOL    HW130371   0.185   2.958   3.048 -0.7268 -0.9591  1.0770
 6303SOL    HW230372   0.112   3.053   2.950  2.5807  1.5333  4.6174
 6304SOL     OW30373   2.370   0.644   2.239  0.5078 -0.1747  1.0001
 6304SOL    HW130374   2.411   0.582   2.300  0.6555 -0.6133  0.4552
 6304SOL    HW230375   2.322   0.706   2.293 -0.4905 -1.3963  1.5306
 6305SOL     OW30376   2.431   3.241   4.984  0.1202 -0.3130  0.4059
 6305SOL    HW130377   2.426   3.293   5.064 -1.0034  0.2291 -0.0191
 6305SOL    HW230378   2.362   3.175   4.997 -1.1828  0.8703 -0.5774
 6306SOL     OW30379   2.605   0.730   9.755 -0.4633  0.3117  0.3931
 6306SOL    HW130380   2.603   0.647   9.708  2.5373  0.9117 -0.7762
 6306SOL    HW230381   2.700   0.739   9.769 -0.8218  3.1326  1.0004
 6307SOL     OW30382   2.623   0.622   1.778 -0.0168 -0.3860 -0.4956
 6307SOL    HW130383   2.644   0.668   1.859  0.4515 -0.5067 -0.5480
 6307SOL    HW230384   2.606   0.535   1.814  2.2067 -0.1461  1.1963
 6308SOL     OW30385   1.425   0.641   9.187 -0.2278 -0.1469 -1.0297
 6308SOL    HW130386   1.361   0.674   9.124 -1.5193 -2.1812 -0.7723
 6308SOL    HW230387   1.480   0.719   9.194 -0.5715 -0.1163  1.5079
 6309SOL     OW30388   4.254   0.591  14.186 -0.2619  0.0459  0.1085
 6309SOL    HW130389   4.275   0.656  14.254 -1.3973  0.2223  0.2976
 6309SOL    HW230390   4.342   0.568  14.155 -0.4117  1.1243 -1.1116
 6310SOL     OW30391   1.886   2.265  15.047 -0.0335 -0.6551 -0.0485
 6310SOL    HW130392   1.931   2.345  15.074 -1.7575  0.3598 -0.1919
 6310SOL    HW230393   1.954   2.220  14.998  0.7856  0.8788 -0.3200
 6311SOL     OW30394   0.097   4.699   7.652  0.1878 -0.9655 -0.5544
 6311SOL    HW130395   0.111   0.043   7.585  0.3429 -0.2316  0.2123
 6311SOL    HW230396   0.062   0.037   7.718 -0.7042 -0.3680 -1.5669
 6312SOL     OW30397   3.615   4.334   3.677 -0.2682  1.0457 -0.2713
 6312SOL    HW130398   3.599   4.354   3.584  0.4000 -0.3522 -0.6869
 6312SOL    HW230399   3.699   4.374   3.696  1.2996 -1.4145 -1.9561
 6313SOL     OW30400   0.571   2.114   3.818  0.0193  0.1203 -0.1054
 6313SOL    HW130401   0.651   2.113   3.765  0.4866 -1.8038  0.6365
 6313SOL    HW230402   0.535   2.201   3.801 -0.2361  0.1878  0.7704
 6314SOL     OW30403   4.181   1.102  12.395 -0.1501  0.0834 -0.1424
 6314SOL    HW130404   4.100   1.084  12.348  1.0220 -1.2937 -1.6424
 6314SOL    HW230405   4.158   1.087  12.487  1.5940  0.2593  0.3219
 6315SOL     OW30406   4.587   1.568   1.959  0.1219  0.3296  0.0275
 6315SOL    HW130407   4.668   1.597   1.919  0.2849  0.2489  0.2989
 6315SOL    HW230408   4.617   1.489   2.004 -0.9454  1.4036  2.6124
 6316SOL     OW30409   0.753   0.086   3.374  0.3455  0.2021  0.5514
 6316SOL    HW130410   0.793   0.147   3.312  1.1371 -0.7432  0.1471
 6316SOL    HW230411   0.700   0.024   3.324  1.6071  1.5505 -2.4402
 6317SOL     OW30412   4.565   3.811   8.139 -0.0776  0.0900 -0.2499
 6317SOL    HW130413   4.481   3.785   8.101 -0.3578 -0.5237  0.8005
 6317SOL    HW230414   4.618   3.731   8.138 -0.0168  0.1278 -0.0610
 6318SOL     OW30415   1.009   0.133   5.260 -0.2232 -0.1416  0.2805
 6318SOL    HW130416   1.090   0.129   5.312 -0.2237  0.3745  0.3149
 6318SOL    HW230417   0.957   0.172   5.330  0.0793 -0.4784  0.7010
 6319SOL     OW30418   1.362   2.966  13.172 -0.4910 -0.8772  0.0157
 6319SOL    HW130419   1.327   2.969  13.261  0.6391 -0.1435  0.4459
 6319SOL    HW230420   1.443   3.017  13.172 -0.5150 -0.8788 -2.8902
 6320SOL     OW30421   0.604   0.167  13.805 -0.9606 -0.2300 -0.3725
 6320SOL    HW130422   0.562   0.100  13.861 -0.7053 -0.7315 -0.7793
 6320SOL    HW230423   0.677   0.121  13.764 -1.2116 -1.6749  0.7689
 6321SOL     OW30424   4.381   2.902   9.770 -0.4310  0.1865  0.0164
 6321SOL    HW130425   4.320   2.953   9.717  0.5038  0.3588 -0.8848
 6321SOL    HW230426   4.407   2.973   9.829 -0.3842 -0.1283  0.3745
 6322SOL     OW30427   2.586   1.678   7.966 -0.1454 -0.0689  0.1906
 6322SOL    HW130428   2.591   1.701   7.873  1.0987  0.2665  0.3323
 6322SOL    HW230429   2.677   1.677   7.996 -0.4762  0.0651  1.1774
 6323SOL     OW30430   4.092   2.874   8.014 -0.1028 -0.4472 -0.1440
 6323SOL    HW130431   4.039   2.881   7.935 -2.3478  0.6295  1.4544
 6323SOL    HW230432   4.180   2.860   7.980 -1.0232 -1.0298 -2.2817
 6324SOL     OW30433   0.878   2.767   8.669 -0.2159 -0.1967  0.5412
 6324SOL    HW130434   0.848   2.858   8.665  3.6282  0.9837 -1.1180
 6324SOL    HW230435   0.891   2.743   8.577 -2.6457 -0.4836  0.2474
 6325SOL     OW30436   1.273   2.462  15.352  0.2539 -0.0957 -0.1053
 6325SOL    HW130437   1.276   2.385  15.294  2.4492 -0.3795  0.3523
 6325SOL    HW230438   1.275   2.531  15.286  0.0738 -0.9677 -1.0239
 6326SOL     OW30439   3.614   3.238   2.659  0.3546 -0.7089 -1.1895
 6326SOL    HW130440   3.619   3.274   2.747 -1.0326  1.3946 -1.9712
 6326SOL    HW230441   3.692   3.283   2.625  1.6455  1.2468  4.4519
 6327SOL     OW30442   4.504   0.860   9.591  0.0143  0.0679  0.2131
 6327SOL    HW130443   4.591   0.839   9.627  0.8670  0.6891 -1.4734
 6327SOL    HW230444   4.486   0.942   9.636  1.3220  0.5800 -0.1969
 6328SOL     OW30445   3.096   4.631   7.062 -0.4823 -0.6787  0.1347
 6328SOL    HW130446   3.036   4.696   7.097 -0.2524  0.3859 -1.4733
 6328SOL    HW230447   3.180   4.641   7.106 -0.6778 -0.8753  0.5504
 6329SOL     OW30448   3.055   1.285   4.228  0.2269 -0.1350 -0.0643
 6329SOL    HW130449   2.972   1.320   4.261  1.2733  3.0993 -0.9258
 6329SOL    HW230450   3.108   1.285   4.308  1.4551  1.6843 -0.8868
 6330SOL     OW30451   2.363   2.058  13.510 -0.4301 -0.4310 -0.4734
 6330SOL    HW130452   2.419   2.136  13.507  0.2229 -0.8142  1.5759
 6330SOL    HW230453   2.365   2.044  13.416 -0.4539  2.3222 -0.8890
 6331SOL     OW30454   0.381   3.536   5.556 -0.0391  0.3093 -0.1419
 6331SOL    HW130455   0.420   3.505   5.637  1.6857  0.5695 -0.8654
 6331SOL    HW230456   0.393   3.631   5.563 -0.7183  0.3815  0.0421
 6332SOL     OW30457   1.570   1.400   7.003 -0.0641  0.1145  0.1597
 6332SOL    HW130458   1.628   1.383   7.077 -2.8777 -1.2818  2.0327
 6332SOL    HW230459   1.522   1.318   7.011  0.6627 -0.4730 -1.5951
 6333SOL     OW30460   4.229   3.078  17.671  0.0970  0.7073  0.3994
 6333SOL    HW130461   4.150   3.035   0.012  0.0662  1.0792  0.8110
 6333SOL    HW230462   4.300   3.042   0.031  0.5710 -0.8576 -1.3595
 6334SOL     OW30463   3.158   2.610  12.873 -0.4988  0.0439  0.8674
 6334SOL    HW130464   3.105   2.614  12.794  0.7568 -1.4967 -0.0525
 6334SOL    HW230465   3.085   2.590  12.932  0.5423  0.8987  2.4521
 6335SOL     OW30466   2.893   0.991  17.376 -0.4145 -0.1758  0.2843
 6335SOL    HW130467   2.971   0.975  17.323 -0.3776 -0.5767  0.4594
 6335SOL    HW230468   2.932   1.008  17.461  1.8936 -1.8354 -0.4664
 6336SOL     OW30469   2.821   4.585   6.909  0.2725 -0.0908 -0.9572
 6336SOL    HW130470   2.834   4.490   6.899  0.3972  0.0550 -2.1605
 6336SOL    HW230471   2.908   4.612   6.936 -0.0198 -0.4489  0.3408
 6337SOL     OW30472   2.209   1.383  17.323 -0.3646 -0.0471  0.3752
 6337SOL    HW130473   2.134   1.442  17.325 -2.0942 -2.1682 -0.8262
 6337SOL    HW230474   2.260   1.420  17.395 -2.5202  1.3962  1.1709
 6338SOL     OW30475   4.329   4.586   5.721  0.4321 -0.1366  0.3076
 6338SOL    HW130476   4.339   4.514   5.783  2.4400  0.8550  1.1120
 6338SOL    HW230477   4.356   4.658   5.776  0.5568  0.8857 -1.0839
 6339SOL     OW30478   4.348   1.584   4.617  0.1341 -0.1276 -0.6590
 6339SOL    HW130479   4.364   1.651   4.551 -2.0604 -1.4501 -2.5318
 6339SOL    HW230480   4.256   1.562   4.599 -0.6587  1.7944  0.9949
 6340SOL     OW30481   1.108   2.757  17.448 -0.2766  0.2710 -0.1908
 6340SOL    HW130482   1.084   2.692  17.513 -3.2167  0.8150 -0.7387
 6340SOL    HW230483   1.199   2.730  17.432 -1.7290 -3.6055 -1.6838
 6341SOL     OW30484   1.787   0.072  13.696  0.2071  0.6598  0.6926
 6341SOL    HW130485   1.754   0.161  13.689 -2.4367 -0.4080 -0.4893
 6341SOL    HW230486   1.782   0.051  13.790 -0.9297  1.5957  0.8401
 6342SOL     OW30487   4.314   0.884   0.731  0.9217 -0.0490 -0.0630
 6342SOL    HW130488   4.402   0.877   0.694  1.5165  2.0887  0.9349
 6342SOL    HW230489   4.305   0.793   0.758  0.2449  0.5054  1.5866
 6343SOL     OW30490   2.597   4.037   1.862  0.0922 -0.7035 -0.1041
 6343SOL    HW130491   2.521   4.010   1.914  2.3399 -0.7422  3.1398
 6343SOL    HW230492   2.555   4.104   1.807  0.6337 -0.0491  0.2882
 6344SOL     OW30493   3.048   1.522   4.593 -0.6148 -0.3545  0.0445
 6344SOL    HW130494   3.096   1.566   4.523  0.0784 -0.0029  0.7394
 6344SOL    HW230495   3.099   1.541   4.672  2.3874  0.7467 -2.1407
 6345SOL     OW30496   1.713   1.409  15.024 -0.2227  0.1486  0.5667
 6345SOL    HW130497   1.669   1.488  15.057 -0.4309  0.8038 -1.2803
 6345SOL    HW230498   1.765   1.445  14.953 -0.6404 -1.1322 -0.3903
 6346SOL     OW30499   0.236   1.902   1.336  0.1424 -0.1464  0.2076
 6346SOL    HW130500   0.167   1.914   1.271  0.1419 -1.4206 -0.0124
 6346SOL    HW230501   0.324   1.885   1.301 -0.8720 -2.3551 -1.1897
 6347SOL     OW30502   2.968   0.005   1.839 -0.0526  0.7047 -0.5945
 6347SOL    HW130503   3.032   4.707   1.907  0.1536 -1.2984 -1.4066
 6347SOL    HW230504   2.894   0.011   1.899  0.0677 -0.7478 -0.3073
 6348SOL     OW30505   0.335   3.455  17.313 -0.2862 -0.0881 -0.0698
 6348SOL    HW130506   0.328   3.407  17.396  1.8551 -0.8280 -0.3155
 6348SOL    HW230507   0.297   3.534  17.352 -1.9978 -1.0952  0.2924
 6349SOL     OW30508   2.969   2.947   7.641  0.3991  0.3068  0.2158
 6349SOL    HW130509   3.000   3.038   7.638 -1.2218  0.9206  2.3280
 6349SOL    HW230510   3.003   2.913   7.723  1.1365 -0.1943 -0.3032
 6350SOL     OW30511   1.371   2.359   8.458  0.3293 -0.3355 -0.6840
 6350SOL    HW130512   1.341   2.338   8.369  0.7844 -1.7519 -0.5022
 6350SOL    HW230513   1.465   2.341   8.448  0.4079 -0.6394  0.5381
 6351SOL     OW30514   1.411   1.927   9.402 -0.3169  0.4583  0.1773
 6351SOL    HW130515   1.428   1.971   9.485  2.1084 -2.0092  0.9877
 6351SOL    HW230516   1.467   1.850   9.412  1.2994  1.5478 -0.5449
 6352SOL     OW30517   0.492   4.262   3.078 -0.5279  0.8707  0.1694
 6352SOL    HW130518   0.549   4.202   3.126 -0.4156  0.6153 -0.2734
 6352SOL    HW230519   0.409   4.224   3.103  0.5783 -1.7438 -0.1049
 6353SOL     OW30520   1.004   1.762   3.513  0.1384 -0.0753  0.3635
 6353SOL    HW130521   0.990   1.704   3.438 -2.5813  0.2081  0.6208
 6353SOL    HW230522   1.033   1.686   3.564  1.0859  0.8947  1.2861
 6354SOL     OW30523   3.145   4.540   1.957  0.1362  0.2179 -0.2198
 6354SOL    HW130524   3.198   4.562   2.033 -0.0907 -1.4538  0.4079
 6354SOL    HW230525   3.203   4.480   1.910  0.5701  0.8773 -0.5341
 6355SOL     OW30526   1.716   2.478   5.542  0.1717 -0.2411  0.0866
 6355SOL    HW130527   1.761   2.401   5.576  0.1380 -0.6514 -0.7876
 6355SOL    HW230528   1.709   2.541   5.613 -0.4362  0.0438 -0.2176
 6356SOL     OW30529   2.357   3.406  11.604  0.6788  0.1688  0.5529
 6356SOL    HW130530   2.440   3.379  11.563  0.4466  1.8127 -0.9821
 6356SOL    HW230531   2.339   3.479  11.546  1.4126 -1.7239 -2.0599
 6357SOL     OW30532   3.430   4.039   6.200 -0.3882  0.1245 -0.1470
 6357SOL    HW130533   3.425   3.992   6.117 -0.8765 -0.6843  0.3406
 6357SOL    HW230534   3.335   4.036   6.215 -0.7876 -2.0249 -3.2570
 6358SOL     OW30535   2.561   1.105   1.793  0.3715  0.1423 -0.0412
 6358SOL    HW130536   2.647   1.110   1.751  1.1375 -0.1357  1.4963
 6358SOL    HW230537   2.582   1.162   1.867  1.0712 -2.6591  1.9265
 6359SOL     OW30538   0.928   1.955   8.412  0.1530 -0.2261  0.4691
 6359SOL    HW130539   0.887   2.023   8.359 -1.3620 -0.5125  1.2926
 6359SOL    HW230540   0.851   1.925   8.459  1.5867 -2.0771  1.6420
 6360SOL     OW30541   3.906   3.696  12.243 -0.1066 -0.1365 -0.0740
 6360SOL    HW130542   3.874   3.745  12.318  0.3743 -0.3702  0.2813
 6360SOL    HW230543   3.934   3.764  12.181  1.9729 -1.0866 -0.1808
 6361SOL     OW30544   2.876   1.954  11.720  0.5760  0.3479 -0.1090
 6361SOL    HW130545   2.948   1.893  11.701 -0.3488 -0.4513 -1.0464
 6361SOL    HW230546   2.892   1.972  11.813  0.9457 -1.3958  0.1852
 6362SOL     OW30547   0.192   0.625   8.570  0.2673  0.1782  0.1056
 6362SOL    HW130548   0.206   0.538   8.609 -0.6191 -0.0859 -0.1615
 6362SOL    HW230549   0.119   0.597   8.515 -0.1308 -0.2461  0.8502
 6363SOL     OW30550   1.086   3.917   6.196 -0.6482 -0.2479  0.5238
 6363SOL    HW130551   1.163   3.860   6.205 -0.4777  0.0078  0.7076
 6363SOL    HW230552   1.106   3.956   6.110  3.8385 -0.7998  1.3164
 6364SOL     OW30553   3.415   1.212   5.078 -1.1227 -0.3220 -0.3196
 6364SOL    HW130554   3.450   1.300   5.062  0.0899 -0.7777 -0.1877
 6364SOL    HW230555   3.458   1.188   5.160 -0.5962 -0.8542 -0.7586
 6365SOL     OW30556   1.190   2.267  11.395 -0.0828 -0.5504  0.1863
 6365SOL    HW130557   1.255   2.300  11.332 -0.6542  0.1762 -0.0206
 6365SOL    HW230558   1.236   2.188  11.424  1.0670  0.5609  1.3588
 6366SOL     OW30559   4.019   2.987   0.537 -0.7513  0.0688 -0.5037
 6366SOL    HW130560   3.981   2.920   0.594 -0.3506  0.0850 -0.2166
 6366SOL    HW230561   4.101   2.999   0.584 -0.3897 -0.3750 -1.0280
 6367SOL     OW30562   3.919   4.339  14.288  0.1687  0.4524  0.3657
 6367SOL    HW130563   3.996   4.382  14.249  1.2056  1.4044  3.4532
 6367SOL    HW230564   3.857   4.400  14.248 -2.1146 -0.4251  2.5975
 6368SOL     OW30565   3.488   4.082   7.780  0.8087  0.3364 -0.2001
 6368SOL    HW130566   3.584   4.076   7.780  0.7108 -1.1750  0.2701
 6368SOL    HW230567   3.483   4.172   7.814 -2.2951 -0.4699  1.4105
 6369SOL     OW30568   3.042   0.801   2.995 -0.2987 -0.9736 -0.2691
 6369SOL    HW130569   3.068   0.740   2.926  0.5507 -0.2489 -0.5884
 6369SOL    HW230570   2.988   0.743   3.049  1.2846 -2.1527  0.0319
 6370SOL     OW30571   3.357   3.921   5.952  0.1642 -0.2095 -0.1733
 6370SOL    HW130572   3.301   3.894   5.879 -0.8338  1.4846 -0.0544
 6370SOL    HW230573   3.385   4.011   5.936 -1.4424  0.5662  1.3292
 6371SOL     OW30574   4.015   0.167  14.574 -0.0241  0.1944  0.4858
 6371SOL    HW130575   4.029   0.213  14.491 -0.4981 -2.2544 -0.9839
 6371SOL    HW230576   4.077   0.212  14.631  1.4219  0.3791 -1.2372
 6372SOL     OW30577   3.019   3.624   1.392  0.2875 -0.4289  0.5021
 6372SOL    HW130578   3.030   3.719   1.389 -2.0984 -0.2558 -2.6724
 6372SOL    HW230579   2.970   3.623   1.474  0.4182 -0.4928  0.5781
 6373SOL     OW30580   0.675   0.658   0.705  0.3053 -0.4366 -0.0584
 6373SOL    HW130581   0.682   0.574   0.659 -1.8435  0.0807 -1.3116
 6373SOL    HW230582   0.724   0.715   0.645  0.8202 -1.9261 -1.0496
 6374SOL     OW30583   4.003   4.199   9.737  0.2254 -0.1046 -0.2790
 6374SOL    HW130584   4.050   4.259   9.794 -3.0170  1.7185  0.4826
 6374SOL    HW230585   3.961   4.260   9.675 -0.8543  0.5536  1.0934
 6375SOL     OW30586   0.504   0.244  10.787 -0.0069 -0.0356 -0.1370
 6375SOL    HW130587   0.419   0.210  10.756 -1.4451  1.5896  2.0168
 6375SOL    HW230588   0.476   0.287  10.868  0.4567 -0.2430  0.1352
 6376SOL     OW30589   4.199   3.217   5.602  0.1773  0.3858  0.0500
 6376SOL    HW130590   4.270   3.248   5.657 -1.4740  3.0501  0.6535
 6376SOL    HW230591   4.229   3.128   5.580  1.7558  0.8841  0.2290
 6377SOL     OW30592   4.513   3.083  11.212  0.6025  0.4653  0.5335
 6377SOL    HW130593   4.585   3.111  11.156  0.9764 -0.1485  0.7129
 6377SOL    HW230594   4.477   3.166  11.242 -1.0404  0.3710 -1.1758
 6378SOL     OW30595   0.311   3.494   2.860  0.8153 -0.4485  0.2298
 6378SOL    HW130596   0.394   3.507   2.815  0.2182  1.4973 -0.3136
 6378SOL    HW230597   0.261   3.575   2.850 -0.1243 -0.9989  0.4366
 6379SOL     OW30598   0.572   3.151   5.356  0.1443 -0.7687  0.2375
 6379SOL    HW130599   0.499   3.206   5.329 -0.0899 -0.8672  0.6627
 6379SOL    HW230600   0.543   3.159   5.447 -1.3188  2.3925 -0.5016
 6380SOL     OW30601   4.577   0.506   9.553 -0.5114  0.5637 -0.3056
 6380SOL    HW130602   4.627   0.504   9.635 -1.9753 -2.1532  0.5135
 6380SOL    HW230603   4.489   0.536   9.574 -0.9542  0.3546 -1.8777
 6381SOL     OW30604   1.588   3.856   5.210  0.0687 -0.1373  0.1692
 6381SOL    HW130605   1.511   3.800   5.200  0.7711 -0.8447 -1.3595
 6381SOL    HW230606   1.644   3.809   5.273  1.1777  1.5548  0.4404
 6382SOL     OW30607   1.768   3.698  15.176  0.1238  0.5147  0.5183
 6382SOL    HW130608   1.722   3.654  15.104  0.7212  1.8470 -0.6809
 6382SOL    HW230609   1.824   3.635  15.222 -0.3545 -1.4908 -1.6064
 6383SOL     OW30610   2.490   0.503   3.974  0.0143 -0.3034 -0.2637
 6383SOL    HW130611   2.527   0.463   3.895 -0.5444 -0.8163 -0.2615
 6383SOL    HW230612   2.500   0.436   4.041 -3.1158  1.7300  2.2279
 6384SOL     OW30613   3.812   2.906   6.661  0.0855  0.6256 -0.3415
 6384SOL    HW130614   3.789   2.834   6.720 -0.3032  2.5806  1.8634
 6384SOL    HW230615   3.841   2.853   6.586 -1.5640 -1.5874  0.5717
 6385SOL     OW30616   0.582   1.794  11.142 -0.4076  0.0914  0.3269
 6385SOL    HW130617   0.605   1.849  11.217  0.1973  0.2339  0.0342
 6385SOL    HW230618   0.605   1.864  11.080 -0.9466 -2.3359 -2.6022
 6386SOL     OW30619   3.318   2.020   0.260 -0.5088 -0.0663  0.0893
 6386SOL    HW130620   3.271   2.099   0.236  0.4192  0.8264  1.2292
 6386SOL    HW230621   3.245   1.959   0.278 -0.7350 -0.2615 -1.5214
 6387SOL     OW30622   3.008   0.121   9.524  0.5097 -0.7012 -0.3663
 6387SOL    HW130623   3.100   0.097   9.516  1.1950  1.1802  2.4017
 6387SOL    HW230624   3.007   0.207   9.566 -1.5902 -1.4693  1.2018
 6388SOL     OW30625   0.647   2.762   3.588 -0.3424 -0.4759  0.3976
 6388SOL    HW130626   0.676   2.853   3.582  1.8737 -1.2021  0.2584
 6388SOL    HW230627   0.596   2.757   3.669 -2.4124  1.4256 -0.7622
 6389SOL     OW30628   0.395   2.755   8.654 -0.3444  0.1027  0.0620
 6389SOL    HW130629   0.453   2.831   8.647  2.0629 -1.4080  3.3285
 6389SOL    HW230630   0.398   2.736   8.560 -0.5323 -2.9288  0.6694
 6390SOL     OW30631   1.964   4.167   2.904  0.0479 -0.1623 -0.1177
 6390SOL    HW130632   1.965   4.117   2.986 -0.8362 -0.6771 -0.4212
 6390SOL    HW230633   1.935   4.256   2.925 -0.7899 -0.2031 -1.1031
 6391SOL     OW30634   3.110   4.046   1.231 -0.0726  0.8204 -0.4364
 6391SOL    HW130635   3.041   4.108   1.251  0.5316  1.8983 -1.6960
 6391SOL    HW230636   3.108   3.981   1.302  0.1273 -1.2992 -2.3659
 6392SOL     OW30637   3.467   0.780   0.494  0.0164  0.2536 -0.8350
 6392SOL    HW130638   3.470   0.695   0.539 -2.3667  1.3577  1.4231
 6392SOL    HW230639   3.508   0.822   0.570 -1.1336 -0.0038 -0.0707
 6393SOL     OW30640   2.939   4.670   0.208  0.1503  0.1390 -0.6164
 6393SOL    HW130641   2.892   0.005   0.268  1.8672  0.1311  0.7620
 6393SOL    HW230642   3.027   4.703   0.225 -0.1766  0.3499  0.6580
 6394SOL     OW30643   1.963   3.190  16.411  0.9796 -0.0080 -0.2620
 6394SOL    HW130644   1.974   3.095  16.419 -1.1856 -0.1716  0.6229
 6394SOL    HW230645   1.884   3.201  16.358  0.6727 -1.7355 -0.1890
 6395SOL     OW30646   3.950   0.357   7.872 -0.4109 -0.7933  0.3546
 6395SOL    HW130647   3.910   0.293   7.931 -0.7528  1.2852  2.3990
 6395SOL    HW230648   4.038   0.320   7.875  0.5171  1.2905 -0.7812
 6396SOL     OW30649   3.959   0.609   4.472 -0.1928  0.2193  0.1714
 6396SOL    HW130650   4.045   0.641   4.498  1.1513 -2.7873 -0.5480
 6396SOL    HW230651   3.982   0.555   4.397  0.3042 -2.6555  2.3686
 6397SOL     OW30652   0.053   2.951   3.641  0.0673 -0.0208  0.6852
 6397SOL    HW130653   0.085   2.888   3.706  0.1546  0.3334  0.9910
 6397SOL    HW230654   0.059   3.035   3.688 -0.5996  0.2701  0.2520
 6398SOL     OW30655   3.948   2.872  14.642  0.3161 -0.3030 -0.0151
 6398SOL    HW130656   3.937   2.949  14.698 -2.0143 -1.6507  1.3893
 6398SOL    HW230657   4.028   2.896  14.595 -0.0521 -0.4419 -0.7095
 6399SOL     OW30658   3.362   0.114  12.656  0.5662 -0.4469 -0.2703
 6399SOL    HW130659   3.285   0.165  12.630  1.6605  1.5412  0.4295
 6399SOL    HW230660   3.338   0.027  12.623  0.7620 -1.5883  2.6691
 6400SOL     OW30661   2.100   1.636  12.923 -0.3434 -0.3620  0.3952
 6400SOL    HW130662   2.036   1.623  12.992  2.8022 -2.1545  2.9870
 6400SOL    HW230663   2.052   1.617  12.842 -0.4530  0.8092  0.1899
 6401SOL     OW30664   4.192   2.417  14.982 -0.3404  0.0972 -0.7427
 6401SOL    HW130665   4.260   2.350  14.975 -0.5702 -0.0647 -1.4139
 6401SOL    HW230666   4.199   2.435  15.076 -0.3586  0.3455 -0.7900
 6402SOL     OW30667   2.146   0.871  17.684 -0.7724  0.2290 -0.1921
 6402SOL    HW130668   2.104   0.940  17.634 -1.7732  1.7894  2.8172
 6402SOL    HW230669   2.170   0.931   0.062  2.2930  0.9319 -1.8223
 6403SOL     OW30670   3.969   4.714   7.190 -0.5833  0.3669 -0.9029
 6403SOL    HW130671   3.972   0.035   7.105 -1.1699  1.3121 -0.4433
 6403SOL    HW230672   3.916   0.054   7.241 -0.6540  0.5932 -1.2552
 6404SOL     OW30673   2.891   1.345  16.088  0.3664 -0.5877 -0.2653
 6404SOL    HW130674   2.863   1.385  16.006  2.7378  2.8800  0.5660
 6404SOL    HW230675   2.852   1.260  16.072 -0.5553  0.2045 -2.1875
 6405SOL     OW30676   2.981   0.535   9.972  0.5544  0.0627  0.3164
 6405SOL    HW130677   2.894   0.575   9.962  0.5453  0.5458  2.3691
 6405SOL    HW230678   2.978   0.473  10.045  2.0032 -2.2258 -1.5611
 6406SOL     OW30679   4.074   3.354  15.376 -0.2865  0.0312  0.3288
 6406SOL    HW130680   4.039   3.405  15.303 -1.9402 -1.5260  0.0317
 6406SOL    HW230681   4.017   3.278  15.379  1.8069 -1.6036 -0.9565
 6407SOL     OW30682   1.801   0.263  14.036 -0.4351 -0.5026 -0.2534
 6407SOL    HW130683   1.712   0.264  14.001 -0.8950  1.0223  0.9723
 6407SOL    HW230684   1.788   0.235  14.126  1.2322 -1.9137 -0.4582
 6408SOL     OW30685   1.859   2.580  10.496 -0.5558 -0.0471  0.0206
 6408SOL    HW130686   1.794   2.553  10.562  2.4110 -0.8908  2.6038
 6408SOL    HW230687   1.931   2.532  10.537 -0.3323 -0.5535 -0.9759
 6409SOL     OW30688   0.821   4.684  11.106 -0.1628 -0.1869  0.2014
 6409SOL    HW130689   0.886   4.690  11.035 -1.4926  0.6404 -0.9461
 6409SOL    HW230690   0.844   0.045  11.145 -0.5861  0.4703 -0.9644
 6410SOL     OW30691   3.930   2.813   8.233 -0.0253 -0.3765 -0.6607
 6410SOL    HW130692   3.841   2.838   8.210 -0.3843  0.4577  1.6617
 6410SOL    HW230693   3.981   2.829   8.153 -1.5191  0.7062 -1.3986
 6411SOL     OW30694   2.997   3.115   6.911  0.1872 -0.2450 -0.0231
 6411SOL    HW130695   3.083   3.138   6.944  0.1665 -1.4366  0.8737
 6411SOL    HW230696   2.994   3.163   6.828  1.0046 -1.3939 -0.7090
 6412SOL     OW30697   1.690   4.258   6.993 -0.5986  0.4292 -0.4835
 6412SOL    HW130698   1.692   4.352   6.976  0.7024  0.5508  0.3201
 6412SOL    HW230699   1.598   4.252   7.016 -1.0791 -0.0549 -2.5477
 6413SOL     OW30700   3.695   1.356  12.430 -0.7383  0.2628  0.3227
 6413SOL    HW130701   3.752   1.431  12.443 -0.7204  0.6669 -2.2171
 6413SOL    HW230702   3.685   1.334  12.523 -0.6243  2.9935  0.9620
 6414SOL     OW30703   2.965   1.843   8.177  0.7104  0.1512  0.0775
 6414SOL    HW130704   2.893   1.891   8.218 -0.6598 -3.4041  1.7741
 6414SOL    HW230705   3.021   1.837   8.254  0.7890  2.3156  0.1985
 6415SOL     OW30706   1.681   2.431   4.936  0.2167  0.1748 -0.0593
 6415SOL    HW130707   1.602   2.463   4.980 -0.3545  1.5996 -2.1173
 6415SOL    HW230708   1.672   2.337   4.951 -0.3855  0.3056  0.3792
 6416SOL     OW30709   4.391   3.279   2.023  0.2637 -0.4108 -0.3376
 6416SOL    HW130710   4.333   3.335   2.075 -0.5894 -3.6545  2.1863
 6416SOL    HW230711   4.329   3.263   1.952  0.6977  2.3888 -1.3772
 6417SOL     OW30712   3.632   4.435   8.667  0.0937 -0.4404  0.0513
 6417SOL    HW130713   3.566   4.370   8.642  0.1782 -0.1705 -0.8652
 6417SOL    HW230714   3.591   4.521   8.663 -0.3765 -0.6947 -0.6898
 6418SOL     OW30715   2.118   1.453   9.363  0.0728 -0.2761 -0.3319
 6418SOL    HW130716   2.158   1.368   9.343 -1.7755 -1.4834  1.0402
 6418SOL    HW230717   2.196   1.508   9.355 -0.4632  0.8867  2.3145
 6419SOL     OW30718   2.060   3.527   6.124  0.0300  0.0166 -0.1036
 6419SOL    HW130719   2.125   3.494   6.185  0.9374 -0.0739 -1.1131
 6419SOL    HW230720   1.981   3.546   6.175  0.4467 -0.4767  0.7133
 6420SOL     OW30721   0.272   0.732   5.463 -0.3385 -0.1912 -0.4344
 6420SOL    HW130722   0.225   0.690   5.390 -0.9771  0.8132 -0.5959
 6420SOL    HW230723   0.356   0.743   5.418 -0.8047  1.5131 -0.8887
 6421SOL     OW30724   3.046   0.418   8.603  0.0009  0.0598 -0.0782
 6421SOL    HW130725   3.032   0.510   8.581  3.5014  0.9410  1.4661
 6421SOL    HW230726   2.955   0.394   8.619 -0.0297 -0.0826 -0.4776
 6422SOL     OW30727   3.763   4.409   9.154  0.0842  0.2571 -0.2288
 6422SOL    HW130728   3.766   4.460   9.073 -0.6506  2.1889  0.9477
 6422SOL    HW230729   3.733   4.323   9.126 -0.2213  0.4925 -0.6180
 6423SOL     OW30730   0.404   3.850   4.537  0.1709 -0.5610 -0.1863
 6423SOL    HW130731   0.320   3.830   4.496 -0.2313  1.7657 -0.4844
 6423SOL    HW230732   0.388   3.829   4.630  1.2373  2.1412  0.6115
 6424SOL     OW30733   0.298   2.494  17.031  0.4267 -0.3172 -0.2299
 6424SOL    HW130734   0.213   2.537  17.028  0.1705 -0.9167 -1.4973
 6424SOL    HW230735   0.313   2.461  16.943  2.0146 -3.4289  1.1829
 6425SOL     OW30736   0.118   1.924   0.053 -0.5062  0.1204  0.0395
 6425SOL    HW130737   0.056   1.980   0.005 -0.6328 -1.0906 -1.2182
 6425SOL    HW230738   0.111   1.959   0.141  0.2705 -0.8456  0.4896
 6426SOL     OW30739   3.109   0.713   1.607 -0.2541  0.7429 -0.5367
 6426SOL    HW130740   3.040   0.733   1.670 -0.2532 -1.4609  0.1583
 6426SOL    HW230741   3.182   0.759   1.647  0.1803  0.5919 -1.1677
 6427SOL     OW30742   3.965   2.183   9.328 -0.4897 -0.3276  0.0475
 6427SOL    HW130743   4.001   2.270   9.342 -3.1112  0.6406  0.7924
 6427SOL    HW230744   4.041   2.127   9.344  0.9960  1.6142 -0.1771
 6428SOL     OW30745   0.846   3.170   4.867 -0.2088  0.5039  0.0585
 6428SOL    HW130746   0.821   3.238   4.805  2.0552  1.1674 -0.1111
 6428SOL    HW230747   0.785   3.176   4.941 -1.0272  1.7483 -0.7471
 6429SOL     OW30748   2.345   4.535   4.686  0.2632  0.0009  0.7739
 6429SOL    HW130749   2.327   4.463   4.746 -1.6923  0.8818  1.2373
 6429SOL    HW230750   2.295   4.609   4.722  1.4475  1.3320 -0.2861
 6430SOL     OW30751   2.332   2.161   4.204  0.3407  0.4438  0.0668
 6430SOL    HW130752   2.253   2.210   4.228 -1.4138 -1.9785 -0.8273
 6430SOL    HW230753   2.367   2.200   4.124 -1.0921  0.6783 -0.4351
 6431SOL     OW30754   2.866   2.808   3.811  0.1920  0.0648  0.0072
 6431SOL    HW130755   2.939   2.749   3.824 -0.5774 -0.6553  1.0984
 6431SOL    HW230756   2.848   2.849   3.896  0.0803 -0.0003  0.0150
 6432SOL     OW30757   4.336   2.298   2.533 -0.1374  0.2860  0.1105
 6432SOL    HW130758   4.362   2.242   2.606  1.6872 -1.2021 -1.6696
 6432SOL    HW230759   4.405   2.293   2.467 -1.3022  0.4511 -1.1118
 6433SOL     OW30760   3.660   2.624  13.113 -0.4295 -0.5419 -0.4074
 6433SOL    HW130761   3.566   2.635  13.097 -0.9246 -0.3455  2.5477
 6433SOL    HW230762   3.673   2.530  13.124 -0.4962 -0.3756  1.2001
 6434SOL     OW30763   0.619   3.365   9.012  0.0753 -0.9006 -0.1776
 6434SOL    HW130764   0.606   3.380   8.918  0.2939  0.0600 -0.0598
 6434SOL    HW230765   0.613   3.453   9.050  2.0763 -0.3545 -1.1046
 6435SOL     OW30766   4.539   1.016  15.470 -0.0491  0.4112  0.1083
 6435SOL    HW130767   4.547   0.971  15.386 -0.3011  1.1310 -0.2981
 6435SOL    HW230768   4.483   1.085  15.433  0.0497 -1.1050 -2.9090
 6436SOL     OW30769   0.090   2.389   8.359  0.0815 -0.2437  0.2950
 6436SOL    HW130770   0.094   2.338   8.440 -1.8406  2.9295  2.4022
 6436SOL    HW230771   0.166   2.358   8.308  0.3270 -1.7821  1.6039
 6437SOL     OW30772   1.139   4.562  13.162  0.0946 -0.4904 -0.5626
 6437SOL    HW130773   1.148   4.654  13.138 -2.8378 -0.4126 -1.3718
 6437SOL    HW230774   1.044   4.560  13.173  0.4564  0.6547  2.7787
 6438SOL     OW30775   2.950   2.395   2.923 -0.0704  0.1398  0.5407
 6438SOL    HW130776   2.919   2.447   2.849 -0.6324 -0.8349  0.0894
 6438SOL    HW230777   2.998   2.334   2.867 -1.6576 -1.4101  0.8540
 6439SOL     OW30778   3.792   2.724  13.349 -0.6333 -0.2239  0.3204
 6439SOL    HW130779   3.770   2.681  13.266 -1.3212  0.5807  0.0766
 6439SOL    HW230780   3.736   2.802  13.345 -2.1902 -1.2399  2.1072
 6440SOL     OW30781   0.817   2.992   0.277 -0.2002  0.1525  0.6705
 6440SOL    HW130782   0.838   3.055   0.208  1.9640 -0.0466  1.1388
 6440SOL    HW230783   0.875   3.015   0.350  0.7383  0.0223 -0.0369
 6441SOL     OW30784   3.910   3.966   7.105  0.0704  0.2352  0.5822
 6441SOL    HW130785   3.959   3.946   7.025 -1.7621  1.7580 -0.9240
 6441SOL    HW230786   3.942   4.053   7.127 -2.4833  1.1897  0.5266
 6442SOL     OW30787   1.337   2.280   9.874 -0.1735 -0.0889  0.1177
 6442SOL    HW130788   1.275   2.329   9.821 -1.3162  0.9633  2.4287
 6442SOL    HW230789   1.284   2.266   9.952 -0.5630  0.7678  0.0060
 6443SOL     OW30790   4.188   4.708   3.807 -0.0914 -0.0831 -0.0482
 6443SOL    HW130791   4.138   4.718   3.726  0.5875  1.8593 -0.2207
 6443SOL    HW230792   4.202   0.079   3.824  2.0944 -0.4375  0.0568
 6444SOL     OW30793   3.243   3.220  17.687 -0.0006 -0.5529  0.3629
 6444SOL    HW130794   3.330   3.213   0.034  1.3965  0.2827 -2.5458
 6444SOL    HW230795   3.272   3.280  17.618  2.1632 -2.0964 -0.0981
 6445SOL     OW30796   0.829   3.090   5.972  0.2209  0.5927  0.2338
 6445SOL    HW130797   0.737   3.113   5.963  0.2455 -0.8295 -3.7836
 6445SOL    HW230798   0.839   3.061   6.062 -1.1672  0.2425  0.2738
 6446SOL     OW30799   2.911   1.762   5.582 -0.3591 -0.4535  0.5464
 6446SOL    HW130800   2.915   1.834   5.519  1.6981 -1.2513 -0.2245
 6446SOL    HW230801   2.820   1.735   5.567 -1.3438  2.0876  1.9512
 6447SOL     OW30802   0.953   1.307   9.555  0.0184  0.0572 -0.0320
 6447SOL    HW130803   0.875   1.254   9.572  2.1192 -3.6845 -2.2222
 6447SOL    HW230804   0.989   1.310   9.644 -0.9871  1.6427  0.3281
 6448SOL     OW30805   4.463   2.172   5.748  0.1754 -0.1304 -0.0295
 6448SOL    HW130806   4.442   2.176   5.655 -1.4044 -0.2536  0.3120
 6448SOL    HW230807   4.514   2.250   5.768 -1.1816  0.4951  1.0119
 6449SOL     OW30808   0.542   2.727  12.301 -0.5217  0.6426  0.0285
 6449SOL    HW130809   0.578   2.801  12.349  0.3074  0.1075  0.2197
 6449SOL    HW230810   0.513   2.680  12.379  0.2759  0.0664 -0.0271
 6450SOL     OW30811   2.978   3.873   5.376 -0.1003  0.2729  0.5116
 6450SOL    HW130812   2.924   3.951   5.362 -0.2215  0.2623  0.9211
 6450SOL    HW230813   2.930   3.827   5.445  0.2309 -1.6132 -0.5298
 6451SOL     OW30814   3.989   0.222   5.990 -0.0658  0.5200 -0.1770
 6451SOL    HW130815   4.034   0.247   6.070  1.9045 -0.4799 -0.9708
 6451SOL    HW230816   3.927   0.294   5.979  0.4339  0.7387 -1.6017
 6452SOL     OW30817   0.139   4.413   0.024  0.5678 -0.0356  0.2461
 6452SOL    HW130818   0.117   4.361  17.639  1.9433  0.5522 -0.5231
 6452SOL    HW230819   0.103   4.492  17.677  3.0491  0.8234 -0.2626
 6453SOL     OW30820   4.259   1.689   3.579  0.6938 -0.3260 -0.4751
 6453SOL    HW130821   4.334   1.630   3.571 -0.3208 -1.9059  1.5958
 6453SOL    HW230822   4.247   1.700   3.485 -2.5456 -1.9227 -0.2421
 6454SOL     OW30823   0.667   3.465  16.542 -0.2464  0.3350 -0.1681
 6454SOL    HW130824   0.586   3.461  16.593  0.3414  1.2044  0.8427
 6454SOL    HW230825   0.688   3.377  16.512 -0.4943  0.3928 -0.5184
 6455SOL     OW30826   1.638   3.646   0.777 -0.5469  0.3324  0.3183
 6455SOL    HW130827   1.661   3.670   0.687 -0.0079  0.5393  0.5163
 6455SOL    HW230828   1.551   3.686   0.773 -1.3573 -1.2754  1.6427
 6456SOL     OW30829   0.175   3.426  15.394  0.1448  0.2909 -0.6624
 6456SOL    HW130830   0.196   3.442  15.302  2.1077  1.2412 -0.0446
 6456SOL    HW230831   0.079   3.433  15.389  0.1314 -0.1169 -1.0465
 6457SOL     OW30832   2.234   4.230   2.839 -0.0142 -0.1039 -0.0880
 6457SOL    HW130833   2.138   4.228   2.833  0.0040 -2.3415  0.3307
 6457SOL    HW230834   2.246   4.255   2.930  2.2764  1.0277 -0.7193
 6458SOL     OW30835   0.496   0.643   9.662  0.0844 -0.8078  0.0910
 6458SOL    HW130836   0.585   0.608   9.673  0.3860 -0.6177 -1.7765
 6458SOL    HW230837   0.446   0.564   9.640 -0.1585 -0.1202 -1.8761
 6459SOL     OW30838   2.917   4.409   0.171 -0.1289 -0.3797  0.2403
 6459SOL    HW130839   3.007   4.380   0.190  0.5846  1.6163 -0.1215
 6459SOL    HW230840   2.920   4.503   0.190  1.2815 -0.5182  0.7564
 6460SOL     OW30841   4.160   1.592   4.896  0.3175 -0.0300 -0.3247
 6460SOL    HW130842   4.234   1.542   4.863  1.5849  0.4135  1.8324
 6460SOL    HW230843   4.138   1.635   4.814 -0.7587 -0.9985 -0.5349
 6461SOL     OW30844   4.204   1.283   7.042  0.0462  0.1298  0.4770
 6461SOL    HW130845   4.149   1.357   7.017  0.4237  0.6640  1.2178
 6461SOL    HW230846   4.151   1.214   7.003  0.3808  1.7225 -2.7837
 6462SOL     OW30847   0.602   0.556  15.176 -0.1088  0.1062 -0.3508
 6462SOL    HW130848   0.631   0.603  15.254 -1.9273  1.3084 -0.4090
 6462SOL    HW230849   0.526   0.606  15.147  0.2433  0.7776 -0.1109
 6463SOL     OW30850   3.189   3.631  13.027 -0.0460  0.3702  0.0480
 6463SOL    HW130851   3.219   3.654  13.114 -0.2468  2.3778 -0.4070
 6463SOL    HW230852   3.224   3.546  13.001  2.1486  1.7748 -1.5978
 6464SOL     OW30853   0.186   0.690   6.210 -0.0663  0.1156 -0.2951
 6464SOL    HW130854   0.199   0.754   6.279 -1.7485  0.0906  0.0337
 6464SOL    HW230855   0.278   0.681   6.186  0.0104  2.4380 -0.8394
 6465SOL     OW30856   2.342   0.582   4.354  0.0858 -0.6841  0.2637
 6465SOL    HW130857   2.321   0.672   4.328  1.2476 -0.1359  1.1917
 6465SOL    HW230858   2.260   0.541   4.330  0.6848 -1.5981 -0.2061
 6466SOL     OW30859   4.224   2.911   1.373 -0.1697 -0.4192 -0.3417
 6466SOL    HW130860   4.316   2.890   1.393 -0.6172 -3.0648 -1.0890
 6466SOL    HW230861   4.246   3.004   1.376  0.1436 -0.5181  0.8241
 6467SOL     OW30862   0.443   2.714  15.884  0.5311 -0.5192 -0.2205
 6467SOL    HW130863   0.386   2.725  15.808  3.4409 -1.1031 -2.4571
 6467SOL    HW230864   0.479   2.801  15.896 -1.5870 -0.0263  2.6600
 6468SOL     OW30865   1.865   1.383   7.634  0.1915 -0.0521  0.4906
 6468SOL    HW130866   1.884   1.422   7.549  1.8704 -4.3282 -1.0556
 6468SOL    HW230867   1.788   1.435   7.658 -0.5614 -0.6217 -0.6810
 6469SOL     OW30868   1.554   4.273   2.730 -0.2513 -0.4540 -0.7393
 6469SOL    HW130869   1.610   4.273   2.652  0.9056  0.3012  0.0919
 6469SOL    HW230870   1.506   4.355   2.716 -0.2549 -0.3182  0.0754
 6470SOL     OW30871   0.053   1.151   5.052  0.2349  0.0976  0.7261
 6470SOL    HW130872   0.077   1.235   5.013  0.2165 -1.1949 -2.0586
 6470SOL    HW230873   0.001   1.186   5.125 -1.4246 -1.6764  0.4208
 6471SOL     OW30874   2.512   2.884   1.195 -0.1489 -0.5206 -0.1309
 6471SOL    HW130875   2.463   2.845   1.122 -1.4165  1.2616 -0.2328
 6471SOL    HW230876   2.598   2.895   1.154  0.9217 -3.6253  1.2995
 6472SOL     OW30877   3.359   3.699  12.784  0.0403 -0.7703 -0.3692
 6472SOL    HW130878   3.358   3.782  12.832 -3.0284 -0.4210 -1.0401
 6472SOL    HW230879   3.374   3.639  12.858  3.4480 -0.9400 -1.2103
 6473SOL     OW30880   4.693   0.347   9.954 -0.3387 -0.2327 -0.5248
 6473SOL    HW130881   4.636   0.274   9.930  0.2606 -1.1108  0.7247
 6473SOL    HW230882   0.021   0.365   9.875 -0.5329  0.8762 -0.3950
 6474SOL     OW30883   0.171   1.178   9.982  0.0419 -0.3222  0.3215
 6474SOL    HW130884   0.190   1.107   9.921  1.4387  0.1376  0.2372
 6474SOL    HW230885   0.260   1.197  10.012 -0.5101  3.1980 -0.2626
 6475SOL     OW30886   4.167   3.207   1.100  0.0700 -0.4212  0.1278
 6475SOL    HW130887   4.205   3.276   1.155 -0.3287 -0.8407  0.9338
 6475SOL    HW230888   4.228   3.196   1.027  0.3552  1.0809  0.1434
 6476SOL     OW30889   4.166   0.858   7.209 -0.2036 -0.0825 -0.2522
 6476SOL    HW130890   4.086   0.907   7.188  0.2776  1.2761  1.1439
 6476SOL    HW230891   4.129   0.809   7.283 -1.1534  0.5948 -0.2735
 6477SOL     OW30892   4.080   1.275  10.089  0.8462  0.1527  0.1456
 6477SOL    HW130893   4.145   1.284  10.159  1.4165 -1.5830 -0.1652
 6477SOL    HW230894   4.040   1.194  10.119 -0.1358  0.7298  0.4144
 6478SOL     OW30895   1.321   4.656  15.730  0.1765  0.3612 -0.5124
 6478SOL    HW130896   1.269   4.576  15.733 -0.3528  0.6994 -0.7461
 6478SOL    HW230897   1.408   4.623  15.704  0.0855  0.1819 -0.5868
 6479SOL     OW30898   2.405   3.829   8.525  0.0538  0.3295 -0.2043
 6479SOL    HW130899   2.405   3.744   8.480  2.8162  0.3060 -0.1669
 6479SOL    HW230900   2.387   3.886   8.450 -2.2718  0.5127  0.4913
 6480SOL     OW30901   4.650   0.695   3.993  0.4954 -0.1537  0.3066
 6480SOL    HW130902   4.596   0.766   3.958  1.4822  1.6036  2.3548
 6480SOL    HW230903   4.675   0.634   3.924 -0.1699  0.8791 -0.8519
 6481SOL     OW30904   2.979   3.836   6.374 -0.1575 -0.1959  0.0544
 6481SOL    HW130905   2.954   3.883   6.453 -0.4400  0.5833 -0.5011
 6481SOL    HW230906   2.906   3.846   6.313  1.7256 -0.0110 -2.1819
 6482SOL     OW30907   2.898   2.240   4.739  0.0873  0.0313  0.4372
 6482SOL    HW130908   2.844   2.260   4.815 -0.1024 -1.1517  0.6133
 6482SOL    HW230909   2.976   2.207   4.785  0.1218 -1.3731 -0.6230
 6483SOL     OW30910   4.715   0.186  11.131 -0.0383  0.6598  0.0299
 6483SOL    HW130911   4.669   0.114  11.174 -1.2852  0.8390 -1.0069
 6483SOL    HW230912   0.011   0.139  11.050  0.3913 -0.3930  0.7436
 6484SOL     OW30913   1.278   0.653   4.887 -0.5640  0.0274  0.0132
 6484SOL    HW130914   1.236   0.577   4.847 -0.1488 -0.5559  0.6930
 6484SOL    HW230915   1.368   0.621   4.885 -0.6077  0.0978 -4.0387
 6485SOL     OW30916   2.884   1.158  12.005  0.2101  0.3458  0.2444
 6485SOL    HW130917   2.950   1.213  12.046  0.0482  0.4793  0.3229
 6485SOL    HW230918   2.935   1.086  11.966  2.3453  1.6985  0.5251
 6486SOL     OW30919   3.449   3.919   0.508  0.4115 -0.7270  0.2096
 6486SOL    HW130920   3.498   3.849   0.551 -1.0680 -0.8125  1.7354
 6486SOL    HW230921   3.369   3.938   0.555  1.8874 -0.0458  2.4311
 6487SOL     OW30922   1.437   1.410   5.650  0.2022 -0.2041  0.3031
 6487SOL    HW130923   1.490   1.378   5.577 -0.5083  1.7167 -1.0331
 6487SOL    HW230924   1.503   1.438   5.713 -0.2786  0.2094  0.6187
 6488SOL     OW30925   4.261   3.445   8.028 -0.4812  0.0075 -0.5548
 6488SOL    HW130926   4.191   3.406   7.975 -0.1786 -0.4604 -0.6073
 6488SOL    HW230927   4.270   3.513   7.961 -0.8437 -1.4527 -2.0907
 6489SOL     OW30928   4.170   2.098   0.177 -0.1493  0.3160 -0.3826
 6489SOL    HW130929   4.195   2.118   0.267 -0.0725 -1.2556 -0.0513
 6489SOL    HW230930   4.110   2.024   0.189 -2.1594  1.9630 -0.3990
 6490SOL     OW30931   3.538   2.145   2.971  0.5903  0.0747  0.3467
 6490SOL    HW130932   3.561   2.074   2.911 -0.6217  1.0235 -1.2452
 6490SOL    HW230933   3.627   2.160   3.005  1.1185 -0.1843 -0.8929
 6491SOL     OW30934   4.519   0.266   9.424 -0.0415  0.2798 -0.2665
 6491SOL    HW130935   4.577   0.309   9.361  0.4498  0.5049  0.3411
 6491SOL    HW230936   4.509   0.332   9.493  1.1703 -1.0915  1.2266
 6492SOL     OW30937   4.292   4.555  11.764  0.2852 -0.0476  0.1211
 6492SOL    HW130938   4.210   4.548  11.814  2.0303 -2.9934  2.5930
 6492SOL    HW230939   4.256   4.540  11.677  1.1967 -0.0052 -0.2567
 6493SOL     OW30940   2.141   2.690   8.293  0.1150 -0.3108 -0.7656
 6493SOL    HW130941   2.066   2.660   8.242 -2.2486 -0.0434  2.5623
 6493SOL    HW230942   2.139   2.645   8.377 -1.1262  0.7902 -0.1948
 6494SOL     OW30943   3.733   0.856   0.050  0.0588  0.3409 -0.2932
 6494SOL    HW130944   3.812   0.876   0.000  2.0612 -2.0399  1.9050
 6494SOL    HW230945   3.729   0.761   0.036  0.7860  0.2147  0.3252
 6495SOL     OW30946   0.747   2.922  16.880  0.1092  0.1352  0.0837
 6495SOL    HW130947   0.679   2.983  16.850  0.0781  0.6296  1.1683
 6495SOL    HW230948   0.817   2.963  16.829 -0.9735  0.3891 -1.2064
 6496SOL     OW30949   0.118   3.795   4.986  0.1888  0.4465  0.1510
 6496SOL    HW130950   0.099   3.882   5.019  1.3997  1.0527 -0.7653
 6496SOL    HW230951   0.025   3.772   4.982 -0.2204  2.4541 -1.8933
 6497SOL     OW30952   4.503   0.090   4.136  0.3764  0.6112  0.4872
 6497SOL    HW130953   4.530   0.101   4.045 -1.4040  0.4263 -0.0621
 6497SOL    HW230954   4.581   0.132   4.174  1.1825 -0.4157 -0.0410
 6498SOL     OW30955   2.647   3.273   9.699  0.2817  0.1626 -0.0383
 6498SOL    HW130956   2.631   3.313   9.613  2.2023  1.0639  0.0243
 6498SOL    HW230957   2.564   3.234   9.725 -1.1160  2.2776 -1.2662
 6499SOL     OW30958   3.468   2.962   3.654 -0.0573  0.5375 -0.0363
 6499SOL    HW130959   3.446   2.876   3.688  0.1794  0.2996 -0.4879
 6499SOL    HW230960   3.453   3.021   3.729  0.4901  3.2520 -2.0596
 6500SOL     OW30961   2.123   4.542   6.900 -0.0254 -0.5009  0.2339
 6500SOL    HW130962   2.035   4.573   6.920  0.2477  1.3428 -1.4365
 6500SOL    HW230963   2.164   4.544   6.987 -0.8818 -1.2782  0.6605
 6501SOL     OW30964   2.922   1.272   5.173  0.0319 -0.1710 -0.0259
 6501SOL    HW130965   2.979   1.249   5.246  0.7035 -1.8352 -1.0799
 6501SOL    HW230966   2.872   1.191   5.165 -2.8050  1.5928 -0.2056
 6502SOL     OW30967   4.714   0.403   9.231 -0.6525 -0.4907  0.3838
 6502SOL    HW130968   0.056   0.470   9.206  0.0031 -1.7450 -1.2586
 6502SOL    HW230969   4.652   0.405   9.158  0.8880  0.9609 -0.8868
 6503SOL     OW30970   1.345   4.581   5.773  0.5892 -0.0823  0.1153
 6503SOL    HW130971   1.254   4.561   5.750  0.2448  0.9066  0.5874
 6503SOL    HW230972   1.377   4.493   5.793 -0.4209 -0.0376  1.9685
 6504SOL     OW30973   2.440   3.021   7.840 -0.1196 -0.6041 -0.3223
 6504SOL    HW130974   2.430   3.080   7.914 -0.2160 -1.5702  0.4337
 6504SOL    HW230975   2.535   3.019   7.839 -0.1495 -1.9221 -0.0153
 6505SOL     OW30976   2.731   1.660   3.721  0.3324 -0.0880  0.5811
 6505SOL    HW130977   2.734   1.674   3.626 -0.6919  2.5827  0.9447
 6505SOL    HW230978   2.822   1.634   3.731  0.1892  0.0668  2.2288
 6506SOL     OW30979   2.547   3.306   2.425  0.0365  0.5977  0.3198
 6506SOL    HW130980   2.636   3.270   2.434 -0.9975 -2.1593 -0.2977
 6506SOL    HW230981   2.572   3.398   2.425 -0.7688  0.8175  0.8173
 6507SOL     OW30982   2.820   0.226   5.092 -0.0420 -0.0986  0.0121
 6507SOL    HW130983   2.829   0.147   5.039  1.0495  0.7852 -1.1274
 6507SOL    HW230984   2.868   0.195   5.168 -0.1615  2.3444  1.0896
 6508SOL     OW30985   4.168   2.007   9.387 -0.1686 -0.2677  0.5701
 6508SOL    HW130986   4.241   2.039   9.335  0.4166  0.7667  2.0423
 6508SOL    HW230987   4.203   1.919   9.397  1.6792  0.1227 -2.4626
 6509SOL     OW30988   3.262   1.960   2.717  0.1347  0.3759  0.1496
 6509SOL    HW130989   3.195   2.000   2.661 -0.9223 -0.0176  1.1301
 6509SOL    HW230990   3.338   1.996   2.670 -0.6435  3.0189  0.9232
 6510SOL     OW30991   4.678   0.036   3.685 -0.4907  0.3589 -0.3988
 6510SOL    HW130992   0.028   4.716   3.731 -1.2445  0.8458  1.2411
 6510SOL    HW230993   4.621   4.692   3.648  0.8990  0.1381 -2.1473
 6511SOL     OW30994   2.570   4.328  14.380  0.8836 -0.7632 -0.0301
 6511SOL    HW130995   2.559   4.323  14.285  1.3736  2.8184 -0.2538
 6511SOL    HW230996   2.659   4.293  14.379  1.9115  1.9150 -0.8295
 6512SOL     OW30997   1.835   2.154   4.220  0.4858 -0.1629  0.6508
 6512SOL    HW130998   1.904   2.104   4.176  0.4505 -0.0750  0.4936
 6512SOL    HW230999   1.876   2.193   4.297  0.0664 -0.4387  1.0132
 6513SOL     OW31000   4.000   3.010   1.191  0.2805 -0.0689  0.5977
 6513SOL    HW131001   3.929   3.074   1.186  0.6193  0.2282 -0.4680
 6513SOL    HW231002   4.079   3.058   1.163 -0.9279  0.7218 -1.4853
 6514SOL     OW31003   3.182   1.062   7.338 -0.1054  0.2652  0.0758
 6514SOL    HW131004   3.175   0.970   7.313  2.1938  0.5873 -1.7371
 6514SOL    HW231005   3.116   1.089   7.274 -0.4574  0.6844  0.6190
 6515SOL     OW31006   2.779   0.879  16.184  0.1032 -0.0100  0.2739
 6515SOL    HW131007   2.707   0.933  16.215 -0.5124 -0.7875  0.2199
 6515SOL    HW231008   2.778   0.802  16.241 -0.0719  1.6929  2.5541
 6516SOL     OW31009   0.790   4.716   4.086 -0.1634 -0.7841  0.1005
 6516SOL    HW131010   0.832   4.673   4.012  0.4101 -0.3532  0.1797
 6516SOL    HW231011   0.730   4.646   4.113 -0.4653  0.1014  1.7437
 6517SOL     OW31012   3.658   2.941   7.102  0.5939  0.1252 -0.4044
 6517SOL    HW131013   3.642   3.008   7.169 -0.2318 -1.4966  0.9883
 6517SOL    HW231014   3.701   3.005   7.046  1.3448  0.2997  0.3751
 6518SOL     OW31015   3.475   3.850  15.180 -0.3515 -0.2508  0.0257
 6518SOL    HW131016   3.517   3.936  15.191 -0.3232 -0.0809 -1.3461
 6518SOL    HW231017   3.473   3.829  15.087  0.1835 -0.9712  0.1780
 6519SOL     OW31018   1.831   4.382   7.341  0.5662  0.1779 -0.5620
 6519SOL    HW131019   1.842   4.306   7.284  0.0485  1.3316 -2.1936
 6519SOL    HW231020   1.758   4.350   7.394  1.8832 -1.0451  0.5123
 6520SOL     OW31021   3.886   4.284   4.558  0.3451  0.1861  0.6134
 6520SOL    HW131022   3.979   4.286   4.580  0.3410 -0.1304  0.6661
 6520SOL    HW231023   3.849   4.236   4.632  1.8349 -2.7637 -0.5354
 6521SOL     OW31024   4.315   1.620  10.046  0.6622  0.1495 -0.1380
 6521SOL    HW131025   4.356   1.706  10.049 -0.8482  0.8208  1.3480
 6521SOL    HW231026   4.357   1.562  10.109 -2.6931 -0.9727  1.1102
 6522SOL     OW31027   2.753   3.847   3.100 -0.0949  0.3568 -0.2010
 6522SOL    HW131028   2.758   3.937   3.069 -3.5957  0.6941  0.2599
 6522SOL    HW231029   2.813   3.842   3.175  0.2647 -1.4813 -0.6089
 6523SOL     OW31030   0.216   0.709   7.434  0.2660  0.1401 -0.1925
 6523SOL    HW131031   0.149   0.726   7.500  2.1361  2.5742  1.0612
 6523SOL    HW231032   0.157   0.704   7.359  0.3755  3.0059 -0.4952
 6524SOL     OW31033   1.370   2.090  14.104 -0.1430 -0.9960  0.0809
 6524SOL    HW131034   1.303   2.153  14.079  1.7584  1.5754  1.5317
 6524SOL    HW231035   1.431   2.101  14.031 -0.3839 -2.3322 -0.3354
 6525SOL     OW31036   2.113   1.859   5.917 -0.0368 -0.5512  0.1048
 6525SOL    HW131037   2.188   1.816   5.878 -1.5948 -0.3370 -3.0889
 6525SOL    HW231038   2.049   1.789   5.907 -0.6624  0.1583 -0.9139
 6526SOL     OW31039   4.578   3.766   8.644  0.3267  0.0641 -0.1410
 6526SOL    HW131040   4.599   3.856   8.622 -1.7042  1.1119  2.2340
 6526SOL    HW231041   4.665   3.741   8.674  0.5177  1.2236  0.2511
 6527SOL     OW31042   3.814   1.533   7.125  0.5319  0.6590 -0.6183
 6527SOL    HW131043   3.731   1.579   7.113  0.7899  1.5563  1.0244
 6527SOL    HW231044   3.773   1.448   7.141  1.3982  0.5791  1.1093
 6528SOL     OW31045   3.068   0.375   5.778 -0.6477 -0.0204  0.1398
 6528SOL    HW131046   3.033   0.410   5.860 -1.2157 -0.6820  0.1724
 6528SOL    HW231047   3.163   0.371   5.792 -0.8580 -0.2410  1.4960
 6529SOL     OW31048   2.913   4.540   4.211  0.0829 -0.2242  0.0041
 6529SOL    HW131049   3.002   4.546   4.246 -1.1605  0.2343  3.0859
 6529SOL    HW231050   2.897   4.631   4.184  1.6235  0.0648  0.0689
 6530SOL     OW31051   1.206   4.526  12.803 -0.6502 -0.6095  0.0007
 6530SOL    HW131052   1.247   4.609  12.779 -1.7690 -0.0142  0.1745
 6530SOL    HW231053   1.131   4.517  12.744 -0.0290 -0.0351 -0.8721
 6531SOL     OW31054   2.902   0.084   4.123 -0.1002  0.6873 -0.5712
 6531SOL    HW131055   2.997   0.089   4.112  0.3169 -2.3817  1.7929
 6531SOL    HW231056   2.872   0.158   4.070 -0.8413 -0.1021 -1.2689
 6532SOL     OW31057   0.619   0.223   0.759  0.2413 -0.5015 -0.0708
 6532SOL    HW131058   0.704   0.215   0.717  0.3935 -0.7151  0.2791
 6532SOL    HW231059   0.649   0.226   0.850  0.0708  0.5133 -0.0471
 6533SOL     OW31060   2.119   0.343   7.139 -0.1752  0.1941 -0.3174
 6533SOL    HW131061   2.186   0.364   7.075 -0.9529  1.4088 -0.7201
 6533SOL    HW231062   2.149   0.271   7.195 -0.7405  0.7522  0.6828
 6534SOL     OW31063   0.078   2.404   9.152 -0.2235 -0.1554  0.0543
 6534SOL    HW131064   0.024   2.442   9.221 -2.8937 -2.4380 -0.7552
 6534SOL    HW231065   0.111   2.339   9.213  0.7974 -1.9599 -2.3935
 6535SOL     OW31066   1.740   1.863   8.254 -0.6784  0.0165  0.6595
 6535SOL    HW131067   1.701   1.780   8.282 -0.9418  0.2668  1.0400
 6535SOL    HW231068   1.804   1.834   8.189 -0.3470  0.8451  0.6159
 6536SOL     OW31069   0.530   3.996   3.601  0.4539 -1.0573  0.5024
 6536SOL    HW131070   0.532   4.090   3.617 -0.0462 -0.6334 -1.8142
 6536SOL    HW231071   0.442   3.982   3.635  0.9109  0.6082  2.3153
 6537SOL     OW31072   3.008   4.619   8.439  0.5679  0.6372  0.6396
 6537SOL    HW131073   3.071   4.563   8.483 -0.9373 -1.2128  0.4289
 6537SOL    HW231074   3.056   4.675   8.377  0.5426 -0.0827 -0.0295
 6538SOL     OW31075   3.324   3.940   2.884 -0.5351 -0.0865 -0.0042
 6538SOL    HW131076   3.231   3.923   2.872 -0.2868 -1.3402 -0.1030
 6538SOL    HW231077   3.351   3.851   2.863 -1.8801 -0.5570  0.3190
 6539SOL     OW31078   1.368   2.686   3.750  0.4206  0.1557 -0.0169
 6539SOL    HW131079   1.361   2.595   3.780 -0.7847  0.3072  0.1614
 6539SOL    HW231080   1.299   2.684   3.684 -0.7656  3.4094  1.1383
 6540SOL     OW31081   4.582   2.973  12.876  0.1365 -0.2145  0.1777
 6540SOL    HW131082   4.486   2.976  12.880  0.2821  0.6082  3.1081
 6540SOL    HW231083   4.604   3.064  12.854 -0.9694 -0.0905 -0.4148
 6541SOL     OW31084   4.551   0.361   3.957 -0.1574 -0.4577 -0.1631
 6541SOL    HW131085   4.635   0.384   3.916 -0.7810  2.1266  0.0532
 6541SOL    HW231086   4.520   0.286   3.906 -0.4892  0.5878 -1.4916
 6542SOL     OW31087   2.494   4.194   5.305  0.4576 -0.3118  0.1078
 6542SOL    HW131088   2.451   4.280   5.312 -0.1116 -0.5092 -0.9383
 6542SOL    HW231089   2.489   4.180   5.211  0.7849  0.4594 -0.0242
 6543SOL     OW31090   2.282   4.327   4.878 -0.0406 -0.0323 -0.0217
 6543SOL    HW131091   2.354   4.327   4.941 -0.4146 -0.0237  0.4091
 6543SOL    HW231092   2.232   4.403   4.908  1.4048  0.3952  1.3328
 6544SOL     OW31093   4.212   4.154   4.137  0.0143  0.4750  0.1432
 6544SOL    HW131094   4.211   4.087   4.206  0.1642 -2.2312 -2.4983
 6544SOL    HW231095   4.219   4.105   4.055 -1.9216 -0.0687  0.2863
 6545SOL     OW31096   1.801   2.782   8.621  0.0280 -0.4414  0.3173
 6545SOL    HW131097   1.875   2.754   8.675 -0.4245  0.4518  1.4048
 6545SOL    HW231098   1.745   2.706   8.638 -1.0330  0.2153 -0.2558
 6546SOL     OW31099   2.821   0.613   2.432 -0.0509  0.2028  0.8621
 6546SOL    HW131100   2.853   0.597   2.343 -1.5403 -1.5952  0.6529
 6546SOL    HW231101   2.728   0.597   2.415 -0.7143  3.4358  1.4212
 6547SOL     OW31102   1.983   0.343  12.855  0.6583 -0.3791  0.9717
 6547SOL    HW131103   2.009   0.435  12.856  0.0208 -0.1844 -0.9949
 6547SOL    HW231104   1.991   0.328  12.761 -1.1614 -0.5632  0.8462
 6548SOL     OW31105   1.952   0.423  11.570 -0.0187 -0.0117 -0.4947
 6548SOL    HW131106   2.018   0.483  11.606 -0.5436  0.2822 -0.0143
 6548SOL    HW231107   1.939   0.462  11.484  1.1380 -1.1876 -1.2072
 6549SOL     OW31108   2.688   2.437   7.815  0.2594  0.1352  0.0039
 6549SOL    HW131109   2.742   2.396   7.747 -0.9992 -1.5364  0.0187
 6549SOL    HW231110   2.725   2.408   7.899  0.8161 -0.0335 -0.2941
 6550SOL     OW31111   0.240   0.475   7.003  0.6774  0.6292  0.6026
 6550SOL    HW131112   0.151   0.443   6.988  0.9335  0.7010 -1.1524
 6550SOL    HW231113   0.285   0.393   6.980 -0.3493  0.1757  0.2306
 6551SOL     OW31114   0.840   2.874   2.655 -0.0658 -0.2194 -0.3301
 6551SOL    HW131115   0.874   2.785   2.664 -1.1637 -0.8533 -2.3123
 6551SOL    HW231116   0.860   2.898   2.745 -0.1779  0.7637 -0.5686
 6552SOL     OW31117   1.809   4.514   8.112  0.5197 -0.2955 -0.5156
 6552SOL    HW131118   1.840   4.604   8.114 -0.0915 -0.0560 -2.6489
 6552SOL    HW231119   1.762   4.509   8.196  0.4163 -2.2132 -0.6842
 6553SOL     OW31120   3.389   2.601  13.037 -0.5223  0.5252  0.2213
 6553SOL    HW131121   3.334   2.573  13.110 -1.1877 -0.2649 -0.5876
 6553SOL    HW231122   3.326   2.586  12.967  0.1078  0.5891 -0.3687
 6554SOL     OW31123   0.797   4.280   7.658  0.1309 -0.4694  0.3447
 6554SOL    HW131124   0.812   4.224   7.734 -0.3752 -2.5033 -1.0337
 6554SOL    HW231125   0.774   4.366   7.694  0.8648  0.0827 -0.5005
 6555SOL     OW31126   2.642   4.593   3.608  0.2467 -0.1305 -0.5313
 6555SOL    HW131127   2.678   4.650   3.541  0.3145  0.0889 -0.3087
 6555SOL    HW231128   2.580   4.656   3.645  2.8107  0.4787  2.7990
 6556SOL     OW31129   2.741   2.365   8.562  0.1096 -0.7341 -0.4914
 6556SOL    HW131130   2.835   2.348   8.549 -0.4117 -1.6537 -2.9611
 6556SOL    HW231131   2.752   2.457   8.585 -1.3553 -0.8467  0.6713
 6557SOL     OW31132   1.522   0.976   1.500  0.8504  0.1419 -0.5798
 6557SOL    HW131133   1.615   0.955   1.487  0.4302 -2.3400  0.4338
 6557SOL    HW231134   1.526   1.071   1.507 -2.1124  0.2152 -0.2165
 6558SOL     OW31135   3.172   3.591   0.283 -0.8273 -0.5805 -0.0116
 6558SOL    HW131136   3.245   3.635   0.239  1.0049 -3.4691  0.1692
 6558SOL    HW231137   3.199   3.500   0.295  1.2401  0.0052 -0.2073
 6559SOL     OW31138   0.539   2.195   2.513  0.0991 -0.7894 -0.2337
 6559SOL    HW131139   0.631   2.195   2.540 -0.7485  1.0194  2.7233
 6559SOL    HW231140   0.499   2.248   2.582 -0.2201 -0.0313 -0.9875
 6560SOL     OW31141   0.067   0.623  17.560 -0.0141  0.3410  0.2170
 6560SOL    HW131142   0.081   0.529  17.544 -1.9062 -0.0548  0.9338
 6560SOL    HW231143   0.022   0.611  17.643  0.9102 -0.7365  0.5733
 6561SOL     OW31144   0.448   3.705   6.054  0.2715 -0.1261  0.2895
 6561SOL    HW131145   0.520   3.752   6.012  1.3843 -1.9329  0.1727
 6561SOL    HW231146   0.456   3.733   6.145 -2.6368 -3.5752  1.6115
 6562SOL     OW31147   3.121   2.199   3.369 -0.5959  0.0516  0.5695
 6562SOL    HW131148   3.105   2.202   3.275  0.5188  0.8437  0.4064
 6562SOL    HW231149   3.213   2.224   3.367  0.0316 -2.4579 -1.2985
 6563SOL     OW31150   2.729   1.084   4.161  0.2284  0.6264  0.6632
 6563SOL    HW131151   2.746   1.069   4.254  0.5544 -0.1382  0.4819
 6563SOL    HW231152   2.633   1.078   4.160  0.3202 -1.4323  2.8980
 6564SOL     OW31153   2.101   1.793  15.411  0.0991 -0.2092  0.5190
 6564SOL    HW131154   2.164   1.734  15.369 -0.2233  0.7248 -1.2844
 6564SOL    HW231155   2.151   1.874  15.421 -2.0836  1.3833 -1.4276
 6565SOL     OW31156   2.835   1.561   8.618 -0.1898 -0.3631 -0.1297
 6565SOL    HW131157   2.874   1.474   8.628 -1.4018 -0.8609  0.1819
 6565SOL    HW231158   2.888   1.584   8.541  1.9381  0.3793  1.5395
 6566SOL     OW31159   3.075   4.391   8.656  0.2867  0.0620 -0.2138
 6566SOL    HW131160   3.120   4.307   8.653 -1.2608 -0.7275 -0.8863
 6566SOL    HW231161   2.993   4.379   8.609  1.2592 -2.2196 -1.3498
 6567SOL     OW31162   4.206   0.005   8.866  0.3350  0.7859  0.1423
 6567SOL    HW131163   4.283   4.722   8.809  0.2617 -1.6954  0.3012
 6567SOL    HW231164   4.159   4.649   8.840 -0.0509  2.1240 -3.2131
 6568SOL     OW31165   2.376   2.538   3.670  0.4934 -0.1297  1.2333
 6568SOL    HW131166   2.451   2.595   3.653 -0.0529  0.3700  0.5121
 6568SOL    HW231167   2.367   2.512   3.578 -1.6625 -1.5384  1.8307
 6569SOL     OW31168   0.797   4.005  13.635 -0.2190 -0.3103 -0.2992
 6569SOL    HW131169   0.841   4.006  13.720  0.0507 -1.4724 -0.4266
 6569SOL    HW231170   0.707   4.025  13.661 -0.6578 -1.2118 -1.1142
 6570SOL     OW31171   4.301   0.453   1.134  0.5584 -0.0243  0.0107
 6570SOL    HW131172   4.257   0.482   1.214  0.0536 -1.7954  0.3632
 6570SOL    HW231173   4.224   0.437   1.080  0.7746  1.4660 -0.7502
 6571SOL     OW31174   2.568   4.362   3.938  0.3061  0.5401  0.2501
 6571SOL    HW131175   2.573   4.266   3.936 -0.0286  0.5398 -0.8425
 6571SOL    HW231176   2.522   4.376   3.854 -0.8625  2.7764  1.2589
 6572SOL     OW31177   3.623   3.085   6.709  0.5690  0.1925  0.4599
 6572SOL    HW131178   3.695   3.022   6.715  2.3227  2.0693 -1.0838
 6572SOL    HW231179   3.641   3.116   6.621  1.6277  1.3649  1.0853
 6573SOL     OW31180   4.656   4.401  17.177  0.8241  0.0622 -0.6905
 6573SOL    HW131181   4.606   4.374  17.254 -0.4932 -1.3946 -2.0659
 6573SOL    HW231182   4.611   4.348  17.111  1.4445 -0.2045 -0.9003
 6574SOL     OW31183   1.679   1.154   0.683 -0.1900  0.2320 -0.0541
 6574SOL    HW131184   1.723   1.211   0.620 -1.8667  1.9625  0.3491
 6574SOL    HW231185   1.707   1.199   0.762 -1.1451 -0.7450  0.8418
 6575SOL     OW31186   4.467   4.408  10.823 -0.0113  0.3964 -0.2225
 6575SOL    HW131187   4.499   4.494  10.797  0.2453 -0.1629 -1.7639
 6575SOL    HW231188   4.425   4.372  10.745 -0.9787  0.9636  0.0384
 6576SOL     OW31189   0.683   3.106   8.304 -0.0326  0.2927  0.4513
 6576SOL    HW131190   0.595   3.094   8.267  0.1192 -2.7207  1.0673
 6576SOL    HW231191   0.681   3.199   8.326 -1.0662  0.2090  0.7409
 6577SOL     OW31192   2.136   3.871  16.196  0.0012  0.4892 -0.7743
 6577SOL    HW131193   2.200   3.806  16.168  0.3243  1.3614 -2.0414
 6577SOL    HW231194   2.172   3.900  16.280 -0.1668 -2.9054  0.4635
 6578SOL     OW31195   1.440   3.795  11.453  0.1420 -0.3011 -0.2403
 6578SOL    HW131196   1.433   3.754  11.539 -2.3165 -2.8793 -1.6359
 6578SOL    HW231197   1.492   3.872  11.475  0.7135 -1.1176  1.3112
 6579SOL     OW31198   1.203   1.514   7.546 -0.4432  0.1896  0.4285
 6579SOL    HW131199   1.258   1.591   7.561  2.5985 -1.5686 -1.5429
 6579SOL    HW231200   1.185   1.516   7.452 -0.1658 -1.1191  0.3396
 6580SOL     OW31201   0.097   4.548  10.826  0.1699 -0.1147  0.0768
 6580SOL    HW131202   0.106   4.641  10.847 -0.4311 -0.0117 -0.1347
 6580SOL    HW231203   0.075   4.561  10.734 -0.9853  1.3320  0.5574
 6581SOL     OW31204   0.077   3.882   1.756 -0.6810  0.2787 -0.2053
 6581SOL    HW131205   0.058   3.798   1.798 -0.3877  1.0202  1.4429
 6581SOL    HW231206   0.138   3.869   1.684  0.0998  2.0007  0.1412
 6582SOL     OW31207   4.709   3.207   6.018  0.1384  0.2181  0.7426
 6582SOL    HW131208   4.711   3.300   5.999  0.7765  0.1186  0.3348
 6582SOL    HW231209   4.710   3.176   5.927  0.8803  1.0226  0.4832
 6583SOL     OW31210   0.449   0.134   2.440 -0.1492  0.1659  0.4718
 6583SOL    HW131211   0.425   0.129   2.532  0.7833  2.3136  0.8380
 6583SOL    HW231212   0.391   0.208   2.420  1.4716  0.6025 -2.5835
 6584SOL     OW31213   1.978   4.326  10.966  0.2736  0.2732  0.3256
 6584SOL    HW131214   1.904   4.328  11.027 -1.0777 -2.3572 -1.2281
 6584SOL    HW231215   2.013   4.239  10.986 -0.4614  0.0658  0.6831
 6585SOL     OW31216   1.389   2.028   5.148 -0.0964  0.2023 -0.1360
 6585SOL    HW131217   1.318   2.043   5.085  1.9067 -1.6535 -2.8445
 6585SOL    HW231218   1.335   2.027   5.227 -1.2396  3.2544 -0.8943
 6586SOL     OW31219   1.441   3.194  10.912  0.4668  0.0682 -0.4649
 6586SOL    HW131220   1.360   3.147  10.894  1.6976 -2.3435  0.2336
 6586SOL    HW231221   1.489   3.159  10.837  1.2936 -2.1661  1.0948
 6587SOL     OW31222   3.580   0.672   6.876  0.1232  0.6711  0.4997
 6587SOL    HW131223   3.520   0.702   6.807  0.0817 -0.6915 -0.0536
 6587SOL    HW231224   3.517   0.684   6.947 -1.4717 -2.2184 -0.4476
 6588SOL     OW31225   3.597   2.095  15.106 -0.1126  0.0573  0.1131
 6588SOL    HW131226   3.603   2.172  15.162  0.6997  0.2804 -0.2681
 6588SOL    HW231227   3.687   2.062  15.112  0.0575  0.3931 -0.5038
 6589SOL     OW31228   1.019   0.051  12.772  0.3126  0.3053 -0.2905
 6589SOL    HW131229   0.971   0.026  12.693  2.2043  0.4479 -1.4950
 6589SOL    HW231230   0.978   4.709  12.829  0.2604 -0.6629 -1.4119
 6590SOL     OW31231   1.970   1.457  12.387 -0.2152  0.1826  0.2286
 6590SOL    HW131232   2.050   1.463  12.439 -0.3062  0.9525  0.2848
 6590SOL    HW231233   1.999   1.388  12.327 -1.6302 -0.8450  0.7440
 6591SOL     OW31234   3.534   0.120   5.502  0.1807  0.0594 -0.1579
 6591SOL    HW131235   3.518   0.061   5.429 -1.3026  0.2000  0.0578
 6591SOL    HW231236   3.573   0.196   5.459 -0.5185  1.8692  2.3751
 6592SOL     OW31237   0.386   3.027   0.667  0.1225 -0.3247  0.3715
 6592SOL    HW131238   0.337   3.108   0.687  0.6347 -0.5597  2.5321
 6592SOL    HW231239   0.359   3.017   0.575  1.5402  1.4262 -0.2476
 6593SOL     OW31240   1.368   3.222   4.696 -0.2692  0.5502  0.0196
 6593SOL    HW131241   1.394   3.299   4.645 -2.4756  0.9421 -0.5043
 6593SOL    HW231242   1.392   3.247   4.785  0.3719 -0.2614  0.0808
 6594SOL     OW31243   3.272   4.424  12.114 -0.5066 -0.2473  0.1104
 6594SOL    HW131244   3.204   4.476  12.157 -0.6515 -0.3620  0.0210
 6594SOL    HW231245   3.305   4.377  12.190 -0.9071 -0.4459  0.1605
 6595SOL     OW31246   0.355   0.537   8.341 -0.4482 -0.6652 -0.0934
 6595SOL    HW131247   0.333   0.484   8.265  1.3015 -1.9536  0.3069
 6595SOL    HW231248   0.353   0.621   8.294 -2.4171  0.7226  2.4545
 6596SOL     OW31249   0.663   3.257   4.384  0.1983  0.1168  0.3612
 6596SOL    HW131250   0.578   3.300   4.383 -0.6388 -1.5497  0.9982
 6596SOL    HW231251   0.645   3.194   4.314  0.2019  0.9432 -0.3940
 6597SOL     OW31252   2.942   1.665  16.539  0.8258  0.0348 -0.1200
 6597SOL    HW131253   2.940   1.654  16.444 -2.7039 -0.9856  0.0636
 6597SOL    HW231254   2.996   1.595  16.574  1.1173  0.4751  0.3179
 6598SOL     OW31255   2.042   1.998   4.119 -0.1218 -0.1886  0.4831
 6598SOL    HW131256   2.025   1.932   4.051  0.3295 -0.2502  0.4275
 6598SOL    HW231257   2.126   1.963   4.146 -0.2012 -0.5461  0.2701
 6599SOL     OW31258   2.148   3.256  17.572  0.0851 -0.8311 -0.5251
 6599SOL    HW131259   2.133   3.305  17.652  0.5659  0.9721 -1.5267
 6599SOL    HW231260   2.235   3.217  17.585  0.7728  0.6552 -0.6320
 6600SOL     OW31261   2.879   2.279   9.152 -0.2256  0.6265 -0.2554
 6600SOL    HW131262   2.927   2.210   9.198  0.6144  2.3551  1.4109
 6600SOL    HW231263   2.925   2.354   9.189 -0.1445  1.4741 -2.0776
 6601SOL     OW31264   2.524   1.510   7.048  0.0835  0.0803  0.0479
 6601SOL    HW131265   2.474   1.591   7.034  2.1803  1.1654 -1.1278
 6601SOL    HW231266   2.501   1.480   7.136 -1.7819  0.3569 -0.3381
 6602SOL     OW31267   0.122   4.467   5.041  1.0695 -0.5121 -0.0241
 6602SOL    HW131268   0.030   4.483   5.059  1.5185  3.4661 -1.3927
 6602SOL    HW231269   0.146   4.553   5.005 -0.6265  0.1805  0.5358
 6603SOL     OW31270   2.912   3.086   1.293 -0.2605 -0.1839 -0.4032
 6603SOL    HW131271   2.878   3.009   1.338  1.0447 -1.2519 -1.2597
 6603SOL    HW231272   2.833   3.109   1.244  0.6094  0.3921 -1.5375
 6604SOL     OW31273   0.252   3.047   9.449  0.4528 -0.0249  0.0227
 6604SOL    HW131274   0.193   3.102   9.397 -0.9337  0.1180  1.7473
 6604SOL    HW231275   0.338   3.085   9.432  0.3512  0.7499  1.2423
 6605SOL     OW31276   3.377   3.112  11.102 -0.1113 -0.5303  0.3788
 6605SOL    HW131277   3.369   3.169  11.179  1.5150 -0.0458  0.1725
 6605SOL    HW231278   3.468   3.120  11.076  0.0341 -0.8584  0.7891
 6606SOL     OW31279   4.397   0.241   0.088  0.1313  0.0093 -0.1022
 6606SOL    HW131280   4.337   0.175   0.125  1.1027 -0.2800  0.9736
 6606SOL    HW231281   4.336   0.288   0.032  1.3198  2.2482  0.4809
 6607SOL     OW31282   0.763   3.316   2.339  0.1137 -0.7073  0.4489
 6607SOL    HW131283   0.858   3.324   2.334 -0.0212  0.7729  0.4692
 6607SOL    HW231284   0.748   3.252   2.409  0.3793 -0.0206  1.1276
 6608SOL     OW31285   3.099   1.822  11.611  0.4134  0.5212  0.1815
 6608SOL    HW131286   3.081   1.737  11.572  1.3925  0.8081 -0.9023
 6608SOL    HW231287   3.137   1.858  11.531  1.0756 -0.6022 -0.0010
 6609SOL     OW31288   2.553   1.443   2.239  0.3311 -0.7545 -0.6857
 6609SOL    HW131289   2.569   1.414   2.149 -1.0744 -1.0585 -0.8440
 6609SOL    HW231290   2.478   1.389   2.262 -1.4001  1.8549 -0.1896
 6610SOL     OW31291   2.311   4.544   5.460  0.4987 -0.2205  0.2788
 6610SOL    HW131292   2.289   4.469   5.517  0.6979 -1.1940 -0.9298
 6610SOL    HW231293   2.308   4.619   5.519  1.9154  0.5772 -0.6808
 6611SOL     OW31294   3.189   1.877   5.221  0.5749  0.1380 -0.0134
 6611SOL    HW131295   3.141   1.898   5.301  0.6417 -0.0318  0.0708
 6611SOL    HW231296   3.124   1.845   5.158  1.9137  2.0586 -2.3951
 6612SOL     OW31297   2.900   0.339  12.998 -0.4048  0.3539  0.5343
 6612SOL    HW131298   2.989   0.369  13.017 -0.6039  0.0266  1.9725
 6612SOL    HW231299   2.882   0.273  13.065  0.2645 -0.0476  0.3183
 6613SOL     OW31300   0.933   2.993   5.340  0.4757  0.0415 -0.2090
 6613SOL    HW131301   0.931   2.907   5.297  0.9902 -1.2294  2.3546
 6613SOL    HW231302   1.025   3.022   5.342  0.3838  0.3917 -1.1349
 6614SOL     OW31303   3.571   0.473  16.522 -0.3096 -0.1037  0.2640
 6614SOL    HW131304   3.550   0.518  16.440 -2.1062  1.9063  1.7897
 6614SOL    HW231305   3.594   0.386  16.490  2.1945  0.5544  0.2718
 6615SOL     OW31306   4.584   0.290   5.807 -0.4829 -0.5303  0.0953
 6615SOL    HW131307   4.509   0.286   5.748  1.5060  0.9978 -2.4754
 6615SOL    HW231308   4.636   0.351   5.756 -0.7052 -2.5975 -2.5839
 6616SOL     OW31309   4.719   3.200   9.813 -0.4742 -0.0712 -0.3448
 6616SOL    HW131310   0.036   3.196   9.901 -0.5590 -0.0741 -0.3067
 6616SOL    HW231311   0.032   3.116   9.784  0.4949  0.1496  0.2086
 6617SOL     OW31312   1.401   0.975   2.247  0.5079 -0.9408  0.3096
 6617SOL    HW131313   1.442   0.943   2.327  2.3345 -0.5161 -0.4655
 6617SOL    HW231314   1.479   0.974   2.191  0.5569  0.4050  0.3657
 6618SOL     OW31315   2.143   4.604   5.247  0.3774 -0.0657  0.2395
 6618SOL    HW131316   2.212   4.627   5.310 -0.2621 -0.5830  1.1316
 6618SOL    HW231317   2.082   4.676   5.262  1.7651  0.7878  1.8704
 6619SOL     OW31318   4.236   2.830  16.585 -0.1587  0.5235 -0.3968
 6619SOL    HW131319   4.220   2.923  16.600  0.9602  0.7678 -0.7090
 6619SOL    HW231320   4.153   2.791  16.561 -0.8380  0.0292  2.7511
 6620SOL     OW31321   3.244   0.406   5.521  0.2254  0.0556  0.5466
 6620SOL    HW131322   3.231   0.314   5.496  0.3822  0.0482  0.4969
 6620SOL    HW231323   3.274   0.452   5.443  1.8376 -0.3214  0.9509
 6621SOL     OW31324   4.150   1.835  16.504 -0.0939 -0.0770 -0.5799
 6621SOL    HW131325   4.156   1.747  16.465 -0.0970 -0.2770 -0.1238
 6621SOL    HW231326   4.056   1.851  16.507 -0.2515 -0.6585 -2.2862
 6622SOL     OW31327   0.947   1.415  13.299  0.1809  0.6803  0.4089
 6622SOL    HW131328   0.861   1.403  13.338 -0.2467  2.6642  0.0405
 6622SOL    HW231329   0.984   1.327  13.294  0.3020  0.8227 -1.2413
 6623SOL     OW31330   1.895   4.642  14.134  0.5952 -0.1999 -0.0447
 6623SOL    HW131331   1.822   4.694  14.169 -1.0479 -1.6497 -1.2792
 6623SOL    HW231332   1.973   4.686  14.165  0.3681  0.0500  0.1747
 6624SOL     OW31333   4.285   4.096   1.750 -0.3142  0.0705  0.2034
 6624SOL    HW131334   4.258   4.137   1.833  1.2834  1.3272  0.1030
 6624SOL    HW231335   4.358   4.150   1.719  0.8659  1.2788  4.9140
 6625SOL     OW31336   1.174   0.850   2.201 -0.4410 -0.0806  0.0749
 6625SOL    HW131337   1.259   0.893   2.212 -0.7254  0.2639  0.9214
 6625SOL    HW231338   1.203   0.768   2.161  0.5404  0.0318  0.5515
 6626SOL     OW31339   2.471   0.688   8.534  0.2548  0.0884 -0.1540
 6626SOL    HW131340   2.493   0.657   8.622  1.1749  0.2028 -0.3498
 6626SOL    HW231341   2.389   0.641   8.522  0.6925 -0.6966 -0.0455
 6627SOL     OW31342   2.329   4.091   1.356  0.0894  0.9008 -0.3585
 6627SOL    HW131343   2.312   4.135   1.273 -1.1698 -1.3235 -1.2829
 6627SOL    HW231344   2.294   4.003   1.340 -2.0660  1.6315  0.3157
 6628SOL     OW31345   4.516   4.030   2.489  0.4800  0.0586 -0.1461
 6628SOL    HW131346   4.563   4.040   2.406 -2.1384 -0.5055 -1.7175
 6628SOL    HW231347   4.424   4.044   2.464 -0.0178  0.2577  1.8122
 6629SOL     OW31348   3.534   1.174   0.221 -0.1589 -0.2681 -0.4376
 6629SOL    HW131349   3.588   1.111   0.269  0.7589 -0.6948 -2.0413
 6629SOL    HW231350   3.499   1.122   0.149 -1.2189 -0.4659  0.2145
 6630SOL     OW31351   1.919   1.270  13.551  0.1113 -0.2143 -0.3339
 6630SOL    HW131352   1.853   1.228  13.607  0.4216 -2.5776 -1.7118
 6630SOL    HW231353   1.855   1.323  13.505  1.3782  0.5547 -1.2118
 6631SOL     OW31354   0.067   0.527  12.337 -0.0058  0.0700  0.0249
 6631SOL    HW131355   0.020   0.524  12.421  1.1667  1.6502  0.7277
 6631SOL    HW231356   0.016   0.577  12.275 -1.6049 -3.2903 -1.3821
 6632SOL     OW31357   2.417   4.127   9.532  0.2295  0.6584  0.4364
 6632SOL    HW131358   2.501   4.103   9.572  1.7404  1.6335 -2.1289
 6632SOL    HW231359   2.460   4.158   9.452  1.4074 -1.4045  0.2699
 6633SOL     OW31360   2.178   3.982   9.542  0.2307 -0.0825 -0.4169
 6633SOL    HW131361   2.267   4.018   9.548 -0.6839  2.1974 -0.2890
 6633SOL    HW231362   2.187   3.894   9.577  0.9311  0.7407  1.4829
 6634SOL     OW31363   2.944   1.458  10.745 -0.1298  0.2139  0.3418
 6634SOL    HW131364   2.916   1.390  10.685  1.3832 -0.0808 -0.0311
 6634SOL    HW231365   2.915   1.416  10.826  0.5905 -0.0697  0.4520
 6635SOL     OW31366   0.870   2.939  17.638  0.0693  0.3915 -0.0478
 6635SOL    HW131367   0.912   2.962  17.555 -1.7061 -0.7248 -1.2451
 6635SOL    HW231368   0.820   3.021  17.647  0.2693  0.5582 -0.4634
 6636SOL     OW31369   4.668   3.828  12.884 -0.0607  0.0044 -0.0723
 6636SOL    HW131370   0.034   3.865  12.892  0.9747 -2.6372  0.8559
 6636SOL    HW231371   4.683   3.734  12.901 -0.2729  0.2829  1.6918
 6637SOL     OW31372   1.658   4.412  13.045 -0.1881  0.2887 -0.4908
 6637SOL    HW131373   1.572   4.399  13.005 -0.0720 -0.2773 -0.5614
 6637SOL    HW231374   1.644   4.422  13.139 -0.4906  0.5478 -0.5644
 6638SOL     OW31375   2.437   0.197   8.365 -0.1613 -0.5248  0.0044
 6638SOL    HW131376   2.391   0.126   8.320 -2.0167  1.1366 -0.7342
 6638SOL    HW231377   2.478   0.147   8.436 -2.9388 -0.9904  1.2962
 6639SOL     OW31378   2.151   1.677   5.356 -0.0445  0.1235  0.6731
 6639SOL    HW131379   2.077   1.621   5.379 -1.3624  1.8241  0.5722
 6639SOL    HW231380   2.138   1.695   5.262  1.2858 -1.9862  0.0809
 6640SOL     OW31381   4.012   4.477  15.678 -0.1515  0.1606 -0.0605
 6640SOL    HW131382   3.978   4.434  15.757  1.6704 -2.3239 -0.6564
 6640SOL    HW231383   4.011   4.570  15.700 -0.2095 -0.1704  1.3397
 6641SOL     OW31384   4.289   2.732   0.447 -0.3898 -0.3082 -0.0275
 6641SOL    HW131385   4.305   2.667   0.515  1.6478 -0.4104 -0.5941
 6641SOL    HW231386   4.368   2.786   0.448  0.2168 -1.1913 -0.5911
 6642SOL     OW31387   3.062   3.257   6.652 -0.7865  0.5338 -0.2152
 6642SOL    HW131388   3.014   3.175   6.641  0.9648 -0.6408  0.9297
 6642SOL    HW231389   3.000   3.317   6.612 -2.6030 -0.5916  0.9261
 6643SOL     OW31390   3.623   3.760   5.482 -0.0977  0.1390  0.4914
 6643SOL    HW131391   3.582   3.695   5.425  0.5072  1.0645 -1.0134
 6643SOL    HW231392   3.689   3.706   5.526 -1.7042 -0.3998  2.1854
 6644SOL     OW31393   4.257   3.910  12.899 -0.3434 -0.0115  0.2555
 6644SOL    HW131394   4.265   3.883  12.808 -2.1682  0.5665 -0.0762
 6644SOL    HW231395   4.333   3.964  12.922 -0.8877 -0.4297  3.0319
 6645SOL     OW31396   1.537   0.549   1.694 -0.2504 -0.0001 -0.2406
 6645SOL    HW131397   1.488   0.545   1.776  1.5028  1.3719  0.8572
 6645SOL    HW231398   1.604   0.612   1.720  0.8275 -0.8503 -0.9878
 6646SOL     OW31399   2.652   1.253  13.659 -0.2160 -0.4547  1.2140
 6646SOL    HW131400   2.560   1.273  13.676 -0.1806  0.3627  0.4532
 6646SOL    HW231401   2.671   1.199  13.736 -0.8603 -0.7774  1.1463
 6647SOL     OW31402   3.322   2.910   3.437 -0.2446  0.6594  0.4202
 6647SOL    HW131403   3.376   2.958   3.500  1.8385 -0.1483 -0.7442
 6647SOL    HW231404   3.249   2.885   3.494 -0.4981  1.6549  0.5281
 6648SOL     OW31405   4.125   2.280  17.676  0.5509 -0.0731 -0.4000
 6648SOL    HW131406   4.157   2.219   0.049  2.2470  3.0100  1.6599
 6648SOL    HW231407   4.166   2.363   0.008 -0.0919  0.3562 -0.7741
 6649SOL     OW31408   2.150   0.264  15.927  0.3800  0.0238 -0.0920
 6649SOL    HW131409   2.188   0.309  15.851 -2.3771 -0.8812 -2.0044
 6649SOL    HW231410   2.222   0.258  15.989  0.1910 -1.2210  0.0083
 6650SOL     OW31411   1.220   2.777   8.625 -0.1871 -0.3122  0.4955
 6650SOL    HW131412   1.252   2.733   8.546  1.7377  3.0716 -0.6337
 6650SOL    HW231413   1.171   2.844   8.577  1.6321 -1.4431 -2.9154
 6651SOL     OW31414   4.320   2.502  13.281  0.0645 -0.2658  0.0833
 6651SOL    HW131415   4.236   2.463  13.304  0.6311 -1.1163  0.7110
 6651SOL    HW231416   4.376   2.442  13.331 -0.4565  0.2779  1.3263
 6652SOL     OW31417   3.940   3.628   8.100 -0.1578  0.2402  0.1255
 6652SOL    HW131418   3.956   3.543   8.059 -0.0104 -0.3643  1.4218
 6652SOL    HW231419   3.910   3.673   8.022 -1.6573  2.2807  1.9010
 6653SOL     OW31420   2.740   3.693  16.869  0.5319 -0.4038  0.7752
 6653SOL    HW131421   2.665   3.654  16.915  0.2132  0.4514  0.9660
 6653SOL    HW231422   2.734   3.776  16.916  0.2147 -0.6128  1.0990
 6654SOL     OW31423   0.618   4.295  11.565  0.2648 -0.2879  0.3798
 6654SOL    HW131424   0.569   4.351  11.625 -1.0760 -0.1024 -0.8922
 6654SOL    HW231425   0.600   4.336  11.480  0.9076 -0.6098  0.0885
 6655SOL     OW31426   1.200   0.606   0.145  0.1449 -0.0941 -0.1064
 6655SOL    HW131427   1.224   0.629   0.235 -1.5721 -0.1046  0.3575
 6655SOL    HW231428   1.127   0.547   0.167  0.7411 -0.4270  0.9863
 6656SOL     OW31429   0.695   3.305   2.028  0.0390 -0.1484  0.1513
 6656SOL    HW131430   0.724   3.266   2.110  0.1007 -0.6685 -0.1218
 6656SOL    HW231431   0.782   3.325   1.995 -0.8843 -0.1407 -2.3420
 6657SOL     OW31432   3.203   3.858   5.691 -0.0995 -0.0551 -0.1233
 6657SOL    HW131433   3.276   3.860   5.629 -2.3275 -2.3022 -2.8054
 6657SOL    HW231434   3.154   3.779   5.670 -1.8404  1.0703 -0.3238
 6658SOL     OW31435   1.113   2.477   2.414  0.1648 -0.1694  0.4445
 6658SOL    HW131436   1.045   2.438   2.359 -0.0539  2.0166 -0.8437
 6658SOL    HW231437   1.154   2.397   2.447 -0.0425 -0.5107 -0.1217
 6659SOL     OW31438   3.117   0.644   1.071  0.1048  0.1313 -0.3168
 6659SOL    HW131439   3.116   0.619   1.163 -0.0893 -1.4857 -0.7534
 6659SOL    HW231440   3.027   0.675   1.059  0.8250  2.4087  0.2555
 6660SOL     OW31441   0.408   1.432  13.436  0.3521  0.5844 -0.0526
 6660SOL    HW131442   0.344   1.463  13.500 -2.3280 -1.3046 -1.8677
 6660SOL    HW231443   0.356   1.367  13.389  2.2218  0.2700 -1.6904
 6661SOL     OW31444   1.192   0.050   4.552 -0.7827  0.1093 -0.4663
 6661SOL    HW131445   1.195   0.124   4.491 -1.5858 -0.8637 -1.6641
 6661SOL    HW231446   1.097   0.051   4.561 -0.6785 -1.6157  0.7048
 6662SOL     OW31447   4.524   3.439   8.138  0.1294  0.3250 -0.3627
 6662SOL    HW131448   4.437   3.428   8.099  0.6986 -0.9160 -1.3012
 6662SOL    HW231449   4.502   3.475   8.224 -0.9514 -0.5201 -0.2827
 6663SOL     OW31450   0.184   3.229   2.862  0.6094  0.5728  0.0529
 6663SOL    HW131451   0.161   3.245   2.771 -2.8207  0.1791  0.8421
 6663SOL    HW231452   0.217   3.316   2.884  2.4265  0.0639 -0.6591
 6664SOL     OW31453   0.980   4.368   2.960 -0.2398  0.1881  0.5425
 6664SOL    HW131454   0.946   4.281   2.977 -1.3693  0.5563  0.1803
 6664SOL    HW231455   1.044   4.352   2.892  0.4620  0.6995  1.0788
 6665SOL     OW31456   3.535   1.660   8.336  0.3942 -0.2927 -0.7857
 6665SOL    HW131457   3.541   1.633   8.244 -0.9418 -1.5075 -0.5169
 6665SOL    HW231458   3.627   1.684   8.344  0.4836 -0.6993 -0.6022
 6666SOL     OW31459   2.581   0.776  16.499 -0.1502  0.6569  0.7018
 6666SOL    HW131460   2.592   0.847  16.562 -2.4120  2.8756 -1.3813
 6666SOL    HW231461   2.665   0.769  16.455 -0.1600  0.2611  0.7412
 6667SOL     OW31462   0.396   4.509  11.942  0.0134  0.3553  0.3225
 6667SOL    HW131463   0.483   4.524  11.906  0.1197 -1.8937 -0.3194
 6667SOL    HW231464   0.389   4.589  11.995 -1.8738  0.5602 -0.2344
 6668SOL     OW31465   0.227   3.147   8.746  0.0658 -0.1956  0.2639
 6668SOL    HW131466   0.218   3.110   8.834  1.9446 -0.6155  0.2791
 6668SOL    HW231467   0.212   3.240   8.763  2.4806  0.4545 -1.1860
 6669SOL     OW31468   0.946   2.844  10.508  0.2582  0.3968  0.3487
 6669SOL    HW131469   1.003   2.819  10.435  2.2396  0.6245  1.8268
 6669SOL    HW231470   0.876   2.778  10.502  1.4421 -0.7385 -0.9825
 6670SOL     OW31471   0.102   3.494   5.374  0.1281  0.1835  0.4310
 6670SOL    HW131472   0.029   3.528   5.322 -0.2172  1.6305  1.8582
 6670SOL    HW231473   0.161   3.569   5.366 -0.8031  0.7679 -0.8754
 6671SOL     OW31474   4.624   3.733   6.927  0.4437 -0.3537  0.1442
 6671SOL    HW131475   4.618   3.808   6.986 -0.2572 -0.5978  0.3835
 6671SOL    HW231476   4.605   3.776   6.843 -1.7954 -0.3989  0.6312
 6672SOL     OW31477   2.151   4.105   2.526  0.1413 -0.0594  0.3834
 6672SOL    HW131478   2.230   4.075   2.480  1.0139  1.9128  0.6146
 6672SOL    HW231479   2.096   4.035   2.491 -1.5447  1.4798  0.0156
 6673SOL     OW31480   0.902   4.610   3.842 -0.5468  0.3406 -0.7879
 6673SOL    HW131481   0.972   4.668   3.812  0.2082  1.0673  2.3832
 6673SOL    HW231482   0.846   4.618   3.764 -1.5951 -2.3772 -0.3163
 6674SOL     OW31483   3.103   0.025   4.493  0.1735  0.0631  0.2256
 6674SOL    HW131484   3.141   4.674   4.445 -0.6917  0.2014 -0.6659
 6674SOL    HW231485   3.133   0.099   4.441  1.4309 -0.2936  0.4412
 6675SOL     OW31486   2.279   1.286   8.740  0.3616  0.6676 -0.2171
 6675SOL    HW131487   2.281   1.292   8.836 -0.0962 -2.2829 -0.0223
 6675SOL    HW231488   2.227   1.362   8.714  2.0152  1.5797 -0.8941
 6676SOL     OW31489   4.179   1.126   0.734 -0.4103 -0.1297  0.2049
 6676SOL    HW131490   4.116   1.139   0.662 -1.2665  1.1474  1.1841
 6676SOL    HW231491   4.206   1.035   0.721  0.6610  0.4787 -1.7926
 6677SOL     OW31492   2.172   3.093  16.711  0.6247  0.6352  0.1985
 6677SOL    HW131493   2.082   3.116  16.731  1.5743  4.0726  0.4587
 6677SOL    HW231494   2.192   3.038  16.787 -1.1132  1.1564  1.0131
 6678SOL     OW31495   0.531   0.949   1.554 -0.2343 -0.1854  0.0617
 6678SOL    HW131496   0.621   0.973   1.532 -1.0860  3.3101  0.4399
 6678SOL    HW231497   0.543   0.856   1.573 -1.1970 -0.2170  0.5210
 6679SOL     OW31498   1.550   3.433   2.796  0.0511  0.4482 -0.1938
 6679SOL    HW131499   1.571   3.493   2.724  0.1378 -0.9680 -1.3537
 6679SOL    HW231500   1.636   3.392   2.798 -1.5292 -2.9716 -1.6627
 6680SOL     OW31501   3.736   0.766   6.595  0.0236  0.6058  0.6152
 6680SOL    HW131502   3.783   0.843   6.625 -0.4439  0.5118  1.5757
 6680SOL    HW231503   3.646   0.780   6.622 -0.1550 -0.3161  0.5182
 6681SOL     OW31504   3.160   1.098  16.791  0.1712 -0.1974 -0.6547
 6681SOL    HW131505   3.089   1.034  16.779 -0.6660 -0.1147  3.7697
 6681SOL    HW231506   3.210   1.050  16.856 -1.4278  1.0912  1.5283
 6682SOL     OW31507   4.600   2.663   4.673 -0.1317 -0.3060  0.3027
 6682SOL    HW131508   4.667   2.636   4.735  0.3976 -2.6583 -1.2907
 6682SOL    HW231509   4.597   2.586   4.616 -0.3555 -0.6847  0.8188
 6683SOL     OW31510   1.935   0.071   4.708 -0.3303  0.0403  0.0541
 6683SOL    HW131511   1.862   0.016   4.679  0.3219 -1.8587  2.0534
 6683SOL    HW231512   1.951   0.130   4.634 -1.5226  0.0728 -0.1873
 6684SOL     OW31513   1.102   3.758  11.078  0.2300 -0.2082 -0.7250
 6684SOL    HW131514   1.112   3.700  11.004  2.0592 -2.3025  1.1876
 6684SOL    HW231515   1.191   3.777  11.108 -0.1767  0.4143  0.0826
 6685SOL     OW31516   0.300   2.711   6.980  0.1065 -0.6419  0.0798
 6685SOL    HW131517   0.258   2.637   7.024 -0.0323 -1.2935 -1.1459
 6685SOL    HW231518   0.363   2.664   6.925  0.5032  0.0394 -0.0397
 6686SOL     OW31519   0.592   2.147   8.034  0.5336 -0.2748  0.1164
 6686SOL    HW131520   0.522   2.202   8.000  1.7582  0.4588 -1.2226
 6686SOL    HW231521   0.550   2.060   8.035 -0.0371  0.0026  0.0404
 6687SOL     OW31522   2.529   1.621   6.312  1.0374 -0.3088  0.0377
 6687SOL    HW131523   2.441   1.612   6.278  0.6162 -1.3070  1.3881
 6687SOL    HW231524   2.559   1.543   6.265  0.4064 -0.9638  0.7220
 6688SOL     OW31525   4.164   4.301   9.395 -0.4763 -0.4128 -0.4661
 6688SOL    HW131526   4.186   4.355   9.471 -0.7628 -0.2466 -0.5024
 6688SOL    HW231527   4.090   4.349   9.358  0.2697  0.4881 -0.7840
 6689SOL     OW31528   1.324   2.053   7.835  0.7842 -0.2229  0.2138
 6689SOL    HW131529   1.394   2.008   7.788 -0.2212  0.2049 -1.6993
 6689SOL    HW231530   1.376   2.101   7.899  0.2024 -2.2844  2.2373
 6690SOL     OW31531   4.158   1.782   3.956 -0.0434  0.0623 -0.2664
 6690SOL    HW131532   4.067   1.794   3.984  0.1227 -1.2097  0.8470
 6690SOL    HW231533   4.142   1.706   3.900  2.1109 -0.1921 -0.5239
 6691SOL     OW31534   3.121   3.441   1.004  0.1955 -0.2894 -0.1523
 6691SOL    HW131535   3.034   3.445   0.964 -0.4546 -3.3336  0.9622
 6691SOL    HW231536   3.174   3.420   0.927  1.4744 -0.1548  0.6786
 6692SOL     OW31537   0.114   4.374   5.735  0.0760 -0.2010  0.4288
 6692SOL    HW131538   0.074   4.451   5.776  1.2014  0.8921 -0.5369
 6692SOL    HW231539   0.152   4.397   5.651 -0.7444  3.9797  1.2086
 6693SOL     OW31540   4.010   4.311  12.051  0.9913  0.0260  1.0997
 6693SOL    HW131541   3.926   4.347  12.079  0.3842  1.2676 -2.3482
 6693SOL    HW231542   4.042   4.380  11.994 -1.3428 -1.3037 -1.8066
 6694SOL     OW31543   3.182   0.433   4.873 -0.7242 -0.1480  0.2110
 6694SOL    HW131544   3.271   0.397   4.878 -0.9073 -0.6490 -0.0902
 6694SOL    HW231545   3.153   0.388   4.794  0.5183 -0.0242 -0.3141
 6695SOL     OW31546   1.917   0.260  15.374 -0.1485  0.0566  0.4839
 6695SOL    HW131547   1.834   0.309  15.373 -0.1662 -0.0539 -1.6999
 6695SOL    HW231548   1.973   0.307  15.436  1.8954 -0.5475 -0.9402
 6696SOL     OW31549   0.746   1.482  14.026 -0.3317  0.1064  1.0932
 6696SOL    HW131550   0.822   1.524  13.985 -0.4731  0.2058  0.9309
 6696SOL    HW231551   0.788   1.407  14.068  0.0536  0.0407  0.6008
 6697SOL     OW31552   3.299   0.569   3.151 -0.3255 -0.4385  0.2911
 6697SOL    HW131553   3.362   0.555   3.220 -0.0627  1.1888  0.3828
 6697SOL    HW231554   3.265   0.656   3.176  0.4927 -0.2466  0.7107
 6698SOL     OW31555   0.035   3.576  17.441 -0.4988 -0.3140 -0.1205
 6698SOL    HW131556   0.066   3.571  17.531 -2.0316 -0.6354  0.3805
 6698SOL    HW231557   0.097   3.625  17.387  0.1449 -1.7109 -0.6590
 6699SOL     OW31558   0.535   4.071  17.473  0.7663  0.2054 -0.6273
 6699SOL    HW131559   0.464   4.108  17.421  2.3168  2.2983 -1.2824
 6699SOL    HW231560   0.586   4.152  17.481  2.9459 -1.0072 -2.0365
 6700SOL     OW31561   3.369   0.343   9.156 -0.2955  0.5224  0.6523
 6700SOL    HW131562   3.432   0.399   9.200 -1.1063  1.8327  0.1612
 6700SOL    HW231563   3.396   0.364   9.067 -0.2340 -3.2898 -0.2137
 6701SOL     OW31564   1.828   1.849   8.702 -0.6304  0.3216 -0.1161
 6701SOL    HW131565   1.762   1.866   8.635 -0.9561 -1.6157 -0.2990
 6701SOL    HW231566   1.865   1.937   8.711  1.6887 -0.4593 -2.1962
 6702SOL     OW31567   1.840   4.224   6.226 -0.0075 -0.1348 -0.4546
 6702SOL    HW131568   1.921   4.257   6.189 -1.8054  1.5727 -2.8419
 6702SOL    HW231569   1.810   4.164   6.158  0.7107 -1.0968  0.0681
 6703SOL     OW31570   1.764   3.417   0.021 -0.3203 -0.7242 -0.1029
 6703SOL    HW131571   1.691   3.414   0.082 -0.2934  3.4424  0.1160
 6703SOL    HW231572   1.751   3.330  17.675  3.5112 -1.6566  0.6516
 6704SOL     OW31573   3.404   4.471  10.684 -0.3467  0.0872 -0.1377
 6704SOL    HW131574   3.378   4.441  10.771  1.7079 -2.1809 -0.3118
 6704SOL    HW231575   3.495   4.441  10.685  0.0513  1.2842 -0.1324
 6705SOL     OW31576   2.490   2.245   3.498  0.1247  0.3529 -0.1915
 6705SOL    HW131577   2.413   2.253   3.555  1.4844  2.5004  1.3463
 6705SOL    HW231578   2.504   2.151   3.504 -2.5312 -0.0693 -0.3664
 6706SOL     OW31579   1.554   3.355  11.682 -0.1496 -1.1928 -0.1183
 6706SOL    HW131580   1.644   3.364  11.650  0.1279 -0.5440  0.8424
 6706SOL    HW231581   1.564   3.365  11.777  0.8923  3.2067 -0.6916
 6707SOL     OW31582   0.779   0.300   2.679  0.5439  0.3706 -0.1993
 6707SOL    HW131583   0.712   0.368   2.691  1.2430  1.0893 -0.3147
 6707SOL    HW231584   0.759   0.236   2.747 -1.0411  0.9381 -0.1286
 6708SOL     OW31585   4.093   0.784  10.998  0.3608 -0.1818 -0.4486
 6708SOL    HW131586   4.151   0.734  10.941 -0.3124 -1.0747 -0.3690
 6708SOL    HW231587   4.009   0.776  10.952 -1.1665  0.1397  2.2684
 6709SOL     OW31588   4.481   1.664   1.686 -0.2670  0.6510 -0.0851
 6709SOL    HW131589   4.489   1.618   1.769  4.6630  1.3866 -0.1552
 6709SOL    HW231590   4.388   1.686   1.681 -0.3407  0.1312 -1.2215
 6710SOL     OW31591   4.208   3.079   9.644  0.0566 -0.0666  0.4092
 6710SOL    HW131592   4.164   3.129   9.713 -1.1952 -0.7430  0.1082
 6710SOL    HW231593   4.251   3.152   9.598  1.0172 -1.9938 -1.7252
 6711SOL     OW31594   1.521   0.858  13.801 -0.4618  0.4117 -0.2399
 6711SOL    HW131595   1.577   0.907  13.861 -0.7082 -0.6367  0.8438
 6711SOL    HW231596   1.511   0.917  13.726  1.2159  1.2760  0.2138
 6712SOL     OW31597   0.340   1.327  10.936 -0.1969 -0.1303  0.0722
 6712SOL    HW131598   0.327   1.300  11.027 -2.3723  0.0714 -0.1719
 6712SOL    HW231599   0.371   1.414  10.963 -1.4458  0.2432  0.3108
 6713SOL     OW31600   0.060   2.524   6.415  0.2084  0.0475 -0.6563
 6713SOL    HW131601   0.097   2.525   6.503 -0.3757  0.6351 -0.4250
 6713SOL    HW231602   0.004   2.601   6.415  1.0843  0.6767  0.2878
 6714SOL     OW31603   2.054   3.781   6.982 -0.3004 -0.0723 -0.0983
 6714SOL    HW131604   2.139   3.753   7.016 -2.1118 -1.7058  3.0851
 6714SOL    HW231605   2.081   3.857   6.932  1.6079 -1.8772 -1.8026
 6715SOL     OW31606   1.423   2.252   6.667  0.1729  0.8070  0.0094
 6715SOL    HW131607   1.466   2.197   6.733 -3.6291 -0.1925  1.6379
 6715SOL    HW231608   1.461   2.222   6.585 -0.2595  1.4022 -0.4124
 6716SOL     OW31609   1.625   2.240   5.156 -0.0932  0.3938  0.0881
 6716SOL    HW131610   1.569   2.271   5.227 -2.6544  0.8422 -2.1059
 6716SOL    HW231611   1.698   2.301   5.167 -1.8066  2.2856  1.0859
 6717SOL     OW31612   4.521   4.080   6.712 -0.4746  0.5705  0.2453
 6717SOL    HW131613   4.532   4.169   6.744 -1.9676  0.4360  1.1331
 6717SOL    HW231614   4.488   4.036   6.790  0.0035 -0.3463 -0.0652
 6718SOL     OW31615   2.622   1.537   0.883 -0.0157  0.0779  0.2984
 6718SOL    HW131616   2.552   1.565   0.942 -1.9597  0.1601 -2.0404
 6718SOL    HW231617   2.574   1.462   0.847  1.2746 -0.4559 -0.3148
 6719SOL     OW31618   0.072   2.284   4.962  0.2504  0.1063 -0.6122
 6719SOL    HW131619   0.009   2.342   5.005  0.9423  0.2561  0.1893
 6719SOL    HW231620   0.017   2.208   4.941  1.4925 -0.4748 -1.8051
 6720SOL     OW31621   0.301   2.473   1.901  0.6206  0.1621 -0.0435
 6720SOL    HW131622   0.290   2.553   1.850 -0.4802 -1.1948 -1.9343
 6720SOL    HW231623   0.271   2.497   1.988  2.8278  0.8145  0.5585
 6721SOL     OW31624   0.396   1.718   7.029 -0.6744 -0.2465  0.4266
 6721SOL    HW131625   0.423   1.797   7.076  0.2040 -1.0758  1.3035
 6721SOL    HW231626   0.442   1.646   7.072 -1.7996  0.0175  2.1256
 6722SOL     OW31627   0.463   4.572   6.077  0.0879 -0.0044 -0.0413
 6722SOL    HW131628   0.375   4.601   6.099 -0.2373 -1.9349  1.2582
 6722SOL    HW231629   0.504   4.598   6.159 -0.4284 -2.6108  1.0412
 6723SOL     OW31630   2.676   1.952  14.584 -0.1841 -0.0691  0.2413
 6723SOL    HW131631   2.767   1.923  14.593 -0.2123 -0.2873 -0.1858
 6723SOL    HW231632   2.628   1.869  14.589 -0.6473  0.0799 -1.8089
 6724SOL     OW31633   0.636   4.232  11.272 -0.0676  0.1711  0.1519
 6724SOL    HW131634   0.546   4.263  11.283  0.3475  0.7614  1.7842
 6724SOL    HW231635   0.671   4.319  11.252  1.5074 -0.6622 -0.7243
 6725SOL     OW31636   4.284   0.178   5.080  0.0035 -0.0296 -0.1532
 6725SOL    HW131637   4.258   0.154   4.991 -0.0685 -1.5797  0.2818
 6725SOL    HW231638   4.376   0.155   5.071  0.6264  2.0184  1.2291
 6726SOL     OW31639   3.442   3.671   7.621  0.8766  0.0192 -0.5341
 6726SOL    HW131640   3.505   3.739   7.594  1.1187 -0.4779 -1.2126
 6726SOL    HW231641   3.378   3.700   7.555  0.4182 -1.3747 -0.6930
 6727SOL     OW31642   2.870   3.324   3.307 -0.4497 -0.0546 -0.0469
 6727SOL    HW131643   2.859   3.278   3.224  0.0900 -2.2426  1.0986
 6727SOL    HW231644   2.914   3.397   3.264  1.7321 -1.1947  0.2458
 6728SOL     OW31645   3.362   1.522   8.585  0.1949  0.9159  0.3871
 6728SOL    HW131646   3.455   1.543   8.579  0.2973 -0.9693 -4.2972
 6728SOL    HW231647   3.364   1.432   8.617 -0.7939  0.0220 -2.0741
 6729SOL     OW31648   2.101   2.408   7.117 -0.1379 -0.0847 -0.0772
 6729SOL    HW131649   2.120   2.341   7.051 -2.8789 -1.1638  0.2430
 6729SOL    HW231650   2.111   2.350   7.193  0.7420  0.4507  0.2103
 6730SOL     OW31651   4.047   4.532  16.164 -0.3364  0.0974  0.4153
 6730SOL    HW131652   3.983   4.600  16.145  1.4810  2.4331  2.7162
 6730SOL    HW231653   3.985   4.459  16.174  0.6710 -0.8445 -0.1767
 6731SOL     OW31654   1.606   2.922   2.496 -0.2692 -0.7749 -0.5195
 6731SOL    HW131655   1.667   2.990   2.524 -1.6816  0.5395 -0.5987
 6731SOL    HW231656   1.552   2.975   2.437  0.5559  1.2874  0.5805
 6732SOL     OW31657   2.508   4.477  17.332  0.1448  0.1892 -0.2699
 6732SOL    HW131658   2.464   4.459  17.415  0.4157 -3.4722 -0.9279
 6732SOL    HW231659   2.601   4.483  17.350  0.3034 -1.2963 -0.5300
 6733SOL     OW31660   0.954   4.581   2.808 -0.5408  0.3910  0.0438
 6733SOL    HW131661   0.919   4.501   2.847 -1.1737  0.8573  0.4303
 6733SOL    HW231662   1.047   4.568   2.793 -0.3019  0.1169  1.6857
 6734SOL     OW31663   2.833   0.702  12.378 -0.6365  0.7221  0.0477
 6734SOL    HW131664   2.903   0.766  12.366 -0.1786  0.3320  0.6647
 6734SOL    HW231665   2.773   0.760  12.331  1.2634  1.5072 -1.3914
 6735SOL     OW31666   0.197   2.873  17.150  0.2733 -0.0875 -0.3298
 6735SOL    HW131667   0.129   2.827  17.100  0.6987  0.3922 -1.3484
 6735SOL    HW231668   0.217   2.806  17.215 -3.5836  1.6641  2.6081
 6736SOL     OW31669   1.456   0.238   1.070  0.8013 -0.1595 -0.0915
 6736SOL    HW131670   1.429   0.147   1.053  1.1995 -0.5361  1.2039
 6736SOL    HW231671   1.468   0.223   1.164  0.6567  0.8942  0.0905
 6737SOL     OW31672   3.836   3.642  17.145  0.3129  0.1502 -0.6906
 6737SOL    HW131673   3.833   3.737  17.147 -0.2834  0.1038  0.4879
 6737SOL    HW231674   3.925   3.626  17.175 -0.2960  0.2004  1.0974
 6738SOL     OW31675   2.560   3.861   6.854  0.4356  0.4753  0.3686
 6738SOL    HW131676   2.565   3.926   6.925  0.2461  1.9695 -0.9914
 6738SOL    HW231677   2.471   3.831   6.868 -0.1133  2.3220  0.9241
 6739SOL     OW31678   2.384   2.218   9.447 -0.2275  0.2556  0.0249
 6739SOL    HW131679   2.397   2.261   9.532  0.1426 -2.7655  1.4910
 6739SOL    HW231680   2.329   2.147   9.478  0.1715 -0.6147 -1.2797
 6740SOL     OW31681   0.106   2.757   3.835  0.4491  0.1223  0.2125
 6740SOL    HW131682   0.099   2.800   3.920  3.9697  1.4209 -0.1619
 6740SOL    HW231683   0.133   2.670   3.863  0.0942  0.5327  1.8493
 6741SOL     OW31684   2.538   1.438   7.303 -0.7665 -0.2297 -0.2602
 6741SOL    HW131685   2.500   1.454   7.390 -0.1923 -0.6060  0.0654
 6741SOL    HW231686   2.618   1.390   7.327 -0.5973 -0.6169 -1.6215
 6742SOL     OW31687   4.510   1.388   3.797 -0.1054  0.1810  0.0633
 6742SOL    HW131688   4.600   1.415   3.812  0.5509 -0.5476 -2.6688
 6742SOL    HW231689   4.487   1.456   3.733 -0.1452 -1.1353 -1.3046
 6743SOL     OW31690   2.021   3.293   3.633  0.2035 -0.3143 -0.1262
 6743SOL    HW131691   1.929   3.302   3.656 -0.0558 -1.5577 -0.6863
 6743SOL    HW231692   2.033   3.205   3.669  0.9405 -1.3748 -2.9250
 6744SOL     OW31693   2.758   0.733   9.111 -0.5672  0.0456  0.0698
 6744SOL    HW131694   2.783   0.678   9.186  0.1298  0.5485  0.2054
 6744SOL    HW231695   2.715   0.670   9.053  0.2937 -1.0934  0.6759
 6745SOL     OW31696   1.341   2.902   6.483  0.3520  0.0435 -0.2441
 6745SOL    HW131697   1.398   2.899   6.559 -0.0611 -0.5733  0.0479
 6745SOL    HW231698   1.355   2.992   6.455 -0.4231 -0.8743 -3.6947
 6746SOL     OW31699   3.932   0.322   5.351  0.1798 -0.1060  0.3893
 6746SOL    HW131700   3.899   0.235   5.369 -0.0295 -0.1137 -0.0229
 6746SOL    HW231701   3.978   0.337   5.434  0.4217  3.4559 -0.3517
 6747SOL     OW31702   4.401   1.706   2.151 -0.2180 -0.6667 -0.2908
 6747SOL    HW131703   4.435   1.775   2.093  4.0488 -3.0981 -0.6660
 6747SOL    HW231704   4.389   1.640   2.083 -2.9961  0.0278 -0.4870
 6748SOL     OW31705   1.148   3.334   6.270  0.1130  0.5125  0.2673
 6748SOL    HW131706   1.087   3.407   6.256 -0.1581 -0.2042 -2.2701
 6748SOL    HW231707   1.133   3.333   6.364 -0.4731  1.4875  0.1892
 6749SOL     OW31708   2.608   3.049   3.549  0.1602 -0.4332 -0.1638
 6749SOL    HW131709   2.701   3.036   3.564 -0.0752 -3.3304 -1.2267
 6749SOL    HW231710   2.604   3.138   3.514 -0.5080 -0.9952 -1.5465
 6750SOL     OW31711   4.593   2.997  16.765  0.5289 -0.2361 -0.2484
 6750SOL    HW131712   4.508   2.984  16.806  0.3412  0.0874 -0.5400
 6750SOL    HW231713   4.633   3.050  16.834  1.1351  1.5246 -1.9743
 6751SOL     OW31714   0.671   1.164   3.627 -0.7828  0.0453  0.3654
 6751SOL    HW131715   0.611   1.190   3.557  1.1219  0.5331 -1.0517
 6751SOL    HW231716   0.630   1.079   3.644 -3.1594  1.5855  2.3707
 6752SOL     OW31717   3.008   3.269   7.638 -0.1631 -0.3167 -0.6187
 6752SOL    HW131718   3.058   3.348   7.658 -0.7628 -0.1760  0.2986
 6752SOL    HW231719   2.950   3.291   7.565  0.6697 -0.0462 -1.2055
 6753SOL     OW31720   3.160   1.580   4.357 -0.6672  0.1018 -0.7826
 6753SOL    HW131721   3.073   1.618   4.355 -0.0022  1.5796 -2.0337
 6753SOL    HW231722   3.177   1.560   4.265 -1.7454 -0.9884 -0.7352
 6754SOL     OW31723   2.200   4.321   3.099 -0.2033 -0.4194  0.0709
 6754SOL    HW131724   2.191   4.369   3.181 -1.5039  0.9492 -0.8663
 6754SOL    HW231725   2.152   4.240   3.118  0.3134 -1.6475 -3.7092
 6755SOL     OW31726   1.539   0.238  10.100  0.1666  0.4942 -0.1508
 6755SOL    HW131727   1.633   0.222  10.093  0.0318  0.1793 -1.1279
 6755SOL    HW231728   1.535   0.299  10.174  2.8183 -1.7931  1.9147
 6756SOL     OW31729   2.940   4.298   2.145  0.3550  0.6446 -0.0116
 6756SOL    HW131730   2.848   4.290   2.121  0.4128  2.2125 -0.7718
 6756SOL    HW231731   2.963   4.379   2.099  0.5315  0.5267 -0.1317
 6757SOL     OW31732   3.219   4.675   2.678  0.2317  0.2311  0.0267
 6757SOL    HW131733   3.170   0.017   2.730 -1.3096 -1.8277  1.1324
 6757SOL    HW231734   3.207   4.595   2.729 -2.5289 -0.6041 -1.9965
 6758SOL     OW31735   3.863   4.676   1.860 -0.1703 -0.3311  0.3571
 6758SOL    HW131736   3.929   4.713   1.800 -0.1152  0.2340  0.7695
 6758SOL    HW231737   3.880   4.584   1.838  1.3357  0.1626 -0.6023
 6759SOL     OW31738   3.950   1.992  17.319  0.5536 -0.0832 -0.2306
 6759SOL    HW131739   3.925   2.003  17.411 -1.0117  2.1254 -0.9193
 6759SOL    HW231740   3.923   2.078  17.289  1.9969  0.1004 -0.9746
 6760SOL     OW31741   3.153   0.239   8.442 -0.1497  0.4686  0.8284
 6760SOL    HW131742   3.188   0.286   8.366  0.8540  0.0370  1.0154
 6760SOL    HW231743   3.132   0.304   8.508 -0.7532  1.1564 -0.0422
 6761SOL     OW31744   0.998   1.802   5.383  0.5999 -0.1277  0.5558
 6761SOL    HW131745   0.911   1.772   5.407  1.2491 -2.7490 -0.3378
 6761SOL    HW231746   1.031   1.717   5.353  3.1999  0.3701  1.9603
 6762SOL     OW31747   1.415   3.671   1.851  0.2139 -0.2181  1.0988
 6762SOL    HW131748   1.483   3.616   1.813  2.3936  4.8175 -2.3134
 6762SOL    HW231749   1.461   3.743   1.895  1.2699  0.8785 -1.7905
 6763SOL     OW31750   3.387   0.870   3.424 -0.4030 -0.4391 -0.0928
 6763SOL    HW131751   3.372   0.802   3.490  1.6837  1.6259  2.5312
 6763SOL    HW231752   3.483   0.863   3.423 -0.4749 -0.9854 -3.0033
 6764SOL     OW31753   0.107   4.486   2.511 -0.7215  0.4028  0.7119
 6764SOL    HW131754   0.182   4.450   2.463 -2.4919 -2.3862  0.0707
 6764SOL    HW231755   0.086   4.406   2.559  0.7637 -0.1846  0.3756
 6765SOL     OW31756   3.859   1.308   0.343 -0.0547 -0.2565  0.4284
 6765SOL    HW131757   3.784   1.357   0.309  0.6871  2.1006  2.2151
 6765SOL    HW231758   3.861   1.226   0.294  2.0668  1.1929 -1.9080
 6766SOL     OW31759   4.037   2.752  13.511 -0.1765  0.2432 -1.1102
 6766SOL    HW131760   3.980   2.812  13.559  0.4041 -0.4264  0.4240
 6766SOL    HW231761   3.974   2.729  13.443 -0.4452  0.6072 -0.9843
 6767SOL     OW31762   4.476   1.374   8.072  0.3373 -0.5324  0.0389
 6767SOL    HW131763   4.421   1.296   8.074 -2.3789  1.4044  0.8272
 6767SOL    HW231764   4.457   1.412   7.986 -0.2720  0.3613  0.5664
 6768SOL     OW31765   2.872   3.133  16.088 -0.4871 -0.4679  0.0837
 6768SOL    HW131766   2.834   3.216  16.117 -0.9316 -0.3894 -0.7199
 6768SOL    HW231767   2.861   3.067  16.156  0.9676  0.2672  1.0518
 6769SOL     OW31768   0.641   1.155  13.508 -0.5981  0.2737  0.0828
 6769SOL    HW131769   0.649   1.060  13.511  0.4180  0.3956  0.9249
 6769SOL    HW231770   0.705   1.178  13.575 -0.8585  2.8927 -0.5579
 6770SOL     OW31771   4.680   4.201   8.094 -0.4384 -0.0023 -0.1648
 6770SOL    HW131772   4.720   4.189   8.181 -0.8057  0.9030  0.1341
 6770SOL    HW231773   0.022   4.257   8.052 -0.1784  0.0320  0.2748
 6771SOL     OW31774   1.258   0.086   1.214  0.1886  0.1312 -0.5040
 6771SOL    HW131775   1.196   0.027   1.170  2.2320 -0.9135 -2.0016
 6771SOL    HW231776   1.200   0.160   1.234 -0.4974 -0.6350  0.3332
 6772SOL     OW31777   0.355   0.139   7.764 -0.3716  0.0800  0.4008
 6772SOL    HW131778   0.388   0.178   7.845 -0.8924 -1.7640  1.5024
 6772SOL    HW231779   0.352   0.211   7.702  0.2966 -2.2464 -2.3312
 6773SOL     OW31780   1.015   2.582   8.400  0.2171 -0.3572 -0.0067
 6773SOL    HW131781   1.105   2.573   8.431 -0.2021  0.1919  1.3523
 6773SOL    HW231782   0.973   2.515   8.454  1.0077 -2.0161 -1.4635
 6774SOL     OW31783   0.550   2.514  11.672  0.6997  0.0229  0.4757
 6774SOL    HW131784   0.582   2.441  11.619  0.4591  0.5791 -0.4359
 6774SOL    HW231785   0.602   2.496  11.750 -1.8229  0.6604  2.2834
 6775SOL     OW31786   0.007   2.505   7.594  0.6277  0.1992  0.2982
 6775SOL    HW131787   4.637   2.496   7.617  0.2980 -0.0803 -1.1380
 6775SOL    HW231788   0.015   2.601   7.597 -2.3461  0.3719  2.9607
 6776SOL     OW31789   0.490   2.889   5.245 -0.6089  0.1773  0.5639
 6776SOL    HW131790   0.496   2.982   5.269 -2.5832  0.1974  0.9899
 6776SOL    HW231791   0.570   2.846   5.276 -2.1329 -2.6532  0.5208
 6777SOL     OW31792   0.152   3.617   6.949 -0.3008 -0.3397  0.2604
 6777SOL    HW131793   0.067   3.654   6.926 -1.1585 -1.1704  2.0403
 6777SOL    HW231794   0.130   3.527   6.975 -1.1578 -0.0445  0.5447
 6778SOL     OW31795   0.214   2.350   1.381 -0.1750 -0.5550  0.1143
 6778SOL    HW131796   0.188   2.276   1.437  0.6791  0.7272  2.1974
 6778SOL    HW231797   0.299   2.374   1.416 -0.9810 -0.1892  1.8372
 6779SOL     OW31798   3.781   3.069  11.270  0.1719 -0.0244 -0.5830
 6779SOL    HW131799   3.876   3.082  11.274  0.3805 -2.6250  3.2763
 6779SOL    HW231800   3.757   3.092  11.360  1.4438  1.1697 -0.5541
 6780SOL     OW31801   3.866   2.730  12.987 -0.4162 -0.1512 -0.2614
 6780SOL    HW131802   3.783   2.714  13.033  0.7538 -1.3666  1.4308
 6780SOL    HW231803   3.865   2.825  12.986 -1.2036 -0.1524 -0.0047
 6781SOL     OW31804   4.586   2.814   9.630 -0.5846  0.1957 -0.1563
 6781SOL    HW131805   4.523   2.851   9.692 -2.0160 -0.6466 -1.0988
 6781SOL    HW231806   4.657   2.878   9.619  1.5080 -2.3642 -1.3998
 6782SOL     OW31807   3.275   0.967   1.101 -0.3032  0.3673  0.1749
 6782SOL    HW131808   3.190   0.959   1.145 -1.3406  1.1433 -1.7222
 6782SOL    HW231809   3.250   0.930   1.016 -0.2634 -0.8916  0.7043
 6783SOL     OW31810   1.058   3.056   3.149 -0.3202 -1.1412 -0.1009
 6783SOL    HW131811   1.017   3.030   3.232  0.5176 -0.2501  0.5867
 6783SOL    HW231812   1.091   2.968   3.129  1.7488  0.1906 -2.5126
 6784SOL     OW31813   2.004   3.797   7.278 -0.2273  0.0385 -0.4242
 6784SOL    HW131814   1.996   3.787   7.183 -1.1428 -3.0078 -0.0649
 6784SOL    HW231815   2.022   3.707   7.305 -3.3611 -0.5934 -0.4011
 6785SOL     OW31816   3.796   3.643  13.981  0.2449  0.0618  0.0323
 6785SOL    HW131817   3.734   3.683  13.920  0.8932 -0.0223 -0.6864
 6785SOL    HW231818   3.838   3.572  13.932  1.6972  0.9440  0.0004
 6786SOL     OW31819   1.336   4.668   4.861  0.5179  0.0699  0.6446
 6786SOL    HW131820   1.329   4.573   4.861 -1.4072  0.2210 -0.7613
 6786SOL    HW231821   1.363   4.681   4.770  1.5256  3.5613  1.4332
 6787SOL     OW31822   4.121   3.167   0.787 -0.8859  0.4515 -0.1416
 6787SOL    HW131823   4.072   3.087   0.770  0.6642 -0.4981 -0.1417
 6787SOL    HW231824   4.052   3.232   0.797 -1.5788 -0.2675 -0.2147
 6788SOL     OW31825   2.518   1.662   1.376 -0.1962 -0.0254  0.0845
 6788SOL    HW131826   2.513   1.706   1.292 -1.1015  1.8628  1.1234
 6788SOL    HW231827   2.517   1.571   1.345  0.6867  0.3279 -0.9784
 6789SOL     OW31828   2.170   2.831   1.018  0.2106 -0.2153  0.1273
 6789SOL    HW131829   2.207   2.911   1.054 -1.1190  0.3465  0.2628
 6789SOL    HW231830   2.219   2.769   1.071 -1.1878 -0.8843  0.6375
 6790SOL     OW31831   4.579   2.043   6.530  0.5197  0.1708 -0.6781
 6790SOL    HW131832   4.639   2.035   6.456  1.6649  0.6800  0.2027
 6790SOL    HW231833   4.581   2.138   6.537 -0.2232  0.1001  0.5592
 6791SOL     OW31834   0.372   3.865  10.216 -0.4372  0.1270  0.2816
 6791SOL    HW131835   0.325   3.935  10.170 -0.4159  0.0538  0.1460
 6791SOL    HW231836   0.324   3.872  10.298 -1.3491  0.6440 -0.2986
 6792SOL     OW31837   3.325   0.886   5.214  0.3145  0.4688  0.1260
 6792SOL    HW131838   3.374   0.879   5.295  0.6052  0.0078 -0.0943
 6792SOL    HW231839   3.251   0.934   5.252 -1.7399 -1.0543 -1.9068
 6793SOL     OW31840   3.692   2.402   4.981 -0.1641  0.1933 -0.2701
 6793SOL    HW131841   3.602   2.393   4.949 -0.9766  0.0979  2.0389
 6793SOL    HW231842   3.698   2.334   5.048  3.0298  0.0016 -0.7561
 6794SOL     OW31843   0.993   3.535   4.474  0.0031  0.1715  0.8021
 6794SOL    HW131844   0.948   3.539   4.558  0.0323  0.0955  0.8216
 6794SOL    HW231845   0.985   3.442   4.451 -0.0881  0.3353  0.1858
 6795SOL     OW31846   0.888   2.867   7.401  0.1922 -0.2104  0.8061
 6795SOL    HW131847   0.963   2.816   7.371 -1.5643 -2.7861  0.7732
 6795SOL    HW231848   0.898   2.953   7.361  2.1608 -0.5008  0.6930
 6796SOL     OW31849   0.581   2.477  16.970 -0.0881 -0.3609  0.1627
 6796SOL    HW131850   0.651   2.506  17.028 -0.0795  0.2733 -0.1618
 6796SOL    HW231851   0.507   2.506  17.023 -0.2442 -0.3344 -0.0672
 6797SOL     OW31852   2.094   4.526   4.211 -0.0816  0.3138  0.4729
 6797SOL    HW131853   2.186   4.498   4.209 -0.4284 -0.8656  0.8704
 6797SOL    HW231854   2.094   4.510   4.306  1.3750 -0.5090  0.3469
 6798SOL     OW31855   3.488   1.456   1.409  0.2163 -0.3916 -0.6721
 6798SOL    HW131856   3.583   1.448   1.403  0.3185 -0.3875  0.9544
 6798SOL    HW231857   3.469   1.441   1.502 -1.2868  0.3031 -0.8644
 6799SOL     OW31858   2.200   0.421   2.277 -0.3743  0.3585 -0.4135
 6799SOL    HW131859   2.217   0.502   2.230  0.1432  0.8994  0.7028
 6799SOL    HW231860   2.105   0.411   2.274 -0.3594  0.9271 -2.4351
 6800SOL     OW31861   3.834   3.125   6.208 -0.0366 -0.7463 -0.4486
 6800SOL    HW131862   3.773   3.068   6.161 -1.1336 -1.1434  1.4754
 6800SOL    HW231863   3.819   3.204   6.156 -1.3763 -1.0010 -0.4257
 6801SOL     OW31864   3.900   4.444   8.032 -0.1435 -0.7429  0.1144
 6801SOL    HW131865   3.966   4.512   8.044 -0.1712 -0.7529  0.3250
 6801SOL    HW231866   3.845   4.450   8.110 -0.0561 -0.2634  0.1364
 6802SOL     OW31867   4.673   0.473   7.286  0.2172  0.0985  0.2109
 6802SOL    HW131868   0.003   0.553   7.280  2.9439 -1.7866 -0.8070
 6802SOL    HW231869   4.713   0.412   7.225  0.7614  0.7077 -0.0431
 6803SOL     OW31870   2.603   0.808   7.336 -0.2416  0.4741 -0.2780
 6803SOL    HW131871   2.572   0.805   7.426 -0.6694 -2.0113 -0.5084
 6803SOL    HW231872   2.665   0.737   7.344 -0.3200  0.4161 -0.1848
 6804SOL     OW31873   3.681   3.176   6.958  0.3287 -0.1446 -0.7268
 6804SOL    HW131874   3.652   3.158   6.868 -1.0773 -0.6929 -0.1582
 6804SOL    HW231875   3.709   3.265   6.936 -1.4580  0.8357  0.9755
 6805SOL     OW31876   0.022   4.034   3.711  0.2148 -0.0757 -0.2179
 6805SOL    HW131877   0.026   3.956   3.766 -0.1583 -1.6387 -2.3836
 6805SOL    HW231878   4.683   4.086   3.761  0.6297  1.8221 -1.6956
 6806SOL     OW31879   2.207   3.306  13.183 -0.5964  0.5141  0.0281
 6806SOL    HW131880   2.252   3.389  13.198 -0.8467  0.5635  0.5011
 6806SOL    HW231881   2.234   3.252  13.257  1.0324  0.8227 -0.3360
 6807SOL     OW31882   2.452   0.634  10.646 -0.1775  0.1521  0.2803
 6807SOL    HW131883   2.427   0.725  10.637  1.2750  0.4998 -0.1558
 6807SOL    HW231884   2.416   0.613  10.733 -1.6146 -2.5138 -0.9699
 6808SOL     OW31885   3.478   3.085   6.347  0.3084 -0.6063  0.1458
 6808SOL    HW131886   3.472   3.115   6.256 -0.1535 -1.6487 -0.1583
 6808SOL    HW231887   3.402   3.132   6.382  1.6264  1.6783 -0.0272
 6809SOL     OW31888   4.657   0.755  11.920  0.5644  0.3818  0.9007
 6809SOL    HW131889   4.617   0.827  11.871 -1.1255  0.4827  2.4375
 6809SOL    HW231890   0.021   0.751  11.880  0.1473  1.2606 -0.0895
 6810SOL     OW31891   0.510   0.107   6.700 -0.4846  0.1517  0.0599
 6810SOL    HW131892   0.550   0.143   6.621 -1.5969  1.7812  0.2270
 6810SOL    HW231893   0.592   0.089   6.745 -2.3818 -4.3200  1.7946
 6811SOL     OW31894   0.040   0.366   0.797  0.3962  0.0897  0.0038
 6811SOL    HW131895   0.043   0.397   0.706  0.2793  2.0577  0.6820
 6811SOL    HW231896   0.111   0.301   0.793 -0.8114 -1.2365  0.0361
 6812SOL     OW31897   2.755   1.610   3.154 -0.3637 -0.1130  0.0959
 6812SOL    HW131898   2.700   1.688   3.147  0.3290  0.4429  0.8228
 6812SOL    HW231899   2.702   1.555   3.211  1.7072 -0.6915  1.4632
 6813SOL     OW31900   2.327   2.216   6.556  0.0642  0.4788 -0.8252
 6813SOL    HW131901   2.387   2.290   6.560 -0.8253  1.0524  1.7416
 6813SOL    HW231902   2.300   2.214   6.647 -0.1794  1.1409 -0.8831
 6814SOL     OW31903   3.620   1.264   9.616 -0.4774 -0.6865 -0.5316
 6814SOL    HW131904   3.682   1.197   9.585 -0.3836 -1.0657  0.4683
 6814SOL    HW231905   3.539   1.235   9.573 -1.5138  1.4622  0.0184
 6815SOL     OW31906   0.364   1.704   3.263 -0.1217  0.3490  0.0789
 6815SOL    HW131907   0.269   1.693   3.262 -0.2472  1.3244  1.0091
 6815SOL    HW231908   0.375   1.776   3.326  0.0415  0.6532 -0.2993
 6816SOL     OW31909   1.307   4.004   7.176  0.4984 -0.0997 -0.8868
 6816SOL    HW131910   1.276   4.030   7.263  1.5252 -3.0315  0.3407
 6816SOL    HW231911   1.300   3.910   7.190  0.9368 -0.3337 -2.3155
 6817SOL     OW31912   2.979   1.067   5.729 -0.1407  0.0102 -0.6034
 6817SOL    HW131913   2.951   0.990   5.680  0.5801 -0.5906 -0.0668
 6817SOL    HW231914   2.916   1.138   5.713  0.2232  0.7145  1.0769
 6818SOL     OW31915   1.384   1.743   3.769 -0.0338 -0.0091 -0.1777
 6818SOL    HW131916   1.350   1.768   3.683  1.8147 -2.4033 -1.5922
 6818SOL    HW231917   1.477   1.757   3.753 -0.0998 -1.1802 -1.6185
 6819SOL     OW31918   3.564   1.403   8.019 -0.1639  0.7243  0.3217
 6819SOL    HW131919   3.487   1.363   7.980  0.6249 -0.4977  0.0255
 6819SOL    HW231920   3.548   1.495   7.999 -0.2209  0.6340 -0.0420
 6820SOL     OW31921   0.203   3.162  15.362  0.0438 -0.0567 -0.8507
 6820SOL    HW131922   0.192   3.256  15.378 -1.7167 -0.3099 -0.6355
 6820SOL    HW231923   0.183   3.170  15.268  0.2518  0.9500 -0.8101
 6821SOL     OW31924   1.124   3.591  16.777  0.1666 -0.3917  0.4701
 6821SOL    HW131925   1.118   3.649  16.701  0.9049 -1.3330 -0.3209
 6821SOL    HW231926   1.214   3.561  16.762 -0.2847 -1.7741  0.4601
 6822SOL     OW31927   1.299   0.549  15.782  0.3008  0.0464 -0.3084
 6822SOL    HW131928   1.210   0.517  15.771  1.3145 -2.4207 -1.2571
 6822SOL    HW231929   1.285   0.610  15.855  1.2765 -0.6669  0.4747
 6823SOL     OW31930   0.934   3.008   1.783  0.2020 -0.2534 -0.6568
 6823SOL    HW131931   0.940   2.957   1.864 -1.6317  0.0967 -0.3171
 6823SOL    HW231932   1.017   2.980   1.744  1.1897  2.0327 -0.1943
 6824SOL     OW31933   2.736   4.377  14.067 -0.2638  0.0303  0.0374
 6824SOL    HW131934   2.776   4.330  13.993 -1.0132  0.4079 -0.6090
 6824SOL    HW231935   2.717   4.468  14.043 -1.1466 -0.6461 -1.8939
 6825SOL     OW31936   0.408   3.804  12.756  0.1902 -0.5558 -0.0405
 6825SOL    HW131937   0.449   3.753  12.826 -1.5524 -1.7795  0.0499
 6825SOL    HW231938   0.485   3.859  12.737  1.5038 -1.8747  1.4505
 6826SOL     OW31939   3.697   2.946   9.766 -0.4279 -0.1806  0.1640
 6826SOL    HW131940   3.666   3.035   9.784  1.5637  0.5470 -0.0330
 6826SOL    HW231941   3.784   2.957   9.727 -0.9909 -2.0514 -1.5878
 6827SOL     OW31942   1.633   0.465   5.395 -0.0632  0.1800  0.3174
 6827SOL    HW131943   1.672   0.482   5.481  0.3809  0.2500  0.1028
 6827SOL    HW231944   1.563   0.404   5.419 -0.7326  1.2446  1.0265
 6828SOL     OW31945   0.270   1.326  15.255 -0.1261 -0.2449 -0.0090
 6828SOL    HW131946   0.300   1.362  15.338  0.8213  0.7205 -0.7621
 6828SOL    HW231947   0.240   1.403  15.206 -3.5538 -0.4534  1.7353
 6829SOL     OW31948   0.025   3.335   0.655  0.0083 -0.2910  0.5569
 6829SOL    HW131949   0.073   3.356   0.735  2.4278 -1.7366 -0.5208
 6829SOL    HW231950   0.057   3.395   0.588 -2.6672  1.4513  0.8303
 6830SOL     OW31951   1.290   1.580  17.431  0.0148 -0.0565 -0.4113
 6830SOL    HW131952   1.385   1.568  17.433  0.0366  0.3068  0.9756
 6830SOL    HW231953   1.269   1.547  17.344  1.2784  2.4720 -1.6718
 6831SOL     OW31954   4.149   3.798   9.142  0.1142  0.1176 -0.0494
 6831SOL    HW131955   4.055   3.808   9.124  0.3113  0.4429 -0.8778
 6831SOL    HW231956   4.151   3.822   9.235  2.6689  3.3773 -0.9447
 6832SOL     OW31957   2.820   4.690   7.431 -0.0725  0.5102  0.3920
 6832SOL    HW131958   2.860   4.615   7.475 -1.6034  0.4303  1.6723
 6832SOL    HW231959   2.739   4.661   7.387 -1.1621 -0.0403  2.7699
 6833SOL     OW31960   0.030   1.644  10.447 -0.1212 -0.8527 -0.0213
 6833SOL    HW131961   0.021   1.637  10.542 -1.8465  4.0211  0.1495
 6833SOL    HW231962   0.057   1.736  10.444 -0.8888 -0.6681 -1.2088
 6834SOL     OW31963   2.670   4.078  12.187  0.0462 -0.5713  0.5328
 6834SOL    HW131964   2.695   4.146  12.125  0.8902 -0.3702  1.0992
 6834SOL    HW231965   2.695   4.116  12.271  1.1972 -3.0918  1.3344
 6835SOL     OW31966   3.855   3.615  14.809 -0.0738 -0.2734  0.4781
 6835SOL    HW131967   3.784   3.662  14.852  2.0124  0.4300  3.2068
 6835SOL    HW231968   3.920   3.686  14.811  1.3582 -1.5658  0.1855
 6836SOL     OW31969   2.322   4.168   7.840  0.4205  0.3362 -0.2930
 6836SOL    HW131970   2.385   4.106   7.878  1.1486  0.9412 -0.5186
 6836SOL    HW231971   2.260   4.115   7.789 -0.4990 -1.0440  2.2701
 6837SOL     OW31972   0.314   4.019   5.123  0.1879 -0.1079 -0.3080
 6837SOL    HW131973   0.270   3.961   5.186  0.6002 -0.4500 -0.3383
 6837SOL    HW231974   0.295   4.101   5.170 -1.8320 -0.7189 -0.0461
 6838SOL     OW31975   3.825   2.211   7.026  0.4261  0.5245  0.8531
 6838SOL    HW131976   3.758   2.147   7.048  1.0286 -0.0114  1.1083
 6838SOL    HW231977   3.771   2.278   6.983  2.0671  0.9579 -0.5561
 6839SOL     OW31978   1.594   2.432   7.075  0.3632 -0.4573 -0.3706
 6839SOL    HW131979   1.508   2.418   7.036 -0.6437  0.5113  1.4522
 6839SOL    HW231980   1.654   2.445   7.003 -0.1795  1.9014 -0.4009
 6840SOL     OW31981   3.752   4.037  15.095 -0.7270 -0.4102 -0.2828
 6840SOL    HW131982   3.846   4.019  15.087 -0.4413 -0.2622  2.9597
 6840SOL    HW231983   3.743   4.093  15.172  0.2714  3.1588 -2.7115
 6841SOL     OW31984   2.106   3.180   6.693  0.1950  0.4128  0.5509
 6841SOL    HW131985   2.175   3.143   6.637  1.0172  0.7845  1.3257
 6841SOL    HW231986   2.057   3.100   6.714  0.2580 -0.1511 -1.4038
 6842SOL     OW31987   3.047   3.749   5.120  0.0121 -0.1613  0.2887
 6842SOL    HW131988   2.998   3.823   5.085 -3.6442 -1.7784  1.9557
 6842SOL    HW231989   3.058   3.765   5.214  0.4049  0.8036  0.0762
 6843SOL     OW31990   2.157   4.059   6.641  0.1431  0.8276 -0.3782
 6843SOL    HW131991   2.081   4.116   6.627 -0.5998  0.4289  2.0394
 6843SOL    HW231992   2.150   4.047   6.735  0.8670 -1.4393 -0.6097
 6844SOL     OW31993   3.334   4.461   1.615  0.4922 -0.1746 -0.4087
 6844SOL    HW131994   3.383   4.488   1.693  1.5176 -2.5530 -0.2299
 6844SOL    HW231995   3.330   4.547   1.573  0.8139  0.7147  1.3908
 6845SOL     OW31996   4.115   3.201   8.765  0.0057 -0.8237  0.0340
 6845SOL    HW131997   4.171   3.130   8.733  0.9295  0.3020 -0.8630
 6845SOL    HW231998   4.122   3.257   8.688  0.1911 -0.5668  0.2388
 6846SOL     OW31999   3.496   1.001   6.965 -0.4976 -0.5772 -0.3084
 6846SOL    HW132000   3.444   1.074   6.999  1.0170 -0.0456  0.8617
 6846SOL    HW232001   3.522   1.035   6.880 -1.7790  0.4095 -0.3093
 6847SOL     OW32002   0.447   1.939   5.359 -0.0253  0.0366 -0.1497
 6847SOL    HW132003   0.351   1.932   5.360 -0.0657  0.6529 -0.0174
 6847SOL    HW232004   0.478   2.028   5.346  2.6817 -1.2906 -2.5716
 6848SOL     OW32005   1.809   3.785   3.780  0.0167  0.0223  0.0090
 6848SOL    HW132006   1.773   3.697   3.785 -1.7406  0.7432  0.1426
 6848SOL    HW232007   1.840   3.789   3.690  1.0997 -2.7559  0.2725
 6849SOL     OW32008   0.747   4.552   5.986 -0.0019 -0.3681  0.0655
 6849SOL    HW132009   0.689   4.476   5.993  0.8647 -1.1157 -0.7837
 6849SOL    HW232010   0.807   4.539   6.060 -0.1019  2.0460  0.5510
 6850SOL     OW32011   2.189   4.415   6.650 -0.5922  0.2432 -0.0875
 6850SOL    HW132012   2.110   4.371   6.680 -1.7139  0.8510 -2.1662
 6850SOL    HW232013   2.201   4.457   6.735  0.9086 -0.2059 -0.0660
 6851SOL     OW32014   3.366   4.120   0.785 -0.4090  0.2268  0.1433
 6851SOL    HW132015   3.327   4.074   0.710  1.5343  0.2087 -0.8585
 6851SOL    HW232016   3.323   4.067   0.852 -3.1215  0.2922 -1.5758
 6852SOL     OW32017   4.147   2.703   1.095 -0.0144 -0.5166  0.5748
 6852SOL    HW132018   4.197   2.622   1.108 -1.9559 -2.0376 -1.3856
 6852SOL    HW232019   4.115   2.684   1.007  1.4412  0.0289 -0.0587
 6853SOL     OW32020   3.940   3.727   5.406  0.5855  0.1493 -0.6766
 6853SOL    HW132021   4.012   3.720   5.468  1.1518 -1.0046 -1.4493
 6853SOL    HW232022   3.916   3.634   5.406  1.0786  0.0012 -3.4508
 6854SOL     OW32023   0.311   3.298   8.115 -0.9408  0.0273  0.6800
 6854SOL    HW132024   0.223   3.336   8.115 -1.6538 -1.5966 -2.3012
 6854SOL    HW232025   0.306   3.214   8.160  1.4948 -0.3685  0.2032
 6855SOL     OW32026   3.865   1.099  12.526 -0.0561  0.2493 -0.3228
 6855SOL    HW132027   3.911   1.016  12.537 -0.4884 -0.0153 -0.5310
 6855SOL    HW232028   3.871   1.132  12.437 -0.1656  0.2630 -0.3251
 6856SOL     OW32029   1.693   0.465  15.412 -0.0964 -0.6541  0.3243
 6856SOL    HW132030   1.623   0.488  15.473  0.8906 -0.1803  1.2914
 6856SOL    HW232031   1.753   0.539  15.407  0.0212 -0.6917  1.0798
 6857SOL     OW32032   3.126   3.656   4.710 -0.0841 -0.5407  0.5996
 6857SOL    HW132033   3.162   3.615   4.788  0.2868 -1.8770 -0.2882
 6857SOL    HW232034   3.081   3.737   4.737 -2.3765 -0.5218 -3.2414
 6858SOL     OW32035   2.976   3.446   4.266  0.4204 -0.5604 -0.5619
 6858SOL    HW132036   2.946   3.534   4.242  0.4332 -0.2811  0.4568
 6858SOL    HW232037   3.011   3.470   4.352 -2.7828  0.0293  0.5933
 6859SOL     OW32038   2.684   3.720  15.389  0.6061  0.0063  0.5969
 6859SOL    HW132039   2.599   3.677  15.402 -0.8999  2.9188  0.4983
 6859SOL    HW232040   2.662   3.812  15.401 -1.2283  0.0516 -2.9689
 6860SOL     OW32041   2.006   0.711   2.672  0.4872  0.0600  0.2726
 6860SOL    HW132042   1.951   0.727   2.595 -0.4286  2.0698  1.3444
 6860SOL    HW232043   1.987   0.792   2.720 -1.1414 -0.7321  0.9770
 6861SOL     OW32044   1.241   0.364   4.808  0.2587  0.6684  0.2639
 6861SOL    HW132045   1.249   0.303   4.881  0.1143 -0.3188 -0.5255
 6861SOL    HW232046   1.157   0.338   4.769  1.4545 -1.4212 -0.9053
 6862SOL     OW32047   0.298   3.437   3.925  0.3766 -0.1939  0.0959
 6862SOL    HW132048   0.362   3.502   3.897 -1.0216  1.3952  0.6142
 6862SOL    HW232049   0.299   3.380   3.848  0.5731 -1.1648  0.8191
 6863SOL     OW32050   0.912   0.633  14.268 -0.1408  0.1413 -0.3877
 6863SOL    HW132051   0.822   0.620  14.238 -0.7430  1.3490  0.8785
 6863SOL    HW232052   0.903   0.640  14.363 -0.9157  0.9723 -0.5124
 6864SOL     OW32053   0.060   3.626   3.339  0.4508  1.1137 -0.0199
 6864SOL    HW132054   4.695   3.664   3.328 -1.2994 -2.7983  0.4518
 6864SOL    HW232055   0.106   3.660   3.262  0.1686 -0.2319 -0.7811
 6865SOL     OW32056   1.569   3.563  12.963  0.2432  0.0553 -0.1888
 6865SOL    HW132057   1.578   3.657  12.981  1.5876 -0.1566  0.2262
 6865SOL    HW232058   1.632   3.525  13.025 -0.9811  0.2577  1.1683
 6866SOL     OW32059   1.855   0.808   7.752  0.1078 -0.1422 -0.8663
 6866SOL    HW132060   1.823   0.799   7.662  1.9627 -0.9209 -1.4484
 6866SOL    HW232061   1.950   0.810   7.741  0.0058 -1.7450 -2.1127
 6867SOL     OW32062   2.938   2.312   4.202 -0.2853  0.4492  0.0050
 6867SOL    HW132063   2.882   2.281   4.273 -0.3670 -0.2298 -0.3571
 6867SOL    HW232064   2.941   2.406   4.223  0.8353 -0.3836  3.6234
 6868SOL     OW32065   0.280   1.434   8.641 -0.1149 -0.2607 -0.0381
 6868SOL    HW132066   0.351   1.497   8.629  1.0317 -1.4542  0.4424
 6868SOL    HW232067   0.246   1.440   8.552 -4.3057 -0.3708  1.5496
 6869SOL     OW32068   2.816   3.778   8.382  0.0785 -0.0064  0.7746
 6869SOL    HW132069   2.818   3.745   8.472  3.4456 -1.8112 -0.0036
 6869SOL    HW232070   2.906   3.751   8.368 -0.3067  0.0226 -1.7471
 6870SOL     OW32071   0.760   2.094   3.232 -0.3951  0.7386  0.1825
 6870SOL    HW132072   0.844   2.054   3.209 -0.7411  0.5223 -0.6911
 6870SOL    HW232073   0.793   2.178   3.262  1.5230 -0.2197  0.7607
 6871SOL     OW32074   3.424   0.590   3.927 -0.0823  0.6493  0.2236
 6871SOL    HW132075   3.370   0.656   3.970  0.5951  0.7153  0.9789
 6871SOL    HW232076   3.370   0.511   3.930 -0.9319  1.2710  1.0197
 6872SOL     OW32077   0.914   4.134   5.314  0.3105 -0.3484 -0.6267
 6872SOL    HW132078   0.977   4.194   5.276 -0.1430  1.6731  1.8555
 6872SOL    HW232079   0.840   4.138   5.252  2.3236  1.3687 -2.9065
 6873SOL     OW32080   1.892   4.686   3.488  0.2243 -0.2910 -0.1135
 6873SOL    HW132081   1.825   0.012   3.440  1.0100  1.6215  0.7036
 6873SOL    HW232082   1.964   0.026   3.480  0.5866 -0.5276  1.1762
 6874SOL     OW32083   1.252   0.006   8.209 -0.3624  0.1201  0.3917
 6874SOL    HW132084   1.217   0.018   8.121 -3.4859  0.1600  1.6569
 6874SOL    HW232085   1.307   0.084   8.216 -0.2770  0.0382  0.6460
 6875SOL     OW32086   0.569   1.116   5.538 -0.1920 -0.6424 -0.3836
 6875SOL    HW132087   0.642   1.178   5.529 -0.9209 -0.0511 -2.3037
 6875SOL    HW232088   0.562   1.087   5.447  1.9544 -1.5162 -0.2920
 6876SOL     OW32089   4.231   2.136  10.308 -0.2813  0.3215  0.2007
 6876SOL    HW132090   4.229   2.113  10.215 -1.4284 -0.1403  0.3321
 6876SOL    HW232091   4.315   2.110  10.346 -0.6716  1.2479  1.7137
 6877SOL     OW32092   4.387   3.607   6.615  0.6264  0.2566  0.7990
 6877SOL    HW132093   4.409   3.671   6.548 -1.5805 -0.2514 -0.3803
 6877SOL    HW232094   4.476   3.579   6.639  0.5121 -0.5591  0.2847
 6878SOL     OW32095   4.675   2.342  17.640  0.0891  0.4017 -0.3986
 6878SOL    HW132096   4.710   2.278  17.579  0.7360  0.2681  0.1042
 6878SOL    HW232097   4.589   2.336  17.600 -0.9153  1.1346  1.6730
 6879SOL     OW32098   1.444   0.479  17.121  0.0704  0.4434 -0.2979
 6879SOL    HW132099   1.422   0.442  17.207 -0.4507  2.0668  0.2741
 6879SOL    HW232100   1.495   0.408  17.081  0.8555  1.2577 -0.7414
 6880SOL     OW32101   1.816   4.127  13.238 -0.0706 -0.2875 -0.3456
 6880SOL    HW132102   1.770   4.049  13.270 -0.3592 -0.0951 -0.2899
 6880SOL    HW232103   1.882   4.093  13.178 -0.8256 -3.0969  0.3675
 6881SOL     OW32104   4.530   3.051   2.137  0.4422 -0.2176  0.3364
 6881SOL    HW132105   4.619   3.068   2.106 -0.7001  2.8309 -1.3122
 6881SOL    HW232106   4.485   3.133   2.114 -3.2330 -2.2218  0.3482
 6882SOL     OW32107   3.741   0.765   5.433 -0.2512 -0.4645 -0.6888
 6882SOL    HW132108   3.741   0.676   5.468 -1.4070 -0.3627 -0.4377
 6882SOL    HW232109   3.797   0.801   5.502  0.0456  0.2363 -1.2926
 6883SOL     OW32110   0.687   1.941  16.871  0.1141  0.5723 -0.2127
 6883SOL    HW132111   0.697   1.998  16.795  1.0565  0.4577 -0.1658
 6883SOL    HW232112   0.681   2.007  16.940 -0.7925  0.4569 -0.1714
 6884SOL     OW32113   4.335   0.553   5.182  0.3625 -0.3128 -0.3324
 6884SOL    HW132114   4.348   0.620   5.115 -0.9945  0.4903  0.2026
 6884SOL    HW232115   4.426   0.550   5.209  0.5028  1.1012 -0.6915
 6885SOL     OW32116   0.951   0.826   0.361 -0.3709  0.5024 -0.5157
 6885SOL    HW132117   0.922   0.880   0.287 -1.8589  0.8309  0.3116
 6885SOL    HW232118   1.045   0.846   0.361 -0.2286 -0.1516 -0.2439
 6886SOL     OW32119   0.371   1.686   6.734  0.2264 -0.1466  0.3031
 6886SOL    HW132120   0.413   1.653   6.654 -0.9458  0.2856 -0.4821
 6886SOL    HW232121   0.339   1.610   6.782 -3.2294 -0.9482 -3.2765
 6887SOL     OW32122   2.329   1.887   2.700  0.0364  0.0245 -0.0864
 6887SOL    HW132123   2.313   1.978   2.725 -0.0963  0.7021 -2.6229
 6887SOL    HW232124   2.345   1.895   2.606  0.1590 -1.4740 -0.1867
 6888SOL     OW32125   4.376   1.128  15.748  0.1115  0.3305  0.5771
 6888SOL    HW132126   4.318   1.117  15.824  0.9569 -0.1343  1.1581
 6888SOL    HW232127   4.447   1.072  15.778 -0.2522 -0.3814  0.0941
 6889SOL     OW32128   4.705   2.054   4.770 -0.2157  0.2862 -0.3400
 6889SOL    HW132129   0.036   1.975   4.783  1.4564  1.6009  0.6858
 6889SOL    HW232130   4.621   2.009   4.765  0.5543 -1.0885 -1.2785
 6890SOL     OW32131   0.169   2.365   1.686  0.5198  0.3164  0.3623
 6890SOL    HW132132   0.219   2.299   1.638  1.4951 -0.2767  2.2169
 6890SOL    HW232133   0.236   2.400   1.745  0.4073  1.6294 -0.2715
 6891SOL     OW32134   4.362   3.495   9.393 -0.2267 -0.1855 -0.3391
 6891SOL    HW132135   4.427   3.516   9.326  0.0873 -0.6930 -0.1895
 6891SOL    HW232136   4.285   3.509   9.338 -0.5872  0.5545  0.3459
 6892SOL     OW32137   1.387   2.485   9.695 -0.0698 -0.0943  0.5183
 6892SOL    HW132138   1.415   2.475   9.603 -3.1971 -1.6272 -0.2436
 6892SOL    HW232139   1.465   2.466   9.747  2.0929  0.0621 -2.5994
 6893SOL     OW32140   0.534   1.888   2.868  0.6470 -0.1536  0.3995
 6893SOL    HW132141   0.463   1.847   2.917 -0.9588  3.2220  0.8492
 6893SOL    HW232142   0.583   1.814   2.833  2.4814  0.7801  1.0071
 6894SOL     OW32143   0.561   2.983   3.991 -0.2679 -0.2597 -0.2229
 6894SOL    HW132144   0.620   2.967   4.066 -1.6855 -0.0445  0.9284
 6894SOL    HW232145   0.586   3.075   3.990  0.8146 -0.5664 -1.3673
 6895SOL     OW32146   0.106   3.467   7.468 -0.3150  0.0987  0.2376
 6895SOL    HW132147   0.087   3.378   7.438 -0.7849  0.4522 -0.5098
 6895SOL    HW232148   0.038   3.521   7.428 -0.9820 -0.6791  0.3030
 6896SOL     OW32149   2.413   4.471   5.815 -0.2611  0.0051 -0.6211
 6896SOL    HW132150   2.472   4.546   5.822 -1.8463  1.0621  1.4861
 6896SOL    HW232151   2.464   4.410   5.761 -0.2574  0.3555 -1.0091
 6897SOL     OW32152   3.211   3.960   0.617  0.2051 -0.2407 -0.5133
 6897SOL    HW132153   3.184   3.890   0.675 -0.7563  0.9997  0.5360
 6897SOL    HW232154   3.133   3.971   0.562 -0.8655 -4.5426  0.1598
 6898SOL     OW32155   2.408   0.668   1.598 -0.2289  0.2322 -0.8511
 6898SOL    HW132156   2.367   0.713   1.672  2.3582  1.7619 -0.3301
 6898SOL    HW232157   2.490   0.637   1.637 -1.9744 -1.0265  1.7888
 6899SOL     OW32158   1.255   3.968  16.306 -0.1261  0.0162 -0.6393
 6899SOL    HW132159   1.229   4.037  16.367 -2.2814 -0.2304 -1.3051
 6899SOL    HW232160   1.186   3.978  16.241 -1.7901 -0.5809  1.0676
 6900SOL     OW32161   4.288   2.585   2.566 -0.0077  0.0381  0.0195
 6900SOL    HW132162   4.344   2.610   2.492  2.0746  2.1913  2.3412
 6900SOL    HW232163   4.271   2.491   2.557 -2.2973  0.3151  1.4506
 6901SOL     OW32164   2.556   4.037   2.886 -0.3085 -0.0330 -0.1030
 6901SOL    HW132165   2.533   4.078   2.969 -2.1445  0.4667 -0.8311
 6901SOL    HW232166   2.555   4.120   2.837  1.4124  0.1461  0.1822
 6902SOL     OW32167   2.108   4.339   3.513 -0.0118  0.6866 -0.3946
 6902SOL    HW132168   2.171   4.267   3.502 -0.3399  0.1461  1.3286
 6902SOL    HW232169   2.021   4.300   3.499 -0.5615  1.8565 -0.2397
 6903SOL     OW32170   3.638   3.713   1.874  0.0860  0.0388  0.1177
 6903SOL    HW132171   3.573   3.644   1.880  1.4022 -1.2435 -0.2438
 6903SOL    HW232172   3.669   3.693   1.785  1.8143 -1.0835  0.9685
 6904SOL     OW32173   2.790   1.008   8.743  0.5011  0.2895  0.5719
 6904SOL    HW132174   2.852   0.940   8.718  1.7643  2.3731 -1.9991
 6904SOL    HW232175   2.742   0.960   8.810  0.0804 -0.6961 -0.4483
 6905SOL     OW32176   3.995   3.950  12.932 -0.0461 -0.3894 -0.1479
 6905SOL    HW132177   3.972   3.916  13.019  2.9443 -0.4512  0.5995
 6905SOL    HW232178   4.090   3.941  12.934  0.0509  0.8241  0.9005
 6906SOL     OW32179   2.977   1.453   5.604  0.1000  0.4977  0.2012
 6906SOL    HW132180   3.014   1.490   5.684  2.3538  0.7051 -0.9102
 6906SOL    HW232181   2.953   1.534   5.559  0.8894  0.3250 -0.5493
 6907SOL     OW32182   2.617   2.240  10.062 -0.3016  0.4600 -0.1703
 6907SOL    HW132183   2.523   2.248  10.047 -0.2476  0.9390 -0.2733
 6907SOL    HW232184   2.623   2.147  10.081 -0.2611  0.3824 -0.5535
 6908SOL     OW32185   2.749   3.976   5.637  0.4999  0.0898  0.5166
 6908SOL    HW132186   2.832   3.976   5.684  2.2765  2.4290 -2.6123
 6908SOL    HW232187   2.749   4.068   5.610 -1.3397 -0.8280 -2.6385
 6909SOL     OW32188   1.106   3.132  11.097  0.4129  0.6774  0.9050
 6909SOL    HW132189   1.035   3.080  11.059  1.7068 -0.0521 -0.4810
 6909SOL    HW232190   1.146   3.178  11.023 -0.6210 -0.3452 -0.2811
 6910SOL     OW32191   4.517   3.045   6.404 -0.8040  0.4944 -0.0732
 6910SOL    HW132192   4.575   2.974   6.376 -0.5501  1.5089 -2.1027
 6910SOL    HW232193   4.544   3.056   6.495  1.6356  1.4014 -0.8925
 6911SOL     OW32194   0.454   3.855   1.482 -0.4284  0.0384 -0.5442
 6911SOL    HW132195   0.486   3.837   1.571 -2.5237 -0.1240  0.1607
 6911SOL    HW232196   0.499   3.939   1.473  0.4116 -0.1668  1.6776
 6912SOL     OW32197   0.346   2.722   5.612 -0.1250  0.3700  0.1009
 6912SOL    HW132198   0.394   2.643   5.587 -1.3230  0.1562 -1.5295
 6912SOL    HW232199   0.310   2.759   5.531 -0.2145  1.1342  0.4981
 6913SOL     OW32200   0.147   4.257   1.284 -0.2557 -0.0837  0.1366
 6913SOL    HW132201   0.234   4.220   1.270 -1.6097 -3.1482 -0.2899
 6913SOL    HW232202   0.165   4.350   1.276  1.9496 -0.4227  1.2502
 6914SOL     OW32203   1.815   2.331  11.716  1.2380 -0.3419 -0.0687
 6914SOL    HW132204   1.861   2.304  11.796  3.2298 -0.8974 -1.3921
 6914SOL    HW232205   1.733   2.358  11.757  2.1268  1.4432  0.5418
 6915SOL     OW32206   1.858   4.052   2.149  0.5238 -0.2750  0.5996
 6915SOL    HW132207   1.784   4.030   2.206  0.4754 -0.3409  0.5123
 6915SOL    HW232208   1.831   4.134   2.107  0.8011 -0.3441  0.2840
 6916SOL     OW32209   2.191   1.703   3.263 -0.7028  0.5172 -0.0282
 6916SOL    HW132210   2.258   1.743   3.319 -1.6574  1.4500  0.4675
 6916SOL    HW232211   2.183   1.768   3.192  2.2842  0.5849 -0.2841
 6917SOL     OW32212   0.027   0.138  11.884 -0.2870 -0.6838 -0.2286
 6917SOL    HW132213   4.674   0.102  11.930 -0.1224 -1.2430 -0.4036
 6917SOL    HW232214   0.066   0.060  11.845  0.4114 -1.7088  2.5335
 6918SOL     OW32215   2.559   2.963   7.062  0.0066 -0.2689  0.0717
 6918SOL    HW132216   2.498   2.941   6.992  1.6570 -0.8783 -1.1596
 6918SOL    HW232217   2.552   3.059   7.064 -0.6686 -0.3149 -0.2934
 6919SOL     OW32218   1.475   4.424   7.289  0.0325 -0.8135 -0.3703
 6919SOL    HW132219   1.531   4.382   7.355  0.8924 -1.5498 -1.5736
 6919SOL    HW232220   1.476   4.366   7.213  0.8764 -0.7503 -0.4028
 6920SOL     OW32221   0.830   0.972   7.711 -0.5085 -0.0537 -0.0670
 6920SOL    HW132222   0.761   0.988   7.775 -0.4332  0.9920 -0.2496
 6920SOL    HW232223   0.832   1.061   7.676  0.3550 -0.3680 -0.8173
 6921SOL     OW32224   3.065   2.546   4.560  0.1367  0.1579 -0.0343
 6921SOL    HW132225   3.100   2.461   4.586  0.3546 -0.1576 -1.3580
 6921SOL    HW232226   3.142   2.601   4.573 -0.5759  1.9669 -3.7194
 6922SOL     OW32227   4.225   1.157   5.220 -0.1288 -0.2966  0.1561
 6922SOL    HW132228   4.194   1.166   5.310  0.3450  0.9367  0.2002
 6922SOL    HW232229   4.193   1.235   5.173  0.9131 -0.9414 -1.6201
 6923SOL     OW32230   0.513   2.834   7.123  0.1809 -0.3783 -0.5962
 6923SOL    HW132231   0.448   2.793   7.067 -1.0119 -0.8872  1.1375
 6923SOL    HW232232   0.548   2.908   7.074  2.8712 -0.6800  0.8397
 6924SOL     OW32233   1.698   1.451   4.795  0.1355  0.3988 -0.1628
 6924SOL    HW132234   1.704   1.460   4.890  1.0120 -1.6553 -0.0373
 6924SOL    HW232235   1.772   1.393   4.781 -0.2109  0.0641 -0.6064
 6925SOL     OW32236   3.699   3.193   8.163 -0.1810  0.6074  0.2248
 6925SOL    HW132237   3.716   3.275   8.116  0.5740  0.7203  0.6927
 6925SOL    HW232238   3.771   3.141   8.128  0.4844  1.3177  0.5375
 6926SOL     OW32239   2.987   2.017   2.615  0.0332  0.0437 -0.7428
 6926SOL    HW132240   2.905   2.006   2.662  0.9727 -2.3387  0.3396
 6926SOL    HW232241   2.966   2.072   2.539  0.0514 -0.0589 -0.8220
 6927SOL     OW32242   1.602   1.140   7.252  0.0339 -0.2276 -0.1179
 6927SOL    HW132243   1.644   1.070   7.301  1.2628  1.2303  0.9021
 6927SOL    HW232244   1.662   1.214   7.254  1.8739 -1.6846 -1.3812
 6928SOL     OW32245   0.422   0.357   3.700  0.8647  0.2047 -0.2864
 6928SOL    HW132246   0.388   0.295   3.765 -2.6347  0.4843 -1.8654
 6928SOL    HW232247   0.492   0.301   3.665  0.9314  0.1036  0.0058
 6929SOL     OW32248   4.578   3.097   0.648 -0.1596  0.5443  0.2767
 6929SOL    HW132249   4.648   3.159   0.625 -0.6752  0.4430 -1.5975
 6929SOL    HW232250   4.513   3.159   0.681 -0.8779 -0.8004  1.3811
 6930SOL     OW32251   4.240   3.707   3.507 -0.5409 -0.1303  0.0308
 6930SOL    HW132252   4.171   3.643   3.487 -0.9681  0.1798  0.5207
 6930SOL    HW232253   4.198   3.788   3.535  2.1923  1.0091  0.8236
 6931SOL     OW32254   3.486   0.265   6.187 -0.1549 -0.2943  0.3815
 6931SOL    HW132255   3.419   0.241   6.123  0.3408  0.4396 -0.3916
 6931SOL    HW232256   3.550   0.212   6.139 -0.9893 -0.2374 -0.7865
 6932SOL     OW32257   1.551   3.238  17.619 -0.3046 -0.5953  0.5514
 6932SOL    HW132258   1.520   3.256   0.016 -1.3365  0.7045 -0.0644
 6932SOL    HW232259   1.499   3.292  17.560  1.9543  0.8482 -0.1298
 6933SOL     OW32260   4.047   3.085   3.053  0.0339 -0.2438 -0.3301
 6933SOL    HW132261   4.029   3.042   3.136 -0.0486 -0.0329 -0.2400
 6933SOL    HW232262   4.034   3.178   3.070  1.1202 -0.0244 -0.6829
 6934SOL     OW32263   3.619   1.100   3.153  0.0835  0.1386 -0.2613
 6934SOL    HW132264   3.545   1.128   3.100  1.1233  2.2553 -0.5883
 6934SOL    HW232265   3.598   1.007   3.163  0.9038 -0.0461 -0.2474
 6935SOL     OW32266   1.406   1.354  16.026  0.5003  0.3289  0.1997
 6935SOL    HW132267   1.500   1.369  16.037  0.5186 -0.0563  0.5721
 6935SOL    HW232268   1.378   1.441  15.998 -1.7711  0.0636  1.6465
 6936SOL     OW32269   3.429   4.152   3.775  0.6985  0.5068 -0.3305
 6936SOL    HW132270   3.492   4.223   3.760  2.1443 -0.3650  1.4738
 6936SOL    HW232271   3.355   4.191   3.729  0.7265 -0.5316 -1.2586
 6937SOL     OW32272   4.330   4.058   6.486  0.0869 -0.5052  0.1653
 6937SOL    HW132273   4.413   4.037   6.527  0.7661  0.2910 -0.7932
 6937SOL    HW232274   4.277   4.059   6.566  1.7306  0.8360  1.2398
 6938SOL     OW32275   3.630   2.317   6.870 -0.2361  0.0509 -0.0456
 6938SOL    HW132276   3.580   2.255   6.817  0.5778 -1.6747  1.2350
 6938SOL    HW232277   3.617   2.397   6.818 -0.2880 -0.0145 -0.1319
 6939SOL     OW32278   0.867   4.440   6.320  0.2628 -0.7908 -0.0006
 6939SOL    HW132279   0.863   4.444   6.415 -0.0940 -0.4178 -0.0308
 6939SOL    HW232280   0.874   4.345   6.308  1.4224 -1.0811  2.9633
 6940SOL     OW32281   2.807   1.636   4.629 -0.0365  0.4108  0.3571
 6940SOL    HW132282   2.865   1.564   4.654  0.0219  0.9458  1.7754
 6940SOL    HW232283   2.855   1.668   4.552 -2.0468  0.8036 -0.7180
 6941SOL     OW32284   4.195   3.425   2.141 -0.2969 -1.0209  0.0528
 6941SOL    HW132285   4.122   3.432   2.080  0.2967  0.5300 -0.4816
 6941SOL    HW232286   4.214   3.519   2.143  0.6825 -1.2296  0.5877
 6942SOL     OW32287   2.862   0.094   4.647 -0.3358 -0.1581  0.2305
 6942SOL    HW132288   2.817   0.010   4.648 -0.5616 -0.0228  1.0167
 6942SOL    HW232289   2.941   0.068   4.598 -0.4691  1.7806 -1.0306
 6943SOL     OW32290   2.808   2.451  12.725  0.0426 -0.5522 -0.4888
 6943SOL    HW132291   2.828   2.443  12.818  0.7871  1.9106 -0.4438
 6943SOL    HW232292   2.875   2.507  12.687 -0.8677 -1.1286 -3.0096
 6944SOL     OW32293   0.941   0.581   0.512 -0.2156 -0.0961  0.0306
 6944SOL    HW132294   0.858   0.533   0.505 -0.9403  1.2229 -0.3408
 6944SOL    HW232295   0.956   0.590   0.418  2.1608 -3.5033  0.0556
 6945SOL     OW32296   1.977   0.290   0.688  0.4964 -0.0419  0.0346
 6945SOL    HW132297   2.049   0.226   0.691 -0.6600 -1.3000  0.7900
 6945SOL    HW232298   1.998   0.353   0.758 -1.4001 -1.0561  1.5093
 6946SOL     OW32299   4.419   0.923  12.189  0.1248  0.8625  0.0565
 6946SOL    HW132300   4.362   0.855  12.225 -1.1181  1.3386 -0.9777
 6946SOL    HW232301   4.498   0.870  12.201  0.3438  1.9825  3.6595
 6947SOL     OW32302   4.058   2.842   5.654 -0.2115 -0.1525  0.3517
 6947SOL    HW132303   4.099   2.861   5.739  0.0240  1.7094 -0.1672
 6947SOL    HW232304   4.129   2.874   5.599 -0.2441  0.4449  0.6515
 6948SOL     OW32305   3.944   0.848   8.746 -0.0606  0.2768 -0.0486
 6948SOL    HW132306   3.886   0.878   8.816 -0.0715 -0.8439  0.4199
 6948SOL    HW232307   4.013   0.914   8.757  0.7826 -0.7365  0.7336
 6949SOL     OW32308   1.335   0.028   7.710  0.6155 -0.4561  0.2279
 6949SOL    HW132309   1.401   4.687   7.736  0.3867 -1.0497 -0.6360
 6949SOL    HW232310   1.342   0.014   7.616  0.8910 -0.5397  0.2626
 6950SOL     OW32311   2.577   3.676   5.437  0.6927  0.4417  0.4666
 6950SOL    HW132312   2.580   3.758   5.388  0.7952  1.2454  1.8267
 6950SOL    HW232313   2.487   3.646   5.423  1.6651 -1.6178 -1.3538
 6951SOL     OW32314   2.188   0.721   9.263  0.1993 -0.3974  0.5591
 6951SOL    HW132315   2.165   0.765   9.181  0.5513 -0.5762  0.3639
 6951SOL    HW232316   2.275   0.684   9.245 -0.1855  0.3564 -2.8810
 6952SOL     OW32317   1.346   2.166   7.167 -0.5431 -0.3041  0.0284
 6952SOL    HW132318   1.299   2.244   7.198  0.5789  0.4385 -0.1444
 6952SOL    HW232319   1.277   2.100   7.159  0.9233 -1.7586 -0.6560
 6953SOL     OW32320   0.033   4.114  12.760 -0.4301  0.0128  0.3197
 6953SOL    HW132321   0.106   4.096  12.820  1.5794 -0.6000 -2.3045
 6953SOL    HW232322   0.053   4.069  12.678  1.6868  2.2393 -0.3775
 6954SOL     OW32323   4.447   1.905  17.588  0.5738  0.5672  0.0434
 6954SOL    HW132324   4.447   1.929  17.681 -0.2432 -1.6308  0.6177
 6954SOL    HW232325   4.366   1.854  17.582  1.8945 -1.3415 -1.5722
 6955SOL     OW32326   2.971   0.638   8.174  0.2577  0.4788 -0.3485
 6955SOL    HW132327   2.919   0.714   8.200  0.4455  0.2259  0.7594
 6955SOL    HW232328   3.055   0.679   8.157  1.0553 -1.0868 -0.1561
 6956SOL     OW32329   2.577   0.379   6.373  0.1787 -0.3869  0.2915
 6956SOL    HW132330   2.597   0.469   6.397  1.8197 -0.3701 -1.1116
 6956SOL    HW232331   2.654   0.364   6.318 -0.3992 -1.4019 -0.2478
 6957SOL     OW32332   3.322   3.556  16.181 -0.2617  0.2354 -1.0194
 6957SOL    HW132333   3.248   3.552  16.120 -2.5447  1.7361  1.6545
 6957SOL    HW232334   3.371   3.476  16.164  0.7124  0.1433  2.3306
 6958SOL     OW32335   4.310   3.398   6.376  0.0235  0.2845 -0.3276
 6958SOL    HW132336   4.240   3.458   6.401 -0.0818 -0.6001  1.4920
 6958SOL    HW232337   4.294   3.377   6.284  3.2034 -2.4070 -0.2660
 6959SOL     OW32338   4.591   2.804   7.795 -0.2600  0.2783 -0.3724
 6959SOL    HW132339   4.632   2.888   7.776  1.8853 -0.3821  1.3252
 6959SOL    HW232340   4.651   2.765   7.859  0.1544  0.2336 -0.7832
 6960SOL     OW32341   3.572   3.233   9.687  0.2413 -0.9394  0.5176
 6960SOL    HW132342   3.608   3.219   9.600  0.0060 -1.4903  0.5116
 6960SOL    HW232343   3.481   3.243   9.659  0.3579 -2.3894 -0.3648
 6961SOL     OW32344   1.893   4.190   3.480  0.3392 -0.1960 -0.8627
 6961SOL    HW132345   1.887   4.108   3.432 -0.9479 -1.3537  1.2512
 6961SOL    HW232346   1.877   4.158   3.569 -0.9808  0.7271 -0.7748
 6962SOL     OW32347   1.666   2.554  12.558  0.3609  0.0115  0.2432
 6962SOL    HW132348   1.689   2.479  12.502 -0.3085 -0.5647  0.7412
 6962SOL    HW232349   1.679   2.624  12.494 -0.1653 -1.3650 -1.3842
 6963SOL     OW32350   3.247   2.471  11.534 -0.5678  0.2585 -0.1243
 6963SOL    HW132351   3.276   2.546  11.586  1.3125  1.5889 -3.1625
 6963SOL    HW232352   3.304   2.404  11.571  0.0494  0.7979 -0.0943
 6964SOL     OW32353   1.262   0.925   1.894 -0.2981 -0.1810  0.5725
 6964SOL    HW132354   1.280   0.848   1.948 -1.2662 -1.9233 -1.5856
 6964SOL    HW232355   1.347   0.970   1.891 -0.7423  0.6293  0.1031
 6965SOL     OW32356   1.689   1.943   4.030  0.0484 -0.5637  0.0611
 6965SOL    HW132357   1.754   2.013   4.027  0.5974 -1.0816 -0.1137
 6965SOL    HW232358   1.738   1.864   4.052 -0.4606 -0.6193  0.9821
 6966SOL     OW32359   0.941   0.349   6.679  0.2031  0.2793  0.3156
 6966SOL    HW132360   0.963   0.256   6.682  0.0641  0.2362 -0.0247
 6966SOL    HW232361   0.857   0.352   6.634 -0.4511  0.0565  1.5206
 6967SOL     OW32362   2.000   1.752   1.726 -0.0513  0.2323  0.6974
 6967SOL    HW132363   2.029   1.666   1.696  0.0702  1.8957 -3.9622
 6967SOL    HW232364   1.930   1.766   1.662 -0.3185  0.3813  1.0200
 6968SOL     OW32365   0.930   2.349   4.716 -0.2725 -0.1260 -0.3338
 6968SOL    HW132366   0.857   2.409   4.700 -0.1333 -0.5025 -2.4478
 6968SOL    HW232367   0.979   2.356   4.634  1.8339  1.9053  1.1272
 6969SOL     OW32368   1.733   1.739   6.333  1.0002 -0.4206 -0.5098
 6969SOL    HW132369   1.716   1.646   6.318  0.7089 -0.3409 -0.6742
 6969SOL    HW232370   1.694   1.747   6.420 -1.6664  0.4561 -1.7761
 6970SOL     OW32371   4.370   1.512   5.288 -0.1506  0.0231 -0.2428
 6970SOL    HW132372   4.389   1.604   5.308 -0.1597  0.4789 -2.3620
 6970SOL    HW232373   4.408   1.508   5.200 -1.8128  2.3375 -1.0743
 6971SOL     OW32374   4.425   3.888   9.162  0.4213 -0.4647  0.2523
 6971SOL    HW132375   4.473   3.931   9.233 -0.5128  1.8567 -0.5008
 6971SOL    HW232376   4.339   3.930   9.173  0.7317  0.5166 -1.1082
 6972SOL     OW32377   4.352   2.860  11.478 -0.5750 -0.2166 -0.3027
 6972SOL    HW132378   4.419   2.796  11.453 -0.0905 -0.2923  1.1472
 6972SOL    HW232379   4.380   2.883  11.567  3.7297 -0.4476 -1.6462
 6973SOL     OW32380   1.019   0.780   5.706  0.2191 -0.7425 -0.0317
 6973SOL    HW132381   1.020   0.730   5.625 -3.7050 -2.0444  0.6878
 6973SOL    HW232382   1.001   0.709   5.767 -0.3109 -1.5766 -1.1707
 6974SOL     OW32383   2.508   2.401  13.901  0.2674 -0.5326  0.4681
 6974SOL    HW132384   2.484   2.312  13.877 -0.6936 -0.0162 -0.4798
 6974SOL    HW232385   2.431   2.457  13.907  1.9429  1.7618  0.5118
 6975SOL     OW32386   1.221   3.947  11.692  0.1410 -0.8228 -0.0268
 6975SOL    HW132387   1.297   3.891  11.713  0.7613 -0.5925 -1.6412
 6975SOL    HW232388   1.151   3.885  11.713 -0.0467 -0.6834 -0.2488
 6976SOL     OW32389   4.514   2.885   0.458 -0.0998 -0.0663 -0.0813
 6976SOL    HW132390   4.580   2.838   0.509  0.1854 -0.3544 -0.7256
 6976SOL    HW232391   4.515   2.964   0.512 -1.3204  0.2050 -0.4518
 6977SOL     OW32392   1.477   3.325  10.253 -0.6117  0.2071  0.4577
 6977SOL    HW132393   1.436   3.389  10.195 -0.9227 -0.1558  0.2769
 6977SOL    HW232394   1.543   3.384  10.290 -0.2078  1.2796 -1.9824
 6978SOL     OW32395   2.280   2.209   8.674  0.6895  0.0723 -0.3208
 6978SOL    HW132396   2.293   2.264   8.752 -1.5525 -3.0956  2.2969
 6978SOL    HW232397   2.270   2.283   8.614  4.0211  1.6645  1.0934
 6979SOL     OW32398   4.115   1.882   6.571 -0.1591 -0.5250 -0.2843
 6979SOL    HW132399   4.116   1.908   6.663  1.8833  1.2117 -0.7870
 6979SOL    HW232400   4.190   1.933   6.539 -0.3376 -0.0354  0.0836
 6980SOL     OW32401   0.673   2.198  12.013  0.0501  0.3776 -0.0550
 6980SOL    HW132402   0.668   2.103  12.027 -1.1413  0.3583 -0.6241
 6980SOL    HW232403   0.581   2.224  12.005 -0.1007 -0.3166 -0.5176
 6981SOL     OW32404   3.724   3.605  15.139  0.5920 -0.0439  0.4682
 6981SOL    HW132405   3.644   3.650  15.111 -0.1103 -0.2792  2.0990
 6981SOL    HW232406   3.682   3.561  15.213 -1.0105  0.1154 -0.3674
 6982SOL     OW32407   0.416   0.190   9.409 -0.0675  0.9316  0.4794
 6982SOL    HW132408   0.506   0.202   9.377  0.4940  0.1176  1.7589
 6982SOL    HW232409   0.384   0.153   9.326  0.2357 -1.1032  1.2592
 6983SOL     OW32410   1.076   1.775   4.811  0.0382  0.7861 -0.4669
 6983SOL    HW132411   0.992   1.780   4.856 -0.0970  2.0325 -0.8659
 6983SOL    HW232412   1.140   1.749   4.877 -1.3313 -0.2488  0.4769
 6984SOL     OW32413   1.695   1.950   0.118  0.1398 -0.4640 -0.2909
 6984SOL    HW132414   1.600   1.945   0.122  0.2191 -1.2390  0.5601
 6984SOL    HW232415   1.718   1.890   0.048 -0.9853  0.1627 -1.2020
 6985SOL     OW32416   3.544   4.361   5.439  0.2102  0.2947  0.4666
 6985SOL    HW132417   3.628   4.328   5.409 -0.2998 -0.0811 -0.5593
 6985SOL    HW232418   3.492   4.295   5.394  1.7344  1.0204 -2.3272
 6986SOL     OW32419   0.198   0.157   0.523  0.3318  0.4608 -0.4640
 6986SOL    HW132420   0.195   0.165   0.427 -0.7360 -0.6361 -0.5285
 6986SOL    HW232421   0.246   0.238   0.538  1.6018  0.0312 -2.1348
 6987SOL     OW32422   1.484   1.416  11.126 -0.4379  0.5382  0.7299
 6987SOL    HW132423   1.438   1.341  11.163 -2.5027  0.8687 -1.1230
 6987SOL    HW232424   1.444   1.490  11.170  3.4327  2.6418  0.6918
 6988SOL     OW32425   1.249   0.493   3.084 -0.1198  0.2819  0.0145
 6988SOL    HW132426   1.305   0.560   3.124  0.5372 -1.0413  1.3033
 6988SOL    HW232427   1.318   0.442   3.041 -0.2334 -0.1518  0.3496
 6989SOL     OW32428   3.533   0.828   3.098 -0.5063 -0.1246 -0.3152
 6989SOL    HW132429   3.438   0.827   3.115 -0.5829  1.3366 -0.6232
 6989SOL    HW232430   3.557   0.736   3.104 -1.4527 -0.2147  2.2947
 6990SOL     OW32431   4.631   3.213   7.478 -0.5983 -0.0238  0.1656
 6990SOL    HW132432   4.714   3.197   7.432 -0.1688 -0.7748  1.2118
 6990SOL    HW232433   4.600   3.297   7.443  0.2047  1.0895  2.1452
 6991SOL     OW32434   1.414   2.379  11.237 -0.0571  0.0147 -0.2357
 6991SOL    HW132435   1.435   2.461  11.282 -0.8721 -0.0044  0.1903
 6991SOL    HW232436   1.452   2.393  11.151  1.9312 -0.6569  0.5327
 6992SOL     OW32437   3.663   4.543  16.308 -0.0598 -0.0627 -0.6248
 6992SOL    HW132438   3.588   4.586  16.349 -0.3545  0.0773 -1.2969
 6992SOL    HW232439   3.729   4.612  16.318 -1.4006  1.2522 -0.8699
 6993SOL     OW32440   3.301   1.415   6.667  0.1568  0.5553  0.0645
 6993SOL    HW132441   3.265   1.486   6.614 -0.4231  0.6405  0.5725
 6993SOL    HW232442   3.394   1.425   6.646  0.2577 -0.5341 -0.0170
 6994SOL     OW32443   2.692   2.479  15.092  0.1547  0.5575  0.1733
 6994SOL    HW132444   2.761   2.439  15.144 -1.1273 -0.2798  1.2342
 6994SOL    HW232445   2.741   2.534  15.031 -0.4929  0.5407 -0.3664
 6995SOL     OW32446   0.762   0.720   2.495 -0.5676  0.4554 -0.2008
 6995SOL    HW132447   0.823   0.676   2.554 -0.1876  1.1048 -0.1150
 6995SOL    HW232448   0.827   0.776   2.453 -0.0038  0.2998  0.4779
 6996SOL     OW32449   0.334   0.241   6.909 -0.3548 -0.2450  0.2199
 6996SOL    HW132450   0.320   0.164   6.965 -0.7589 -0.8676 -0.7337
 6996SOL    HW232451   0.377   0.191   6.839 -1.7156 -0.8682 -0.1717
 6997SOL     OW32452   1.061   3.316  11.536 -0.5707 -0.0057  0.3985
 6997SOL    HW132453   1.086   3.226  11.514  0.1794 -0.0543  1.4374
 6997SOL    HW232454   0.966   3.309  11.537 -0.6097  0.6212  1.3565
 6998SOL     OW32455   1.512   2.698   6.385  0.0092 -0.1262 -0.5885
 6998SOL    HW132456   1.474   2.745   6.459 -1.3222 -0.2581 -1.1914
 6998SOL    HW232457   1.553   2.777   6.351 -1.9699  0.6958 -1.0540
 6999SOL     OW32458   2.743   0.560   7.323  0.2343  0.6800  0.0777
 6999SOL    HW132459   2.788   0.499   7.381  0.3665  0.0254 -0.7224
 6999SOL    HW232460   2.721   0.504   7.249  0.9656 -0.6256  0.8465
 7000SOL     OW32461   2.199   1.601   2.441  0.2129 -0.4939 -0.6813
 7000SOL    HW132462   2.135   1.553   2.390 -0.5145 -1.1892  0.8804
 7000SOL    HW232463   2.234   1.669   2.383 -1.6111 -0.0113 -1.2023
 7001SOL     OW32464   2.284   0.919   8.325  0.1587  0.0087 -0.6226
 7001SOL    HW132465   2.221   0.966   8.269 -2.8151 -0.4653  2.2939
 7001SOL    HW232466   2.286   0.982   8.397 -1.2192 -0.0709 -0.5160
 7002SOL     OW32467   0.627   3.374   8.413 -0.3469 -0.1455  0.3622
 7002SOL    HW132468   0.568   3.423   8.356  1.1401  2.1812  0.8469
 7002SOL    HW232469   0.576   3.348   8.490  0.9212 -0.0124  1.2548
 7003SOL     OW32470   0.395   4.677  11.106 -0.0012 -0.0986 -0.4582
 7003SOL    HW132471   0.434   0.003  11.178  2.3590  0.8556 -2.3800
 7003SOL    HW232472   0.457   4.702  11.036  0.9041  1.3280  0.8642
 7004SOL     OW32473   2.480   0.664   5.977  0.4121 -0.1503  0.0350
 7004SOL    HW132474   2.526   0.746   6.000  2.2030 -1.7637  2.2605
 7004SOL    HW232475   2.433   0.651   6.059 -1.6950  1.3724 -0.9454
 7005SOL     OW32476   3.792   0.472  15.319 -0.6682  0.2459 -0.5377
 7005SOL    HW132477   3.832   0.386  15.329  0.0665  0.6021 -0.4307
 7005SOL    HW232478   3.769   0.474  15.412 -0.6414 -1.3876 -0.4967
 7006SOL     OW32479   1.086   3.370   8.557 -0.5709  0.0948 -0.4613
 7006SOL    HW132480   1.138   3.432   8.608  0.4596 -1.4577  0.3765
 7006SOL    HW232481   0.997   3.400   8.573  0.1941  1.3691  1.4404
 7007SOL     OW32482   0.944   1.174  13.183 -0.3242  0.4657 -0.1947
 7007SOL    HW132483   0.855   1.207  13.196 -0.4498  0.6717 -1.6434
 7007SOL    HW232484   0.951   1.097  13.127  0.0811  0.8507 -0.6718
 7008SOL     OW32485   4.559   0.912   8.065 -0.2374  0.2237 -0.2582
 7008SOL    HW132486   4.572   0.908   8.160 -1.4931 -1.6307 -0.1566
 7008SOL    HW232487   4.545   1.006   8.056 -0.4957  0.0553 -1.6152
 7009SOL     OW32488   4.397   1.312   6.615 -0.0498 -0.8692 -0.1672
 7009SOL    HW132489   4.378   1.317   6.708  0.1764 -1.9238 -0.0662
 7009SOL    HW232490   4.461   1.382   6.602  1.1178 -1.8771  0.1640
 7010SOL     OW32491   0.110   1.237   0.004  0.0452  0.0020 -0.0218
 7010SOL    HW132492   0.170   1.311  17.684  1.2300 -1.0449 -0.5616
 7010SOL    HW232493   0.154   1.167  17.650  0.1000 -1.4676  2.2242
 7011SOL     OW32494   1.282   0.387   7.509  0.3940  0.0047  0.2464
 7011SOL    HW132495   1.203   0.334   7.515  1.2531 -1.3405 -0.1954
 7011SOL    HW232496   1.237   0.470   7.490 -0.0681 -0.3670 -0.2574
 7012SOL     OW32497   4.428   0.257   3.346  0.2815  0.1162  0.3644
 7012SOL    HW132498   4.418   0.339   3.394  0.3239  0.4873 -0.2575
 7012SOL    HW232499   4.521   0.235   3.345  1.1981  3.9550  1.2647
 7013SOL     OW32500   3.608   3.420   5.833 -0.2985  0.4212  0.0984
 7013SOL    HW132501   3.650   3.464   5.759  0.5196 -1.3369 -0.4819
 7013SOL    HW232502   3.681   3.388   5.886 -0.8362 -1.5478 -0.3662
 7014SOL     OW32503   1.130   3.115   7.341 -0.3776  0.0402  0.0483
 7014SOL    HW132504   1.102   3.042   7.286  3.1933  0.2286 -2.0009
 7014SOL    HW232505   1.221   3.088   7.357 -0.4941  0.4328  1.3517
 7015SOL     OW32506   0.931   0.057  14.967 -0.6754  0.1438  0.0753
 7015SOL    HW132507   0.916   0.033  14.875  0.5830  1.1333 -0.3999
 7015SOL    HW232508   0.904   4.698  15.008  0.8708 -0.1408  0.5346
 7016SOL     OW32509   1.056   0.663  14.998  0.0924  0.0358  0.2851
 7016SOL    HW132510   1.060   0.757  15.014  0.8446 -0.0992  0.8728
 7016SOL    HW232511   0.981   0.625  15.043 -0.4198 -0.6525 -1.1562
 7017SOL     OW32512   1.264   1.197   7.391 -0.4576 -0.0670 -0.8252
 7017SOL    HW132513   1.169   1.185   7.382 -0.4178 -0.7807 -0.3264
 7017SOL    HW232514   1.283   1.199   7.485 -2.9336 -5.9871 -0.1762
 7018SOL     OW32515   1.498   2.413   2.609 -0.6147 -0.0634  0.0914
 7018SOL    HW132516   1.422   2.429   2.664 -0.8537 -0.3557 -0.1520
 7018SOL    HW232517   1.503   2.500   2.571  1.0732 -0.3813 -0.4247
 7019SOL     OW32518   0.252   1.698   6.013  0.4316  0.3055 -0.3717
 7019SOL    HW132519   0.286   1.649   5.938  1.9741  0.7573  0.0312
 7019SOL    HW232520   0.325   1.757   6.033  0.0653 -0.3510  3.0715
 7020SOL     OW32521   2.844   3.740   5.864 -0.4699 -0.2317  0.5621
 7020SOL    HW132522   2.758   3.749   5.905 -0.1688  0.9562  0.9232
 7020SOL    HW232523   2.856   3.646   5.877 -0.5948 -0.2948  0.2180
 7021SOL     OW32524   0.534   4.198   8.728 -0.2225 -0.3619 -0.0186
 7021SOL    HW132525   0.588   4.147   8.788 -0.7192 -0.6385  0.1905
 7021SOL    HW232526   0.596   4.208   8.656 -0.6864  1.3286 -0.1693
 7022SOL     OW32527   2.819   3.242   8.401  0.0784  0.0737  0.0698
 7022SOL    HW132528   2.899   3.189   8.394  1.2494  1.6697  1.4307
 7022SOL    HW232529   2.861   3.324   8.429  0.9866  0.2103 -1.7084
 7023SOL     OW32530   3.966   4.030   3.975 -0.0444 -0.6540  0.1752
 7023SOL    HW132531   4.054   3.999   3.955  0.4058  0.1227  0.9085
 7023SOL    HW232532   3.918   3.956   3.937  0.6011 -1.9447  1.9097
 7024SOL     OW32533   2.903   3.650  13.033  0.2815 -0.3497 -0.3571
 7024SOL    HW132534   2.892   3.743  13.017 -1.2716 -0.7635 -1.6532
 7024SOL    HW232535   2.997   3.629  13.024  0.1348  0.1288 -2.9743
 7025SOL     OW32536   2.455   3.661   3.734 -0.5166  0.2367  0.4591
 7025SOL    HW132537   2.365   3.670   3.702 -0.7911 -4.0189 -0.0134
 7025SOL    HW232538   2.430   3.606   3.809  0.0056  0.7822  1.0326
 7026SOL     OW32539   1.367   3.619   2.888 -0.3742 -0.3861 -0.2573
 7026SOL    HW132540   1.442   3.587   2.839 -1.1023 -2.1687 -0.1903
 7026SOL    HW232541   1.295   3.603   2.827 -0.4803 -0.3730 -0.1362
 7027SOL     OW32542   0.256   1.041   3.367  0.1337  0.2203 -0.1735
 7027SOL    HW132543   0.242   1.081   3.282 -2.1466 -1.6281 -0.6776
 7027SOL    HW232544   0.193   1.077   3.430 -0.1653 -0.1325 -0.2644
 7028SOL     OW32545   0.253   4.576   7.857  0.0736 -0.1556 -0.2797
 7028SOL    HW132546   0.196   4.643   7.818  1.9030  1.6652  0.1567
 7028SOL    HW232547   0.234   4.592   7.950 -1.2221  1.2702 -0.7915
 7029SOL     OW32548   2.984   2.169   8.439  0.0159 -0.0247 -0.0287
 7029SOL    HW132549   2.994   2.219   8.520 -2.9339  0.0284  0.2749
 7029SOL    HW232550   2.996   2.080   8.471 -1.7031  0.4779  1.9958
 7030SOL     OW32551   1.526   1.958  17.516  0.6570 -0.1399  0.1826
 7030SOL    HW132552   1.499   2.046  17.544  0.6876 -0.3141  0.7602
 7030SOL    HW232553   1.442   1.930  17.481  2.0938 -1.2965 -2.2914
 7031SOL     OW32554   2.712   0.140   4.313  0.8470  0.1651 -0.3823
 7031SOL    HW132555   2.797   0.137   4.267  1.8567  2.3548  1.3315
 7031SOL    HW232556   2.734   0.098   4.396  1.1824  2.4547  0.6909
 7032SOL     OW32557   0.642   4.278   7.097  0.2807 -0.6101 -0.2563
 7032SOL    HW132558   0.633   4.259   7.191  0.8729  2.4402  0.4208
 7032SOL    HW232559   0.622   4.194   7.056 -1.9965  0.0281 -0.4696
 7033SOL     OW32560   2.548   4.324   8.133 -0.4514  0.1655 -0.2180
 7033SOL    HW132561   2.596   4.378   8.070  1.9472 -0.5888  0.9407
 7033SOL    HW232562   2.621   4.280   8.177 -0.5694 -0.8476 -1.0475
 7034SOL     OW32563   0.780   0.938  16.425 -0.2350 -0.3566 -0.0347
 7034SOL    HW132564   0.808   1.005  16.487  4.2816 -0.8848 -1.4858
 7034SOL    HW232565   0.743   0.872  16.483  1.5071 -2.1299 -0.9469
 7035SOL     OW32566   4.420   4.488  11.068 -0.4437  0.4219  0.8829
 7035SOL    HW132567   4.437   4.410  11.015 -0.0808  0.6818  0.6197
 7035SOL    HW232568   4.364   4.534  11.005 -2.6057  0.4155  2.7626
 7036SOL     OW32569   2.885   3.432   6.552  0.0472 -0.1159 -0.9400
 7036SOL    HW132570   2.883   3.526   6.570  1.6066 -0.2483 -0.0532
 7036SOL    HW232571   2.845   3.428   6.465 -1.2793  0.3405 -0.3607
 7037SOL     OW32572   4.355   2.137  12.423 -0.0045 -0.6218  0.4500
 7037SOL    HW132573   4.447   2.156  12.444 -0.3950 -0.1358  1.7550
 7037SOL    HW232574   4.317   2.223  12.402 -1.9063 -1.3121  1.0794
 7038SOL     OW32575   4.300   0.474   4.751  0.4338  0.2919 -0.3789
 7038SOL    HW132576   4.355   0.423   4.691  1.1106 -0.0107  0.4958
 7038SOL    HW232577   4.363   0.480   4.823  0.0585 -0.5425  0.0273
 7039SOL     OW32578   1.535   2.761   7.288  0.3884 -1.1043  0.0058
 7039SOL    HW132579   1.601   2.747   7.220  0.5310  0.7188 -0.2174
 7039SOL    HW232580   1.451   2.743   7.245 -0.4949 -0.0672  1.3237
 7040SOL     OW32581   1.325   3.861  17.648  0.3316 -0.0232  0.2047
 7040SOL    HW132582   1.319   3.857  17.553  1.0468 -0.9452  0.2040
 7040SOL    HW232583   1.368   3.776  17.659 -1.1555 -0.9150 -0.9096
 7041SOL     OW32584   0.757   4.124   9.752 -0.3965  0.3945 -0.3075
 7041SOL    HW132585   0.706   4.183   9.808 -1.5430 -1.0401  0.1975
 7041SOL    HW232586   0.695   4.109   9.681  0.1112  1.1394 -0.8978
 7042SOL     OW32587   4.408   4.518   6.266  0.7553 -0.3627 -0.5550
 7042SOL    HW132588   4.407   4.577   6.191  1.4081  2.3629  1.5749
 7042SOL    HW232589   4.316   4.493   6.274  0.1657  1.8365 -0.4365
 7043SOL     OW32590   1.893   4.019  16.736  0.1819  0.0633 -0.6233
 7043SOL    HW132591   1.842   4.011  16.817  1.5851  0.6078  0.3078
 7043SOL    HW232592   1.974   4.056  16.769 -0.7627  0.8159  0.8673
 7044SOL     OW32593   0.275   3.727   4.777  0.1545 -0.4541  0.3381
 7044SOL    HW132594   0.233   3.726   4.864  0.8530  1.2203  0.6839
 7044SOL    HW232595   0.198   3.707   4.723  0.2031  0.2482  0.0125
 7045SOL     OW32596   0.152   3.593   6.557 -0.4033 -0.1110 -0.1821
 7045SOL    HW132597   0.160   3.634   6.471 -1.8293  1.0784  0.2383
 7045SOL    HW232598   0.212   3.654   6.601  1.3333 -0.5297 -1.9620
 7046SOL     OW32599   1.472   2.228   5.920  0.9515  0.0324  0.7925
 7046SOL    HW132600   1.467   2.150   5.976 -3.9497 -0.2161  0.0159
 7046SOL    HW232601   1.566   2.244   5.921  0.6312  2.0940 -2.3532
 7047SOL     OW32602   1.326   4.393   4.475 -0.7871 -0.1498  0.1160
 7047SOL    HW132603   1.367   4.336   4.540 -0.5971  0.0488  0.1703
 7047SOL    HW232604   1.350   4.476   4.516 -0.1758  0.3965 -1.3621
 7048SOL     OW32605   0.519   4.470   6.533 -0.0444 -0.9947  0.5688
 7048SOL    HW132606   0.607   4.477   6.570  0.7460  0.4777 -1.6274
 7048SOL    HW232607   0.483   4.418   6.605 -1.6666 -1.3020 -0.4534
 7049SOL     OW32608   1.228   0.233   7.818  0.0791 -0.1221  0.0212
 7049SOL    HW132609   1.152   0.251   7.762 -0.1908  2.1550  1.1106
 7049SOL    HW232610   1.266   0.156   7.776 -0.8803  0.8229 -2.5199
 7050SOL     OW32611   2.467   1.353   4.293  0.3365  0.5167 -0.6386
 7050SOL    HW132612   2.537   1.389   4.238  0.3618  0.1765 -0.8305
 7050SOL    HW232613   2.478   1.263   4.262  0.8913  0.6623 -0.8698
 7051SOL     OW32614   4.144   2.349   7.388 -0.8034 -0.1801 -0.2651
 7051SOL    HW132615   4.202   2.394   7.328 -0.9560 -0.2955 -0.4999
 7051SOL    HW232616   4.076   2.316   7.328 -0.6794  1.2618 -1.1858
 7052SOL     OW32617   3.565   0.902   2.813  0.4162 -0.1416  0.3080
 7052SOL    HW132618   3.485   0.951   2.794  0.4579 -0.2891 -0.2512
 7052SOL    HW232619   3.558   0.877   2.905  2.4333 -3.0322 -0.3260
 7053SOL     OW32620   4.439   2.497   3.171 -0.2988 -0.1140  0.1254
 7053SOL    HW132621   4.490   2.540   3.240  0.8561 -0.5811 -0.4489
 7053SOL    HW232622   4.391   2.566   3.125 -0.4753  1.6962  3.0081
 7054SOL     OW32623   1.289   0.800  13.048  0.6780 -0.2226  0.0892
 7054SOL    HW132624   1.227   0.755  12.990  1.3568  2.9103 -3.1195
 7054SOL    HW232625   1.350   0.827  12.978  0.5798 -1.5904 -0.5359
 7055SOL     OW32626   0.327   3.014   9.918  0.0726  0.0268  0.5990
 7055SOL    HW132627   0.315   3.105   9.895 -1.7627 -0.6494 -1.0688
 7055SOL    HW232628   0.415   3.034   9.949  0.3095 -0.0382 -0.0345
 7056SOL     OW32629   1.104   2.615   1.804  0.0863 -0.4554  0.7869
 7056SOL    HW132630   1.167   2.547   1.826 -0.8833 -0.5522  3.2964
 7056SOL    HW232631   1.020   2.570   1.794  1.1300 -2.5883  1.6291
 7057SOL     OW32632   1.810   3.197   5.213 -0.6333 -0.2109  0.4613
 7057SOL    HW132633   1.818   3.172   5.121  2.5175  0.0449  0.6402
 7057SOL    HW232634   1.902   3.190   5.242 -1.1144  1.5228  2.4133
 7058SOL     OW32635   0.932   0.587   3.399 -0.4038 -0.1360 -0.1691
 7058SOL    HW132636   1.007   0.608   3.454 -0.8702 -2.3944  1.2750
 7058SOL    HW232637   0.976   0.530   3.336 -1.2808 -2.1258  1.0384
 7059SOL     OW32638   2.760   2.366   6.827  0.5033  0.1466  0.0285
 7059SOL    HW132639   2.736   2.444   6.879  1.8011  0.2182  0.5214
 7059SOL    HW232640   2.720   2.304   6.888 -1.1306  0.0632 -1.1052
 7060SOL     OW32641   0.698   2.103   2.803 -0.3703 -0.1927 -1.0965
 7060SOL    HW132642   0.624   2.043   2.819  0.0135 -0.5045 -0.5098
 7060SOL    HW232643   0.757   2.045   2.755  2.0903  2.0905 -0.7859
 7061SOL     OW32644   1.321   3.019  17.356  0.3796 -0.1634  0.3226
 7061SOL    HW132645   1.315   2.935  17.312  2.9599  1.1669 -2.5414
 7061SOL    HW232646   1.408   3.002  17.392  0.1952 -1.5329  0.1265
 7062SOL     OW32647   2.887   4.283  17.620 -0.0359  0.1666 -0.1679
 7062SOL    HW132648   2.979   4.274  17.596  0.5207  1.1793  1.5523
 7062SOL    HW232649   2.890   4.331   0.010 -0.0089  0.1753 -0.1739
 7063SOL     OW32650   0.460   0.114  16.839 -0.1298  0.1334 -0.1501
 7063SOL    HW132651   0.471   0.165  16.919  3.6060 -0.9862  0.0761
 7063SOL    HW232652   0.498   0.171  16.772 -2.0635  3.0819  1.2598
 7064SOL     OW32653   1.261   2.149   3.972 -0.2908 -0.1939 -0.2024
 7064SOL    HW132654   1.339   2.099   3.996  1.5712  2.5694 -0.4047
 7064SOL    HW232655   1.255   2.145   3.876 -0.3826  0.0707 -0.2093
 7065SOL     OW32656   1.986   0.199   0.010  0.3143 -0.3216 -0.2646
 7065SOL    HW132657   2.024   0.217   0.095 -0.5319  0.1441  0.0184
 7065SOL    HW232658   2.030   0.266  17.650 -4.2526  2.2020 -0.9029
 7066SOL     OW32659   0.507   1.199   2.822 -0.0967 -0.1202  0.1404
 7066SOL    HW132660   0.595   1.167   2.842 -0.1073 -1.1939 -1.4681
 7066SOL    HW232661   0.520   1.248   2.740  2.4731  0.9272  1.1639
 7067SOL     OW32662   2.916   1.870   6.162 -0.3578  0.3118  0.1182
 7067SOL    HW132663   2.849   1.816   6.204 -1.0997  1.7638  0.7825
 7067SOL    HW232664   2.868   1.938   6.115 -1.0906  1.7446  2.9220
 7068SOL     OW32665   0.909   4.019  12.141  0.1369  0.4221 -0.1807
 7068SOL    HW132666   0.851   4.045  12.070 -2.2545 -3.0362  0.4798
 7068SOL    HW232667   0.990   4.004  12.093  0.7378 -1.5599  1.4380
 7069SOL     OW32668   0.619   3.408  15.401  0.2250 -0.6889 -0.3604
 7069SOL    HW132669   0.575   3.324  15.410 -0.3024 -0.4785 -0.9870
 7069SOL    HW232670   0.562   3.463  15.455 -0.2457 -1.3847 -0.1501
 7070SOL     OW32671   3.836   1.114   0.163 -0.2846  0.0687 -0.5402
 7070SOL    HW132672   3.910   1.060   0.136 -0.4276  0.4632 -1.7441
 7070SOL    HW232673   3.766   1.049   0.160 -0.2915  0.0917 -0.8885
 7071SOL     OW32674   3.403   4.480   6.993  0.2646  0.7662 -0.0665
 7071SOL    HW132675   3.372   4.550   6.935  0.2615  1.4673  0.7781
 7071SOL    HW232676   3.329   4.420   6.990 -0.9614  2.1545  1.8391
 7072SOL     OW32677   1.803   1.601   8.823  0.1389 -0.0026  0.1496
 7072SOL    HW132678   1.791   1.691   8.794  0.4556  0.2980  0.9567
 7072SOL    HW232679   1.827   1.568   8.736 -2.8431  1.2967 -1.1737
 7073SOL     OW32680   1.886   4.445   2.930  0.1003  0.2324  0.4666
 7073SOL    HW132681   1.881   4.493   3.013 -0.6052 -0.8854  1.0724
 7073SOL    HW232682   1.832   4.497   2.871 -2.8604 -2.0160  1.2376
 7074SOL     OW32683   0.288   0.997   7.486  0.2767  0.4178 -0.7355
 7074SOL    HW132684   0.196   0.982   7.465  0.1316 -1.9878  1.6090
 7074SOL    HW232685   0.315   0.916   7.443 -0.2800 -0.6641  0.9801
 7075SOL     OW32686   2.202   0.584   8.594  0.2372 -0.0896 -0.1489
 7075SOL    HW132687   2.206   0.510   8.534 -1.5930  0.1574 -0.5790
 7075SOL    HW232688   2.167   0.544   8.674 -0.4105 -1.9172 -1.3499
 7076SOL     OW32689   2.372   2.312   9.757 -0.0928 -0.2244 -0.2419
 7076SOL    HW132690   2.349   2.252   9.829  0.2120  1.6894  1.4491
 7076SOL    HW232691   2.287   2.351   9.739  0.3885  1.3870  0.9642
 7077SOL     OW32692   3.420   3.093   7.384 -0.0436 -0.3850 -0.1446
 7077SOL    HW132693   3.491   3.143   7.345  0.3881  0.6900  2.0292
 7077SOL    HW232694   3.362   3.061   7.315 -0.5229 -2.0685  1.0356
 7078SOL     OW32695   2.996   4.606   5.921 -0.1234 -0.4961  1.0120
 7078SOL    HW132696   2.999   4.612   6.017  2.3425  0.7909  0.8681
 7078SOL    HW232697   3.037   4.690   5.900  0.5409 -1.4445 -1.5130
 7079SOL     OW32698   4.024   1.103  16.727 -0.5005 -0.5296  0.3843
 7079SOL    HW132699   3.978   1.022  16.709 -0.4187 -0.3489 -0.6399
 7079SOL    HW232700   3.994   1.128  16.814  0.7166  1.3517  0.2760
 7080SOL     OW32701   3.669   0.309   9.086 -0.6638 -0.0984 -0.2449
 7080SOL    HW132702   3.665   0.376   9.017 -2.0355  0.6095  0.5265
 7080SOL    HW232703   3.635   0.347   9.167  0.4997  0.2308  0.0994
 7081SOL     OW32704   4.639   2.549  13.536 -0.5438  0.3382  0.5477
 7081SOL    HW132705   4.640   2.641  13.508  0.8026  0.7330  1.8493
 7081SOL    HW232706   4.598   2.557  13.622 -0.5775  0.7667  0.4900
 7082SOL     OW32707   2.685   2.530  10.305 -0.0719  0.3065 -0.2296
 7082SOL    HW132708   2.728   2.605  10.265 -2.0603  1.2797 -0.5210
 7082SOL    HW232709   2.738   2.458  10.268 -4.3444 -3.1928  0.4637
 7083SOL     OW32710   2.081   1.738   8.727  0.3871  0.5932  0.3678
 7083SOL    HW132711   2.143   1.809   8.709 -0.3255  1.1246  0.0154
 7083SOL    HW232712   2.000   1.783   8.705  1.1227 -0.0219 -3.6298
 7084SOL     OW32713   0.514   3.788  11.675 -0.9716  0.3832  0.0627
 7084SOL    HW132714   0.508   3.709  11.622 -1.4972  0.9468 -0.7172
 7084SOL    HW232715   0.609   3.787  11.692 -1.1386 -0.7849  0.8865
 7085SOL     OW32716   1.136   2.449   8.050  0.4950 -0.2442  0.1611
 7085SOL    HW132717   1.083   2.482   7.977 -0.5036 -2.0194  0.0947
 7085SOL    HW232718   1.183   2.531   8.068 -0.5497  0.2674  0.5232
 7086SOL     OW32719   4.258   3.814   3.245  0.2646 -0.1175 -0.8890
 7086SOL    HW132720   4.209   3.895   3.262 -0.9748 -1.1475  0.4948
 7086SOL    HW232721   4.248   3.764   3.326 -1.3405  1.4044 -0.1584
 7087SOL     OW32722   3.119   3.177  11.123 -0.3533  0.7841 -0.0030
 7087SOL    HW132723   3.208   3.146  11.106 -0.3451  0.0925  1.2863
 7087SOL    HW232724   3.141   3.265  11.151 -1.8127  1.3371 -0.5949
 7088SOL     OW32725   4.282   0.793   6.972  0.3002 -0.1297 -0.3416
 7088SOL    HW132726   4.237   0.850   6.910  1.1898  0.5044 -0.3965
 7088SOL    HW232727   4.236   0.808   7.055 -1.9853  0.4765 -1.7126
 7089SOL     OW32728   3.311   3.086   5.663  0.0495 -0.0519 -0.0808
 7089SOL    HW132729   3.314   3.038   5.581  0.7703 -1.5384  0.8184
 7089SOL    HW232730   3.218   3.096   5.681 -0.1744  2.9298 -2.8260
 7090SOL     OW32731   1.048   1.704   0.135  0.1136  0.3062 -0.1096
 7090SOL    HW132732   1.125   1.648   0.134  0.8973  1.3632  0.7140
 7090SOL    HW232733   0.996   1.645   0.190 -0.3657  0.1867 -0.6887
 7091SOL     OW32734   3.820   2.813   3.764 -0.2256  0.0806  0.6459
 7091SOL    HW132735   3.784   2.862   3.838 -0.7100  0.1535  0.3657
 7091SOL    HW232736   3.823   2.723   3.797 -0.2752  0.1532  0.8528
 7092SOL     OW32737   0.957   2.536   4.896 -0.2787  0.1515 -0.2063
 7092SOL    HW132738   0.863   2.549   4.906 -0.0402  1.9863 -0.2904
 7092SOL    HW232739   0.957   2.464   4.833  2.1010 -0.1130  0.0680
 7093SOL     OW32740   2.912   1.030   9.045  0.8445 -0.4525 -0.2166
 7093SOL    HW132741   3.004   1.018   9.022  1.0755  2.9674 -1.0945
 7093SOL    HW232742   2.925   1.067   9.133  1.9298 -1.1157 -0.0882
 7094SOL     OW32743   3.479   1.109   2.192 -0.2629  0.0553  0.1266
 7094SOL    HW132744   3.465   1.026   2.147  0.9149  0.2379 -0.5819
 7094SOL    HW232745   3.424   1.171   2.144  1.3230  0.9850 -0.4949
 7095SOL     OW32746   0.795   0.574   2.925 -0.5832 -0.4276 -0.0770
 7095SOL    HW132747   0.756   0.553   2.841  1.0612 -1.9579 -0.4633
 7095SOL    HW232748   0.844   0.656   2.923 -2.0095  0.4018 -0.1970
 7096SOL     OW32749   0.788   3.882   3.638  0.0443 -0.7517  0.2583
 7096SOL    HW132750   0.823   3.925   3.716 -3.7473 -0.1976  1.6492
 7096SOL    HW232751   0.701   3.920   3.643  0.4506  0.2493 -0.2724
 7097SOL     OW32752   4.320   4.474  12.806  0.8365  0.1756 -0.0001
 7097SOL    HW132753   4.400   4.423  12.819 -0.3724 -1.5985  0.5525
 7097SOL    HW232754   4.319   4.480  12.710  1.1383  1.4951  0.0835
 7098SOL     OW32755   3.259   0.629   9.624  0.0805 -0.2036  0.2402
 7098SOL    HW132756   3.319   0.595   9.689  0.5960  1.6368  0.7356
 7098SOL    HW232757   3.314   0.696   9.585  1.9497  0.1631  3.5691
 7099SOL     OW32758   0.780   3.545   7.149  0.0353 -0.0181  0.2091
 7099SOL    HW132759   0.712   3.589   7.199  1.2324  1.3937  0.5855
 7099SOL    HW232760   0.786   3.459   7.190 -2.1282 -0.3543 -0.1818
 7100SOL     OW32761   3.397   0.054   4.201 -0.3354 -0.3702 -0.0366
 7100SOL    HW132762   3.443   0.103   4.133  0.2991 -2.1226 -0.8497
 7100SOL    HW232763   3.470   0.001   4.233  0.0240 -0.2227 -0.6153
 7101SOL     OW32764   2.393   4.543   6.516 -0.0720 -0.0367  0.0434
 7101SOL    HW132765   2.312   4.510   6.554  0.3610 -0.0391  0.9535
 7101SOL    HW232766   2.398   4.628   6.560  1.8611  0.0097 -0.2498
 7102SOL     OW32767   1.632   2.311   8.406 -0.2111 -0.5461 -0.3845
 7102SOL    HW132768   1.614   2.240   8.345  0.4880  0.3950 -1.6819
 7102SOL    HW232769   1.714   2.287   8.449 -0.1439  0.5637  0.1194
 7103SOL     OW32770   2.160   1.980   1.795 -0.2676  0.0263 -0.3566
 7103SOL    HW132771   2.100   1.905   1.793  0.4807 -0.6134  0.9158
 7103SOL    HW232772   2.213   1.952   1.721  1.0963  1.7316 -0.0062
 7104SOL     OW32773   3.018   2.979   4.144 -0.0901 -0.1041 -0.3135
 7104SOL    HW132774   2.943   3.038   4.137 -0.6073 -0.9238 -1.6221
 7104SOL    HW232775   3.035   2.978   4.238  0.1809 -2.2750 -0.3835
 7105SOL     OW32776   0.076   1.989   8.722  0.3022  0.2677 -0.1145
 7105SOL    HW132777   0.115   2.036   8.796 -0.4152 -1.6752  1.4807
 7105SOL    HW232778   0.115   1.908   8.754 -1.9507 -0.5474  0.5114
 7106SOL     OW32779   0.287   0.773  11.627 -0.3267 -0.5371  0.4345
 7106SOL    HW132780   0.335   0.840  11.578  1.8004 -1.8877  0.6788
 7106SOL    HW232781   0.195   0.788  11.604 -0.2051  0.6468  0.7484
 7107SOL     OW32782   3.604   2.038  10.353 -0.0834  0.1197 -0.3613
 7107SOL    HW132783   3.638   2.005  10.436  0.0168  0.1337 -0.3966
 7107SOL    HW232784   3.594   1.959  10.300 -0.4067  1.7350 -2.7071
 7108SOL     OW32785   2.690   3.742   6.235  0.6892 -0.2192  0.4144
 7108SOL    HW132786   2.680   3.837   6.238 -1.2065 -0.3393 -1.3033
 7108SOL    HW232787   2.658   3.725   6.146 -2.1082  0.7488  1.2190
 7109SOL     OW32788   2.802   2.601   0.915  0.2732 -0.3197  0.5991
 7109SOL    HW132789   2.868   2.584   0.982  1.9151  2.8560 -0.2139
 7109SOL    HW232790   2.721   2.591   0.964  0.1309 -0.2865  0.3721
 7110SOL     OW32791   3.050   1.417   7.853  0.3304 -0.1003  0.8985
 7110SOL    HW132792   3.034   1.349   7.787 -1.6606  1.1231  0.1337
 7110SOL    HW232793   3.066   1.368   7.933  1.3447  1.4438  1.6336
 7111SOL     OW32794   4.712   1.756  10.705 -0.0491  0.0100 -0.1599
 7111SOL    HW132795   0.068   1.736  10.755  1.6385  0.0751 -2.8410
 7111SOL    HW232796   4.650   1.721  10.769 -0.2956 -1.9089 -1.4418
 7112SOL     OW32797   4.506   3.593   8.391  0.3098  0.0178  0.3630
 7112SOL    HW132798   4.448   3.538   8.444 -0.3549  1.4102  1.0778
 7112SOL    HW232799   4.550   3.640   8.462 -0.2067  0.1711  0.5841
 7113SOL     OW32800   3.610   2.816   7.528  0.0010  0.4505  0.0100
 7113SOL    HW132801   3.596   2.732   7.571 -3.6394  1.2669  0.4157
 7113SOL    HW232802   3.565   2.809   7.444  0.9502  0.0995 -0.4588
 7114SOL     OW32803   4.521   1.648   3.245 -0.3579  0.3688  0.3477
 7114SOL    HW132804   4.491   1.562   3.215  0.3542 -0.3999  1.8813
 7114SOL    HW232805   4.477   1.706   3.182  0.8885 -0.1957 -1.0400
 7115SOL     OW32806   0.351   0.262  11.058 -0.0001 -0.2836  0.0865
 7115SOL    HW132807   0.292   0.335  11.080 -1.5771 -1.4155 -0.4314
 7115SOL    HW232808   0.418   0.272  11.125 -1.9201 -0.5016  2.0310
 7116SOL     OW32809   3.432   3.943   7.291 -0.1695  0.4395 -0.4964
 7116SOL    HW132810   3.350   3.985   7.314 -0.0549  1.0925 -1.2851
 7116SOL    HW232811   3.480   3.974   7.367 -1.3678  0.0241  0.4176
 7117SOL     OW32812   0.803   3.583  11.226  0.5036 -0.5567  0.3964
 7117SOL    HW132813   0.871   3.605  11.163 -0.7755 -0.2054 -0.8576
 7117SOL    HW232814   0.723   3.620  11.189  1.5784  0.8576 -0.5248
 7118SOL     OW32815   1.103   2.267  14.249  0.4508 -0.4148  0.0668
 7118SOL    HW132816   1.125   2.271  14.155  1.8495  1.3760  0.4608
 7118SOL    HW232817   1.119   2.361  14.260 -1.4653 -0.0137 -0.5809
 7119SOL     OW32818   2.749   2.185  17.178  1.3452  0.1555 -0.7903
 7119SOL    HW132819   2.740   2.142  17.093 -0.3684 -0.3543 -0.3470
 7119SOL    HW232820   2.767   2.276  17.155  0.1222  0.6883  0.3345
 7120SOL     OW32821   0.690   0.449   2.093 -0.0464  0.4829  0.0504
 7120SOL    HW132822   0.764   0.433   2.152 -1.1963  2.5915  2.0695
 7120SOL    HW232823   0.708   0.411   2.007  0.0790 -2.5659  1.4281
 7121SOL     OW32824   1.402   1.940   6.799  0.3908  0.4662 -0.5232
 7121SOL    HW132825   1.453   1.952   6.719 -0.6076 -1.1278 -1.3910
 7121SOL    HW232826   1.376   1.848   6.799 -3.3503  1.5122  1.4744
 7122SOL     OW32827   2.786   1.263   5.648 -0.2147 -0.0515  0.4515
 7122SOL    HW132828   2.836   1.341   5.670  0.7325 -0.4661 -0.2212
 7122SOL    HW232829   2.788   1.262   5.553  1.6789 -0.5112  0.5103
 7123SOL     OW32830   4.412   3.145   9.898 -0.2430 -0.3663 -0.4299
 7123SOL    HW132831   4.506   3.132   9.888 -0.3541 -1.1122 -0.4971
 7123SOL    HW232832   4.411   3.213   9.965 -0.6414  1.9221 -2.7353
 7124SOL     OW32833   0.070   1.209   1.405  0.0418  0.1732  0.7424
 7124SOL    HW132834   4.699   1.206   1.386  0.5029  0.0206 -1.4432
 7124SOL    HW232835   0.116   1.192   1.323 -0.6448 -0.3938  0.4748
 7125SOL     OW32836   2.324   0.692  10.090 -0.5425 -0.4543  0.4211
 7125SOL    HW132837   2.397   0.633  10.106 -1.1775 -1.7838 -1.4983
 7125SOL    HW232838   2.249   0.633  10.107 -0.5781 -0.7723 -0.8409
 7126SOL     OW32839   2.241   4.306  10.702 -0.2380  0.1819 -0.7519
 7126SOL    HW132840   2.288   4.386  10.677  0.2769  0.1065 -0.0386
 7126SOL    HW232841   2.252   4.314  10.797  1.1809  1.0473 -0.9885
 7127SOL     OW32842   0.011   4.234   6.121  0.1533 -0.1608 -0.0981
 7127SOL    HW132843   4.703   4.238   6.212 -0.8792  0.2096 -0.4604
 7127SOL    HW232844   4.649   4.213   6.082  0.0787  0.2530 -0.1563
 7128SOL     OW32845   3.592   1.332  12.707 -0.8702  0.1624 -0.0262
 7128SOL    HW132846   3.508   1.314  12.665 -0.1168  1.7352 -2.2540
 7128SOL    HW232847   3.603   1.427  12.706  0.0618  0.0570 -0.7736
 7129SOL     OW32848   4.304   2.951   5.583  0.4017  0.3012  0.0263
 7129SOL    HW132849   4.371   2.938   5.515  1.0919  0.0802  0.7552
 7129SOL    HW232850   4.341   2.915   5.663  2.4679  0.6719 -0.7826
 7130SOL     OW32851   3.608   0.696   0.894  0.4880 -0.8026 -0.2243
 7130SOL    HW132852   3.667   0.634   0.936  2.0872  0.1044 -1.1528
 7130SOL    HW232853   3.530   0.681   0.948  1.7244 -1.0866  1.4441
 7131SOL     OW32854   4.150   0.795   1.413 -0.5972  0.6237  0.0210
 7131SOL    HW132855   4.108   0.726   1.362  1.9679 -0.4698 -0.6241
 7131SOL    HW232856   4.234   0.761   1.445 -0.8474 -0.3885 -0.3943
 7132SOL     OW32857   3.047   0.849  15.875  0.4855 -0.5172 -0.0202
 7132SOL    HW132858   3.062   0.942  15.860  0.6642 -0.6194 -0.4970
 7132SOL    HW232859   2.962   0.835  15.833  0.8480 -0.0617 -0.8969
 7133SOL     OW32860   1.913   2.877   7.194 -0.4497 -0.1860 -0.0866
 7133SOL    HW132861   1.972   2.923   7.254  0.6801 -1.3844 -0.2616
 7133SOL    HW232862   1.928   2.786   7.221 -0.0497 -0.2709 -0.5917
 7134SOL     OW32863   2.158   3.277   1.994 -0.6851  0.1854  0.3469
 7134SOL    HW132864   2.108   3.309   1.919  0.7264  0.3451 -0.5292
 7134SOL    HW232865   2.242   3.324   1.988 -0.6758 -0.1490 -1.9633
 7135SOL     OW32866   1.921   4.180   6.486 -0.1363 -0.1117  0.1027
 7135SOL    HW132867   1.918   4.209   6.395 -2.1549  1.0567  0.5440
 7135SOL    HW232868   1.902   4.088   6.468 -3.1692  0.3077  1.1485
 7136SOL     OW32869   4.557   0.864   2.198 -0.5495  0.2727  0.2190
 7136SOL    HW132870   4.608   0.789   2.167 -0.9315  0.1548 -0.1308
 7136SOL    HW232871   4.550   0.840   2.290  2.2879 -3.1995 -0.4664
 7137SOL     OW32872   0.746   1.842  15.421 -0.0852  0.2458 -0.5866
 7137SOL    HW132873   0.725   1.786  15.496 -0.1131  1.6299  0.4364
 7137SOL    HW232874   0.753   1.777  15.350 -1.3113 -0.5115 -0.0178
 7138SOL     OW32875   3.013   1.177   4.547 -0.3576  1.1863 -0.4217
 7138SOL    HW132876   3.102   1.149   4.565 -0.8551 -1.2974 -1.8627
 7138SOL    HW232877   2.975   1.094   4.521 -0.2545  1.0830 -0.2409
 7139SOL     OW32878   0.771   1.936   4.151  0.2560  0.3794 -0.1339
 7139SOL    HW132879   0.736   2.024   4.137 -0.2707  0.7421  3.4675
 7139SOL    HW232880   0.780   1.940   4.246 -2.5656  0.0212  0.1531
 7140SOL     OW32881   0.792   3.441   5.482 -0.2904  0.1854 -0.9168
 7140SOL    HW132882   0.871   3.420   5.532 -0.5615  2.3497  0.4127
 7140SOL    HW232883   0.726   3.414   5.545 -0.2238 -0.3983 -1.1009
 7141SOL     OW32884   2.653   3.958   5.322 -0.3759  0.2683  0.0732
 7141SOL    HW132885   2.602   4.037   5.304 -1.0388  0.1600  1.4484
 7141SOL    HW232886   2.698   3.947   5.238  3.7984  1.5828  2.1190
 7142SOL     OW32887   4.306   0.011  11.366 -0.3634  0.7265  0.1378
 7142SOL    HW132888   4.223   4.712  11.409 -1.5418  1.7002 -1.6773
 7142SOL    HW232889   4.269   0.050  11.287 -0.6533 -0.4487 -0.3046
 7143SOL     OW32890   4.451   0.496   9.073  0.1617 -0.3702 -0.3811
 7143SOL    HW132891   4.417   0.551   9.143  1.2644  1.7574 -1.5386
 7143SOL    HW232892   4.386   0.522   9.008  0.3974  1.2300  0.0405
 7144SOL     OW32893   4.479   0.840  11.657 -0.8162  0.2789 -0.4041
 7144SOL    HW132894   4.429   0.759  11.651  0.7643 -0.6037 -1.9087
 7144SOL    HW232895   4.420   0.907  11.622 -1.7406 -1.0270 -1.3284
 7145SOL     OW32896   3.771   0.817  15.435  0.1385 -0.4636  0.4766
 7145SOL    HW132897   3.793   0.797  15.526 -0.0830 -0.1948  0.5893
 7145SOL    HW232898   3.837   0.886  15.427 -0.8575  0.4551  0.1228
 7146SOL     OW32899   1.435   0.439  10.678  0.3604  0.2125 -0.0898
 7146SOL    HW132900   1.422   0.393  10.596  3.0786  2.7268 -1.9476
 7146SOL    HW232901   1.467   0.372  10.739  1.0149 -0.4961 -1.2263
 7147SOL     OW32902   1.716   3.063   3.219 -0.1923  1.1329 -0.3453
 7147SOL    HW132903   1.666   3.094   3.144 -1.9707 -4.0576 -1.2974
 7147SOL    HW232904   1.747   3.146   3.256  2.0537  0.6449 -1.1456
 7148SOL     OW32905   0.628   3.375  14.570 -0.0738 -0.0554  0.1842
 7148SOL    HW132906   0.549   3.338  14.611  0.0369 -0.3526  0.1296
 7148SOL    HW232907   0.633   3.337  14.482  1.3102  2.2577 -0.7321
 7149SOL     OW32908   2.936   1.481   3.457 -0.6811  0.1707  0.3835
 7149SOL    HW132909   2.894   1.563   3.481 -0.6843  0.4594 -0.5932
 7149SOL    HW232910   2.965   1.492   3.366 -3.7590  0.2326 -0.5913
 7150SOL     OW32911   2.611   1.341   6.684  0.2056 -0.4510 -0.0033
 7150SOL    HW132912   2.618   1.428   6.723 -1.6057 -1.3016  2.2452
 7150SOL    HW232913   2.688   1.299   6.722  1.3688  2.8954  1.2963
 7151SOL     OW32914   2.474   2.620   0.548  0.6247  0.1265 -0.5736
 7151SOL    HW132915   2.567   2.643   0.557 -0.3504  1.8340  5.5441
 7151SOL    HW232916   2.478   2.526   0.569 -0.7926  0.2985  0.4606
 7152SOL     OW32917   4.667   1.188   8.041  0.1562  0.1562 -0.1481
 7152SOL    HW132918   4.669   1.203   7.946  1.3777  0.2358 -0.1109
 7152SOL    HW232919   4.614   1.266   8.058  0.4065  0.6012 -1.3382
 7153SOL     OW32920   2.026   3.845  10.773  0.1316 -0.0244 -0.7346
 7153SOL    HW132921   2.004   3.938  10.767  0.2995  0.0001 -0.9859
 7153SOL    HW232922   2.119   3.848  10.750  0.1993  3.7498 -0.0418
 7154SOL     OW32923   0.137   1.214  11.402 -0.5447  0.4851  0.2927
 7154SOL    HW132924   0.072   1.284  11.399 -0.6188  0.4424  0.8618
 7154SOL    HW232925   0.099   1.169  11.478  0.2913  1.0767  1.0637
 7155SOL     OW32926   1.245   3.946   4.274  0.3649 -0.6449  0.0271
 7155SOL    HW132927   1.219   4.038   4.270  1.4401 -0.2993  0.9560
 7155SOL    HW232928   1.266   3.937   4.367  0.1772  2.3133  0.3533
 7156SOL     OW32929   0.516   2.764  17.336  0.1526  0.0554 -0.3022
 7156SOL    HW132930   0.427   2.767  17.301 -0.9550  1.2929  2.5917
 7156SOL    HW232931   0.556   2.769  17.249 -0.5780 -1.1707 -0.7010
 7157SOL     OW32932   0.137   0.929   5.619  0.2315 -0.2471  0.4409
 7157SOL    HW132933   0.186   0.856   5.580 -0.2969  1.1769 -2.8771
 7157SOL    HW232934   0.206   0.965   5.676  0.2931 -0.2303  0.3556
 7158SOL     OW32935   2.227   4.043  14.061 -0.6132 -0.0492 -0.0267
 7158SOL    HW132936   2.315   4.062  14.029 -0.8400  1.4796  0.2720
 7158SOL    HW232937   2.209   4.135  14.078  2.1620  0.2320  1.3419
 7159SOL     OW32938   1.273   1.215   6.127  0.4009 -0.2399 -0.1942
 7159SOL    HW132939   1.273   1.257   6.213 -0.3464 -1.4474  0.3991
 7159SOL    HW232940   1.179   1.209   6.112  0.1675  1.4165  0.6311
 7160SOL     OW32941   3.036   0.056  15.051  0.4567  0.6004 -0.6537
 7160SOL    HW132942   3.025   0.145  15.084  0.2935  0.3256  0.0342
 7160SOL    HW232943   2.948   0.024  15.069  0.5134  1.2763  0.8410
 7161SOL     OW32944   0.353   2.466   2.656 -0.0288 -0.2811  0.5231
 7161SOL    HW132945   0.264   2.495   2.675  0.8400  3.4797 -1.0763
 7161SOL    HW232946   0.346   2.392   2.716  1.3161 -0.0459  0.9821
 7162SOL     OW32947   2.031   0.469   0.882  0.3010 -0.0542  0.6700
 7162SOL    HW132948   1.998   0.559   0.886 -0.7506 -0.3750 -0.8615
 7162SOL    HW232949   2.005   0.435   0.967 -0.5154 -1.2114 -0.0471
 7163SOL     OW32950   4.697   2.207   1.786 -0.5102  0.2047 -0.2779
 7163SOL    HW132951   0.020   2.128   1.759  0.8603  0.4402  1.3622
 7163SOL    HW232952   0.034   2.277   1.760  0.0084 -0.7276 -1.6058
 7164SOL     OW32953   3.402   4.310   8.681 -0.0422 -0.0473 -0.2159
 7164SOL    HW132954   3.368   4.271   8.761 -0.4474  0.5026 -0.1223
 7164SOL    HW232955   3.351   4.264   8.614  2.7381  0.6915 -2.8276
 7165SOL     OW32956   2.962   0.345   9.665  0.0369 -0.3431 -0.3709
 7165SOL    HW132957   2.979   0.432   9.630 -0.6947 -0.1453 -0.2272
 7165SOL    HW232958   3.028   0.338   9.733  0.4424 -0.2910 -0.7562
 7166SOL     OW32959   0.495   3.590   1.401  0.0776  0.1003  0.3036
 7166SOL    HW132960   0.494   3.672   1.450  0.8379  1.2192 -1.5783
 7166SOL    HW232961   0.513   3.627   1.314 -2.4946 -0.6381 -0.5442
 7167SOL     OW32962   3.088   3.287  15.971 -0.0216 -0.0410  0.0818
 7167SOL    HW132963   3.030   3.225  16.014 -1.3556  0.5254 -0.8918
 7167SOL    HW232964   3.062   3.370  16.011  1.5311 -0.1562  1.3329
 7168SOL     OW32965   3.395   4.653   8.866 -0.0075 -0.1066  0.2792
 7168SOL    HW132966   3.487   4.677   8.852  0.4090 -1.6310  0.4410
 7168SOL    HW232967   3.358   4.706   8.795  0.2913 -2.3923 -1.5762
 7169SOL     OW32968   3.705   1.578   3.273  0.0154 -0.6228  0.0382
 7169SOL    HW132969   3.766   1.520   3.318  0.9575 -0.6304 -1.2295
 7169SOL    HW232970   3.699   1.535   3.187 -0.7257  0.1142 -0.2789
 7170SOL     OW32971   1.345   2.441   3.095 -0.5610  0.1519 -0.2679
 7170SOL    HW132972   1.313   2.350   3.093  1.5013 -0.5840 -0.0716
 7170SOL    HW232973   1.286   2.481   3.159 -0.5561 -1.5559  0.8109
 7171SOL     OW32974   3.397   1.099   7.831  0.2129  0.4804 -0.3969
 7171SOL    HW132975   3.446   1.093   7.749  2.1247 -0.1333  0.8047
 7171SOL    HW232976   3.304   1.091   7.806 -0.0864  2.1022  0.2220
 7172SOL     OW32977   0.955   1.148   7.333 -0.0840 -0.5232 -0.1582
 7172SOL    HW132978   0.923   1.059   7.319  0.9490 -1.2166  1.7808
 7172SOL    HW232979   0.943   1.168   7.426  0.0429  1.6237 -0.6042
 7173SOL     OW32980   1.631   1.223   9.029  0.1521 -0.4059  0.1615
 7173SOL    HW132981   1.665   1.306   8.995  1.0407  0.3631  2.8777
 7173SOL    HW232982   1.565   1.198   8.965 -1.0397 -0.1883  1.2900
 7174SOL     OW32983   2.228   3.317   6.446 -0.3040  0.0959 -0.2596
 7174SOL    HW132984   2.174   3.378   6.496  2.2326  1.2042  1.1325
 7174SOL    HW232985   2.248   3.370   6.368 -1.9438  1.9287  0.5625
 7175SOL     OW32986   2.581   3.594   8.265  0.4827  0.1869 -0.4927
 7175SOL    HW132987   2.554   3.517   8.314 -3.0593  0.8680 -1.3246
 7175SOL    HW232988   2.633   3.644   8.327 -1.0389  0.0846  0.8563
 7176SOL     OW32989   2.911   1.217   4.785 -0.1977 -0.0544  0.1393
 7176SOL    HW132990   2.964   1.229   4.707 -0.8626 -0.4100 -0.3615
 7176SOL    HW232991   2.959   1.149   4.832  1.9218 -0.9173 -3.2774
 7177SOL     OW32992   2.130   2.561   9.826 -0.3207 -0.1547  0.2074
 7177SOL    HW132993   2.103   2.469   9.819  1.6270 -0.6939 -0.2929
 7177SOL    HW232994   2.148   2.570   9.732 -1.5834  0.4708  0.0373
 7178SOL     OW32995   3.243   3.903  12.903 -0.2035  0.7252  0.2506
 7178SOL    HW132996   3.196   3.820  12.902 -0.0516  0.6378  0.4194
 7178SOL    HW232997   3.221   3.949  12.983 -0.1404 -0.2759  0.8373
 7179SOL     OW32998   3.591   3.519  15.352 -0.6075 -0.4960 -0.1207
 7179SOL    HW132999   3.505   3.492  15.384  0.6775 -2.1722  1.9138
 7179SOL    HW233000   3.645   3.511  15.430 -1.1919  0.0223  0.3436
 7180SOL     OW33001   1.691   0.935   5.239 -0.3396  0.7183 -0.8299
 7180SOL    HW133002   1.722   0.874   5.306 -0.5831  0.3258 -1.0721
 7180SOL    HW233003   1.733   1.017   5.266  0.3426  0.1873 -0.2841
 7181SOL     OW33004   4.567   3.430   9.773  0.4674  0.3431 -0.1979
 7181SOL    HW133005   4.511   3.431   9.850  0.9451 -2.1056  0.1587
 7181SOL    HW233006   4.615   3.350   9.792 -1.7292 -0.8299  0.3747
 7182SOL     OW33007   2.297   2.675   0.379 -0.0066  0.2139 -0.1974
 7182SOL    HW133008   2.371   2.655   0.436 -1.5608  0.0853  1.7798
 7182SOL    HW233009   2.342   2.700   0.298  1.6829  1.9205  1.2516
 7183SOL     OW33010   1.119   1.259   4.941  0.3942 -0.2979 -0.3693
 7183SOL    HW133011   1.157   1.275   4.854 -2.0464  2.3810 -0.9052
 7183SOL    HW233012   1.123   1.163   4.938 -2.3901 -0.4055  0.1140
 7184SOL     OW33013   0.007   1.546   6.103  0.2686 -0.2423 -0.1801
 7184SOL    HW133014   0.045   1.631   6.082 -1.3560  0.6712  0.5486
 7184SOL    HW233015   4.634   1.547   6.101  0.2740 -0.3661 -0.4385
 7185SOL     OW33016   3.274   2.705   6.424 -0.0866 -0.5154 -0.2593
 7185SOL    HW133017   3.222   2.628   6.402 -0.8630  0.3295 -1.3646
 7185SOL    HW233018   3.310   2.682   6.510 -1.0925  1.8390  0.7858
 7186SOL     OW33019   4.130   0.641   7.370 -0.3006 -0.2509 -0.0846
 7186SOL    HW133020   4.143   0.582   7.297  0.3011  0.3748 -0.4807
 7186SOL    HW233021   4.151   0.596   7.452 -0.2638  0.5663  0.3577
 7187SOL     OW33022   0.540   3.839  13.961  0.3801 -0.1465 -0.3615
 7187SOL    HW133023   0.616   3.877  14.006 -0.8439 -0.3995  1.9426
 7187SOL    HW233024   0.548   3.755  14.007 -0.0018  0.5844  1.0483
 7188SOL     OW33025   0.075   0.414   3.304  0.2926 -0.3123 -0.4890
 7188SOL    HW133026   0.039   0.326   3.315 -0.4378  0.0316 -0.1489
 7188SOL    HW233027   0.155   0.399   3.354  0.8156 -0.9469 -1.5131
 7189SOL     OW33028   2.572   2.737   6.720  0.1227 -0.1578  0.1333
 7189SOL    HW133029   2.497   2.796   6.728 -1.1931 -1.9697  1.2226
 7189SOL    HW233030   2.541   2.658   6.676  0.2316  0.6131 -1.3185
 7190SOL     OW33031   1.143   4.209   3.369  0.1947  0.4429  0.3082
 7190SOL    HW133032   1.200   4.138   3.340 -0.6950 -0.3992  0.6474
 7190SOL    HW233033   1.070   4.170   3.416  1.8132 -3.7426 -0.6885
 7191SOL     OW33034   0.985   1.300   9.822  0.5491  0.1192 -0.0991
 7191SOL    HW133035   0.997   1.385   9.863 -2.0709 -0.4276  1.7614
 7191SOL    HW233036   1.021   1.241   9.888 -0.7657 -0.1158  0.4048
 7192SOL     OW33037   4.147   1.401   3.611 -0.0375  0.5399 -0.3541
 7192SOL    HW133038   4.110   1.315   3.630  0.1445  0.5854  0.2142
 7192SOL    HW233039   4.084   1.460   3.652 -0.1495 -0.1437  0.4587
 7193SOL     OW33040   3.953   3.874  14.271 -0.0691 -0.5113  0.3161
 7193SOL    HW133041   3.979   3.938  14.205 -0.8965 -0.3996  0.0931
 7193SOL    HW233042   3.867   3.853  14.235 -0.0748 -0.5637  0.3590
 7194SOL     OW33043   0.524   4.200   9.939 -0.7421 -0.0384 -0.0293
 7194SOL    HW133044   0.495   4.113   9.910  0.2853 -1.9997  4.9882
 7194SOL    HW233045   0.558   4.175  10.024  2.0152  2.4197 -0.4110
 7195SOL     OW33046   0.511   3.542   3.727 -0.4167  0.5144 -0.0202
 7195SOL    HW133047   0.580   3.479   3.708 -1.0767 -0.9845  2.5405
 7195SOL    HW233048   0.470   3.538   3.640  1.1869  0.1887 -0.7461
 7196SOL     OW33049   2.202   0.349   2.566 -0.2413 -0.5923  0.1319
 7196SOL    HW133050   2.231   0.280   2.507 -1.6549  0.4097 -1.7538
 7196SOL    HW233051   2.228   0.426   2.515  0.9558 -0.6674  0.6100
 7197SOL     OW33052   3.435   1.560   3.055 -0.2298 -0.3504  0.4824
 7197SOL    HW133053   3.474   1.611   2.983  0.1896 -0.7326  0.4354
 7197SOL    HW233054   3.502   1.492   3.063  0.7113  0.4765 -0.3300
 7198SOL     OW33055   2.823   4.445  16.014  0.5968  0.2420  0.2121
 7198SOL    HW133056   2.826   4.403  15.928 -1.4033 -0.7243  0.6155
 7198SOL    HW233057   2.863   4.378  16.069  0.0295  0.2747  0.6625
 7199SOL     OW33058   3.226   4.186   3.496 -0.5293  0.3197  0.1785
 7199SOL    HW133059   3.253   4.269   3.536 -2.0870  0.7869  0.2592
 7199SOL    HW233060   3.310   4.154   3.464  1.2028  2.7003  2.3808
 7200SOL     OW33061   1.895   3.642   9.504 -0.3230 -0.0719  0.2012
 7200SOL    HW133062   1.911   3.679   9.591  1.7755 -1.8437  0.5671
 7200SOL    HW233063   1.908   3.724   9.455 -1.6453  0.1520  0.2419
 7201SOL     OW33064   4.526   4.206   1.679  0.5359 -0.0853  0.2659
 7201SOL    HW133065   4.593   4.241   1.738 -0.9355  0.6867  1.4757
 7201SOL    HW233066   4.574   4.176   1.602  0.5058 -1.8594  0.9402
 7202SOL     OW33067   3.312   2.803   5.389 -0.0668 -0.2661  0.3748
 7202SOL    HW133068   3.232   2.847   5.359  0.6577  0.7534 -0.0137
 7202SOL    HW233069   3.307   2.713   5.355 -2.0986 -0.2029  0.4741
 7203SOL     OW33070   0.405   3.741   8.073  0.3449  0.6828 -0.1824
 7203SOL    HW133071   0.398   3.816   8.132 -1.4582  1.3504 -1.2446
 7203SOL    HW233072   0.438   3.784   7.994 -0.9934  0.6186 -0.7734
 7204SOL     OW33073   2.256   0.507   3.541  0.4373  0.1697 -0.0654
 7204SOL    HW133074   2.173   0.506   3.493  0.2446  0.3302  0.2612
 7204SOL    HW233075   2.235   0.426   3.588  1.1622 -1.0726 -1.8830
 7205SOL     OW33076   0.036   0.852  11.595 -0.1757  0.0290  0.1335
 7205SOL    HW133077   0.034   0.927  11.654 -1.5211  0.4469 -0.4461
 7205SOL    HW233078   4.664   0.837  11.597 -0.2377  0.3833 -0.1121
 7206SOL     OW33079   4.427   2.071   5.018  0.0342  0.5991  0.6098
 7206SOL    HW133080   4.497   2.043   5.078  0.1293  0.7314  0.5598
 7206SOL    HW233081   4.461   2.157   4.994 -1.8776  1.0608 -0.3770
 7207SOL     OW33082   2.867   3.462  16.723  0.9064 -0.4273 -0.2764
 7207SOL    HW133083   2.823   3.546  16.735  2.8407  0.5563  0.0916
 7207SOL    HW233084   2.947   3.477  16.775 -0.1740  0.4372  1.1395
 7208SOL     OW33085   2.315   3.647   4.523  0.0121  0.3493 -0.0726
 7208SOL    HW133086   2.242   3.600   4.563  0.5228 -0.7745 -0.4456
 7208SOL    HW233087   2.272   3.729   4.500 -1.0545  0.0130  0.7507
 7209SOL     OW33088   2.371   0.206   2.206  0.1586 -0.0121  0.7732
 7209SOL    HW133089   2.312   0.140   2.170  3.1092 -1.9903 -0.3760
 7209SOL    HW233090   2.309   0.279   2.212  0.2678  0.0846  0.7250
 7210SOL     OW33091   2.976   4.563   3.765 -0.7384  0.3772  0.2893
 7210SOL    HW133092   2.971   4.655   3.739  1.0275 -0.1418 -1.9103
 7210SOL    HW233093   2.890   4.570   3.807 -0.4526 -0.4295  0.9976
 7211SOL     OW33094   0.601   2.615   9.445 -0.0462  0.5100  0.5588
 7211SOL    HW133095   0.559   2.702   9.443 -0.6687  0.2455  2.0628
 7211SOL    HW233096   0.690   2.637   9.474 -0.4891  1.9008  0.8995
 7212SOL     OW33097   1.859   0.231   6.856  0.0924 -0.0481 -0.1941
 7212SOL    HW133098   1.782   0.284   6.834 -1.3054 -2.7760 -1.9512
 7212SOL    HW233099   1.868   0.252   6.948 -0.5002  0.3891 -0.2350
 7213SOL     OW33100   0.861   2.899   6.852  0.8163 -1.0826 -0.1419
 7213SOL    HW133101   0.849   2.840   6.926  1.9051  0.2371  1.1044
 7213SOL    HW233102   0.803   2.860   6.786 -1.6693 -0.1187  1.4537
 7214SOL     OW33103   1.505   0.434  10.288 -0.3484  0.2926  0.6619
 7214SOL    HW133104   1.451   0.495  10.237  0.7260 -0.3411 -1.2187
 7214SOL    HW233105   1.582   0.491  10.299  0.1811  0.0749 -1.8655
 7215SOL     OW33106   0.831   0.958  16.166  0.3912  0.0328  0.5661
 7215SOL    HW133107   0.824   0.936  16.258  0.0123  2.8812  1.2245
 7215SOL    HW233108   0.818   1.053  16.167  0.2216 -0.0067  1.4425
 7216SOL     OW33109   1.523   1.764   6.155 -0.6321  0.1459 -0.7956
 7216SOL    HW133110   1.567   1.784   6.238  0.1679  1.1550 -1.4580
 7216SOL    HW233111   1.515   1.669   6.152  1.3587 -0.0800  1.6474
 7217SOL     OW33112   1.298   1.994   2.896  0.1621  0.0750  0.0382
 7217SOL    HW133113   1.237   1.927   2.866 -0.7682  0.7735  0.3800
 7217SOL    HW233114   1.371   1.946   2.934 -0.5594 -1.3541 -0.3784
 7218SOL     OW33115   1.850   4.308   1.321  0.0637 -0.2350  0.3731
 7218SOL    HW133116   1.873   4.384   1.268 -0.0506  0.2353  1.0097
 7218SOL    HW233117   1.762   4.333   1.347  1.0519  4.4887 -0.9432
 7219SOL     OW33118   1.440   1.582  14.492  0.3675 -0.0032  0.1354
 7219SOL    HW133119   1.477   1.496  14.514 -0.0757  0.0561  1.1047
 7219SOL    HW233120   1.347   1.566  14.505  0.9626 -1.7452  2.1838
 7220SOL     OW33121   4.079   0.238  17.628  0.3240 -0.6657 -0.2518
 7220SOL    HW133122   4.152   0.298  17.613  0.3583 -0.7363 -0.3667
 7220SOL    HW233123   4.109   0.190   0.012 -1.0053 -1.4974 -0.2517
 7221SOL     OW33124   3.783   1.491   4.920 -0.3136  0.0100 -0.0792
 7221SOL    HW133125   3.752   1.552   4.852  1.4675  2.0131  0.9019
 7221SOL    HW233126   3.754   1.406   4.888  0.0491 -0.0483 -0.2556
 7222SOL     OW33127   0.316   1.429  17.650 -0.4441  0.2903  0.3391
 7222SOL    HW133128   0.295   1.522  17.647  0.8256  0.6827  4.0542
 7222SOL    HW233129   0.398   1.433  17.600 -1.1617 -1.4059 -0.9813
 7223SOL     OW33130   2.881   4.024   3.916 -0.6628  0.2478  0.6519
 7223SOL    HW133131   2.789   4.005   3.934 -1.0955  0.2661 -1.5827
 7223SOL    HW233132   2.874   4.065   3.831 -0.1116  0.5841  0.7740
 7224SOL     OW33133   1.477   4.495  17.020 -0.5174  0.5075 -0.0533
 7224SOL    HW133134   1.490   4.493  16.925 -1.3518  2.7365 -0.2129
 7224SOL    HW233135   1.569   4.502  17.046 -0.1117 -1.8821 -0.8302
 7225SOL     OW33136   0.106   2.518  11.015  0.0098 -0.4476 -0.1523
 7225SOL    HW133137   0.072   2.435  10.980  0.2335  0.3505 -2.2334
 7225SOL    HW233138   0.195   2.505  10.982  1.2435  0.9149  2.6164
 7226SOL     OW33139   1.541   4.249  10.958 -0.2533  0.1337  0.1280
 7226SOL    HW133140   1.567   4.335  10.925 -0.4349 -0.4726 -1.6070
 7226SOL    HW233141   1.610   4.193  10.923 -1.8681 -1.3212 -0.7104
 7227SOL     OW33142   0.544   2.700   1.376 -0.2564  0.5365 -0.6269
 7227SOL    HW133143   0.592   2.777   1.349 -1.9471  1.2723 -1.5621
 7227SOL    HW233144   0.480   2.681   1.307  1.5608 -2.1198 -1.5922
 7228SOL     OW33145   3.918   1.298   1.318  0.1863 -0.2830 -0.3606
 7228SOL    HW133146   3.859   1.318   1.390 -3.3848  0.2589 -3.4376
 7228SOL    HW233147   3.996   1.270   1.365  2.0870  1.6761 -2.3546
 7229SOL     OW33148   4.320   0.776  11.397  0.5822  0.4039  0.3337
 7229SOL    HW133149   4.295   0.702  11.452  1.0078 -1.7640 -2.3829
 7229SOL    HW233150   4.399   0.744  11.352 -2.3363 -2.3702 -2.7471
 7230SOL     OW33151   4.688   0.453  11.891 -0.4510 -0.7713 -0.7197
 7230SOL    HW133152   0.046   0.505  11.888 -1.3810  0.5741 -1.8830
 7230SOL    HW233153   4.713   0.383  11.830  0.1976 -0.1097 -1.2126
 7231SOL     OW33154   3.855   2.072   3.941 -0.5349 -0.1180  0.1923
 7231SOL    HW133155   3.933   2.087   3.888  0.4410 -0.8144  1.4435
 7231SOL    HW233156   3.790   2.042   3.877  0.5895  1.1842 -1.5641
 7232SOL     OW33157   3.866   4.335   7.787 -0.3170  0.3325  0.0412
 7232SOL    HW133158   3.878   4.361   7.878  1.3931 -4.4486  1.1907
 7232SOL    HW233159   3.852   4.416   7.738 -1.4742  0.7871  1.1279
 7233SOL     OW33160   1.004   0.138   6.264 -0.0181 -0.0719  0.8053
 7233SOL    HW133161   1.066   0.198   6.222  0.6644 -1.0605  0.4258
 7233SOL    HW233162   1.025   0.053   6.228  0.1041  0.6372 -0.8123
 7234SOL     OW33163   4.025   3.223   5.833  0.4070 -0.3715 -0.5102
 7234SOL    HW133164   4.078   3.270   5.769  0.0811  0.9235  0.1598
 7234SOL    HW233165   4.086   3.185   5.895  0.5302  3.4637  1.7021
 7235SOL     OW33166   0.741   3.297   4.056 -0.1550  0.4017  0.6332
 7235SOL    HW133167   0.648   3.284   4.074 -0.6513  0.6199 -1.7795
 7235SOL    HW233168   0.785   3.227   4.103 -1.1184 -0.6520 -0.0407
 7236SOL     OW33169   0.923   1.601  17.428  0.0641 -0.0791  0.4823
 7236SOL    HW133170   0.967   1.517  17.416  0.0883  0.0078 -0.0581
 7236SOL    HW233171   0.930   1.640  17.341  1.2342  0.5344  0.8511
 7237SOL     OW33172   2.706   3.929  17.256  0.0488 -0.4478 -0.7249
 7237SOL    HW133173   2.671   4.016  17.273 -0.5253 -0.9801  0.8431
 7237SOL    HW233174   2.745   3.955  17.172  1.7610  0.1317  0.2467
 7238SOL     OW33175   2.502   1.258   5.723 -0.8549 -0.1544  0.2811
 7238SOL    HW133176   2.524   1.337   5.772  0.2767 -0.1576 -0.2323
 7238SOL    HW233177   2.587   1.241   5.683 -0.5928  0.8145  0.4420
 7239SOL     OW33178   1.105   0.843   6.175  0.3824 -1.1831  0.6432
 7239SOL    HW133179   1.114   0.895   6.256 -0.2800  0.0678 -0.0827
 7239SOL    HW233180   1.088   0.907   6.106  0.1382 -1.7933  0.1463
 7240SOL     OW33181   4.607   4.254   3.887  0.1894 -0.1171 -0.5760
 7240SOL    HW133182   4.608   4.194   3.961  1.0130 -0.5368 -0.9188
 7240SOL    HW233183   4.529   4.306   3.904  1.8082  1.5357  1.7200
 7241SOL     OW33184   0.083   0.148   9.177 -0.3093  0.4461 -0.7063
 7241SOL    HW133185   0.174   0.174   9.163 -0.4692  1.3273 -0.0785
 7241SOL    HW233186   0.050   0.218   9.233 -2.3385 -1.2610  0.2625
 7242SOL     OW33187   1.446   4.314   5.315 -0.0505  0.4077 -0.2479
 7242SOL    HW133188   1.522   4.256   5.315 -0.2419  0.1491 -0.1074
 7242SOL    HW233189   1.412   4.298   5.404  0.1216  2.7930  0.2356
 7243SOL     OW33190   0.360   2.477  15.533 -0.3297  0.1767  0.1205
 7243SOL    HW133191   0.409   2.399  15.508 -0.1714  0.3322 -0.0478
 7243SOL    HW233192   0.312   2.504  15.454  1.4486 -0.4521 -1.1562
 7244SOL     OW33193   3.039   3.392   2.030 -0.2754  0.1060 -0.2674
 7244SOL    HW133194   3.127   3.428   2.016 -1.6288  3.3919 -0.4103
 7244SOL    HW233195   3.004   3.436   2.108  0.1600  2.9024 -1.6251
 7245SOL     OW33196   0.433   0.334   0.578 -0.3034 -0.6629  0.5087
 7245SOL    HW133197   0.464   0.424   0.585  0.8070 -0.8935 -1.3889
 7245SOL    HW233198   0.487   0.294   0.646  2.6310 -0.2715 -1.5873
 7246SOL     OW33199   4.243   2.908   1.734 -0.4656  0.6079  0.3348
 7246SOL    HW133200   4.316   2.929   1.792  0.6573 -0.1759 -0.7834
 7246SOL    HW233201   4.290   2.882   1.654 -3.4315 -3.3248 -0.1018
 7247SOL     OW33202   2.890   0.596   4.090  0.1328 -0.0533  0.1136
 7247SOL    HW133203   2.826   0.667   4.084 -0.4746 -0.5239  1.0559
 7247SOL    HW233204   2.930   0.620   4.174 -1.5606 -0.5432  1.0417
 7248SOL     OW33205   4.029   3.487  13.852 -0.0475 -0.1034 -0.9118
 7248SOL    HW133206   4.106   3.441  13.885 -1.2225 -0.7299  0.9823
 7248SOL    HW233207   4.000   3.427  13.783  0.2993 -0.0370 -1.1119
 7249SOL     OW33208   4.467   3.393  15.802 -0.0041 -0.7393  0.0609
 7249SOL    HW133209   4.454   3.419  15.893 -1.9127 -0.9570 -0.1433
 7249SOL    HW233210   4.545   3.338  15.795  0.1068 -0.5239 -0.4197
 7250SOL     OW33211   2.879   1.458   8.215 -0.7073 -0.6137 -0.1185
 7250SOL    HW133212   2.874   1.384   8.155  1.3617 -1.8368  1.2032
 7250SOL    HW233213   2.802   1.447   8.271 -0.6436  0.2971  0.1520
 7251SOL     OW33214   1.022   1.533  11.951  0.1689  0.4048 -0.5458
 7251SOL    HW133215   1.099   1.585  11.974  0.0362  0.3851 -0.0652
 7251SOL    HW233216   1.064   1.447  11.946  1.4549  0.9825  0.4345
 7252SOL     OW33217   0.038   0.483   5.685 -0.0389 -0.1292  0.7048
 7252SOL    HW133218   0.071   0.564   5.724 -0.6498 -0.1112  1.1768
 7252SOL    HW233219   0.007   0.507   5.598  3.0141 -0.8167 -0.5851
 7253SOL     OW33220   1.542   2.471  17.565  0.0429 -0.0270 -0.2659
 7253SOL    HW133221   1.608   2.525  17.607 -1.6257 -1.0193  3.6392
 7253SOL    HW233222   1.563   2.499  17.476  0.7026  0.3160  0.0037
 7254SOL     OW33223   0.454   2.707   3.993 -0.6517 -0.0491  0.3734
 7254SOL    HW133224   0.460   2.803   3.997 -2.2697  0.0363  0.6445
 7254SOL    HW233225   0.516   2.682   3.924  0.2955  2.2770  0.3560
 7255SOL     OW33226   3.240   2.579  13.259  0.2310  1.0755  0.5532
 7255SOL    HW133227   3.281   2.591  13.345  0.6276  1.4244  0.3120
 7255SOL    HW233228   3.154   2.617  13.280 -0.2061  1.6780 -2.4432
 7256SOL     OW33229   3.876   2.082   6.779 -0.0990  0.3505  0.3309
 7256SOL    HW133230   3.823   2.004   6.762  1.5700 -0.2869 -1.8561
 7256SOL    HW233231   3.812   2.126   6.834 -2.1464 -2.0663 -0.1215
 7257SOL     OW33232   4.084   2.882   3.580 -0.1647  0.1374  0.4139
 7257SOL    HW133233   4.007   2.939   3.581 -0.3278 -0.0798  0.2806
 7257SOL    HW233234   4.055   2.812   3.639  0.8147 -0.9508 -0.3830
 7258SOL     OW33235   2.642   3.226   2.024  0.2480 -0.5300 -0.5659
 7258SOL    HW133236   2.574   3.225   2.091  1.1545 -1.2603  0.3356
 7258SOL    HW233237   2.594   3.207   1.943  0.2543  2.0058 -1.1672
 7259SOL     OW33238   0.629   4.396   2.156  0.7360  0.5186  0.0638
 7259SOL    HW133239   0.607   4.452   2.230 -1.4979  0.9523 -0.9294
 7259SOL    HW233240   0.668   4.324   2.206  0.7335  0.2955 -0.2547
 7260SOL     OW33241   3.362   3.021  11.860 -0.6627 -0.1048  0.0244
 7260SOL    HW133242   3.368   3.080  11.785 -1.7956  0.5976  0.4808
 7260SOL    HW233243   3.304   3.076  11.913  0.4053  1.1106 -0.0562
 7261SOL     OW33244   1.028   2.445   7.774  0.0282  0.0466  0.3785
 7261SOL    HW133245   1.002   2.535   7.754  0.3763 -0.0310 -0.3851
 7261SOL    HW233246   0.954   2.410   7.824 -0.9871  0.3493 -0.9060
 7262SOL     OW33247   4.221   0.596  10.521  0.3115 -0.2274  0.2295
 7262SOL    HW133248   4.240   0.543  10.443 -1.2523  2.5133 -2.0075
 7262SOL    HW233249   4.145   0.564  10.570 -0.4413 -1.1017 -1.4853
 7263SOL     OW33250   2.082   4.207  11.884  0.3795 -0.2848 -0.2029
 7263SOL    HW133251   2.137   4.247  11.950 -0.8557 -1.0681  1.3062
 7263SOL    HW233252   2.003   4.196  11.936 -0.8216 -2.0913 -2.3883
 7264SOL     OW33253   0.990   3.227   2.707  0.2360  0.2214 -0.1223
 7264SOL    HW133254   1.026   3.148   2.748  0.2763 -0.7055 -1.9191
 7264SOL    HW233255   0.989   3.281   2.786  1.3723 -0.7422  0.5498
 7265SOL     OW33256   4.236   1.650   2.372  0.6089 -0.5775 -0.0613
 7265SOL    HW133257   4.312   1.660   2.315  0.7812 -1.9854 -0.0753
 7265SOL    HW233258   4.170   1.622   2.309 -0.4185 -0.1180  0.8115
 7266SOL     OW33259   0.100   4.438   9.206 -0.2219 -0.1606 -0.5851
 7266SOL    HW133260   0.052   4.356   9.213  2.6260 -1.5046  2.7735
 7266SOL    HW233261   0.074   4.467   9.118  0.4618  0.3091 -0.6309
 7267SOL     OW33262   4.423   1.997   0.155 -0.3782  0.2550 -0.3471
 7267SOL    HW133263   4.402   1.940   0.230 -0.0526  0.6833  0.0724
 7267SOL    HW233264   4.338   2.034   0.134  0.5187  0.7298 -3.0881
 7268SOL     OW33265   3.883   3.579  14.555 -0.0670  0.4715 -0.1167
 7268SOL    HW133266   3.833   3.501  14.531  2.3034 -0.8856 -0.6095
 7268SOL    HW233267   3.850   3.595  14.644  0.7770 -0.6008  0.3890
 7269SOL     OW33268   3.582   1.547   6.504 -0.1321 -0.0560  0.7537
 7269SOL    HW133269   3.586   1.549   6.599  1.1968  0.6016  0.6940
 7269SOL    HW233270   3.506   1.600   6.481  1.9312  1.5110 -2.5921
 7270SOL     OW33271   4.504   1.986   8.668  0.1756 -0.0391  0.0556
 7270SOL    HW133272   4.511   2.075   8.701  2.3452  0.0557 -0.6916
 7270SOL    HW233273   4.599   1.976   8.666  0.3511  1.6107  0.7142
 7271SOL     OW33274   0.400   2.964  16.985 -0.5464  0.1593  0.4224
 7271SOL    HW133275   0.321   2.949  17.036 -1.5296 -0.4177 -1.2851
 7271SOL    HW233276   0.373   2.943  16.895  1.7909  1.0501 -0.4946
 7272SOL     OW33277   0.541   0.991   7.979  0.6734 -0.5111 -0.5167
 7272SOL    HW133278   0.569   1.030   7.896 -0.8391  0.2678 -0.6543
 7272SOL    HW233279   0.492   0.913   7.954 -2.6963  1.0923  1.1930
 7273SOL     OW33280   3.470   1.949   4.070  0.1915 -0.2498  0.5588
 7273SOL    HW133281   3.446   1.972   3.980 -0.1558 -0.2122  0.6631
 7273SOL    HW233282   3.389   1.962   4.119 -1.1850  1.0124 -2.0660
 7274SOL     OW33283   1.417   1.927   4.012  0.1355 -0.5649  0.3378
 7274SOL    HW133284   1.419   1.870   3.935  0.2113 -0.4229  0.2342
 7274SOL    HW233285   1.510   1.951   4.017  0.3494 -1.2470 -0.3442
 7275SOL     OW33286   4.032   1.170  11.037  0.0450  0.3022  0.0882
 7275SOL    HW133287   4.076   1.249  11.006 -2.9145  2.5321  1.4828
 7275SOL    HW233288   3.942   1.179  11.006 -0.3994 -3.8994  0.1491
 7276SOL     OW33289   4.333   2.782   4.762  0.0520  0.4073  0.1684
 7276SOL    HW133290   4.247   2.748   4.738  1.7561 -2.6185 -1.7310
 7276SOL    HW233291   4.378   2.784   4.678  1.3451 -1.3994  0.8135
 7277SOL     OW33292   0.534   0.925   3.639  0.0669 -0.0603  0.0658
 7277SOL    HW133293   0.564   0.856   3.580  0.8948 -1.4036  2.0622
 7277SOL    HW233294   0.441   0.910   3.626  0.0414  1.0947 -1.1745
 7278SOL     OW33295   2.542   0.791   8.270  0.4325 -0.7176  0.1472
 7278SOL    HW133296   2.460   0.840   8.275  1.0254  0.1741  1.2919
 7278SOL    HW233297   2.541   0.748   8.356 -1.3624  1.0375  1.0060
 7279SOL     OW33298   2.194   3.378  11.271 -0.3031  0.1509 -0.3421
 7279SOL    HW133299   2.133   3.450  11.256 -0.6550  0.0478  0.5996
 7279SOL    HW233300   2.263   3.395  11.206 -0.7111  0.5165 -0.6766
 7280SOL     OW33301   1.511   2.878   6.971  0.3913 -0.5768 -0.0077
 7280SOL    HW133302   1.505   2.941   7.042  2.2625  1.0767 -1.3097
 7280SOL    HW233303   1.576   2.817   7.004  1.3106  0.7098  0.5702
 7281SOL     OW33304   4.024   0.650   8.942 -0.2071  0.1829 -0.6250
 7281SOL    HW133305   4.114   0.642   8.908  0.2624  0.6494  0.5304
 7281SOL    HW233306   4.007   0.741   8.918 -0.6898  0.5958  1.2982
 7282SOL     OW33307   3.720   3.484  15.584 -0.2732  0.3333  0.1958
 7282SOL    HW133308   3.641   3.452  15.627 -1.2360 -1.8752 -3.2394
 7282SOL    HW233309   3.771   3.496  15.665  1.3077 -1.7126 -0.5008
 7283SOL     OW33310   1.278   0.321  16.481 -0.4510  0.2194 -0.2691
 7283SOL    HW133311   1.345   0.324  16.549  1.8207 -1.7965 -2.4201
 7283SOL    HW233312   1.316   0.259  16.419  0.3026 -1.3963  1.8260
 7284SOL     OW33313   0.229   3.648   9.514  0.1641  0.4759  0.2518
 7284SOL    HW133314   0.140   3.682   9.503 -0.5224 -0.9865  1.3569
 7284SOL    HW233315   0.204   3.561   9.544  1.6517  0.7288  2.1693
 7285SOL     OW33316   0.350   4.501  10.773  0.0068  0.2514  0.5976
 7285SOL    HW133317   0.382   4.456  10.852 -1.1578 -4.6297 -1.7056
 7285SOL    HW233318   0.256   4.500  10.792 -0.0440  1.1910  0.3587
 7286SOL     OW33319   0.171   0.880   8.683  0.2555 -0.1286  0.5243
 7286SOL    HW133320   0.138   0.795   8.656  0.7792  0.0989 -0.8226
 7286SOL    HW233321   0.173   0.930   8.601  0.3209 -1.0976 -0.0575
 7287SOL     OW33322   3.729   2.425   3.380 -0.0709  0.7412 -0.1369
 7287SOL    HW133323   3.782   2.354   3.345 -0.6289 -0.5044  1.5315
 7287SOL    HW233324   3.795   2.483   3.420 -1.3175  1.0474  1.4691
 7288SOL     OW33325   3.184   1.484   3.825 -0.0907 -0.1225  0.3887
 7288SOL    HW133326   3.229   1.492   3.741  0.7512 -1.9421  0.6870
 7288SOL    HW233327   3.121   1.555   3.812  2.4981  2.2797  0.9847
 7289SOL     OW33328   1.393   2.850   0.475  0.4570 -0.2395 -0.0583
 7289SOL    HW133329   1.305   2.843   0.437  1.0213  3.7416 -2.0349
 7289SOL    HW233330   1.394   2.789   0.550 -0.3614 -0.6575 -0.3795
 7290SOL     OW33331   3.085   3.671   2.969  0.3657 -0.7413  0.3792
 7290SOL    HW133332   3.180   3.665   2.962  0.6055  0.2210  3.0839
 7290SOL    HW233333   3.069   3.760   2.939  1.9087 -0.5036  0.2618
 7291SOL     OW33334   0.206   1.438   1.470 -0.2665  0.0731  0.5267
 7291SOL    HW133335   0.170   1.354   1.443  0.6348 -0.2709  0.4151
 7291SOL    HW233336   0.126   1.487   1.490  0.3792  0.9624  0.9351
 7292SOL     OW33337   3.963   4.186   2.786 -0.3455  0.4629 -0.0472
 7292SOL    HW133338   3.923   4.220   2.867 -2.4703  2.3556 -1.8944
 7292SOL    HW233339   3.944   4.259   2.727 -0.3644 -0.3209 -1.0058
 7293SOL     OW33340   2.307   2.824   5.127 -0.5328 -0.1991  0.1940
 7293SOL    HW133341   2.273   2.735   5.118 -0.3168 -0.4374  1.9015
 7293SOL    HW233342   2.228   2.875   5.146  0.7304  1.2214  1.5804
 7294SOL     OW33343   3.907   0.194   5.703  0.4561  0.1388  0.2029
 7294SOL    HW133344   3.933   0.182   5.795 -1.9665  1.3304  1.0458
 7294SOL    HW233345   3.881   0.286   5.700 -0.4188 -0.0983  0.4558
 7295SOL     OW33346   3.424   4.456   0.829 -0.1341  0.0496 -0.3860
 7295SOL    HW133347   3.341   4.412   0.816  0.1744 -0.6348 -0.0549
 7295SOL    HW233348   3.466   4.434   0.913  2.2374  2.9693 -0.7967
 7296SOL     OW33349   0.166   0.077  10.900  0.0727 -0.0953 -0.6495
 7296SOL    HW133350   0.230   0.054  10.967 -2.6185 -0.7214  1.6698
 7296SOL    HW233351   0.201   0.163  10.875 -0.0270  0.0293 -0.3600
 7297SOL     OW33352   1.847   1.653   9.404 -0.2494  0.4187  0.1205
 7297SOL    HW133353   1.900   1.657   9.324  0.8505  0.3126  0.8362
 7297SOL    HW233354   1.875   1.566   9.432 -0.8531 -0.0909 -0.8846
 7298SOL     OW33355   2.461   1.283   3.987 -0.1430  0.2329  0.0606
 7298SOL    HW133356   2.403   1.359   3.992 -2.4311 -1.4933 -0.0706
 7298SOL    HW233357   2.516   1.317   3.916  1.0987  0.6837  1.2642
 7299SOL     OW33358   1.884   1.726   3.619  0.2890 -0.1860 -0.5045
 7299SOL    HW133359   1.828   1.680   3.557 -0.3160 -1.8641  1.2733
 7299SOL    HW233360   1.892   1.654   3.682  2.3585 -0.1775 -0.7663
 7300SOL     OW33361   3.982   4.176   5.795  0.3482  0.6578 -0.1053
 7300SOL    HW133362   3.997   4.268   5.774 -0.2670  0.9504  0.7342
 7300SOL    HW233363   3.925   4.150   5.722  0.2993  2.2373 -0.6440
 7301SOL     OW33364   3.240   4.588  15.146 -0.0747 -0.2518  0.8121
 7301SOL    HW133365   3.169   4.649  15.127  1.1671  0.0859 -2.7912
 7301SOL    HW233366   3.282   4.577  15.061  0.3934  0.5613  0.9364
 7302SOL     OW33367   0.414   3.572  14.516  0.0528  0.5209 -0.4651
 7302SOL    HW133368   0.420   3.578  14.420  1.9513  3.4666 -0.1701
 7302SOL    HW233369   0.499   3.535  14.542  0.3987 -0.2753 -2.7062
 7303SOL     OW33370   2.343   0.116   7.473  0.2019 -0.1331  0.5104
 7303SOL    HW133371   2.270   0.082   7.422  0.4378 -0.7192  0.5623
 7303SOL    HW233372   2.306   0.201   7.497  0.8822  0.1363  0.6230
 7304SOL     OW33373   2.295   0.520  12.655  0.0845 -0.2159 -0.3756
 7304SOL    HW133374   2.360   0.534  12.724 -0.6512 -0.5088  0.3774
 7304SOL    HW233375   2.329   0.442  12.611  1.0521  0.1131 -0.2238
 7305SOL     OW33376   1.464   3.122   6.054  0.7167 -0.7119 -0.2729
 7305SOL    HW133377   1.413   3.056   6.008  2.3395 -1.6754 -0.6676
 7305SOL    HW233378   1.457   3.195   5.993 -1.6777  1.8820  3.0616
 7306SOL     OW33379   2.555   0.020   3.923  0.1072 -0.7329  0.2835
 7306SOL    HW133380   2.530   0.025   4.016 -1.7571  0.0674 -0.2646
 7306SOL    HW233381   2.629   4.682   3.920  1.3660  0.8961 -1.4473
 7307SOL     OW33382   2.392   3.344   3.594  0.3722  0.3001 -0.2219
 7307SOL    HW133383   2.328   3.308   3.532 -0.0152  0.4782  0.0758
 7307SOL    HW233384   2.477   3.314   3.561 -0.4533  0.7042 -2.7583
 7308SOL     OW33385   3.756   2.704   6.823  0.7135 -0.1728  0.0976
 7308SOL    HW133386   3.666   2.673   6.808  0.9498 -1.6662  1.7280
 7308SOL    HW233387   3.803   2.626   6.796 -1.3908 -1.1610 -0.7531
 7309SOL     OW33388   2.370   4.346   4.186 -0.2029  0.3276 -0.3145
 7309SOL    HW133389   2.401   4.324   4.098 -0.0439 -0.8467  0.0276
 7309SOL    HW233390   2.428   4.412   4.225  1.2598  0.3610 -2.5512
 7310SOL     OW33391   1.160   1.242   7.921 -1.0894 -0.0232  0.9343
 7310SOL    HW133392   1.190   1.316   7.973 -0.1551  0.6466 -0.5419
 7310SOL    HW233393   1.131   1.299   7.849  3.2880 -0.0757 -0.8696
 7311SOL     OW33394   3.579   2.187   3.805 -0.3089  0.3393  0.4465
 7311SOL    HW133395   3.599   2.225   3.890 -1.4311  1.6616  0.1193
 7311SOL    HW233396   3.579   2.269   3.755 -1.6532  0.5520  0.7838
 7312SOL     OW33397   1.742   2.421   3.285 -0.4783 -0.2182  0.2066
 7312SOL    HW133398   1.825   2.460   3.315 -0.8916  2.2177 -1.7750
 7312SOL    HW233399   1.682   2.494   3.301  0.2969  0.5360 -0.3290
 7313SOL     OW33400   2.330   1.730   3.756 -0.2288  0.2348  0.5326
 7313SOL    HW133401   2.370   1.817   3.753 -2.5154  1.2654 -0.3037
 7313SOL    HW233402   2.363   1.700   3.840  1.0220 -0.4103 -0.1935
 7314SOL     OW33403   3.028   0.020  12.813  0.2758 -0.2918 -0.2860
 7314SOL    HW133404   3.061   0.090  12.757  1.4042 -0.2683  0.4136
 7314SOL    HW233405   2.982   4.679  12.759  0.5559 -0.1050 -0.7446
 7315SOL     OW33406   4.334   0.553  12.227 -0.4565 -0.3461 -0.6561
 7315SOL    HW133407   4.404   0.597  12.179  0.5133  0.0754  1.1444
 7315SOL    HW233408   4.285   0.624  12.269 -0.1717 -0.2766 -0.4387
 7316SOL     OW33409   2.282   1.611   1.713 -0.3768 -0.2652  0.3251
 7316SOL    HW133410   2.208   1.569   1.669 -1.0179  0.3911  0.7900
 7316SOL    HW233411   2.315   1.665   1.641  0.6546 -1.5573 -0.1895
 7317SOL     OW33412   4.590   2.007  15.671 -0.1054  0.2326  0.2292
 7317SOL    HW133413   4.678   2.019  15.637  0.3517  1.3098  1.8064
 7317SOL    HW233414   4.566   2.099  15.680 -0.1865  0.3043 -0.7098
 7318SOL     OW33415   1.030   4.285  17.057 -0.5312  0.0247  0.1607
 7318SOL    HW133416   1.058   4.194  17.054  1.5288  0.6651  0.1381
 7318SOL    HW233417   0.948   4.278  17.007  0.1515  1.1419 -1.1243
 7319SOL     OW33418   4.648   0.621   5.492 -0.4902 -0.0397 -0.5903
 7319SOL    HW133419   4.555   0.640   5.478 -0.5308 -0.4818 -0.9478
 7319SOL    HW233420   4.694   0.686   5.439  0.2858  0.0737  0.2401
 7320SOL     OW33421   4.531   2.254   2.320  0.1424 -0.4389 -0.2287
 7320SOL    HW133422   4.606   2.236   2.376 -0.6502  0.4600  1.1143
 7320SOL    HW233423   4.563   2.233   2.232  2.5454 -2.0830  1.0506
 7321SOL     OW33424   3.587   4.648   7.882  0.4885 -0.2218  0.4521
 7321SOL    HW133425   3.511   4.598   7.913 -0.8202  1.4763 -0.0126
 7321SOL    HW233426   3.619   4.671   7.969  1.1929 -0.6524  0.3096
 7322SOL     OW33427   2.087   2.368   9.431  0.2390 -0.1480  0.0423
 7322SOL    HW133428   2.178   2.342   9.419  0.7207  1.6484 -0.1564
 7322SOL    HW233429   2.039   2.296   9.388 -1.6469  1.3610 -0.3938
 7323SOL     OW33430   3.917   1.282   6.336 -0.3126 -0.1462 -0.3036
 7323SOL    HW133431   3.997   1.273   6.284  0.3195 -1.8356  0.9815
 7323SOL    HW233432   3.911   1.378   6.338 -2.0087 -0.2778  0.6185
 7324SOL     OW33433   2.992   0.836   9.225  0.2051  0.0098 -0.1423
 7324SOL    HW133434   2.980   0.749   9.262  1.6101 -0.3078 -0.4045
 7324SOL    HW233435   2.937   0.834   9.147  1.1592 -2.4169 -0.7512
 7325SOL     OW33436   0.002   4.675   9.370  0.3145  0.2422  0.4825
 7325SOL    HW133437   0.038   0.021   9.314 -1.6335  0.3258 -0.6371
 7325SOL    HW233438   0.023   4.595   9.322 -0.6712 -0.9383  2.0294
 7326SOL     OW33439   0.040   2.923   1.680  0.0313 -0.3085  0.2777
 7326SOL    HW133440   0.108   2.980   1.716 -0.7201  1.7030 -1.4321
 7326SOL    HW233441   0.028   2.955   1.590  3.0619  0.7172  0.2378
 7327SOL     OW33442   4.242   2.299   9.109  0.1501 -0.9833 -0.4725
 7327SOL    HW133443   4.286   2.374   9.069 -0.6628 -0.4841 -0.4342
 7327SOL    HW233444   4.160   2.344   9.130 -0.4714 -2.1464 -0.4324
 7328SOL     OW33445   0.952   3.697  17.507 -0.4128 -0.1033  0.2251
 7328SOL    HW133446   0.933   3.696  17.601  0.3387  0.6357  0.3838
 7328SOL    HW233447   0.866   3.732  17.484 -1.3899 -1.9772  1.0168
 7329SOL     OW33448   2.465   4.103   8.436  0.3684 -0.1848 -1.1058
 7329SOL    HW133449   2.548   4.063   8.459 -1.0787 -1.4253  2.0177
 7329SOL    HW233450   2.436   4.061   8.355 -1.6574 -0.2207 -0.3619
 7330SOL     OW33451   3.715   3.495   3.164 -0.1094 -0.3219  0.2734
 7330SOL    HW133452   3.722   3.403   3.190  0.0460 -0.4952 -0.3720
 7330SOL    HW233453   3.805   3.525   3.170 -0.5613  0.7904  1.3419
 7331SOL     OW33454   1.224   4.348   0.246 -0.5176 -0.3677 -0.2733
 7331SOL    HW133455   1.147   4.384   0.204 -1.7940 -1.4009  1.1831
 7331SOL    HW233456   1.296   4.369   0.187 -0.4957  2.5758  0.7919
 7332SOL     OW33457   2.033   2.312   4.028  0.6457 -0.2576  0.1169
 7332SOL    HW133458   2.026   2.218   4.049  2.0917 -0.5863 -0.8731
 7332SOL    HW233459   2.106   2.314   3.965  0.7311 -0.4719  0.2063
 7333SOL     OW33460   0.468   2.471   5.462  0.2317 -0.1783  0.0042
 7333SOL    HW133461   0.496   2.468   5.371  1.2133 -0.3288  0.3036
 7333SOL    HW233462   0.545   2.437   5.508  0.3964 -1.6120 -1.3335
 7334SOL     OW33463   0.250   4.082  11.277 -0.5355 -0.9777  1.0951
 7334SOL    HW133464   0.168   4.116  11.241  0.3428 -0.5837 -0.5226
 7334SOL    HW233465   0.225   4.045  11.361 -0.0168  0.3136  1.8109
 7335SOL     OW33466   1.817   3.637   7.605 -0.3993 -0.3637 -0.6828
 7335SOL    HW133467   1.797   3.657   7.696 -1.0022  1.0739 -1.1342
 7335SOL    HW233468   1.771   3.555   7.588  1.1697 -1.0840 -1.4384
 7336SOL     OW33469   0.948   0.147   7.224  0.1367 -0.2970 -0.0453
 7336SOL    HW133470   1.004   0.224   7.234 -0.5972  0.5125 -2.0469
 7336SOL    HW233471   0.985   0.110   7.144  1.2126  1.1096 -0.1992
 7337SOL     OW33472   0.283   1.033   3.682  0.2624  0.3827 -0.3259
 7337SOL    HW133473   0.238   1.007   3.762 -0.2737  0.9684 -0.4377
 7337SOL    HW233474   0.222   1.082   3.627 -1.1335 -0.3490  0.5722
 7338SOL     OW33475   1.079   4.489   5.694  0.6499 -0.2875 -0.2541
 7338SOL    HW133476   1.016   4.550   5.734  2.2193  1.0425  0.1801
 7338SOL    HW233477   1.032   4.477   5.612 -2.1083  1.3450  1.0690
 7339SOL     OW33478   4.359   2.414   1.966 -0.2769  0.0152  0.1399
 7339SOL    HW133479   4.274   2.430   2.006 -0.1979  1.6789 -0.3624
 7339SOL    HW233480   4.426   2.434   2.032  0.2495 -0.1747 -0.3333
 7340SOL     OW33481   3.604   2.777   1.332 -0.2428  0.2675  0.1332
 7340SOL    HW133482   3.616   2.854   1.387 -1.9936  0.9143 -0.3963
 7340SOL    HW233483   3.570   2.712   1.393  1.7537  0.3933  1.3915
 7341SOL     OW33484   2.014   3.365   0.192 -0.3956  0.0318  0.4381
 7341SOL    HW133485   2.036   3.456   0.174  1.2158 -0.4787 -0.1916
 7341SOL    HW233486   1.930   3.350   0.149 -0.4057  0.7206  0.2277
 7342SOL     OW33487   1.168   0.216   4.337 -0.5574  0.7437 -0.8566
 7342SOL    HW133488   1.107   0.184   4.271 -0.8732  0.9265 -0.6567
 7342SOL    HW233489   1.254   0.221   4.296 -0.0356  0.2104  0.1798
 7343SOL     OW33490   1.438   1.405   8.248  0.5918 -0.0164  0.0101
 7343SOL    HW133491   1.370   1.388   8.314  1.2550 -2.3176  0.1161
 7343SOL    HW233492   1.481   1.320   8.263  0.1272 -0.0939  0.9007
 7344SOL     OW33493   1.747   0.362   6.282  0.4247  0.0927  0.1641
 7344SOL    HW133494   1.670   0.394   6.328 -0.0712  0.2757 -0.7755
 7344SOL    HW233495   1.816   0.399   6.336 -0.1242  1.0375  0.2247
 7345SOL     OW33496   1.575   3.440   3.087 -0.3336 -0.0647  0.5945
 7345SOL    HW133497   1.619   3.355   3.077 -2.6286 -1.1459 -0.3648
 7345SOL    HW233498   1.549   3.457   2.997  0.9296  0.5773  0.3618
 7346SOL     OW33499   3.393   0.657   8.881 -0.2023  0.6139  0.5464
 7346SOL    HW133500   3.383   0.561   8.880  0.3583  0.6357 -4.1635
 7346SOL    HW233501   3.487   0.653   8.894 -0.1571  1.1398  0.3829
 7347SOL     OW33502   2.919   2.615  16.940  0.7638 -0.2163  0.3684
 7347SOL    HW133503   2.925   2.697  16.988  2.0642 -1.0627  1.6665
 7347SOL    HW233504   2.987   2.632  16.875 -1.0546 -0.2441 -1.5383
 7348SOL     OW33505   3.451   3.497   3.994  0.3284 -0.2804  0.2847
 7348SOL    HW133506   3.414   3.584   3.984  0.5459 -0.5783 -3.0931
 7348SOL    HW233507   3.371   3.454   4.025 -1.6127  2.3680 -1.0584
 7349SOL     OW33508   4.696   1.575  15.806  0.4014 -0.7236  0.7878
 7349SOL    HW133509   4.649   1.659  15.805  1.0935 -0.3494 -1.0789
 7349SOL    HW233510   4.624   1.517  15.780  0.5920 -1.8210  2.7818
 7350SOL     OW33511   0.098   0.364   6.000 -0.3811  0.1875  0.6519
 7350SOL    HW133512   0.121   0.457   5.988 -0.1822  0.4220  2.8074
 7350SOL    HW233513   0.097   0.336   5.909 -0.0281 -1.5529  1.1924
 7351SOL     OW33514   2.390   2.056   0.470  0.1037 -0.2911 -0.1275
 7351SOL    HW133515   2.366   2.055   0.378 -3.7149  2.0595  0.8389
 7351SOL    HW233516   2.434   1.972   0.487  0.6891  0.2125  0.8471
 7352SOL     OW33517   1.789   1.042   8.176  0.0550 -0.4770 -0.2113
 7352SOL    HW133518   1.808   1.091   8.256  0.8708 -1.3843  0.1619
 7352SOL    HW233519   1.868   1.068   8.128  1.1772 -2.2541  0.6416
 7353SOL     OW33520   1.167   2.017  10.318 -0.1675 -0.0295  0.1705
 7353SOL    HW133521   1.222   2.000  10.395  1.8458  1.3348 -0.9607
 7353SOL    HW233522   1.085   1.981  10.351  0.2251 -0.9129  0.1930
 7354SOL     OW33523   1.366   3.767  11.196 -0.1070  0.7823 -0.3395
 7354SOL    HW133524   1.393   3.778  11.288  0.8991  1.5640 -0.7299
 7354SOL    HW233525   1.450   3.745  11.156 -0.2142  4.2655 -2.4545
 7355SOL     OW33526   2.452   2.598  12.767  0.1193 -0.2515  0.2079
 7355SOL    HW133527   2.423   2.680  12.727 -0.4227 -0.8930 -0.7038
 7355SOL    HW233528   2.381   2.573  12.826  1.4306  2.1573  2.7781
 7356SOL     OW33529   1.682   3.524   3.801  0.0468 -0.1163  0.4947
 7356SOL    HW133530   1.705   3.507   3.892 -0.5980  1.5180  0.9485
 7356SOL    HW233531   1.586   3.520   3.797  0.0679 -0.0212 -0.2073
 7357SOL     OW33532   2.369   2.889   4.153  0.3598 -0.3139 -0.2262
 7357SOL    HW133533   2.345   2.850   4.069  2.1355  1.1269 -1.4049
 7357SOL    HW233534   2.459   2.915   4.135  0.5365 -1.3935 -0.8735
 7358SOL     OW33535   3.055   2.852   3.488 -0.3259 -0.6738  0.0697
 7358SOL    HW133536   3.060   2.758   3.470  1.3857 -0.4878 -0.4618
 7358SOL    HW233537   3.033   2.877   3.399  2.3266 -0.4639 -0.5238
 7359SOL     OW33538   0.824   3.588   2.826 -0.2033 -0.4190 -0.5153
 7359SOL    HW133539   0.794   3.553   2.742  0.0187  0.5880 -1.0028
 7359SOL    HW233540   0.826   3.682   2.811  4.2190 -0.3226  0.9018
 7360SOL     OW33541   2.850   0.660   8.733 -0.1808 -0.4751  0.3057
 7360SOL    HW133542   2.884   0.653   8.822  0.5380 -0.1455  0.0533
 7360SOL    HW233543   2.761   0.626   8.739  0.0272 -1.2870 -1.1848
 7361SOL     OW33544   2.887   2.751   8.159  0.1219  0.0889  0.1355
 7361SOL    HW133545   2.951   2.711   8.218 -1.0705  1.3026  2.2398
 7361SOL    HW233546   2.811   2.696   8.176 -0.6855  0.5030 -2.0992
 7362SOL     OW33547   0.090   2.921   4.092  0.2477 -0.0307  0.5010
 7362SOL    HW133548   0.094   2.867   4.171  1.7105 -0.1415  0.3482
 7362SOL    HW233549   4.720   2.944   4.090  0.7271  2.1000  3.3845
 7363SOL     OW33550   0.006   4.180   9.982 -0.1899 -0.2447  0.0549
 7363SOL    HW133551   4.705   4.250   9.922  0.2536 -1.0624 -1.0620
 7363SOL    HW233552   4.703   4.100   9.937 -0.4199  0.1356 -0.4916
 7364SOL     OW33553   0.470   4.028   2.423 -0.1127  0.2164 -0.4897
 7364SOL    HW133554   0.446   3.936   2.424 -1.6447  0.6026 -1.2705
 7364SOL    HW233555   0.425   4.062   2.345 -0.0684  2.2480  0.3559
 7365SOL     OW33556   3.288   2.622  14.758  0.0746 -1.0392 -0.3948
 7365SOL    HW133557   3.336   2.695  14.795 -1.6824 -0.3468  0.5340
 7365SOL    HW233558   3.200   2.633  14.794  0.4674  2.3108 -0.4393
 7366SOL     OW33559   3.490   2.656   5.051 -0.0321  0.2942 -0.3081
 7366SOL    HW133560   3.497   2.561   5.065 -0.9272  0.0738 -1.2788
 7366SOL    HW233561   3.396   2.668   5.034 -0.1253  0.1177  0.0729
 7367SOL     OW33562   2.368   1.358   9.189 -0.4953 -1.0237 -0.4804
 7367SOL    HW133563   2.352   1.390   9.100  0.6381  2.2995  0.5156
 7367SOL    HW233564   2.376   1.439   9.239  0.0833  0.2215 -2.5875
 7368SOL     OW33565   3.875   2.471   6.739 -0.6454 -0.6084  0.6300
 7368SOL    HW133566   3.916   2.457   6.824  1.2915  3.1501  0.2713
 7368SOL    HW233567   3.951   2.470   6.681 -0.4384 -0.6016  0.9026
 7369SOL     OW33568   0.613   2.588   5.772  0.0315 -0.0566  0.1999
 7369SOL    HW133569   0.618   2.536   5.691  1.6126  0.2729  0.0771
 7369SOL    HW233570   0.636   2.679   5.752 -0.4669 -0.3430 -1.6380
 7370SOL     OW33571   2.884   0.648   3.162 -0.7808  0.4331  0.5411
 7370SOL    HW133572   2.926   0.606   3.237 -0.9517  0.9329  0.9116
 7370SOL    HW233573   2.831   0.572   3.137  2.1353 -0.5004 -2.7187
 7371SOL     OW33574   1.598   4.651  10.132  0.0706 -0.3260 -0.2662
 7371SOL    HW133575   1.529   4.654  10.197  0.6175 -0.6734  0.3300
 7371SOL    HW233576   1.671   4.673  10.190 -1.1065  1.5847  0.4861
 7372SOL     OW33577   1.985   4.128   4.126  0.6550 -0.8063 -0.3250
 7372SOL    HW133578   2.065   4.122   4.177  1.4772 -0.6786 -1.5956
 7372SOL    HW233579   2.018   4.107   4.039 -0.3651 -0.2809 -0.8422
 7373SOL     OW33580   1.645   4.410   0.636  0.4577  0.3672  0.0647
 7373SOL    HW133581   1.603   4.396   0.721  1.1259  1.5536  0.6013
 7373SOL    HW233582   1.640   4.504   0.620 -0.1929  0.2322 -0.5052
 7374SOL     OW33583   2.232   4.107   4.235  0.1082 -0.2666 -0.1654
 7374SOL    HW133584   2.275   4.193   4.229  1.2218 -0.7041  1.6462
 7374SOL    HW233585   2.302   4.042   4.233  1.1067  0.7831  0.2802
 7375SOL     OW33586   0.442   2.824   7.607 -0.7047 -0.3606  0.2345
 7375SOL    HW133587   0.440   2.904   7.554 -0.8502 -0.7303 -0.3208
 7375SOL    HW233588   0.528   2.783   7.598 -0.4855  0.3652 -0.9194
 7376SOL     OW33589   1.470   0.299   3.810 -0.4041 -0.6567  0.2593
 7376SOL    HW133590   1.450   0.375   3.865  1.3992  0.5068 -0.7364
 7376SOL    HW233591   1.491   0.241   3.884  0.7656 -0.6205 -0.0481
 7377SOL     OW33592   4.214   3.993   7.750 -0.0183 -0.2066  0.1944
 7377SOL    HW133593   4.303   3.969   7.775 -0.2699 -0.7060  0.6009
 7377SOL    HW233594   4.212   4.078   7.796  1.4453 -0.7033  1.1917
 7378SOL     OW33595   0.582   2.938   2.524  0.3091  0.0578  0.8032
 7378SOL    HW133596   0.660   2.888   2.547  1.2864  1.4414  0.5388
 7378SOL    HW233597   0.567   2.886   2.444  0.1597 -1.2259  1.6709
 7379SOL     OW33598   1.037   2.033   1.782 -0.0007 -0.1532 -0.2895
 7379SOL    HW133599   1.064   2.101   1.844  1.1240 -1.2911  0.4704
 7379SOL    HW233600   1.004   2.095   1.717 -0.4194  1.9328  1.8852
 7380SOL     OW33601   0.884   3.773  16.116 -0.2875 -0.4482 -0.1110
 7380SOL    HW133602   0.847   3.823  16.188  1.3018  0.8259 -0.1920
 7380SOL    HW233603   0.858   3.823  16.038 -0.8718  2.2509  1.8364
 7381SOL     OW33604   1.200   2.611   6.355 -0.0995 -0.9061  0.0322
 7381SOL    HW133605   1.252   2.544   6.399 -0.8497 -0.9744  0.8206
 7381SOL    HW233606   1.115   2.607   6.399 -0.0950 -2.3729 -0.1020
 7382SOL     OW33607   3.972   1.372  15.545  0.4221 -0.1057  0.4912
 7382SOL    HW133608   3.931   1.292  15.578 -0.0997 -0.3941 -0.8426
 7382SOL    HW233609   4.057   1.335  15.521  0.5668  0.4645  0.1339
 7383SOL     OW33610   4.075   0.363   6.211  0.0113  0.0966  0.1014
 7383SOL    HW133611   4.124   0.322   6.283 -0.6430 -0.6413  0.1341
 7383SOL    HW233612   3.996   0.388   6.258 -0.9298 -0.5250 -1.1571
 7384SOL     OW33613   2.167   2.522   4.177 -0.4044 -0.4125  0.0176
 7384SOL    HW133614   2.141   2.500   4.087  2.5626 -2.0503 -0.4234
 7384SOL    HW233615   2.128   2.446   4.220 -3.4505  0.4142 -1.2604
 7385SOL     OW33616   1.114   4.633   3.492 -0.2982  0.1075 -0.0997
 7385SOL    HW133617   1.159   4.549   3.483 -0.2958 -0.2130  2.7442
 7385SOL    HW233618   1.088   4.644   3.401  2.4584 -2.5640 -1.2323
 7386SOL     OW33619   2.916   1.977   4.175 -0.0193  0.2287  0.3535
 7386SOL    HW133620   2.906   1.996   4.082 -3.3364 -1.4490  0.3682
 7386SOL    HW233621   2.841   2.023   4.214 -0.0469  0.3210  0.1883
 7387SOL     OW33622   0.329   2.293   3.025  0.1236  0.1328  0.0346
 7387SOL    HW133623   0.397   2.356   3.046 -1.1790  1.2372  0.9282
 7387SOL    HW233624   0.364   2.214   3.066 -0.1946  0.7264  1.4518
 7388SOL     OW33625   3.199   2.626   1.632  0.6674  0.3194 -0.3424
 7388SOL    HW133626   3.166   2.614   1.722  0.6325 -2.1833 -0.6840
 7388SOL    HW233627   3.221   2.535   1.612  0.4172 -0.2036  1.6923
 7389SOL     OW33628   1.894   1.834   0.806  0.5882 -0.4403 -0.0026
 7389SOL    HW133629   1.933   1.920   0.788  1.4332 -0.7526  0.2941
 7389SOL    HW233630   1.802   1.858   0.799  0.3668 -1.5041 -0.7177
 7390SOL     OW33631   0.991   0.825  13.424 -0.2392  0.7918 -0.5462
 7390SOL    HW133632   1.027   0.856  13.341  0.5056 -0.6977 -0.7747
 7390SOL    HW233633   1.060   0.845  13.488 -0.3691  0.5880 -0.3440
 7391SOL     OW33634   2.499   3.495   4.371 -0.1906 -0.1154 -0.4618
 7391SOL    HW133635   2.427   3.433   4.377 -0.2281 -0.1652 -1.4259
 7391SOL    HW233636   2.451   3.572   4.401  0.2516  0.1170 -0.3435
 7392SOL     OW33637   0.198   0.004   1.597  0.3654  0.0369  0.1409
 7392SOL    HW133638   0.126   0.048   1.643 -0.7635 -2.1322  0.4660
 7392SOL    HW233639   0.211   0.069   1.528 -0.4993 -0.5635 -0.5925
 7393SOL     OW33640   0.470   1.263   6.679  0.3368  0.2508  0.0134
 7393SOL    HW133641   0.462   1.185   6.625 -0.8981 -0.9478  1.9330
 7393SOL    HW233642   0.531   1.234   6.746  2.8721  0.1089 -2.3399
 7394SOL     OW33643   2.136   4.167  11.622 -0.8419 -0.5748 -0.1944
 7394SOL    HW133644   2.086   4.183  11.702 -0.6566 -2.8427  0.3866
 7394SOL    HW233645   2.218   4.177  11.669 -0.9099  0.7400 -0.3490
 7395SOL     OW33646   4.575   2.673   3.658 -0.2572  0.6444 -0.0416
 7395SOL    HW133647   4.631   2.709   3.726  1.2959 -0.9200 -0.5065
 7395SOL    HW233648   4.500   2.730   3.675 -1.9622 -0.7716 -2.9183
 7396SOL     OW33649   0.147   1.999   1.738  1.0861 -0.5337 -0.7066
 7396SOL    HW133650   0.180   1.942   1.807 -1.0782 -1.0350 -0.0761
 7396SOL    HW233651   0.124   1.929   1.676  1.4042  0.8245 -2.3629
 7397SOL     OW33652   1.476   3.149  12.361 -0.3043 -0.4279  0.5771
 7397SOL    HW133653   1.531   3.142  12.440  0.7202  0.8402 -0.0240
 7397SOL    HW233654   1.486   3.241  12.340  0.2561 -0.0065  2.6912
 7398SOL     OW33655   3.843   2.368   2.250  0.0430 -0.6251 -0.0469
 7398SOL    HW133656   3.777   2.374   2.181 -0.3297  0.3091  0.3895
 7398SOL    HW233657   3.807   2.425   2.318  0.1369  0.4361 -0.8982
 7399SOL     OW33658   3.550   0.616  16.738  0.1838 -0.1923 -0.7078
 7399SOL    HW133659   3.527   0.692  16.684 -0.3383 -1.3512 -2.1270
 7399SOL    HW233660   3.588   0.557  16.673 -0.1106 -0.2931 -0.7897
 7400SOL     OW33661   0.560   1.604  16.662  0.3128  0.4515  0.2400
 7400SOL    HW133662   0.498   1.668  16.627 -0.7736  0.0914  1.5091
 7400SOL    HW233663   0.514   1.520  16.667  2.9542 -1.0754 -1.3037
 7401SOL     OW33664   0.538   3.546   0.109 -0.6471 -0.1880 -0.0979
 7401SOL    HW133665   0.483   3.609   0.156  1.6755  1.1608  0.7950
 7401SOL    HW233666   0.622   3.549   0.154 -0.1125 -3.0503 -0.9097
 7402SOL     OW33667   1.526   2.453   7.835 -0.4117  0.0693 -0.0082
 7402SOL    HW133668   1.580   2.529   7.853 -0.9201  0.4527 -0.0991
 7402SOL    HW233669   1.584   2.386   7.872 -2.0949 -2.1354 -1.2712
 7403SOL     OW33670   3.107   3.389   5.779 -0.4268  0.0650  0.2614
 7403SOL    HW133671   3.106   3.296   5.755 -3.7537 -0.4598  2.3851
 7403SOL    HW233672   3.190   3.400   5.825  0.5756 -1.6224 -1.1501
 7404SOL     OW33673   3.960   3.874   1.194 -0.1145 -0.2539 -0.3962
 7404SOL    HW133674   3.917   3.898   1.276  0.0456  0.4844 -0.5326
 7404SOL    HW233675   3.891   3.904   1.136  0.2781  2.5909  0.5879
 7405SOL     OW33676   2.115   4.079   3.151 -0.4004 -0.0136 -0.3626
 7405SOL    HW133677   2.116   4.052   3.243  0.0349 -0.0341 -0.3719
 7405SOL    HW233678   2.173   4.018   3.104 -0.7148 -0.4907 -0.1344
 7406SOL     OW33679   3.052   3.535  16.056 -0.3198 -0.3122 -0.3327
 7406SOL    HW133680   2.985   3.543  15.988  1.4725  0.0330 -2.0761
 7406SOL    HW233681   3.027   3.600  16.123 -0.7013 -1.8406  0.9971
 7407SOL     OW33682   0.284   2.905   7.818  0.7031 -0.1987 -0.5594
 7407SOL    HW133683   0.363   2.882   7.769  1.5084  0.0467  0.6208
 7407SOL    HW233684   0.275   2.998   7.799 -1.5662  0.2665  2.7827
 7408SOL     OW33685   0.474   0.585  11.955  0.2748 -0.3661 -0.0042
 7408SOL    HW133686   0.422   0.587  12.035  1.4476 -1.9681  0.7798
 7408SOL    HW233687   0.546   0.532  11.989 -0.9064 -0.7510  1.8989
 7409SOL     OW33688   1.734   3.867  13.321  0.8243 -0.0704 -0.0133
 7409SOL    HW133689   1.788   3.902  13.391  0.0183 -0.2583  0.7070
 7409SOL    HW233690   1.656   3.838  13.368  0.3359  1.8411  0.3435
 7410SOL     OW33691   2.832   4.309  16.957  0.4138 -0.0319  0.5753
 7410SOL    HW133692   2.883   4.390  16.967 -1.1529  1.0179  0.0686
 7410SOL    HW233693   2.786   4.313  17.040 -1.9623 -0.0921 -0.7305
 7411SOL     OW33694   0.233   4.474   1.851 -0.3791  0.1480 -0.2652
 7411SOL    HW133695   0.191   4.501   1.932  0.8315  0.0615  0.3899
 7411SOL    HW233696   0.322   4.476   1.885 -1.1477  2.8439  1.6047
 7412SOL     OW33697   3.972   1.629   2.195 -0.9420 -0.3759  0.3030
 7412SOL    HW133698   4.020   1.587   2.123  0.4576  1.5246  0.1330
 7412SOL    HW233699   3.938   1.555   2.245 -1.2033 -0.9821 -0.7720
 7413SOL     OW33700   0.354   0.719  15.146  0.2886 -0.1202 -0.1298
 7413SOL    HW133701   0.273   0.758  15.177 -1.5597 -1.8518 -2.7964
 7413SOL    HW233702   0.332   0.701  15.055 -1.7768 -1.2684  0.5968
 7414SOL     OW33703   4.420   4.174   9.473  0.0999 -0.0360 -0.0476
 7414SOL    HW133704   4.425   4.128   9.557  1.7531  0.8400  0.3440
 7414SOL    HW233705   4.330   4.205   9.480 -0.1462 -0.7583 -0.0696
 7415SOL     OW33706   3.310   0.185   6.020  0.0615 -0.0060  0.1276
 7415SOL    HW133707   3.299   0.095   5.993 -2.1410  0.1591  0.4960
 7415SOL    HW233708   3.307   0.232   5.937 -1.1849  1.4170  0.9569
 7416SOL     OW33709   0.593   1.983   7.508  0.0666 -0.8182  0.0255
 7416SOL    HW133710   0.613   1.890   7.513 -2.5093 -1.4177 -1.1735
 7416SOL    HW233711   0.589   2.011   7.600  0.6545  1.2283 -0.5664
 7417SOL     OW33712   0.653   3.517   8.762 -0.0893 -0.1922  0.3744
 7417SOL    HW133713   0.567   3.557   8.777 -0.6027 -1.1955  0.0823
 7417SOL    HW233714   0.714   3.591   8.761  0.1320 -0.3748  0.5477
 7418SOL     OW33715   0.800   4.538   7.448 -0.5539  0.5516  0.2035
 7418SOL    HW133716   0.712   4.532   7.487 -0.4980 -0.8063  0.1306
 7418SOL    HW233717   0.856   4.518   7.523  0.1091 -1.4385 -0.8235
 7419SOL     OW33718   1.294   0.618  10.382  0.5583 -0.0232  0.2843
 7419SOL    HW133719   1.256   0.535  10.411  3.6236 -0.9757  1.5889
 7419SOL    HW233720   1.291   0.614  10.287 -2.9428 -0.2123  0.4091
 7420SOL     OW33721   4.346   4.445  17.031  0.3438  0.1618  0.3528
 7420SOL    HW133722   4.419   4.386  17.013  0.0249  0.1596 -0.8903
 7420SOL    HW233723   4.327   4.402  17.115 -2.9378 -1.9284 -1.4694
 7421SOL     OW33724   0.172   0.435   4.124  1.0234 -0.2415 -0.8709
 7421SOL    HW133725   0.135   0.474   4.044 -1.2111  0.0578  0.3161
 7421SOL    HW233726   0.217   0.509   4.163 -0.4122 -0.3166  0.8933
 7422SOL     OW33727   1.913   2.987   3.522  0.2822 -0.1497 -0.2417
 7422SOL    HW133728   1.969   2.909   3.517 -0.9010 -1.0135 -0.2145
 7422SOL    HW233729   1.945   3.020   3.606 -1.2079 -2.6506  1.3332
 7423SOL     OW33730   1.012   2.009   8.121 -0.0950  0.3723 -0.1253
 7423SOL    HW133731   1.019   2.086   8.178 -1.7219  0.9950 -0.7966
 7423SOL    HW233732   0.944   1.962   8.169  1.1954 -1.5495 -0.1841
 7424SOL     OW33733   3.890   2.668   5.160 -0.2817 -0.2862 -0.1939
 7424SOL    HW133734   3.863   2.747   5.112 -1.2339  0.3204  1.3311
 7424SOL    HW233735   3.805   2.631   5.183 -0.4023 -0.5564 -1.0657
 7425SOL     OW33736   1.856   2.409   0.476 -0.4077  0.0653 -0.0235
 7425SOL    HW133737   1.761   2.419   0.465 -0.7979 -0.5059  2.6988
 7425SOL    HW233738   1.853   2.322   0.515  1.2220  0.3418  0.7189
 7426SOL     OW33739   3.264   3.231   6.916 -0.1652 -0.3986  0.1909
 7426SOL    HW133740   3.329   3.294   6.884 -1.5398  1.2405  0.5921
 7426SOL    HW233741   3.202   3.291   6.958 -1.4161 -1.6898  0.1880
 7427SOL     OW33742   0.617   2.148   8.511  0.0551  0.3788 -0.4204
 7427SOL    HW133743   0.540   2.147   8.568  0.8362  0.7940  0.6482
 7427SOL    HW233744   0.643   2.239   8.520  0.3544  0.4646 -2.2449
 7428SOL     OW33745   2.603   0.511   8.711 -0.5791 -0.2242  0.4066
 7428SOL    HW133746   2.567   0.442   8.767  1.6061 -1.3257  0.4613
 7428SOL    HW233747   2.662   0.458   8.656 -0.0922  2.6352 -1.7765
 7429SOL     OW33748   1.756   2.242   7.879  0.3746  0.1106  0.0463
 7429SOL    HW133749   1.747   2.188   7.957  0.0721  2.0058  1.3196
 7429SOL    HW233750   1.852   2.239   7.873  0.5236  1.0607  1.9968
 7430SOL     OW33751   4.396   1.100   9.684  0.1161  0.7406 -0.6911
 7430SOL    HW133752   4.466   1.088   9.748 -1.3312  0.3387  0.8383
 7430SOL    HW233753   4.323   1.146   9.728 -0.8718  0.4682 -2.0549
 7431SOL     OW33754   0.007   0.011   6.924  0.0930  0.2256  0.1689
 7431SOL    HW133755   4.640   0.002   6.955 -0.5681  0.8859 -1.5908
 7431SOL    HW233756   0.063   0.029   7.000  0.4631  0.0812 -0.0657
 7432SOL     OW33757   3.296   1.233   8.653 -0.6298  0.1802 -0.4273
 7432SOL    HW133758   3.211   1.218   8.695 -0.0387 -1.1001  0.2900
 7432SOL    HW233759   3.345   1.177   8.713 -1.2620 -2.8650 -2.8014
 7433SOL     OW33760   4.256   2.953   0.651 -0.1364 -0.0737  0.2635
 7433SOL    HW133761   4.249   2.876   0.595  1.2969 -0.4523  0.6125
 7433SOL    HW233762   4.320   2.926   0.717  1.2720 -0.0490 -1.1033
 7434SOL     OW33763   0.497   0.788  14.532 -0.3619  0.2455  1.0159
 7434SOL    HW133764   0.568   0.726  14.513 -0.9779 -0.1267 -0.0766
 7434SOL    HW233765   0.482   0.773  14.625  1.0217 -0.2324  1.1592
 7435SOL     OW33766   2.324   0.833   4.824  0.1051  0.0697  0.4801
 7435SOL    HW133767   2.386   0.773   4.781 -0.1954 -0.5778  0.9538
 7435SOL    HW233768   2.373   0.915   4.827  0.2362  0.0308 -0.4452
 7436SOL     OW33769   1.521   1.971   6.551  0.0116  0.6349 -0.4037
 7436SOL    HW133770   1.549   2.046   6.500  1.2315  0.2554 -0.3075
 7436SOL    HW233771   1.442   1.948   6.503  0.2911  0.6424 -0.8661
 7437SOL     OW33772   4.135   0.366  17.211  0.0233 -0.1771  0.5100
 7437SOL    HW133773   4.223   0.373  17.248  0.7549 -0.1810 -1.2135
 7437SOL    HW233774   4.153   0.291  17.154 -1.2837 -1.5515  1.8726
 7438SOL     OW33775   3.101   2.960  12.785 -0.2573 -0.1264  0.0941
 7438SOL    HW133776   3.069   3.048  12.804 -0.5106 -0.1883 -0.0403
 7438SOL    HW233777   3.069   2.957  12.695  1.8060 -0.2963 -0.6275
 7439SOL     OW33778   2.830   0.952   0.837  0.5687 -0.1252 -0.9006
 7439SOL    HW133779   2.788   0.868   0.853  0.0241  0.6195  1.5360
 7439SOL    HW233780   2.760   1.009   0.805  1.7576  0.7915 -1.8873
 7440SOL     OW33781   0.353   4.696   5.206  0.0329 -0.1337 -0.3045
 7440SOL    HW133782   0.364   4.620   5.149  2.1564  0.2355 -0.3849
 7440SOL    HW233783   0.430   0.030   5.202 -1.6521  2.1660 -0.1140
 7441SOL     OW33784   2.777   0.987   4.430  0.0066  0.1631  0.8421
 7441SOL    HW133785   2.710   0.986   4.497  0.8220  1.3176  1.6736
 7441SOL    HW233786   2.802   0.895   4.437  0.3482  0.1072 -0.9587
 7442SOL     OW33787   1.878   4.566   4.563  0.2187  0.0266  0.5156
 7442SOL    HW133788   1.909   4.506   4.631  1.2261  1.3032  1.1832
 7442SOL    HW233789   1.960   4.574   4.514 -1.0604  0.9776 -1.4860
 7443SOL     OW33790   0.945   4.051  10.168 -0.5731 -0.0706 -0.4539
 7443SOL    HW133791   0.922   4.058  10.261 -2.3490 -0.6142 -0.8608
 7443SOL    HW233792   0.986   4.134  10.143  0.3670 -0.2296  0.5349
 7444SOL     OW33793   0.760   0.146  10.778  0.3194  0.3500  0.2006
 7444SOL    HW133794   0.687   0.208  10.772 -1.2024 -1.3344  0.9165
 7444SOL    HW233795   0.827   0.200  10.819 -1.5081  2.1547  0.8315
 7445SOL     OW33796   1.638   2.284  14.917 -0.0788 -0.3104  0.3793
 7445SOL    HW133797   1.593   2.334  14.985 -0.1587  2.1374 -1.4790
 7445SOL    HW233798   1.728   2.290  14.951 -1.1315  0.2736  3.0901
 7446SOL     OW33799   3.349   0.332   5.783 -0.1492  0.3062  0.1793
 7446SOL    HW133800   3.439   0.362   5.795  0.3635 -1.9678  1.9675
 7446SOL    HW233801   3.332   0.373   5.698  1.5055 -1.5141 -1.0062
 7447SOL     OW33802   4.132   3.739   4.643  0.4423  0.6558 -0.0154
 7447SOL    HW133803   4.105   3.819   4.599 -1.0749 -0.5501 -1.2996
 7447SOL    HW233804   4.046   3.709   4.673  0.9700 -0.7210  0.1238
 7448SOL     OW33805   4.548   2.458   7.354  0.0049 -0.0925  0.3738
 7448SOL    HW133806   4.483   2.509   7.402 -1.1877  0.3472 -1.6882
 7448SOL    HW233807   4.536   2.374   7.400 -0.5347  0.2933  0.9499
 7449SOL     OW33808   0.411   0.852  16.076 -0.1438  0.0045  0.1202
 7449SOL    HW133809   0.326   0.885  16.106  0.3491  0.8156  0.6183
 7449SOL    HW233810   0.376   0.796  16.008 -0.2739 -1.7956  1.6547
 7450SOL     OW33811   3.564   2.390   8.754 -0.9691 -0.0688 -0.3864
 7450SOL    HW133812   3.604   2.307   8.726 -0.0980 -0.0508  0.8408
 7450SOL    HW233813   3.632   2.449   8.784  1.1870 -1.2532 -2.8907
 7451SOL     OW33814   2.833   1.063   2.602 -0.5524  0.9409 -0.0097
 7451SOL    HW133815   2.828   1.136   2.540  0.8153  0.0991 -1.1147
 7451SOL    HW233816   2.800   1.097   2.685 -0.5786  1.5506 -0.2669
 7452SOL     OW33817   2.665   1.739  16.563 -0.6559  0.3369 -0.1362
 7452SOL    HW133818   2.612   1.668  16.600 -2.4841  1.1888 -1.1251
 7452SOL    HW233819   2.753   1.702  16.557 -0.5161  0.9127 -1.6602
 7453SOL     OW33820   2.884   2.432   6.333  0.2206 -0.1086 -0.1306
 7453SOL    HW133821   2.828   2.504   6.306  0.8053 -0.0292 -1.1139
 7453SOL    HW233822   2.841   2.409   6.416 -1.3458  3.1312 -0.0577
 7454SOL     OW33823   0.375   4.228  14.689  0.2921  0.5539  0.2871
 7454SOL    HW133824   0.450   4.268  14.644  1.6676 -0.5525  1.5855
 7454SOL    HW233825   0.349   4.291  14.756 -1.7397  0.5723 -0.5264
 7455SOL     OW33826   2.158   0.178   1.243 -0.0639 -0.4824  0.1204
 7455SOL    HW133827   2.077   0.133   1.268  0.7572 -0.4390  2.9196
 7455SOL    HW233828   2.177   0.233   1.319 -2.5963  0.6687 -0.0945
 7456SOL     OW33829   0.449   4.676  15.249 -0.0251  0.6817  0.1615
 7456SOL    HW133830   0.454   0.023  15.315 -2.4869 -2.7606  3.9627
 7456SOL    HW233831   0.369   4.629  15.274  0.1677  0.4274  0.3015
 7457SOL     OW33832   3.191   0.374   7.258  0.2240  0.3213  0.0775
 7457SOL    HW133833   3.163   0.334   7.340  0.4366 -0.6659 -0.3278
 7457SOL    HW233834   3.236   0.456   7.280  0.9053 -0.4312  1.4554
 7458SOL     OW33835   3.823   3.412   6.875  0.4516  0.0883  0.3975
 7458SOL    HW133836   3.906   3.443   6.912 -0.4583  1.8563  0.9494
 7458SOL    HW233837   3.790   3.501   6.865 -0.4693 -0.2923  0.0740
 7459SOL     OW33838   4.394   1.988   9.011  0.0463  0.0155 -0.1996
 7459SOL    HW133839   4.414   2.036   9.092 -0.3794  2.1996 -1.3997
 7459SOL    HW233840   4.348   2.052   8.957  1.7333  1.9483  0.7053
 7460SOL     OW33841   1.451   2.565   6.026  0.0728 -0.0118  0.2051
 7460SOL    HW133842   1.430   2.559   5.933  0.7417 -1.3226  0.1393
 7460SOL    HW233843   1.521   2.628   6.015 -0.5696  0.2559 -2.4642
 7461SOL     OW33844   0.210   0.786   1.848  0.7158  0.5305 -0.2487
 7461SOL    HW133845   0.290   0.828   1.879  0.8014 -1.0818  1.6968
 7461SOL    HW233846   0.146   0.857   1.849 -1.5232 -1.4668 -0.1758
 7462SOL     OW33847   0.444   0.526   5.559  0.1051  0.8185 -0.4237
 7462SOL    HW133848   0.380   0.458   5.576 -0.7439  1.6560 -0.2809
 7462SOL    HW233849   0.402   0.611   5.568 -2.0686 -0.5527  2.1335
 7463SOL     OW33850   3.942   2.344   5.595  0.3200  0.1135 -0.7913
 7463SOL    HW133851   3.976   2.316   5.510 -1.6256  0.2868 -1.6248
 7463SOL    HW233852   3.929   2.436   5.572  0.3812  0.0408 -1.1148
 7464SOL     OW33853   2.061   1.258   6.290  0.0658  0.0461 -0.5955
 7464SOL    HW133854   2.108   1.339   6.269 -1.5854  0.9350 -0.8323
 7464SOL    HW233855   2.125   1.197   6.254  1.4605 -0.3636  2.5390
 7465SOL     OW33856   0.480   2.227  10.261  0.2386 -0.0217 -0.1057
 7465SOL    HW133857   0.527   2.306  10.288 -1.5629  0.7331  0.8458
 7465SOL    HW233858   0.395   2.270  10.253 -0.0759 -0.8132 -1.0103
 7466SOL     OW33859   0.928   4.484   5.451  0.0015 -0.4024 -0.1565
 7466SOL    HW133860   0.885   4.441   5.378 -1.1278  0.9909 -0.3081
 7466SOL    HW233861   0.858   4.539   5.487  0.2450 -0.2127  0.0334
 7467SOL     OW33862   1.260   1.184  16.173 -0.0750  0.1166  0.0363
 7467SOL    HW133863   1.311   1.255  16.134  0.8465  0.3866  1.7146
 7467SOL    HW233864   1.286   1.119  16.108  1.0730  2.1376 -1.5256
 7468SOL     OW33865   0.142   3.426  15.123  0.2106 -0.0536  0.8244
 7468SOL    HW133866   0.053   3.453  15.098  0.3660 -2.3881 -2.1230
 7468SOL    HW233867   0.188   3.388  15.049 -1.4104  1.1979 -0.8403
 7469SOL     OW33868   2.518   3.372  15.217  0.1280 -0.7349  0.1088
 7469SOL    HW133869   2.456   3.376  15.290  1.5608  2.2371  1.1845
 7469SOL    HW233870   2.467   3.430  15.161 -1.4410 -0.6391  1.6092
 7470SOL     OW33871   2.128   3.581   9.854 -0.0123  0.7105 -0.0317
 7470SOL    HW133872   2.061   3.527   9.896 -0.3032  1.0078 -0.1098
 7470SOL    HW233873   2.201   3.520   9.861 -0.3458  0.1228 -1.6699
 7471SOL     OW33874   3.670   4.672   4.200  0.2610 -0.2068 -0.0156
 7471SOL    HW133875   3.766   4.673   4.204  0.3040  1.0839 -1.1940
 7471SOL    HW233876   3.658   4.656   4.106  1.5224  1.5350 -0.4812
 7472SOL     OW33877   4.611   1.138   7.535 -0.1239 -0.5564 -0.2260
 7472SOL    HW133878   4.572   1.223   7.512 -0.6745 -0.6074  0.5412
 7472SOL    HW233879   4.541   1.088   7.577  0.5270 -2.1328 -1.0478
 7473SOL     OW33880   4.109   2.129  15.497  0.4030 -0.7561 -0.1077
 7473SOL    HW133881   4.025   2.155  15.460  0.6729  0.6155  0.2445
 7473SOL    HW233882   4.142   2.048  15.458 -1.8961 -2.6556  1.9044
 7474SOL     OW33883   4.415   3.483  15.556 -0.4141  0.0870 -0.2939
 7474SOL    HW133884   4.461   3.567  15.560  0.5123 -0.4460  0.2814
 7474SOL    HW233885   4.438   3.453  15.644  0.9338 -2.2587 -1.4449
 7475SOL     OW33886   3.446   0.452  12.444  0.2232  0.2147  0.0940
 7475SOL    HW133887   3.482   0.370  12.411  1.5289  1.2701 -1.0932
 7475SOL    HW233888   3.483   0.452  12.532 -2.4339  2.4055  1.1984
 7476SOL     OW33889   2.520   4.504   5.278  0.1976  0.2373 -0.0064
 7476SOL    HW133890   2.592   4.537   5.332 -1.7981  0.9197  2.2239
 7476SOL    HW233891   2.443   4.519   5.333  0.2475 -2.0130  0.7027
 7477SOL     OW33892   3.176   3.306   0.280 -0.2384  0.2341 -0.2305
 7477SOL    HW133893   3.165   3.222   0.324 -5.4266  0.4426 -1.2006
 7477SOL    HW233894   3.227   3.272   0.206  1.6146  4.1545 -0.7988
 7478SOL     OW33895   2.981   0.662  16.110 -0.3684 -0.1370  0.4077
 7478SOL    HW133896   2.901   0.613  16.130  1.1648 -1.6914  2.7698
 7478SOL    HW233897   2.955   0.754  16.107  2.8984  0.8138  1.3596
 7479SOL     OW33898   0.845   0.544   8.091 -0.4784 -0.0796 -0.5774
 7479SOL    HW133899   0.919   0.603   8.078 -0.6552  0.2252 -0.2057
 7479SOL    HW233900   0.783   0.602   8.136  0.2051  0.4546 -0.3234
 7480SOL     OW33901   2.939   1.261  17.317  0.2405 -0.1968  0.6233
 7480SOL    HW133902   2.869   1.196  17.321  1.0155 -1.1125 -0.5857
 7480SOL    HW233903   2.912   1.331  17.376  0.2629  0.6682 -0.4062
 7481SOL     OW33904   4.560   4.713  12.063  0.6520  0.2792  0.4962
 7481SOL    HW133905   4.477   0.033  12.085  0.7322  0.7872 -0.1754
 7481SOL    HW233906   4.537   4.621  12.051 -0.3592  0.3756  1.6835
 7482SOL     OW33907   0.058   1.395   7.248  0.3242 -0.2746 -0.1774
 7482SOL    HW133908   4.689   1.386   7.220 -0.1950 -0.3032  1.5114
 7482SOL    HW233909   0.087   1.481   7.218  1.3768 -0.9813 -1.1845
 7483SOL     OW33910   0.808   0.098   2.903  0.3713 -0.3120 -0.4326
 7483SOL    HW133911   0.782   0.007   2.889 -0.6064 -0.2287  0.9382
 7483SOL    HW233912   0.903   0.096   2.917  0.0284  0.9702  2.0336
 7484SOL     OW33913   3.276   4.377   5.311 -0.5337  0.1414 -0.4987
 7484SOL    HW133914   3.232   4.363   5.227 -2.5342 -1.6938  0.8508
 7484SOL    HW233915   3.366   4.388   5.279 -0.0455 -0.4671  0.6798
 7485SOL     OW33916   2.062   2.946  16.497 -0.0381  0.0497 -0.2528
 7485SOL    HW133917   2.112   3.004  16.555  0.2379  1.1411 -1.5709
 7485SOL    HW233918   2.126   2.931  16.427  0.5918 -0.2721  0.3855
 7486SOL     OW33919   1.970   3.500  15.209  0.2790  0.0256 -0.3877
 7486SOL    HW133920   1.941   3.409  15.224  0.6950  0.1936  1.5277
 7486SOL    HW233921   1.980   3.497  15.114 -0.1781 -3.3662 -0.3310
 7487SOL     OW33922   3.486   0.984   9.825 -0.2409  0.6121  0.0341
 7487SOL    HW133923   3.445   0.911   9.872  3.1386 -0.8377  0.7330
 7487SOL    HW233924   3.411   1.037   9.800 -1.6577 -1.1117  0.6503
 7488SOL     OW33925   4.078   2.796   6.159 -0.2965 -0.0020  0.2026
 7488SOL    HW133926   4.142   2.833   6.220 -0.2030 -1.4345  0.9977
 7488SOL    HW233927   4.111   2.706   6.151  2.1552  0.9119  0.2522
 7489SOL     OW33928   0.105   3.653   8.006  0.1829  0.8210 -0.4395
 7489SOL    HW133929   0.193   3.653   8.043  0.4865  0.2681 -1.1482
 7489SOL    HW233930   0.076   3.582   8.063  1.7610  1.2530  0.8964
 7490SOL     OW33931   0.022   3.803  17.637 -0.2864  0.2689  0.1842
 7490SOL    HW133932   0.102   3.843  17.603 -0.9829  1.3973 -0.1309
 7490SOL    HW233933   4.701   3.876  17.681  0.9755  1.3206 -0.3204
 7491SOL     OW33934   1.176   3.728  16.493  0.0976 -0.6449  0.0131
 7491SOL    HW133935   1.096   3.776  16.515 -0.2504 -0.4020 -1.7296
 7491SOL    HW233936   1.144   3.691  16.411  1.1796  2.5235 -1.8313
 7492SOL     OW33937   4.082   3.132   4.915  0.3691 -0.2102 -0.2437
 7492SOL    HW133938   4.150   3.065   4.920  0.6835  0.0496 -1.1109
 7492SOL    HW233939   4.011   3.093   4.967  1.4081  2.2608  2.9795
 7493SOL     OW33940   1.746   4.611   2.754 -0.2470 -0.2621 -0.8417
 7493SOL    HW133941   1.735   4.705   2.746 -0.6436 -0.3617 -1.4185
 7493SOL    HW233942   1.668   4.589   2.704  0.3099 -0.2960 -1.6877
 7494SOL     OW33943   1.644   2.964   4.840  0.4303 -0.2553 -0.0737
 7494SOL    HW133944   1.643   2.927   4.927 -0.9219  1.3174  0.5744
 7494SOL    HW233945   1.559   2.930   4.814 -0.2423  1.2486  0.1615
 7495SOL     OW33946   3.871   4.170   3.565 -0.5955 -0.5695 -0.3991
 7495SOL    HW133947   3.793   4.159   3.620 -1.3427 -0.3976 -1.4178
 7495SOL    HW233948   3.882   4.261   3.592  0.7278 -0.6626 -0.6510
 7496SOL     OW33949   0.686   0.401  11.079 -0.2021  0.0911  0.5484
 7496SOL    HW133950   0.633   0.449  11.143 -0.2013  0.5797  0.1818
 7496SOL    HW233951   0.663   0.437  10.994 -0.9329 -1.1336  0.2326
 7497SOL     OW33952   3.910   4.295   3.021  0.6724 -0.3706  0.9082
 7497SOL    HW133953   3.818   4.284   3.043  0.8972  0.6407  2.3995
 7497SOL    HW233954   3.951   4.260   3.101  1.1321  2.1118  1.7699
 7498SOL     OW33955   0.923   3.175  16.314 -0.2002  0.1109 -0.7483
 7498SOL    HW133956   0.890   3.103  16.260 -0.9622 -0.2752  0.2269
 7498SOL    HW233957   1.017   3.157  16.315  0.1135  1.6848 -2.7410
 7499SOL     OW33958   1.394   3.754   0.800  0.2324 -0.2194  0.6995
 7499SOL    HW133959   1.365   3.823   0.741 -0.0228 -1.1822 -0.2893
 7499SOL    HW233960   1.317   3.760   0.857 -1.6650 -0.4484 -1.8585
 7500SOL     OW33961   0.939   2.670   8.054 -0.2832  0.2274 -0.0043
 7500SOL    HW133962   1.026   2.685   8.092 -1.2833  1.5963  1.7399
 7500SOL    HW233963   0.901   2.758   8.051 -1.3954 -0.2006  1.3535
 7501SOL     OW33964   0.320   4.079   1.901 -0.2471 -0.9152 -0.0945
 7501SOL    HW133965   0.350   3.988   1.897  3.2160  0.2108  0.7317
 7501SOL    HW233966   0.268   4.074   1.820 -2.3996 -0.3136  1.2494
 7502SOL     OW33967   3.635   3.820   7.483 -0.0734  0.6690 -0.1530
 7502SOL    HW133968   3.658   3.735   7.446 -2.0482 -1.1526  2.8446
 7502SOL    HW233969   3.701   3.883   7.451  0.4175 -0.4792 -1.3933
 7503SOL     OW33970   0.635   4.234   7.369  0.7363 -0.8105 -0.3508
 7503SOL    HW133971   0.568   4.210   7.434  0.5054  0.4550 -0.1198
 7503SOL    HW233972   0.667   4.313   7.412 -1.1733  0.1782 -0.7729
 7504SOL     OW33973   3.838   2.231  10.324 -0.0820  0.6206  0.9852
 7504SOL    HW133974   3.878   2.255  10.241 -1.0795 -0.7080  0.1171
 7504SOL    HW233975   3.770   2.167  10.304  0.1771  0.1220  1.6804
 7505SOL     OW33976   2.868   4.541  12.676  0.5681  0.0334  0.1671
 7505SOL    HW133977   2.819   4.608  12.628 -0.3207  0.0741  1.1303
 7505SOL    HW233978   2.880   4.483  12.600 -0.3580 -0.9469  0.7584
 7506SOL     OW33979   0.558   1.280  15.179  0.0730  0.0535  0.1297
 7506SOL    HW133980   0.648   1.310  15.167 -0.5093  1.0051 -1.8937
 7506SOL    HW233981   0.501   1.351  15.150  0.3278  0.4521  0.6008
 7507SOL     OW33982   1.161   1.480   5.407 -0.0256  0.3744 -0.1314
 7507SOL    HW133983   1.240   1.426   5.410  1.0705  2.0213  1.3241
 7507SOL    HW233984   1.140   1.486   5.314 -0.9741  0.9722  0.1216
 7508SOL     OW33985   3.377   4.622  11.739  0.0175 -0.6110  0.7885
 7508SOL    HW133986   3.331   4.541  11.761  0.2809 -1.4153 -1.6614
 7508SOL    HW233987   3.355   4.660  11.825  0.3766 -2.3566  1.6642
 7509SOL     OW33988   0.551   1.340   1.803 -0.1021  0.0178  0.0296
 7509SOL    HW133989   0.526   1.313   1.715 -0.5813  2.9855 -0.7325
 7509SOL    HW233990   0.621   1.405   1.797  0.3200 -0.5779 -1.4962
 7510SOL     OW33991   2.998   1.804   7.162 -0.1003  0.1262 -0.5398
 7510SOL    HW133992   2.977   1.892   7.193  0.0660 -0.3435  0.8715
 7510SOL    HW233993   2.916   1.761   7.139  0.9020 -1.4083 -1.2826
 7511SOL     OW33994   3.490   0.554   7.834  0.2040  0.6783 -0.5575
 7511SOL    HW133995   3.468   0.647   7.831  0.3578  0.7333 -0.0912
 7511SOL    HW233996   3.579   0.553   7.801  0.2715 -0.4351 -0.3475
 7512SOL     OW33997   3.229   4.123   8.542  0.4346 -0.5407  0.7332
 7512SOL    HW133998   3.227   4.107   8.448 -1.6529  0.4364  0.6165
 7512SOL    HW233999   3.220   4.038   8.585  1.9564 -0.9637  0.2042
 7513SOL     OW34000   4.621   1.499   4.621  0.2282  0.1563  0.2162
 7513SOL    HW134001   4.633   1.455   4.705  0.6182  1.3634  0.7999
 7513SOL    HW234002   4.532   1.534   4.627 -0.8235 -2.2859 -1.3490
 7514SOL     OW34003   3.684   4.212  14.875  0.0130 -0.1634 -0.8356
 7514SOL    HW134004   3.605   4.264  14.890  0.6067  0.6621 -0.5829
 7514SOL    HW234005   3.679   4.170  14.961  1.3393 -0.5344 -0.9440
 7515SOL     OW34006   1.234   0.455   4.092  0.0231 -0.2179 -0.0340
 7515SOL    HW134007   1.293   0.390   4.131  0.9247  0.2168 -0.6971
 7515SOL    HW234008   1.278   0.493   4.017 -3.8296  0.6523 -1.8738
 7516SOL     OW34009   4.576   1.030  15.914 -0.3905 -0.1537 -0.1624
 7516SOL    HW134010   4.663   1.008  15.882  1.0563 -0.8522  4.2937
 7516SOL    HW234011   4.575   0.956  15.975  2.1888  0.6584  0.8737
 7517SOL     OW34012   1.140   3.637   1.802  0.2841 -0.5159  0.0947
 7517SOL    HW134013   1.104   3.577   1.868 -0.9799  1.4903  1.2189
 7517SOL    HW234014   1.231   3.643   1.829  0.4633  1.5060 -1.0033
 7518SOL     OW34015   0.357   1.444   4.781  0.0312 -0.1935 -0.3363
 7518SOL    HW134016   0.291   1.454   4.713  0.2820  0.1488 -0.5315
 7518SOL    HW234017   0.433   1.478   4.733 -0.4091 -0.0678 -0.9423
 7519SOL     OW34018   2.321   0.365   4.519  0.1954  0.3108 -0.6432
 7519SOL    HW134019   2.347   0.415   4.442  0.7155  0.7492 -0.1829
 7519SOL    HW234020   2.332   0.430   4.588  0.3009 -0.6563  0.2555
 7520SOL     OW34021   2.159   4.332  14.142  0.0922  0.3710  0.2960
 7520SOL    HW134022   2.203   4.344  14.226 -0.2571 -3.5171  1.0470
 7520SOL    HW234023   2.191   4.410  14.098  0.5431  0.1071  0.1549
 7521SOL     OW34024   4.453   1.913   0.646 -0.2338 -1.0175  0.3169
 7521SOL    HW134025   4.468   1.860   0.567  0.0984  3.1677 -2.4429
 7521SOL    HW234026   4.500   1.992   0.620 -0.2532 -0.5515  1.7058
 7522SOL     OW34027   3.100   2.455  10.384  0.3999  0.0253 -0.0959
 7522SOL    HW134028   3.148   2.391  10.331 -0.6719 -0.2570 -0.7300
 7522SOL    HW234029   3.044   2.489  10.315 -2.2919 -0.5743  1.7799
 7523SOL     OW34030   0.199   3.361   4.787 -0.1649  0.1598  0.4157
 7523SOL    HW134031   0.155   3.290   4.833 -0.4670  0.0162 -0.0960
 7523SOL    HW234032   0.229   3.414   4.861  0.6765  1.5091 -0.8875
 7524SOL     OW34033   1.867   2.456   6.966  0.1208 -0.5247 -0.2956
 7524SOL    HW134034   1.928   2.446   7.039  0.6921 -2.2307 -0.9891
 7524SOL    HW234035   1.932   2.461   6.895  0.8494 -0.1636  0.3995
 7525SOL     OW34036   1.712   3.489   1.915  0.5366 -0.4160 -0.0667
 7525SOL    HW134037   1.796   3.533   1.911 -1.4097  3.2195 -1.0091
 7525SOL    HW234038   1.732   3.405   1.874  0.5881  0.0298 -0.9698
 7526SOL     OW34039   3.287   3.308  15.251 -0.6798  0.6246 -0.0592
 7526SOL    HW134040   3.194   3.333  15.252 -0.5433  1.2278 -2.6992
 7526SOL    HW234041   3.316   3.355  15.329 -1.4144 -0.3846  0.8071
 7527SOL     OW34042   3.785   3.029  13.552 -0.1657 -0.2945 -0.5950
 7527SOL    HW134043   3.864   3.069  13.515 -0.2939 -0.4956 -1.0871
 7527SOL    HW234044   3.753   2.995  13.468 -2.5718 -2.4162  1.1820
 7528SOL     OW34045   4.149   0.982   6.826 -0.3141  0.4741  0.0569
 7528SOL    HW134046   4.102   0.998   6.907 -0.7897 -1.2795  0.1385
 7528SOL    HW234047   4.080   1.010   6.766  0.5794  1.1709 -0.6598
 7529SOL     OW34048   1.134   3.570   2.764 -0.1350 -0.1178  0.6355
 7529SOL    HW134049   1.092   3.506   2.821  1.6109 -0.6257  1.3597
 7529SOL    HW234050   1.058   3.598   2.714  0.8804  1.2364 -0.1691
 7530SOL     OW34051   2.498   2.029   6.234  0.0371  0.8710  0.7794
 7530SOL    HW134052   2.496   1.938   6.205 -1.0774  1.2692 -0.3544
 7530SOL    HW234053   2.423   2.064   6.186  0.6626 -0.7927 -1.3585
 7531SOL     OW34054   2.276   2.928  11.642 -0.5512  0.2573  0.3507
 7531SOL    HW134055   2.240   2.855  11.591  3.0000 -1.2882  0.0861
 7531SOL    HW234056   2.245   2.902  11.729  1.7047  0.2455  1.1322
 7532SOL     OW34057   1.672   0.032   6.052  0.5294  0.3312  0.2184
 7532SOL    HW134058   1.718   0.116   6.045  2.8593 -0.8543  1.2082
 7532SOL    HW234059   1.669   0.034   6.148  1.0712 -0.6302  0.2638
 7533SOL     OW34060   2.091   2.333  15.915  0.0022  0.1807  0.3233
 7533SOL    HW134061   2.046   2.416  15.927 -0.7827  0.0195 -1.4983
 7533SOL    HW234062   2.022   2.272  15.941 -0.2443 -0.1163 -1.0184
 7534SOL     OW34063   2.619   3.853   2.641 -0.3837 -0.4339 -0.0681
 7534SOL    HW134064   2.695   3.813   2.683 -1.3428 -0.7243  1.3611
 7534SOL    HW234065   2.632   3.941   2.678 -0.4767  0.3576 -1.9030
 7535SOL     OW34066   0.061   3.713   9.199 -0.2052 -0.4713 -0.3671
 7535SOL    HW134067   0.153   3.702   9.226 -0.5313  0.5589  1.1373
 7535SOL    HW234068   0.080   3.745   9.111  0.6515 -0.8431 -0.3156
 7536SOL     OW34069   0.985   2.737   5.175  0.2194 -0.6759 -0.3902
 7536SOL    HW134070   1.002   2.658   5.124 -0.3710 -0.3588 -1.0808
 7536SOL    HW234071   0.902   2.711   5.215  0.2248 -0.7679 -0.4376
 7537SOL     OW34072   3.861   3.047   5.035  0.3876  0.2411 -0.0244
 7537SOL    HW134073   3.832   2.961   5.066  1.7105  0.2010  1.0641
 7537SOL    HW234074   3.776   3.089   5.020  0.2433  0.1297  0.4877
 7538SOL     OW34075   2.873   4.585  16.879  0.2322  0.2176 -0.4010
 7538SOL    HW134076   2.876   4.646  16.805 -0.0544 -0.5153 -1.0144
 7538SOL    HW234077   2.955   4.605  16.924  1.0766 -1.0104 -1.3992
 7539SOL     OW34078   3.067   0.501   0.512  0.5487  0.2242 -0.5215
 7539SOL    HW134079   3.079   0.537   0.424  0.0781  1.2983 -0.1520
 7539SOL    HW234080   3.049   0.586   0.554 -2.8581 -0.3765 -0.8465
 7540SOL     OW34081   3.003   4.295   0.510 -0.3332 -0.2503  0.1654
 7540SOL    HW134082   2.949   4.367   0.542  1.0896 -0.3452  2.7836
 7540SOL    HW234083   3.060   4.333   0.443 -3.0669  1.4870 -1.1773
 7541SOL     OW34084   2.599   4.146   7.571 -0.2891 -0.0131  0.3911
 7541SOL    HW134085   2.656   4.206   7.619 -2.1964  2.7614 -0.8295
 7541SOL    HW234086   2.619   4.173   7.482 -1.9189 -1.5021 -0.4168
 7542SOL     OW34087   0.472   1.453   3.222 -0.2386  0.5861 -1.1824
 7542SOL    HW134088   0.426   1.432   3.141  2.6362  0.2399 -2.7324
 7542SOL    HW234089   0.446   1.543   3.238 -0.4662  0.1773  0.8624
 7543SOL     OW34090   2.184   2.054   5.734 -0.0071 -0.1642 -0.2637
 7543SOL    HW134091   2.270   2.089   5.759 -0.0081 -0.8894  0.7594
 7543SOL    HW234092   2.175   1.976   5.789  0.5074  0.2932  0.4664
 7544SOL     OW34093   3.549   2.542   1.482  0.0440 -0.0123 -0.4090
 7544SOL    HW134094   3.516   2.534   1.572  0.8172 -0.0159 -0.1283
 7544SOL    HW234095   3.540   2.453   1.448 -1.4613  0.3861 -1.0624
 7545SOL     OW34096   4.125   4.054   9.541 -0.0400 -0.1580  0.4193
 7545SOL    HW134097   4.084   4.113   9.605  1.0421  1.1190 -0.0617
 7545SOL    HW234098   4.151   4.120   9.477 -0.7482  0.2976  0.6010
 7546SOL     OW34099   0.477   0.302   1.748  0.3158  0.2129  0.7066
 7546SOL    HW134100   0.389   0.283   1.781 -1.1800  0.9362 -2.8649
 7546SOL    HW234101   0.471   0.268   1.659 -0.4173  0.9385  0.4747
 7547SOL     OW34102   0.711   3.814  10.952 -0.2063  0.9932  0.1070
 7547SOL    HW134103   0.694   3.898  10.909  1.2507  0.8814 -0.7040
 7547SOL    HW234104   0.673   3.745  10.898  0.1684  1.3551 -0.6206
 7548SOL     OW34105   3.959   4.228  17.364 -0.2499  0.1790 -0.2307
 7548SOL    HW134106   3.900   4.159  17.393  0.7243 -0.8139 -0.5830
 7548SOL    HW234107   4.010   4.224  17.446 -0.1116 -1.4417 -0.3940
 7549SOL     OW34108   4.701   3.356   8.736 -0.4165 -0.1186 -0.4581
 7549SOL    HW134109   4.689   3.278   8.790  2.3444  0.0790  0.3900
 7549SOL    HW234110   4.611   3.388   8.748 -0.1477 -0.8222  3.4625
 7550SOL     OW34111   2.990   2.402   7.534  0.1902  0.5674 -0.1816
 7550SOL    HW134112   3.008   2.464   7.605  2.2648 -0.4737  0.2238
 7550SOL    HW234113   3.021   2.452   7.458  3.6789 -0.3221  0.6381
 7551SOL     OW34114   2.582   2.840   5.320 -0.2553  0.1065 -0.1477
 7551SOL    HW134115   2.673   2.818   5.341 -0.3182 -1.1109 -1.1468
 7551SOL    HW234116   2.560   2.777   5.252 -0.8415 -0.5412  0.6347
 7552SOL     OW34117   3.869   0.121   4.462  0.0477  0.2661  0.7542
 7552SOL    HW134118   3.940   0.174   4.498  0.2089 -0.0966  0.9563
 7552SOL    HW234119   3.855   0.056   4.530 -2.2945  0.6697  0.6552
 7553SOL     OW34120   3.565   0.200   1.225  0.2329 -0.3515  0.4510
 7553SOL    HW134121   3.658   0.218   1.208 -1.0007  3.7962 -1.7772
 7553SOL    HW234122   3.524   0.260   1.163 -2.6973 -0.2750  2.4649
 7554SOL     OW34123   0.625   2.502   4.693 -0.6405 -0.4909 -0.1755
 7554SOL    HW134124   0.620   2.433   4.626  2.1175 -1.2472  0.3865
 7554SOL    HW234125   0.554   2.557   4.660 -0.8962 -0.9376 -0.3806
 7555SOL     OW34126   1.612   2.205   7.275 -0.2276  0.7333  0.8226
 7555SOL    HW134127   1.520   2.180   7.263 -0.2598  0.0890  2.3728
 7555SOL    HW234128   1.605   2.276   7.211  0.3708  1.8735  2.0169
 7556SOL     OW34129   3.544   2.917   5.477 -0.1908  0.2804 -0.2598
 7556SOL    HW134130   3.516   3.003   5.446 -1.3955  0.2053  0.6087
 7556SOL    HW234131   3.466   2.868   5.450 -0.0353 -0.1953  0.1465
 7557SOL     OW34132   4.259   2.602   9.641  0.2193  0.0918  1.0802
 7557SOL    HW134133   4.175   2.559   9.658  1.2844 -2.4357 -0.0726
 7557SOL    HW234134   4.238   2.696   9.634 -0.9410 -0.0802  2.1354
 7558SOL     OW34135   2.982   1.113   7.130 -0.1075  0.1753  0.2660
 7558SOL    HW134136   2.916   1.046   7.113  0.3070 -0.0926 -0.2834
 7558SOL    HW234137   2.969   1.182   7.065 -0.4488  1.9177  2.1643
 7559SOL     OW34138   4.075   3.493   3.786  0.0226 -0.2376 -0.1016
 7559SOL    HW134139   4.147   3.448   3.741 -0.8742 -1.1741 -0.6007
 7559SOL    HW234140   4.020   3.416   3.802 -0.9318  0.5127  0.2148
 7560SOL     OW34141   1.338   4.702  13.676  0.1560  0.1737 -0.8802
 7560SOL    HW134142   1.245   4.679  13.684 -0.2231  1.2655 -2.1631
 7560SOL    HW234143   1.367   4.611  13.673  1.9323  0.7282 -0.6314
 7561SOL     OW34144   4.713   0.574  13.129 -0.7891  0.0652  0.0496
 7561SOL    HW134145   4.698   0.647  13.190 -1.6082 -0.1128  0.0633
 7561SOL    HW234146   4.673   0.610  13.050  0.8053  0.3255 -0.6181
 7562SOL     OW34147   4.222   2.254   3.978 -0.4385  0.5785 -0.2029
 7562SOL    HW134148   4.279   2.223   4.048 -1.2907 -1.0692 -0.2547
 7562SOL    HW234149   4.199   2.173   3.932  0.1380  0.7162 -0.7406
 7563SOL     OW34150   1.150   1.940   7.115 -0.4697 -0.1675 -0.1195
 7563SOL    HW134151   1.190   1.927   7.201  1.2355 -0.2006 -0.9072
 7563SOL    HW234152   1.138   1.854   7.074  0.6957  0.9326 -2.8104
 7564SOL     OW34153   0.269   0.684   4.535  0.2783  0.1491 -0.1974
 7564SOL    HW134154   0.197   0.694   4.597 -1.3129 -2.2107 -1.6559
 7564SOL    HW234155   0.339   0.731   4.580 -1.5966  0.2516  2.6133
 7565SOL     OW34156   2.210   1.521   8.630 -0.5887  0.0548  0.4867
 7565SOL    HW134157   2.167   1.604   8.608  1.8183  1.0736 -0.3079
 7565SOL    HW234158   2.276   1.562   8.686 -1.5634  0.5992  1.2281
 7566SOL     OW34159   2.027   0.723   5.821  0.7578  0.9110  0.6479
 7566SOL    HW134160   2.059   0.705   5.733  1.1749  0.1146  0.9672
 7566SOL    HW234161   2.066   0.810   5.834  0.6655  1.3884 -2.2007
 7567SOL     OW34162   1.405   2.005   1.921 -0.2106  0.5286 -0.3521
 7567SOL    HW134163   1.345   1.938   1.952  0.2878  1.0516  1.7082
 7567SOL    HW234164   1.491   1.967   1.900 -0.6909 -0.5933 -0.2514
 7568SOL     OW34165   3.197   2.081   5.977  0.9258  0.1415 -0.3558
 7568SOL    HW134166   3.198   2.170   5.941 -0.9895  0.2418 -0.1391
 7568SOL    HW234167   3.132   2.093   6.046 -1.6472 -0.7377 -2.6032
 7569SOL     OW34168   0.107   2.423   2.408 -0.0274 -0.2549  0.4143
 7569SOL    HW134169   0.089   2.340   2.365 -2.1035 -0.7367  2.1811
 7569SOL    HW234170   0.147   2.398   2.491 -1.7638 -1.0102  1.0153
 7570SOL     OW34171   0.376   2.649   6.160 -0.1241 -0.1808  0.0781
 7570SOL    HW134172   0.391   2.708   6.234  0.9406 -0.9420  0.4860
 7570SOL    HW234173   0.464   2.611   6.148  0.5667  1.4672 -0.0922
 7571SOL     OW34174   3.642   4.363  11.973  0.5351  0.1283 -0.2018
 7571SOL    HW134175   3.613   4.451  11.995  0.5922  1.0692 -3.8327
 7571SOL    HW234176   3.677   4.343  12.059  0.2355  0.4521 -0.0058
 7572SOL     OW34177   2.578   4.593   7.253  0.6175  0.0214 -0.2127
 7572SOL    HW134178   2.488   4.585   7.285  0.9678 -1.8224  0.2965
 7572SOL    HW234179   2.580   4.679   7.211 -2.8574  0.6051  0.8012
 7573SOL     OW34180   0.489   3.188   3.626  0.3017  0.4023 -0.3016
 7573SOL    HW134181   0.535   3.235   3.696  2.4643 -2.3737  0.1354
 7573SOL    HW234182   0.415   3.245   3.606 -0.6240 -1.1396 -1.2531
 7574SOL     OW34183   0.732   1.475   2.376  0.1554  0.1854 -0.6192
 7574SOL    HW134184   0.698   1.394   2.339  1.1535 -1.1186  1.3162
 7574SOL    HW234185   0.663   1.538   2.357  1.3695  0.7707 -3.1291
 7575SOL     OW34186   4.266   4.404  15.137  0.0256 -0.2464 -0.0947
 7575SOL    HW134187   4.300   4.493  15.140 -0.8819  0.1004 -0.0662
 7575SOL    HW234188   4.316   4.375  15.061  1.0839  0.5468  0.3096
 7576SOL     OW34189   2.075   0.001   3.061  0.4881  0.1751  0.1053
 7576SOL    HW134190   2.117   4.669   2.994 -0.9111 -1.5079  0.6009
 7576SOL    HW234191   2.088   4.670   3.139 -1.1997 -1.7213 -0.8900
 7577SOL     OW34192   4.582   4.678   4.815  0.0627  0.4968 -0.6375
 7577SOL    HW134193   4.667   4.671   4.858  0.1813  1.3069 -0.7314
 7577SOL    HW234194   4.605   0.004   4.736  0.5594 -0.6815 -1.2217
 7578SOL     OW34195   3.473   2.407   1.718  0.1917 -0.0822  0.1705
 7578SOL    HW134196   3.414   2.392   1.792  0.6729 -0.0492  0.5620
 7578SOL    HW234197   3.472   2.318   1.682  2.2824  0.5960 -1.5478
 7579SOL     OW34198   2.439   3.612  15.371  0.3297 -0.7213 -0.1812
 7579SOL    HW134199   2.363   3.666  15.350  3.4892  3.6473 -0.2419
 7579SOL    HW234200   2.394   3.528  15.384 -2.1956  0.8209  0.8762
 7580SOL     OW34201   4.545   0.704   4.249 -0.1014  0.5478  0.0087
 7580SOL    HW134202   4.562   0.696   4.155 -1.4789 -0.4567 -0.1546
 7580SOL    HW234203   4.630   0.738   4.277 -1.0032  1.8238  1.2133
 7581SOL     OW34204   1.445   3.226   7.980  0.0915 -0.1822 -0.1558
 7581SOL    HW134205   1.531   3.186   7.970 -0.8998 -2.0614 -1.2741
 7581SOL    HW234206   1.434   3.233   8.075  1.9426  1.2682 -0.0464
 7582SOL     OW34207   0.805   3.904   9.931 -0.7926  0.3852  0.6154
 7582SOL    HW134208   0.840   3.936  10.014  0.9186  0.9332 -0.3241
 7582SOL    HW234209   0.792   3.984   9.881  0.4254 -0.5603 -1.2165
 7583SOL     OW34210   2.607   1.980   9.637 -0.0254  0.1855 -0.1858
 7583SOL    HW134211   2.642   2.038   9.570 -0.3431  0.3541 -0.2083
 7583SOL    HW234212   2.579   2.040   9.706 -1.5604  1.0131 -1.5278
 7584SOL     OW34213   1.456   0.534   4.400 -0.5837  0.3625 -0.6310
 7584SOL    HW134214   1.547   0.548   4.426  0.2491  0.4705 -3.6267
 7584SOL    HW234215   1.450   0.608   4.340  1.0874  0.0500 -1.1704
 7585SOL     OW34216   4.190   1.100   2.793  0.4082 -0.1166 -0.1122
 7585SOL    HW134217   4.277   1.061   2.794  0.2291 -0.5027  0.4144
 7585SOL    HW234218   4.161   1.104   2.701  0.1950 -1.0243 -0.0836
 7586SOL     OW34219   4.580   3.738   4.950 -0.6906  0.2011  0.1649
 7586SOL    HW134220   4.563   3.650   4.917  0.3985  0.5804 -1.4083
 7586SOL    HW234221   4.489   3.762   4.963 -1.1225 -1.4894  0.2343
 7587SOL     OW34222   2.692   2.681   7.509 -0.0387  0.4478 -0.2054
 7587SOL    HW134223   2.721   2.695   7.600 -0.7449 -1.4607  0.3145
 7587SOL    HW234224   2.674   2.772   7.484 -1.8623  0.5678  1.5425
 7588SOL     OW34225   4.495   1.088   8.876  0.7857  0.2324 -0.1703
 7588SOL    HW134226   4.407   1.085   8.913  1.5731 -0.0937  1.6826
 7588SOL    HW234227   4.525   1.174   8.904  4.3975  0.0392 -3.3893
 7589SOL     OW34228   0.210   0.097   5.798  0.2510  0.2802 -0.0051
 7589SOL    HW134229   0.244   0.115   5.886  0.9540  2.1256 -0.6593
 7589SOL    HW234230   0.123   0.059   5.814  0.8650 -1.8423 -1.7238
 7590SOL     OW34231   3.161   0.268   0.763  0.7048  0.3961  0.1059
 7590SOL    HW134232   3.197   0.185   0.794  0.4855  0.6642  1.0646
 7590SOL    HW234233   3.227   0.300   0.701  0.9213  1.7800  1.0602
 7591SOL     OW34234   2.806   0.228   3.321  0.0722  0.2124  0.2589
 7591SOL    HW134235   2.890   0.184   3.335 -0.0263 -1.0764 -3.0676
 7591SOL    HW234236   2.816   0.257   3.230 -1.0340  2.0084  0.7268
 7592SOL     OW34237   4.229   3.764  12.533  0.4957 -0.1104  0.4729
 7592SOL    HW134238   4.308   3.729  12.573  1.6320  0.5781 -1.1588
 7592SOL    HW234239   4.231   3.860  12.538  2.2451 -0.1308  0.1484
 7593SOL     OW34240   3.811   2.599  12.247 -0.0216  0.2010  0.0277
 7593SOL    HW134241   3.806   2.618  12.341  0.4441 -0.8254  0.2637
 7593SOL    HW234242   3.780   2.683  12.213 -2.9414 -1.6965 -1.9707
 7594SOL     OW34243   3.606   0.820   9.334  1.5551  0.3259 -0.2446
 7594SOL    HW134244   3.641   0.735   9.359  3.0168  0.7051 -0.9898
 7594SOL    HW234245   3.585   0.813   9.241  1.4325  0.6914 -0.2461
 7595SOL     OW34246   1.402   4.083   2.832  0.1871 -0.2459  0.5828
 7595SOL    HW134247   1.476   4.138   2.805 -1.7768  2.9349  1.6427
 7595SOL    HW234248   1.393   4.117   2.921 -0.2280 -1.4864  0.9990
 7596SOL     OW34249   0.857   4.528  13.232 -0.8374 -0.0848 -0.3211
 7596SOL    HW134250   0.842   4.436  13.210 -0.3391 -0.2011 -0.1514
 7596SOL    HW234251   0.818   4.577  13.159 -1.2840 -2.2736 -1.5477
 7597SOL     OW34252   0.534   2.080  14.811 -0.4485  0.1278  0.2321
 7597SOL    HW134253   0.469   2.012  14.829  0.4105 -0.5387  0.7996
 7597SOL    HW234254   0.485   2.141  14.756 -0.8024 -0.7407 -0.4055
 7598SOL     OW34255   2.812   3.688   8.653  0.0505 -0.2807 -0.3572
 7598SOL    HW134256   2.886   3.627   8.657  0.1679 -0.0548  0.7721
 7598SOL    HW234257   2.820   3.729   8.739  1.3286 -0.4827 -0.3743
 7599SOL     OW34258   1.505   3.434   0.928  0.1395  0.0000 -0.2393
 7599SOL    HW134259   1.562   3.496   0.884  0.5358 -0.4474 -0.3544
 7599SOL    HW234260   1.564   3.391   0.990  0.1706  0.0403 -0.2414
 7600SOL     OW34261   2.105   0.109   2.689  0.0265 -0.3383 -0.7881
 7600SOL    HW134262   2.177   0.088   2.629 -0.1452  0.8070 -1.4103
 7600SOL    HW234263   2.067   0.022   2.698  0.8371 -0.3862  2.4475
 7601SOL     OW34264   4.150   4.594   7.963  0.0703  0.0531 -0.1228
 7601SOL    HW134265   4.180   4.666   8.018 -0.3934  0.7364 -0.7668
 7601SOL    HW234266   4.066   4.625   7.931  0.7606  1.3951 -0.6420
 7602SOL     OW34267   3.341   3.513   5.901  0.0195 -0.2016  0.5583
 7602SOL    HW134268   3.426   3.552   5.880  0.6174 -1.9576 -0.2131
 7602SOL    HW234269   3.299   3.588   5.945 -0.0300 -0.5065  1.0289
 7603SOL     OW34270   3.989   3.071   8.300  0.3094 -0.2970  0.7861
 7603SOL    HW134271   4.070   3.028   8.326 -0.4749 -0.9726  2.1302
 7603SOL    HW234272   3.945   3.000   8.254 -1.4615 -0.6068  2.9094
 7604SOL     OW34273   3.600   0.149  13.915 -0.3728  0.5086  0.1138
 7604SOL    HW134274   3.547   0.225  13.891  1.0397  1.8162  1.1566
 7604SOL    HW234275   3.592   0.164  14.009 -0.1868 -0.7984  0.3293
 7605SOL     OW34276   3.774   2.127   0.706 -0.2139  0.1129  0.1935
 7605SOL    HW134277   3.800   2.036   0.720  0.2664  0.2440  0.1617
 7605SOL    HW234278   3.839   2.150   0.640 -1.3549 -0.1971 -1.0180
 7606SOL     OW34279   0.774   3.168   2.571  0.6522  0.1596  0.5161
 7606SOL    HW134280   0.790   3.078   2.598  1.0959  1.1120  3.4257
 7606SOL    HW234281   0.837   3.203   2.634 -0.9845 -0.5950  2.5629
 7607SOL     OW34282   4.049   0.427   4.249 -0.0416 -0.1798  0.2953
 7607SOL    HW134283   4.072   0.447   4.159 -0.7519 -0.4927  0.0425
 7607SOL    HW234284   4.123   0.367   4.260 -0.6725 -0.6044  2.3033
 7608SOL     OW34285   1.172   3.576  10.527  0.2359  0.2337  0.2262
 7608SOL    HW134286   1.124   3.579  10.444 -1.1704 -2.4004  0.9255
 7608SOL    HW234287   1.126   3.645  10.575  1.1684  0.9009  0.1617
 7609SOL     OW34288   3.109   0.878   2.681 -0.4362 -0.1915  0.0988
 7609SOL    HW134289   3.130   0.792   2.716  3.9518  0.0540 -1.8751
 7609SOL    HW234290   3.084   0.860   2.591  1.8839 -0.5927 -0.4583
 7610SOL     OW34291   3.790   1.052   2.552 -0.5351 -0.6200  0.8280
 7610SOL    HW134292   3.724   1.013   2.495 -1.3505  0.1857  1.2183
 7610SOL    HW234293   3.744   1.130   2.583  0.5187  0.9237 -1.4655
 7611SOL     OW34294   3.572   1.082   7.604  0.1259 -0.2251  0.6847
 7611SOL    HW134295   3.578   1.177   7.601  0.4153 -0.2903 -0.8085
 7611SOL    HW234296   3.664   1.062   7.622  0.5661 -0.9071 -2.3175
 7612SOL     OW34297   2.589   2.093   7.629 -0.2330 -0.1269 -0.0528
 7612SOL    HW134298   2.518   2.112   7.568 -0.3235 -1.8583 -0.4927
 7612SOL    HW234299   2.659   2.152   7.601 -0.8480  0.0484 -1.2196
 7613SOL     OW34300   2.566   1.008  10.488  0.6798 -0.0710  0.6322
 7613SOL    HW134301   2.474   1.023  10.510  0.0946 -0.7542 -1.3666
 7613SOL    HW234302   2.549   0.963  10.405 -2.2879 -0.8467  1.6519
 7614SOL     OW34303   1.518   4.539   7.637 -0.1250 -0.0511 -0.1153
 7614SOL    HW134304   1.545   4.456   7.675 -1.9152 -0.1403  0.9667
 7614SOL    HW234305   1.606   4.577   7.643 -0.5783  0.7125  1.5933
 7615SOL     OW34306   2.570   1.112   7.840 -0.0858  0.3508  0.3026
 7615SOL    HW134307   2.531   1.064   7.913  0.7148 -1.9867 -0.8185
 7615SOL    HW234308   2.550   1.202   7.864  0.6943  0.4256  0.6756
 7616SOL     OW34309   4.601   2.145   8.399 -0.0728  0.2774  0.3779
 7616SOL    HW134310   4.641   2.079   8.342 -0.4507  0.7411 -0.4178
 7616SOL    HW234311   4.555   2.196   8.333  1.4756 -0.9303 -1.6245
 7617SOL     OW34312   3.384   3.899   1.206 -0.1185  0.0161  0.2730
 7617SOL    HW134313   3.327   3.952   1.151 -0.2557 -0.3326  0.0763
 7617SOL    HW234314   3.332   3.905   1.286  1.2598 -0.1406  1.1811
 7618SOL     OW34315   2.378   4.320  10.141  0.2974  0.3442  0.1797
 7618SOL    HW134316   2.349   4.410  10.157 -3.1371 -0.6511 -0.5159
 7618SOL    HW234317   2.321   4.292  10.069  0.1695  0.1336  0.3640
 7619SOL     OW34318   4.605   4.355   2.034  1.1297  0.6524  0.3517
 7619SOL    HW134319   4.630   4.447   2.043  0.9324  0.6452  0.9594
 7619SOL    HW234320   4.664   4.315   1.970 -1.2995  0.2364 -1.6601
 7620SOL     OW34321   3.362   3.642   2.920  0.3683  0.5559 -0.0479
 7620SOL    HW134322   3.457   3.651   2.916  0.3085  1.1165 -0.2123
 7620SOL    HW234323   3.345   3.567   2.977 -1.4022 -0.8880 -2.5193
 7621SOL     OW34324   2.092   1.000   7.963 -0.2753 -0.0656  0.9020
 7621SOL    HW134325   2.143   1.061   8.016 -1.3937  0.1376  1.7611
 7621SOL    HW234326   2.020   1.059   7.943 -1.1980 -0.4000  3.2275
 7622SOL     OW34327   2.144   1.280  13.960  0.1313 -0.3585  0.1014
 7622SOL    HW134328   2.169   1.352  14.019  1.4534  0.2259 -1.1652
 7622SOL    HW234329   2.175   1.305  13.873 -0.3244 -1.0954 -0.2694
 7623SOL     OW34330   1.860   3.402  14.511  0.0285  0.0384  0.1499
 7623SOL    HW134331   1.888   3.314  14.486 -0.3383  0.7871 -2.8113
 7623SOL    HW234332   1.775   3.411  14.469  0.2767 -0.5222 -0.4529
 7624SOL     OW34333   3.764   1.005   1.962 -0.3694  0.1311 -0.4540
 7624SOL    HW134334   3.829   0.958   1.909  0.4201 -1.6647  2.1309
 7624SOL    HW234335   3.733   1.068   1.897 -0.5133  0.6810  0.1416
 7625SOL     OW34336   4.407   2.801   4.508 -0.3229  0.5158 -0.9516
 7625SOL    HW134337   4.392   2.749   4.429 -1.0088 -2.2031  0.9677
 7625SOL    HW234338   4.500   2.783   4.521 -0.8159  0.0825  2.1280
 7626SOL     OW34339   3.918   2.835   7.078  0.0265 -0.7730  0.0085
 7626SOL    HW134340   3.946   2.907   7.021 -2.8855 -0.1497 -0.6319
 7626SOL    HW234341   3.825   2.827   7.060 -0.3107  2.1191  0.3806
 7627SOL     OW34342   0.369   1.029  11.411 -0.4282  0.0120  0.8157
 7627SOL    HW134343   0.322   1.112  11.403 -0.4050  0.1099  1.6735
 7627SOL    HW234344   0.457   1.066  11.406 -0.1558 -1.0037 -1.6050
 7628SOL     OW34345   2.340   1.610   9.295 -0.2656 -0.1700  0.0588
 7628SOL    HW134346   2.422   1.650   9.325  0.7505 -1.3504 -1.0980
 7628SOL    HW234347   2.329   1.670   9.221 -0.3683 -0.7492 -0.3977
 7629SOL     OW34348   4.300   3.317   7.292 -0.1485  0.0641 -0.3980
 7629SOL    HW134349   4.250   3.284   7.217 -0.0419 -1.1429  0.0515
 7629SOL    HW234350   4.231   3.345   7.353  1.6399  0.9919  1.1972
 7630SOL     OW34351   3.765   0.474   8.837  0.0845 -0.0409  0.5874
 7630SOL    HW134352   3.799   0.553   8.880  0.1024  0.3027 -0.0530
 7630SOL    HW234353   3.839   0.450   8.780  0.3507  1.0795  0.4569
 7631SOL     OW34354   3.330   3.688   6.174 -0.1146  0.0805  0.3944
 7631SOL    HW134355   3.404   3.676   6.233 -0.3573  1.1798  0.9276
 7631SOL    HW234356   3.326   3.783   6.160  3.2820  0.6151  3.1322
 7632SOL     OW34357   4.436   0.822  15.636 -0.2041 -0.5190 -0.5416
 7632SOL    HW134358   4.355   0.870  15.621  1.5217  2.6551  0.2370
 7632SOL    HW234359   4.497   0.883  15.594  0.6152 -0.1620  1.1668
 7633SOL     OW34360   2.985   2.355   9.942 -0.1439 -0.4359 -0.1036
 7633SOL    HW134361   3.020   2.444   9.935 -0.6010 -0.2706 -0.3497
 7633SOL    HW234362   3.064   2.307   9.917 -0.5102  0.5232 -3.1177
 7634SOL     OW34363   4.555   4.402  16.127 -0.8474  0.5310 -0.2525
 7634SOL    HW134364   4.465   4.432  16.143 -1.2664 -0.2684 -1.0965
 7634SOL    HW234365   4.593   4.464  16.065 -1.9200  0.1868 -1.2736
 7635SOL     OW34366   0.163   0.960   6.366  0.4872  0.1570  0.4136
 7635SOL    HW134367   0.168   1.022   6.439  0.3439  0.2719  0.3249
 7635SOL    HW234368   0.072   0.934   6.380  1.4504 -1.9547  2.9070
 7636SOL     OW34369   4.103   2.070   4.514  0.0256 -0.0607 -0.1691
 7636SOL    HW134370   4.103   2.165   4.528  0.9358  0.1721 -1.7781
 7636SOL    HW234371   4.147   2.076   4.430 -0.0134 -3.0288 -0.4132
 7637SOL     OW34372   0.908   1.647  16.686 -0.6505 -0.0609  0.1136
 7637SOL    HW134373   0.920   1.741  16.700  0.0879  0.1444 -1.8504
 7637SOL    HW234374   0.994   1.609  16.700 -0.7624 -1.3090 -2.5386
 7638SOL     OW34375   2.284   0.072   5.913  0.1164 -0.0646 -0.1778
 7638SOL    HW134376   2.214   0.135   5.931 -0.7097 -1.3076  0.9009
 7638SOL    HW234377   2.324   0.071   6.000  0.7055  2.0128 -0.4020
 7639SOL     OW34378   2.815   4.290  11.757 -0.7235 -0.1200  0.1791
 7639SOL    HW134379   2.744   4.313  11.697 -0.3342  0.4700 -0.0581
 7639SOL    HW234380   2.862   4.228  11.702 -0.0061 -0.4283  1.1319
 7640SOL     OW34381   3.921   2.812   1.495 -0.7228  1.0135 -0.4924
 7640SOL    HW134382   3.950   2.895   1.535 -1.4261  0.9843  0.0959
 7640SOL    HW234383   3.867   2.775   1.565  0.7574 -0.2509 -0.0272
 7641SOL     OW34384   3.767   2.344   8.008 -0.5229 -0.4510 -0.0405
 7641SOL    HW134385   3.833   2.351   7.939 -2.8209  0.3497 -2.1988
 7641SOL    HW234386   3.798   2.407   8.072  0.0449  0.8003 -1.5588
 7642SOL     OW34387   1.006   2.185   7.107 -0.1731 -0.0644  0.8365
 7642SOL    HW134388   0.966   2.214   7.025  0.2314  1.6057  1.2227
 7642SOL    HW234389   1.033   2.096   7.088 -0.2786  0.1077 -0.0896
 7643SOL     OW34390   4.285   1.751   9.121  0.4154  0.2534  0.5417
 7643SOL    HW134391   4.296   1.827   9.064  0.1504  0.4001  0.6860
 7643SOL    HW234392   4.339   1.773   9.197  1.1256 -0.4026  0.2182
 7644SOL     OW34393   1.890   2.725   4.619 -0.3243 -0.5553  0.0273
 7644SOL    HW134394   1.856   2.638   4.640  0.9426 -0.7478  1.2737
 7644SOL    HW234395   1.808   2.755   4.580  1.5987  2.7995 -1.4322
 7645SOL     OW34396   3.126   2.637   2.647  0.6689  0.1884 -0.6077
 7645SOL    HW134397   3.143   2.715   2.593 -0.8654  1.1438  0.2705
 7645SOL    HW234398   3.208   2.587   2.649  1.1756  1.0076 -0.8092
 7646SOL     OW34399   0.376   1.101  12.876 -0.3351 -0.2781 -0.0948
 7646SOL    HW134400   0.418   1.015  12.882  0.5102  0.0531 -1.2120
 7646SOL    HW234401   0.286   1.094  12.909  0.0544  1.4094  1.2824
 7647SOL     OW34402   4.516   3.012   2.567 -0.0969  0.1146 -0.9965
 7647SOL    HW134403   4.480   2.966   2.642 -0.2326  0.8197 -0.6282
 7647SOL    HW234404   4.608   2.986   2.577  0.3659  1.2960 -2.1661
 7648SOL     OW34405   4.684   4.083   4.406  0.0405 -0.0892 -0.2848
 7648SOL    HW134406   4.655   4.105   4.317  0.0891 -0.2098 -0.3302
 7648SOL    HW234407   0.051   4.055   4.388  0.2886 -1.8795  3.8818
 7649SOL     OW34408   1.002   3.238  14.462 -0.3395  0.2529  0.7464
 7649SOL    HW134409   0.923   3.190  14.488 -0.7994  0.5522 -0.1135
 7649SOL    HW234410   1.005   3.305  14.531  1.5579  1.4343 -0.5151
 7650SOL     OW34411   2.098   3.222   5.938 -0.1345  0.0562  0.4319
 7650SOL    HW134412   2.170   3.185   5.989 -0.8270 -0.3905  1.0993
 7650SOL    HW234413   2.029   3.230   6.004 -0.4917  0.1597  0.0463
 7651SOL     OW34414   1.063   2.876  15.858 -0.2957 -0.1624 -0.0522
 7651SOL    HW134415   0.971   2.897  15.846  0.5052  4.0460  1.1092
 7651SOL    HW234416   1.054   2.823  15.938 -0.0896 -1.2777 -0.7652
 7652SOL     OW34417   2.833   2.485   3.913 -0.1657  0.6300 -0.1900
 7652SOL    HW134418   2.897   2.556   3.913  0.1781  0.3217  1.4667
 7652SOL    HW234419   2.779   2.505   3.990 -0.3680 -1.4353  0.2203
 7653SOL     OW34420   0.602   2.601   4.940 -0.5490 -0.1547 -0.0868
 7653SOL    HW134421   0.618   2.559   4.856  1.2512  0.3273  0.0226
 7653SOL    HW234422   0.643   2.687   4.935  0.2525 -0.5242  0.1835
 7654SOL     OW34423   0.726   0.641  14.518 -0.1110 -0.2013  0.0114
 7654SOL    HW134424   0.762   0.562  14.477 -1.8046 -0.9573 -0.0249
 7654SOL    HW234425   0.769   0.641  14.603 -0.7933 -0.9828  0.3497
 7655SOL     OW34426   1.158   2.168  10.089 -0.3284 -0.3549  0.5759
 7655SOL    HW134427   1.101   2.245  10.099  0.8784  0.8916 -2.0378
 7655SOL    HW234428   1.145   2.123  10.172  1.0776 -1.5245  0.1660
 7656SOL     OW34429   3.579   1.066  11.595  0.0092  0.2958  0.1493
 7656SOL    HW134430   3.531   1.148  11.581  2.1402  1.5269  0.0551
 7656SOL    HW234431   3.606   1.067  11.687  1.3408  0.6710 -0.2420
 7657SOL     OW34432   0.085   0.995   3.868 -0.3730  0.2968 -0.3809
 7657SOL    HW134433   0.079   1.008   3.962 -1.2742  1.1754 -0.5534
 7657SOL    HW234434   0.001   1.035   3.844 -1.7073 -1.1870  1.8683
 7658SOL     OW34435   4.694   4.029   5.055  0.7800  0.2107  0.3857
 7658SOL    HW134436   4.634   4.064   4.990  1.4677  0.1483 -0.2899
 7658SOL    HW234437   0.051   4.082   5.043 -0.6443  2.4000  0.6676
 7659SOL     OW34438   0.833   2.698  10.004 -0.1659 -0.8225  0.7045
 7659SOL    HW134439   0.839   2.657   9.918  0.5441 -0.7489  0.7237
 7659SOL    HW234440   0.843   2.790   9.983  1.8559 -1.1066  0.4639
 7660SOL     OW34441   3.057   1.386  12.597  0.2560 -0.2065  0.4027
 7660SOL    HW134442   3.000   1.361  12.669 -0.5029  1.4753  0.4022
 7660SOL    HW234443   3.029   1.477  12.583  2.6192  0.3653 -0.6178
 7661SOL     OW34444   2.860   0.243   7.392  0.2144  0.3094  0.1926
 7661SOL    HW134445   2.871   0.158   7.434 -2.7939  0.6020  1.6466
 7661SOL    HW234446   2.766   0.260   7.406  0.9907  2.3524  2.9580
 7662SOL     OW34447   0.444   3.574  16.916  0.3534  0.1133 -0.0121
 7662SOL    HW134448   0.372   3.616  16.868  1.5759  0.8845 -1.1794
 7662SOL    HW234449   0.508   3.545  16.851 -0.7002 -1.4313 -0.3502
 7663SOL     OW34450   1.020   3.925   2.324 -0.3526 -0.6188  0.3760
 7663SOL    HW134451   1.022   4.017   2.296 -0.2695 -0.0835  2.1201
 7663SOL    HW234452   0.947   3.897   2.269  0.0723  1.3642 -1.2058
 7664SOL     OW34453   0.202   0.717   2.236 -0.9062 -0.4225 -0.6584
 7664SOL    HW134454   0.262   0.775   2.189  1.2165  0.2225  2.8317
 7664SOL    HW234455   0.254   0.698   2.315 -2.1048 -1.3749 -0.1064
 7665SOL     OW34456   0.017   1.808   2.587 -0.0688 -0.1154  0.6179
 7665SOL    HW134457   4.701   1.722   2.576 -0.3775  0.0365  0.5318
 7665SOL    HW234458   0.066   1.831   2.667  0.1713  0.2538  0.3700
 7666SOL     OW34459   3.769   2.993   5.288  0.1549 -0.6747  0.1103
 7666SOL    HW134460   3.699   3.034   5.239  0.2130 -0.3638  0.2916
 7666SOL    HW234461   3.717   2.946   5.353 -0.8556 -0.0630 -0.2715
 7667SOL     OW34462   3.883   3.018   5.714  0.3702 -0.3504  0.0623
 7667SOL    HW134463   3.929   3.078   5.773 -0.0349 -1.1774  1.2231
 7667SOL    HW234464   3.954   2.961   5.686 -0.1795 -2.0545  2.0799
 7668SOL     OW34465   1.921   1.814   6.149  0.0302 -0.3047  0.0337
 7668SOL    HW134466   1.869   1.805   6.229 -1.7231  0.4390 -1.0249
 7668SOL    HW234467   1.902   1.733   6.100 -1.8484  0.8564 -1.1413
 7669SOL     OW34468   0.875   4.708   0.002  0.3567 -0.2274 -0.4038
 7669SOL    HW134469   0.967   4.682   0.006  0.5490  0.5260  0.0915
 7669SOL    HW234470   0.886   0.079   0.019  2.1586 -0.6957  0.9628
 7670SOL     OW34471   0.118   0.728   3.709 -0.2166  0.3003  0.3369
 7670SOL    HW134472   0.090   0.781   3.783 -3.2224  0.6337 -1.0460
 7670SOL    HW234473   0.183   0.788   3.671  1.4785 -2.2550 -0.8469
 7671SOL     OW34474   2.749   2.444  17.090  0.0418 -0.1357 -0.2732
 7671SOL    HW134475   2.806   2.486  17.026  0.8175  0.7778  1.0065
 7671SOL    HW234476   2.740   2.510  17.160 -2.0002 -2.2389  1.4277
 7672SOL     OW34477   1.427   2.034   2.549 -0.0832 -0.0488 -0.2319
 7672SOL    HW134478   1.453   1.949   2.513 -0.2198  0.3313 -1.2477
 7672SOL    HW234479   1.398   2.078   2.468 -2.5034  0.2040  0.7496
 7673SOL     OW34480   2.147   0.061   7.247 -0.0366  0.2858 -0.3851
 7673SOL    HW134481   2.206   0.046   7.173  0.1664 -2.5218  0.3347
 7673SOL    HW234482   2.064   0.021   7.220 -0.2468  1.2887 -1.1852
 7674SOL     OW34483   2.715   2.467   8.827 -0.1935 -0.3445  0.0030
 7674SOL    HW134484   2.771   2.390   8.835 -2.7681 -2.0471  1.7357
 7674SOL    HW234485   2.701   2.492   8.919  0.3103 -1.5572  0.4119
 7675SOL     OW34486   3.302   0.383  14.804  0.1613  0.2015 -0.0185
 7675SOL    HW134487   3.388   0.422  14.819  1.7355 -2.2372 -2.6394
 7675SOL    HW234488   3.299   0.323  14.878  0.5197 -0.8443 -0.8486
 7676SOL     OW34489   2.237   3.637   8.304  0.2465 -0.8219  0.2919
 7676SOL    HW134490   2.207   3.633   8.395 -1.7396  0.1098 -0.3245
 7676SOL    HW234491   2.286   3.555   8.306  1.7697  0.0782  0.0348
 7677SOL     OW34492   0.932   3.284   4.373  0.1322  0.0242 -0.3068
 7677SOL    HW134493   0.954   3.191   4.369  3.0767  0.6122  2.0146
 7677SOL    HW234494   0.839   3.278   4.395  0.3209  0.4650  0.5901
 7678SOL     OW34495   1.424   2.139   0.020 -0.0395  0.3854  0.1700
 7678SOL    HW134496   1.366   2.193  17.659 -0.0919  1.2229  1.0676
 7678SOL    HW234497   1.367   2.073   0.060 -0.4160  0.4506 -0.2536
 7679SOL     OW34498   4.325   3.202  15.638  0.3198 -0.1848  0.7459
 7679SOL    HW134499   4.293   3.290  15.619  0.2394  0.0546  2.0270
 7679SOL    HW234500   4.367   3.211  15.723  2.7778 -1.2491 -0.3678
 7680SOL     OW34501   4.367   2.134   9.260  0.3011  0.1120  0.2697
 7680SOL    HW134502   4.383   2.188   9.338  1.0519  0.0288  0.1683
 7680SOL    HW234503   4.321   2.194   9.201  0.8300  0.1375 -0.1080
 7681SOL     OW34504   0.675   3.305   3.791 -0.3101  0.0043 -0.1357
 7681SOL    HW134505   0.721   3.301   3.875  3.0839  0.2410 -2.0027
 7681SOL    HW234506   0.749   3.287   3.734  0.0348 -1.8649  0.8958
 7682SOL     OW34507   1.294   1.522   4.547 -0.2403 -0.1280 -0.4761
 7682SOL    HW134508   1.339   1.557   4.624 -2.3588  2.7970 -0.5526
 7682SOL    HW234509   1.206   1.534   4.582 -0.2989  1.5842 -1.2021
 7683SOL     OW34510   0.532   4.670   2.735 -0.4770 -0.7869  0.6095
 7683SOL    HW134511   0.517   4.623   2.817 -0.7750  0.4402  1.2607
 7683SOL    HW234512   0.583   4.604   2.688 -0.1143 -0.6685  0.8384
 7684SOL     OW34513   4.430   1.443  10.230 -0.4589  0.2800 -0.6819
 7684SOL    HW134514   4.356   1.384  10.244  0.7471 -1.1157 -0.2934
 7684SOL    HW234515   4.489   1.437  10.305 -1.1589 -3.5561 -0.4636
 7685SOL     OW34516   0.939   3.030   2.890 -0.0988 -0.0014  0.1434
 7685SOL    HW134517   0.858   3.080   2.891 -0.6516 -0.9125  0.1490
 7685SOL    HW234518   0.970   3.045   2.980 -0.8956 -1.5696  0.6732
 7686SOL     OW34519   1.986   3.212   4.698 -0.1497 -0.0292 -0.3891
 7686SOL    HW134520   1.927   3.141   4.673 -0.7548  0.6177 -0.7992
 7686SOL    HW234521   1.943   3.262   4.768  1.3311 -1.2375  1.3655
 7687SOL     OW34522   0.397   3.015   8.276  0.0301  0.5801  0.4180
 7687SOL    HW134523   0.454   2.956   8.325  1.4438 -0.0623 -2.0059
 7687SOL    HW234524   0.352   3.065   8.344  1.9274 -0.5274  2.4898
 7688SOL     OW34525   2.847   3.947   6.573  0.4117  0.0028 -0.4839
 7688SOL    HW134526   2.758   3.925   6.547  0.4705 -1.2543  0.3833
 7688SOL    HW234527   2.841   4.041   6.556 -1.2740  0.3572  1.9686
 7689SOL     OW34528   1.775   3.262   3.717 -0.0726  0.1733  0.8469
 7689SOL    HW134529   1.727   3.337   3.752 -2.4354 -0.2867 -1.3810
 7689SOL    HW234530   1.772   3.198   3.788  0.4909 -0.2956  0.4546
 7690SOL     OW34531   1.178   4.391   6.964  0.0224  0.4577  0.0870
 7690SOL    HW134532   1.110   4.335   7.002  0.0701  0.9051  0.8395
 7690SOL    HW234533   1.235   4.329   6.919 -1.6708 -2.1826  1.5247
 7691SOL     OW34534   1.405   3.956   4.729 -0.2967 -0.2555 -0.0058
 7691SOL    HW134535   1.452   4.018   4.784 -0.1515  0.1918 -0.6330
 7691SOL    HW234536   1.393   3.895   4.802  1.4995 -2.0188 -1.1619
 7692SOL     OW34537   3.071   0.605   3.576  0.2855  0.3134  0.5906
 7692SOL    HW134538   2.998   0.570   3.525  1.1772  0.5236 -0.8494
 7692SOL    HW234539   3.059   0.550   3.653 -2.4337  0.9058  0.5816
 7693SOL     OW34540   1.960   3.223   4.114  0.0099  0.3030  0.0094
 7693SOL    HW134541   1.970   3.164   4.189  0.8103  0.4598  0.0301
 7693SOL    HW234542   2.047   3.225   4.074 -1.2741  0.8016 -2.7304
 7694SOL     OW34543   2.737   0.487   8.951 -0.7228 -0.4222 -0.0357
 7694SOL    HW134544   2.825   0.525   8.953 -0.3028 -1.3901 -0.0521
 7694SOL    HW234545   2.755   0.405   8.906 -0.7023 -1.2590  1.5113
 7695SOL     OW34546   0.189   1.183   6.516  0.0781 -0.0711  0.2694
 7695SOL    HW134547   0.125   1.254   6.510  0.6402  0.2414 -2.2743
 7695SOL    HW234548   0.264   1.239   6.534 -1.2604  1.4166  1.2158
 7696SOL     OW34549   1.953   3.379   8.205  0.0905  0.1332  0.4302
 7696SOL    HW134550   1.936   3.297   8.252 -1.0975  1.5304  2.4366
 7696SOL    HW234551   2.024   3.346   8.149 -0.6278  1.5185 -1.2905
 7697SOL     OW34552   2.521   0.908   0.832  0.2528 -0.3115 -0.2541
 7697SOL    HW134553   2.453   0.902   0.765 -0.1442 -1.7029  0.2661
 7697SOL    HW234554   2.470   0.946   0.903  2.7662  3.5394 -0.4814
 7698SOL     OW34555   2.841   4.478  14.292 -0.1435  0.2184  0.0226
 7698SOL    HW134556   2.827   4.573  14.294 -0.7154  0.1080  2.1621
 7698SOL    HW234557   2.829   4.444  14.204 -0.2066  1.1997 -0.3435
 7699SOL     OW34558   4.333   0.223  15.271  0.4574 -0.0079 -0.0654
 7699SOL    HW134559   4.372   0.299  15.229  1.5719 -0.2216  0.5744
 7699SOL    HW234560   4.331   0.247  15.364  1.3055  2.2296 -0.6310
 7700SOL     OW34561   3.035   1.357  12.102 -0.1232 -0.5323 -0.3444
 7700SOL    HW134562   3.126   1.344  12.078  0.5668  0.4774  1.6985
 7700SOL    HW234563   3.048   1.396  12.189 -1.3473  2.2061 -1.3777
 7701SOL     OW34564   3.969   1.046   3.789  0.4673 -0.3300 -0.3601
 7701SOL    HW134565   4.044   1.019   3.736 -0.3822 -0.5762 -1.4240
 7701SOL    HW234566   3.934   1.113   3.731  0.8485 -0.2546 -0.5062
 7702SOL     OW34567   1.387   0.290   1.589  0.1255 -0.2567 -0.1207
 7702SOL    HW134568   1.350   0.374   1.563  0.8092  1.1264  3.2816
 7702SOL    HW234569   1.364   0.304   1.681  1.6905 -0.4075  0.2993
 7703SOL     OW34570   0.571   3.895   8.743  0.2025 -0.0604  0.0131
 7703SOL    HW134571   0.648   3.838   8.754 -0.0374 -0.7831 -2.0924
 7703SOL    HW234572   0.501   3.859   8.797 -0.9261 -0.7795 -1.9308
 7704SOL     OW34573   3.648   0.454  10.200 -0.1690 -0.7676  0.0678
 7704SOL    HW134574   3.693   0.396  10.262  0.2141  0.6243  1.1067
 7704SOL    HW234575   3.695   0.430  10.121 -2.1038 -0.6700 -1.1176
 7705SOL     OW34576   0.002   2.636  15.031 -0.0282 -0.1558  0.3718
 7705SOL    HW134577   4.720   2.606  15.122  2.4294  0.1289  0.5850
 7705SOL    HW234578   4.642   2.604  14.993  0.5770  1.6890 -2.4780
 7706SOL     OW34579   0.358   3.457  16.600 -0.2167  0.0202 -0.2510
 7706SOL    HW134580   0.322   3.392  16.660  3.7259 -2.3292 -0.4476
 7706SOL    HW234581   0.293   3.528  16.598 -1.3057 -0.9767  0.1123
 7707SOL     OW34582   3.066   0.853   3.443  0.5747 -0.1528 -0.3689
 7707SOL    HW134583   3.061   0.798   3.520  0.5987  0.7148  0.2564
 7707SOL    HW234584   3.161   0.860   3.435  0.6497 -2.5786 -1.4998
 7708SOL     OW34585   4.043   0.125  11.629  0.2417  0.2493 -0.4454
 7708SOL    HW134586   4.023   0.125  11.723 -0.0398 -0.9884 -0.5105
 7708SOL    HW234587   4.022   0.035  11.602  1.5020  0.3191 -1.6734
 7709SOL     OW34588   3.246   3.980   0.984 -0.3828  0.1204 -0.0827
 7709SOL    HW134589   3.212   3.891   0.991  0.1450 -0.1833 -1.3121
 7709SOL    HW234590   3.193   4.032   1.044 -0.5919  0.0800 -0.2295
 7710SOL     OW34591   3.953   1.331   9.344 -0.3583 -0.2984  0.3888
 7710SOL    HW134592   4.034   1.339   9.295 -0.5002 -0.5804  0.1107
 7710SOL    HW234593   3.977   1.335   9.436 -0.7013 -0.1840  0.4761
 7711SOL     OW34594   0.723   1.225   6.236  0.2301  0.5746 -0.2303
 7711SOL    HW134595   0.803   1.209   6.287  0.3885  1.2881 -0.2640
 7711SOL    HW234596   0.734   1.160   6.166 -1.2696 -0.9506  0.9632
 7712SOL     OW34597   2.524   1.759   4.470  0.0645 -0.6308  0.4511
 7712SOL    HW134598   2.486   1.807   4.396 -2.6128 -0.2635  2.0752
 7712SOL    HW234599   2.610   1.747   4.428  0.5334  1.4034  0.8522
 7713SOL     OW34600   3.565   0.043  17.206  0.2138 -0.5099 -0.4306
 7713SOL    HW134601   3.623   0.119  17.213  1.5580 -1.6550  0.8144
 7713SOL    HW234602   3.631   4.697  17.208  0.7264 -0.0194 -0.5784
 7714SOL     OW34603   1.443   4.421  15.910 -0.2639 -0.1667 -0.0620
 7714SOL    HW134604   1.399   4.337  15.923 -1.8390  0.8011  0.8904
 7714SOL    HW234605   1.474   4.419  15.820  1.7251  0.8286  0.5946
 7715SOL     OW34606   1.679   2.312   7.496  0.3262  0.2622  0.1559
 7715SOL    HW134607   1.661   2.264   7.415 -1.1803  1.1005 -0.0132
 7715SOL    HW234608   1.698   2.247   7.564  0.6085 -0.1954 -0.3653
 7716SOL     OW34609   4.098   0.920   9.797  0.2132 -0.6342  0.7820
 7716SOL    HW134610   4.034   0.979   9.758  0.9551  0.3103  0.9843
 7716SOL    HW234611   4.125   0.885   9.713 -2.1594  0.4446 -0.4263
 7717SOL     OW34612   0.810   4.632   7.200 -0.6845 -0.0463 -0.3585
 7717SOL    HW134613   0.809   4.594   7.287  0.1722  1.1600  0.1724
 7717SOL    HW234614   0.856   4.713   7.221  0.0179 -0.4173 -0.4757
 7718SOL     OW34615   1.538   1.244  14.618  0.5156  0.1762 -0.0127
 7718SOL    HW134616   1.522   1.151  14.601 -0.8524  0.5462 -0.7277
 7718SOL    HW234617   1.559   1.277  14.530  1.9227 -2.8127 -0.8140
 7719SOL     OW34618   1.381   2.801   7.907  0.2893  0.0659 -0.1308
 7719SOL    HW134619   1.421   2.730   7.858  0.5629  0.5283 -0.5818
 7719SOL    HW234620   1.449   2.822   7.971  0.7708  0.2696 -0.7025
 7720SOL     OW34621   4.536   1.883   4.045 -0.0016  0.3875 -0.0043
 7720SOL    HW134622   4.461   1.836   4.081  1.2022 -2.4354 -1.1715
 7720SOL    HW234623   4.566   1.923   4.127 -1.6887  0.2921  0.6575
 7721SOL     OW34624   0.811   2.659   2.161  0.7108  0.4827  0.2150
 7721SOL    HW134625   0.739   2.681   2.220  0.2021  1.9874 -0.9986
 7721SOL    HW234626   0.887   2.669   2.219  0.9724  0.2472 -0.0858
 7722SOL     OW34627   1.264   0.956   5.627  0.8350  0.2911 -0.4438
 7722SOL    HW134628   1.188   0.913   5.666  0.7438 -0.4750 -1.4861
 7722SOL    HW234629   1.327   0.885   5.613  1.8996  1.4105 -1.3251
 7723SOL     OW34630   1.897   0.187   2.957 -0.2085  0.2727 -0.0539
 7723SOL    HW134631   1.854   0.138   2.887  1.8463  0.7195 -1.5994
 7723SOL    HW234632   1.954   0.119   2.994 -1.0852 -1.4509 -1.8704
 7724SOL     OW34633   3.072   2.656  10.177  0.2277 -0.3960 -0.2218
 7724SOL    HW134634   3.134   2.708  10.228  0.0456 -2.2174  1.8544
 7724SOL    HW234635   3.113   2.655  10.090  2.4213  0.5102  0.8062
 7725SOL     OW34636   3.955   0.778   2.391  0.5176  0.2005  0.3500
 7725SOL    HW134637   4.005   0.816   2.319 -0.2975  1.7342  0.6065
 7725SOL    HW234638   3.876   0.753   2.344  0.7872  2.4319 -1.2674
 7726SOL     OW34639   2.337   0.840  14.585  0.1629 -0.0504  0.2464
 7726SOL    HW134640   2.344   0.886  14.502  0.3521 -0.1605  0.2007
 7726SOL    HW234641   2.317   0.915  14.641 -2.9643 -1.4966  1.0771
 7727SOL     OW34642   1.673   0.823   5.573  0.5467  0.4759  0.2454
 7727SOL    HW134643   1.722   0.756   5.622  2.3853  0.9093 -1.0321
 7727SOL    HW234644   1.683   0.899   5.630  0.5223  0.0517  0.8236
 7728SOL     OW34645   0.686   4.147  10.463 -0.1615  0.1968 -0.2359
 7728SOL    HW134646   0.633   4.077  10.503  1.3409 -0.9025 -0.1657
 7728SOL    HW234647   0.773   4.123  10.493 -1.4554 -2.8831  1.1913
 7729SOL     OW34648   0.988   0.550   2.081  0.5707  0.7886  0.1348
 7729SOL    HW134649   1.069   0.509   2.113 -0.1150 -1.8557 -1.5254
 7729SOL    HW234650   0.993   0.518   1.991  0.2381 -0.4191  0.5521
 7730SOL     OW34651   2.304   1.452  13.780  0.1755 -0.3139 -0.5711
 7730SOL    HW134652   2.266   1.539  13.767  0.8325 -0.3718 -2.8923
 7730SOL    HW234653   2.396   1.471  13.800  0.0445  0.3030 -0.5709
 7731SOL     OW34654   2.993   3.058   2.688 -0.3927 -0.0006  0.1037
 7731SOL    HW134655   3.021   3.105   2.766  0.4008 -0.6149  0.1860
 7731SOL    HW234656   2.906   3.099   2.682  0.1875  1.2079 -0.0133
 7732SOL     OW34657   1.661   1.018  13.991 -0.1161  0.2651 -0.5668
 7732SOL    HW134658   1.648   1.112  13.985 -1.2457  0.2585  1.6423
 7732SOL    HW234659   1.754   1.009  14.009 -0.1992  0.4375 -0.0467
 7733SOL     OW34660   3.531   0.546   8.334 -0.2071 -0.0472  0.1505
 7733SOL    HW134661   3.586   0.619   8.305 -1.6603  1.2810  0.7354
 7733SOL    HW234662   3.487   0.586   8.409 -1.7693  0.9222 -1.2852
 7734SOL     OW34663   4.368   1.032  11.889 -0.7719  0.0097  0.1344
 7734SOL    HW134664   4.408   0.954  11.851  0.7060  1.5305 -1.4113
 7734SOL    HW234665   4.274   1.020  11.875 -0.4718 -0.4457 -1.6132
 7735SOL     OW34666   2.884   0.177  13.223 -0.0934 -0.2274  0.1523
 7735SOL    HW134667   2.828   0.186  13.300 -2.7495 -0.6537 -1.6889
 7735SOL    HW234668   2.956   0.223  13.265 -0.1283  1.1963 -1.3796
 7736SOL     OW34669   1.519   3.389   5.194 -0.3464 -0.2982 -0.7019
 7736SOL    HW134670   1.452   3.427   5.251  0.2284 -0.2494 -0.0637
 7736SOL    HW234671   1.512   3.293   5.197  0.3636 -0.3241  0.1295
 7737SOL     OW34672   3.810   2.155   3.309  0.5380  0.1546 -0.2770
 7737SOL    HW134673   3.726   2.111   3.326  0.2247  0.3498 -1.3207
 7737SOL    HW234674   3.808   2.146   3.214  1.2322  3.0162 -0.5719
 7738SOL     OW34675   1.063   1.258   2.203  0.1271 -0.0824  0.0938
 7738SOL    HW134676   1.155   1.263   2.175  0.4386  1.0634  1.2978
 7738SOL    HW234677   1.018   1.210   2.134  0.3297 -0.1979  0.0419
 7739SOL     OW34678   0.631   0.787  16.584 -0.2632 -0.2602  0.2328
 7739SOL    HW134679   0.647   0.826  16.670 -1.4512 -1.7710  1.1443
 7739SOL    HW234680   0.540   0.803  16.558 -0.4244 -0.8052  0.4601
 7740SOL     OW34681   3.053   2.689   6.993 -0.3502 -0.1755 -0.0361
 7740SOL    HW134682   3.032   2.645   6.910 -2.5099 -0.3680  0.6112
 7740SOL    HW234683   2.986   2.757   6.998  1.1666  1.5844 -3.4711
 7741SOL     OW34684   4.703   0.822   5.319  0.3384  0.2446 -0.4817
 7741SOL    HW134685   0.058   0.868   5.352 -0.2629 -0.7229  2.3230
 7741SOL    HW234686   4.637   0.892   5.319 -2.4694 -2.4605 -3.5243
 7742SOL     OW34687   2.623   1.866  11.049 -0.1021  0.4339  0.0230
 7742SOL    HW134688   2.676   1.832  11.122 -2.6872  2.5373  2.8906
 7742SOL    HW234689   2.587   1.786  11.012 -1.6163  1.9717 -1.7957
 7743SOL     OW34690   1.160   4.542   2.585 -0.1849  0.3598  0.2355
 7743SOL    HW134691   1.226   4.603   2.551 -0.3054  0.3834  0.0469
 7743SOL    HW234692   1.205   4.460   2.568 -1.3535 -0.6394  1.9254
 7744SOL     OW34693   1.784   0.899   6.480 -0.2876  0.3003  0.2616
 7744SOL    HW134694   1.745   0.829   6.427 -1.5118  1.4637 -0.3639
 7744SOL    HW234695   1.825   0.948   6.409 -2.6905  3.6551  1.2427
 7745SOL     OW34696   3.295   1.181   6.260 -0.4017  0.5500  0.0795
 7745SOL    HW134697   3.228   1.140   6.313  0.3641  0.2428  0.8134
 7745SOL    HW234698   3.311   1.112   6.196 -0.1129 -1.2220  2.0999
 7746SOL     OW34699   1.556   1.455  12.314  0.4748 -0.0532 -0.0957
 7746SOL    HW134700   1.606   1.376  12.294 -1.0515 -1.0471 -0.0074
 7746SOL    HW234701   1.592   1.509  12.243  0.9358  0.9476  0.9028
 7747SOL     OW34702   0.549   3.630  10.137  0.1421  0.4798  0.4414
 7747SOL    HW134703   0.507   3.564  10.193  0.9944 -0.0414  0.4633
 7747SOL    HW234704   0.485   3.701  10.141 -0.6763 -0.0599 -2.8673
 7748SOL     OW34705   1.377   2.161   4.677  0.0097 -0.3276  0.3036
 7748SOL    HW134706   1.381   2.078   4.631  1.4907 -0.7691  1.2128
 7748SOL    HW234707   1.402   2.143   4.768 -2.8577  2.0645  1.5757
 7749SOL     OW34708   4.688   4.702   1.264  0.6735  0.6396  0.3495
 7749SOL    HW134709   0.030   4.706   1.193  0.4663 -0.5644  0.0889
 7749SOL    HW234710   4.612   4.676   1.212  0.9703 -1.2111  0.8532
 7750SOL     OW34711   2.694   1.055  10.803  0.2383  0.0521 -0.1196
 7750SOL    HW134712   2.699   1.123  10.736  0.5125  1.4524  1.3095
 7750SOL    HW234713   2.608   1.066  10.843 -0.7731  0.4314 -2.4254
 7751SOL     OW34714   2.735   0.222  13.445 -0.1206 -0.2434 -0.2828
 7751SOL    HW134715   2.650   0.178  13.455 -0.7640  0.8735 -0.9514
 7751SOL    HW234716   2.732   0.286  13.516 -0.7969 -0.1515 -0.3939
 7752SOL     OW34717   1.388   4.671   6.946 -0.1612  0.1480  0.2083
 7752SOL    HW134718   1.307   4.663   6.996  0.0147 -1.7181  0.2034
 7752SOL    HW234719   1.392   4.579   6.917 -0.5801 -0.0356  0.7480
 7753SOL     OW34720   0.294   4.259   6.933  0.8399  0.2734 -0.1308
 7753SOL    HW134721   0.299   4.188   6.997  0.3658  0.6050  0.2728
 7753SOL    HW234722   0.209   4.299   6.950 -0.1337 -1.7036 -0.2762
 7754SOL     OW34723   4.499   1.174   1.409  0.2698 -0.4003 -0.1646
 7754SOL    HW134724   4.431   1.109   1.390 -1.2711  1.4550 -0.9727
 7754SOL    HW234725   4.465   1.242   1.351  1.4475 -0.1989 -0.6111
 7755SOL     OW34726   2.606   2.269   4.823 -0.2344 -0.1210 -0.4571
 7755SOL    HW134727   2.516   2.300   4.816 -0.1114  0.3364 -0.0140
 7755SOL    HW234728   2.649   2.332   4.765 -0.3174  0.2380 -0.1285
 7756SOL     OW34729   1.415   2.008   9.145 -0.1231  0.2208  0.5510
 7756SOL    HW134730   1.421   1.978   9.236  1.2956 -0.7157  0.1558
 7756SOL    HW234731   1.366   1.937   9.103  0.1731 -0.3527  1.1611
 7757SOL     OW34732   1.783   3.788   6.664  0.2040  0.8786  0.2058
 7757SOL    HW134733   1.804   3.736   6.741  1.0220  4.2758  2.2927
 7757SOL    HW234734   1.702   3.829   6.696  0.5559  1.8565 -0.1517
 7758SOL     OW34735   4.562   1.534   2.645  0.3688 -0.1221 -0.0925
 7758SOL    HW134736   4.562   1.506   2.737 -0.9869  1.7592  0.4885
 7758SOL    HW234737   4.473   1.566   2.633  0.4326 -0.0718 -0.4258
 7759SOL     OW34738   0.930   4.137   5.805  0.1191  0.2780 -0.1037
 7759SOL    HW134739   0.865   4.115   5.738 -1.2744  0.5811  1.1541
 7759SOL    HW234740   0.890   4.142   5.892  0.8348  1.2026  0.1790
 7760SOL     OW34741   0.432   1.953   6.673  0.1339 -0.3320  0.4054
 7760SOL    HW134742   0.394   1.866   6.688  4.5291 -1.9345  2.1520
 7760SOL    HW234743   0.465   1.954   6.583  1.4999  0.7443  0.9299
 7761SOL     OW34744   1.974   1.634   1.996 -0.2493 -0.1654  0.1848
 7761SOL    HW134745   1.957   1.658   1.905 -0.1045  0.2934  0.2785
 7761SOL    HW234746   2.053   1.687   2.004  0.9752 -2.0543  0.4122
 7762SOL     OW34747   1.256   3.291   7.134 -0.3544  0.2591  0.5897
 7762SOL    HW134748   1.204   3.339   7.199  0.4209  0.7407  0.8591
 7762SOL    HW234749   1.331   3.351   7.130 -1.0517  1.1919  1.5351
 7763SOL     OW34750   3.916   2.605   3.500  0.0628  0.0818  0.0282
 7763SOL    HW134751   3.911   2.608   3.596 -2.1864 -0.3568 -0.0726
 7763SOL    HW234752   3.992   2.664   3.497 -0.9593  1.4163  0.4696
 7764SOL     OW34753   2.140   3.419   4.624  0.4434 -0.7935 -0.1199
 7764SOL    HW134754   2.135   3.410   4.528  1.2871  0.0127 -0.2403
 7764SOL    HW234755   2.079   3.349   4.644  0.3558 -0.0602  2.1596
 7765SOL     OW34756   3.991   2.737   2.539 -0.2775  0.1008 -0.1753
 7765SOL    HW134757   3.998   2.695   2.453 -2.3091 -0.8679  0.1597
 7765SOL    HW234758   4.074   2.785   2.543 -0.0610 -0.4227  1.6472
 7766SOL     OW34759   3.447   1.631   7.299 -0.0488  0.1272  0.7567
 7766SOL    HW134760   3.379   1.624   7.366 -0.2732  1.2238  0.6386
 7766SOL    HW234761   3.454   1.726   7.292  0.9252 -0.0416 -0.6027
 7767SOL     OW34762   4.562   4.536   3.523 -0.1331 -0.4370 -0.0669
 7767SOL    HW134763   4.518   4.515   3.441  0.9350 -0.2459 -0.6896
 7767SOL    HW234764   4.494   4.541   3.590  0.0547 -1.7261  0.2185
 7768SOL     OW34765   2.805   3.765  16.611  0.0929  0.4305 -0.9913
 7768SOL    HW134766   2.898   3.744  16.617 -0.0115  0.4325  0.7111
 7768SOL    HW234767   2.779   3.755  16.702 -1.9627 -1.2493 -1.7582
 7769SOL     OW34768   4.337   3.661   8.973 -0.0374 -0.0862 -0.3500
 7769SOL    HW134769   4.258   3.697   9.012 -0.0669 -1.8302  1.1983
 7769SOL    HW234770   4.404   3.719   9.008 -0.6379 -2.1656  4.2440
 7770SOL     OW34771   0.503   4.081   6.122 -0.2462 -0.4088  0.0376
 7770SOL    HW134772   0.463   4.151   6.174  0.2585  0.0697 -0.2319
 7770SOL    HW234773   0.432   4.051   6.065  0.1791  1.3165 -1.3820
 7771SOL     OW34774   2.784   1.370   2.804  0.4563 -0.4341 -0.1173
 7771SOL    HW134775   2.714   1.314   2.770 -0.1671  0.5949 -0.5175
 7771SOL    HW234776   2.865   1.344   2.760 -0.6043  0.1989 -2.4777
 7772SOL     OW34777   2.742   1.353   2.435 -0.1562  0.1512 -0.5053
 7772SOL    HW134778   2.695   1.363   2.352 -1.3840  2.1031  0.4404
 7772SOL    HW234779   2.694   1.417   2.487  0.6377 -2.0194  2.8720
 7773SOL     OW34780   3.443   0.536  15.621  0.8678 -0.5952 -0.1557
 7773SOL    HW134781   3.371   0.473  15.619 -0.0861  0.4313  1.7490
 7773SOL    HW234782   3.438   0.551  15.715 -1.8867  2.6599 -0.8138
 7774SOL     OW34783   0.465   2.182   3.413 -0.8039  0.3235 -0.4684
 7774SOL    HW134784   0.493   2.094   3.437 -0.3384  0.3577 -0.8879
 7774SOL    HW234785   0.451   2.168   3.319  0.2704 -0.1340 -0.5596
 7775SOL     OW34786   2.168   0.737   3.053 -0.5750  0.3871 -0.2076
 7775SOL    HW134787   2.251   0.748   3.007 -0.8428  0.1068 -0.7575
 7775SOL    HW234788   2.110   0.777   2.988 -0.4593 -0.9673 -1.1381
 7776SOL     OW34789   1.059   2.734   2.833  0.2377  0.0476  0.4883
 7776SOL    HW134790   1.154   2.723   2.829  0.2131  0.1760 -0.5143
 7776SOL    HW234791   1.047   2.777   2.918 -3.6611 -0.7391  0.3501
 7777SOL     OW34792   2.416   2.513   7.978  0.1575 -0.4553  0.7480
 7777SOL    HW134793   2.499   2.465   7.970  0.7113  0.4396  1.1115
 7777SOL    HW234794   2.393   2.476   8.063 -1.0473 -2.3593 -0.4075
 7778SOL     OW34795   1.602   0.133   6.614  0.3714 -0.2324 -0.7378
 7778SOL    HW134796   1.692   0.159   6.595 -0.2015  2.3168  0.1262
 7778SOL    HW234797   1.582   0.163   6.702  0.1581  3.5462 -2.0769
 7779SOL     OW34798   1.313   3.625  13.069 -0.2377 -0.5837  0.0171
 7779SOL    HW134799   1.357   3.622  13.154  1.8647 -0.4221 -1.0446
 7779SOL    HW234800   1.389   3.609  13.013 -1.1227  0.0928 -1.3620
 7780SOL     OW34801   4.531   3.138   3.246 -0.3591 -0.6139  0.1503
 7780SOL    HW134802   4.480   3.063   3.214 -0.4271 -0.3209 -0.4356
 7780SOL    HW234803   4.542   3.122   3.339  0.0709  1.5062  0.4660
 7781SOL     OW34804   1.202   3.615  15.516  0.0143  0.3604  0.2449
 7781SOL    HW134805   1.275   3.590  15.460 -0.9518 -1.5695 -0.1428
 7781SOL    HW234806   1.124   3.607  15.463 -0.9530  2.1556  1.4160
 7782SOL     OW34807   1.760   1.892   7.783  0.5716  0.2321 -0.5024
 7782SOL    HW134808   1.804   1.896   7.867  0.0734 -0.6035 -0.1998
 7782SOL    HW234809   1.829   1.853   7.730  1.0951  0.8108 -0.2372
 7783SOL     OW34810   0.171   3.058   9.032  0.0861  0.3138 -0.4063
 7783SOL    HW134811   0.219   3.060   9.115  1.0783 -0.4569 -0.9555
 7783SOL    HW234812   0.171   2.963   9.023  2.2147  0.3121 -0.4142
 7784SOL     OW34813   0.471   0.151   5.735 -0.6371 -0.0525  0.1231
 7784SOL    HW134814   0.421   0.076   5.767  1.0876 -1.1774  0.1959
 7784SOL    HW234815   0.488   0.131   5.642 -0.3241  0.5360  0.0536
 7785SOL     OW34816   0.428   0.130   4.840 -0.3361  0.1830  0.5191
 7785SOL    HW134817   0.483   0.088   4.774 -2.8353  1.0338 -2.1063
 7785SOL    HW234818   0.487   0.097   4.909  2.3324  1.5002 -1.1255
 7786SOL     OW34819   2.944   4.236  16.133  0.0200 -0.5640 -0.5464
 7786SOL    HW134820   2.973   4.145  16.136 -1.5918 -1.0229  1.0286
 7786SOL    HW234821   2.986   4.265  16.214  0.0789 -4.7125  0.8777
 7787SOL     OW34822   2.996   1.653   3.769  0.1083  0.3022  0.3124
 7787SOL    HW134823   3.012   1.741   3.803  0.2764  0.2945  0.2507
 7787SOL    HW234824   3.026   1.676   3.681  6.2332 -0.7785  2.1793
 7788SOL     OW34825   3.706   1.415  14.288 -0.1451 -0.2903  0.3734
 7788SOL    HW134826   3.622   1.369  14.278 -0.3267  0.5375 -1.9585
 7788SOL    HW234827   3.710   1.461  14.204 -0.2680  0.2416  0.6574
 7789SOL     OW34828   3.671   1.268   4.805 -0.7237  0.1850  0.2994
 7789SOL    HW134829   3.668   1.191   4.862 -0.0336 -0.0273  0.0372
 7789SOL    HW234830   3.691   1.234   4.718  2.1685 -1.4302  1.6117
 7790SOL     OW34831   4.467   4.559   9.908  0.3360 -0.1799 -0.1768
 7790SOL    HW134832   4.406   4.624   9.872 -1.4602 -0.1722  2.8683
 7790SOL    HW234833   4.456   4.483   9.852  0.7778 -1.6644  1.7631
 7791SOL     OW34834   3.633   4.018  14.327 -0.1370  0.1186 -0.3995
 7791SOL    HW134835   3.654   3.935  14.284 -0.3737  0.8964 -2.0098
 7791SOL    HW234836   3.582   4.062  14.258 -1.9582  0.3843  1.1399
 7792SOL     OW34837   2.205   3.697   3.187 -0.4412  0.0964  0.9993
 7792SOL    HW134838   2.176   3.708   3.096 -1.0770  0.8759  1.2957
 7792SOL    HW234839   2.298   3.719   3.185 -0.3582 -0.2973  0.5876
 7793SOL     OW34840   1.649   3.597   8.111 -0.0380 -0.0208  0.2177
 7793SOL    HW134841   1.678   3.687   8.096  1.4806 -0.8598 -1.8146
 7793SOL    HW234842   1.731   3.566   8.149  0.2368 -0.5037 -0.7720
 7794SOL     OW34843   2.391   4.223  11.687  0.4470 -0.0256  0.2369
 7794SOL    HW134844   2.452   4.260  11.623  1.2020 -1.6533  0.0177
 7794SOL    HW234845   2.424   4.133  11.685 -0.8433 -0.4632 -1.5350
 7795SOL     OW34846   1.996   2.651  15.632 -0.5913 -0.0906 -0.2630
 7795SOL    HW134847   1.991   2.690  15.544 -3.1623 -1.0752 -0.5648
 7795SOL    HW234848   1.909   2.615  15.650  0.0661 -1.7954 -0.5340
 7796SOL     OW34849   1.801   1.751   2.862  0.1354  0.3154 -0.1342
 7796SOL    HW134850   1.737   1.679   2.862  0.3288  0.1438 -0.3462
 7796SOL    HW234851   1.866   1.713   2.803  0.3473  0.1890  0.1797
 7797SOL     OW34852   4.256   2.524   5.638 -0.3864  0.0047 -0.3181
 7797SOL    HW134853   4.265   2.582   5.714 -2.4736  0.6157 -0.5513
 7797SOL    HW234854   4.238   2.596   5.577 -0.3123 -0.1537 -0.5249
 7798SOL     OW34855   2.861   0.154   2.211 -1.5808  0.1339 -0.8535
 7798SOL    HW134856   2.905   0.204   2.142  1.9513 -1.0195  0.5339
 7798SOL    HW234857   2.888   0.197   2.292 -2.2469  0.3401 -0.7450
 7799SOL     OW34858   0.590   2.404  12.302 -0.3231 -0.5191  0.0330
 7799SOL    HW134859   0.542   2.332  12.262  1.5663 -0.7002 -1.9191
 7799SOL    HW234860   0.532   2.422  12.376 -1.5221  0.9049 -1.2805
 7800SOL     OW34861   3.687   2.937   3.969 -0.0473 -0.3546 -0.0127
 7800SOL    HW134862   3.642   3.017   3.996 -3.5002 -1.9414 -1.0162
 7800SOL    HW234863   3.743   2.927   4.046 -1.1441 -0.5967  0.7460
 7801SOL     OW34864   2.278   2.820   3.357 -0.1891 -0.1235  0.1725
 7801SOL    HW134865   2.310   2.739   3.316  0.4787  0.1846  0.0940
 7801SOL    HW234866   2.346   2.887   3.348  1.0073 -1.5844 -1.6264
 7802SOL     OW34867   0.869   4.227   0.530  0.9441  0.4308 -0.0743
 7802SOL    HW134868   0.915   4.306   0.501  0.5951  0.4795 -0.4852
 7802SOL    HW234869   0.900   4.231   0.621  0.4547  0.3456  0.0947
 7803SOL     OW34870   4.389   0.639   5.955  0.4301  0.5035 -0.1796
 7803SOL    HW134871   4.423   0.673   5.872  0.9608 -1.5531 -0.8076
 7803SOL    HW234872   4.458   0.591   6.001  0.5326  0.5011 -0.3365
 7804SOL     OW34873   2.828   2.233   4.454 -0.4941  0.1162  0.1604
 7804SOL    HW134874   2.834   2.255   4.547 -0.5826  1.0832 -0.0556
 7804SOL    HW234875   2.770   2.157   4.453 -1.5300  0.8926  0.8382
 7805SOL     OW34876   1.519   2.801   9.915 -0.6778 -0.3862 -0.1421
 7805SOL    HW134877   1.520   2.718   9.964 -0.3725 -1.8152 -2.5427
 7805SOL    HW234878   1.435   2.830   9.950 -0.4908 -0.5317  0.4320
 7806SOL     OW34879   1.610   3.749   4.859 -0.0643  0.0636  0.4377
 7806SOL    HW134880   1.665   3.683   4.817  0.1949  0.0449  0.8042
 7806SOL    HW234881   1.667   3.826   4.864  0.5172 -0.3636  0.3410
 7807SOL     OW34882   3.927   3.749   8.336 -0.0668 -0.0622 -0.0986
 7807SOL    HW134883   3.925   3.699   8.254 -1.0661  1.9631 -1.3315
 7807SOL    HW234884   3.935   3.836   8.296  2.8926 -1.2521 -2.0679
 7808SOL     OW34885   0.252   2.551   3.362 -0.5759  0.6213 -0.1588
 7808SOL    HW134886   0.346   2.561   3.370 -0.3426 -1.7704  0.0096
 7808SOL    HW234887   0.221   2.641   3.374 -0.4686  1.1652 -3.7036
 7809SOL     OW34888   3.203   2.735  11.253 -0.6886  0.3000 -0.1597
 7809SOL    HW134889   3.179   2.643  11.241  1.0630 -0.3818  1.5353
 7809SOL    HW234890   3.293   2.725  11.284  0.9727  0.0103 -5.0585
 7810SOL     OW34891   0.114   0.047  13.969 -0.6532 -0.0125 -0.4069
 7810SOL    HW134892   0.096   0.058  13.876  2.5915 -0.0844 -1.0536
 7810SOL    HW234893   0.209   0.031  13.963 -0.6020 -1.0636  3.0932
 7811SOL     OW34894   3.978   3.374  13.607 -0.1702  0.5032 -0.2397
 7811SOL    HW134895   3.992   3.451  13.552 -1.0962  0.5328 -0.4346
 7811SOL    HW234896   3.978   3.302  13.545 -2.2343  0.2178  0.0883
 7812SOL     OW34897   3.721   2.351  11.808  0.3199  0.5779 -0.2081
 7812SOL    HW134898   3.793   2.413  11.820 -0.0637  0.5352  2.1884
 7812SOL    HW234899   3.644   2.407  11.819 -0.0452  0.0005  0.1855
 7813SOL     OW34900   2.873   2.939  10.075 -0.5706 -0.0001  0.4093
 7813SOL    HW134901   2.844   3.008  10.135  0.2861  0.3118  0.4655
 7813SOL    HW234902   2.961   2.973  10.060 -0.0072 -1.2538  0.8465
 7814SOL     OW34903   4.070   3.830   6.926  0.7082  0.2209  0.2248
 7814SOL    HW134904   4.125   3.781   6.987  2.4939  0.1489 -1.3979
 7814SOL    HW234905   4.067   3.778   6.845 -1.9976  1.3032 -0.3510
 7815SOL     OW34906   2.919   3.589   3.668 -0.3148  0.0795 -0.5707
 7815SOL    HW134907   2.829   3.578   3.637  0.3278 -1.8674 -1.7221
 7815SOL    HW234908   2.959   3.502   3.669 -1.3908 -0.4106 -0.1594
 7816SOL     OW34909   4.376   1.309   9.146 -0.0686  0.4010  0.3766
 7816SOL    HW134910   4.438   1.382   9.149  0.4051 -0.0955  2.5352
 7816SOL    HW234911   4.294   1.355   9.166 -0.4164  0.1747 -0.5066
 7817SOL     OW34912   0.447   3.103  12.383  0.4228  0.0719 -0.1062
 7817SOL    HW134913   0.510   3.124  12.315  0.9973 -2.0571 -0.2488
 7817SOL    HW234914   0.479   3.024  12.427 -0.3017  0.5900  1.3663
 7818SOL     OW34915   0.442   3.813   1.993 -0.6068 -0.0165 -0.1123
 7818SOL    HW134916   0.401   3.786   2.075 -0.6989  1.6750  0.4034
 7818SOL    HW234917   0.531   3.826   2.028 -0.4063 -0.8467 -0.3170
 7819SOL     OW34918   0.832   1.856   2.346 -0.4662  0.1928  0.2192
 7819SOL    HW134919   0.878   1.783   2.386 -2.1840 -1.5222 -0.9611
 7819SOL    HW234920   0.866   1.842   2.258  0.0206  0.2463  0.3965
 7820SOL     OW34921   3.676   4.577   5.549  0.2541 -0.3937 -0.2333
 7820SOL    HW134922   3.617   4.510   5.514  0.7135 -0.0638 -1.6476
 7820SOL    HW234923   3.614   4.649   5.543 -0.7307 -1.2951 -0.9684
 7821SOL     OW34924   1.447   2.395  12.219  0.1309 -0.2607  0.4794
 7821SOL    HW134925   1.515   2.446  12.176  0.9710 -0.6156  1.3955
 7821SOL    HW234926   1.419   2.337  12.149 -1.0370  2.0293 -0.9739
 7822SOL     OW34927   3.860   0.716   9.557  0.2594 -0.6491  0.0477
 7822SOL    HW134928   3.793   0.757   9.611  1.0576 -3.9356  3.4623
 7822SOL    HW234929   3.805   0.666   9.496  1.8095 -2.5032  0.1640
 7823SOL     OW34930   0.388   3.566   8.830 -0.2409  0.0856 -0.4253
 7823SOL    HW134931   0.309   3.545   8.880 -0.7564 -1.0521 -1.7027
 7823SOL    HW234932   0.398   3.661   8.839 -0.9912 -0.1433  2.7513
 7824SOL     OW34933   2.675   1.619   5.482  0.0923  0.0933  0.2422
 7824SOL    HW134934   2.585   1.633   5.451  0.1373  3.5847  1.6623
 7824SOL    HW234935   2.699   1.536   5.441 -0.9624 -0.4864  0.8004
 7825SOL     OW34936   1.945   4.144   7.655  0.3587  0.0518  0.0262
 7825SOL    HW134937   2.030   4.166   7.618  0.7276  0.3272  1.0233
 7825SOL    HW234938   1.932   4.066   7.600 -1.2521  0.9378 -0.8184
 7826SOL     OW34939   1.957   1.580  12.697  0.4241 -0.5278  0.2285
 7826SOL    HW134940   1.934   1.661  12.651  1.3268  0.2325  1.1115
 7826SOL    HW234941   1.920   1.510  12.644 -1.0706  0.0313  0.5455
 7827SOL     OW34942   3.650   3.593   6.726 -0.2224 -0.2524 -0.7102
 7827SOL    HW134943   3.710   3.592   6.651  2.0636 -0.9726  1.1096
 7827SOL    HW234944   3.677   3.674   6.770  1.6801 -1.0308 -0.4384
 7828SOL     OW34945   1.585   0.843   4.998  0.0766  0.3750 -0.3793
 7828SOL    HW134946   1.578   0.938   4.996  2.0032  0.5899  4.5887
 7828SOL    HW234947   1.657   0.828   5.059  0.2123  0.4409 -0.5247
 7829SOL     OW34948   1.650   4.233  14.027  0.4002 -0.8324 -0.2463
 7829SOL    HW134949   1.566   4.278  14.039  0.9424 -0.6109  2.7370
 7829SOL    HW234950   1.715   4.287  14.071 -0.8770  1.0886 -0.7143
 7830SOL     OW34951   2.076   4.245  16.266  0.5233  0.1032  0.2498
 7830SOL    HW134952   2.063   4.176  16.331  3.4143  0.1009  0.8361
 7830SOL    HW234953   2.045   4.309  16.329  1.0817  0.9249 -0.3134
 7831SOL     OW34954   1.853   1.630   4.559 -0.2588  0.0467  0.4560
 7831SOL    HW134955   1.853   1.710   4.611  0.5999  0.5663 -0.3382
 7831SOL    HW234956   1.928   1.581   4.595  0.7023  1.7198  0.7235
 7832SOL     OW34957   0.785   3.786   4.002  0.1088  0.0785 -0.3584
 7832SOL    HW134958   0.721   3.745   4.061 -0.6041  0.5455 -0.8098
 7832SOL    HW234959   0.855   3.792   4.067  0.9138 -1.0701 -1.1152
 7833SOL     OW34960   1.724   1.368   4.297 -0.6032 -0.2302 -0.4909
 7833SOL    HW134961   1.708   1.433   4.229  1.8272  1.2677  0.3720
 7833SOL    HW234962   1.633   1.351   4.321 -0.0722 -0.8951  1.0577
 7834SOL     OW34963   3.174   4.453   6.706  0.1995  0.3497  0.2437
 7834SOL    HW134964   3.159   4.400   6.784  0.3503  2.4343  1.6830
 7834SOL    HW234965   3.114   4.522   6.736  1.2560  1.0688  0.6942
 7835SOL     OW34966   2.584   4.312   7.312 -0.2715 -0.3405 -0.4171
 7835SOL    HW134967   2.647   4.381   7.291 -0.7242  0.2870  0.2514
 7835SOL    HW234968   2.504   4.361   7.329  0.4669  1.0278 -0.8536
 7836SOL     OW34969   2.817   1.733   3.481  0.0825  0.0205 -0.3754
 7836SOL    HW134970   2.809   1.822   3.513  0.2334 -0.0019 -0.2763
 7836SOL    HW234971   2.866   1.743   3.399 -1.0675  1.2742 -0.9111
 7837SOL     OW34972   4.578   3.118   6.649 -0.7756  0.0524  0.1598
 7837SOL    HW134973   4.566   3.208   6.679  0.2772  0.2620 -0.0657
 7837SOL    HW234974   4.646   3.081   6.705 -0.3023  0.7886  0.0654
 7838SOL     OW34975   0.681   2.727   7.517 -0.9601 -0.1540 -0.2075
 7838SOL    HW134976   0.743   2.769   7.457 -1.7706 -0.5598 -1.3372
 7838SOL    HW234977   0.623   2.704   7.444  0.7292 -0.6162 -1.4108
 7839SOL     OW34978   2.047   0.417  15.562 -0.0446 -0.4077  0.1553
 7839SOL    HW134979   2.007   0.484  15.617  0.3149 -1.1898  1.3743
 7839SOL    HW234980   2.115   0.392  15.625 -0.8712 -1.4062  0.6626
 7840SOL     OW34981   2.208   0.437   7.776 -0.0059  0.3205  0.2617
 7840SOL    HW134982   2.153   0.460   7.851 -0.2134  1.6819 -0.2981
 7840SOL    HW234983   2.293   0.418   7.815 -0.0185  1.4297  0.8251
 7841SOL     OW34984   0.601   1.233   2.376  0.7687 -0.3565 -0.4973
 7841SOL    HW134985   0.512   1.214   2.405  1.1225  0.4196  1.1034
 7841SOL    HW234986   0.611   1.168   2.307 -0.7866 -0.6659 -0.4422
 7842SOL     OW34987   2.918   0.830   9.756 -0.1857 -0.7209 -0.3355
 7842SOL    HW134988   2.953   0.759   9.703  2.6170 -1.1829  2.1258
 7842SOL    HW234989   2.972   0.904   9.728 -1.2168  0.6441  1.2547
 7843SOL     OW34990   0.851   2.572   8.846 -0.0691 -0.2939 -0.1170
 7843SOL    HW134991   0.937   2.539   8.819  0.0924 -0.4386  0.5586
 7843SOL    HW234992   0.838   2.638   8.777 -1.0870 -1.4993 -1.0589
 7844SOL     OW34993   1.747   2.978  15.178 -0.2192 -0.3535 -0.1678
 7844SOL    HW134994   1.670   2.946  15.225  0.7345 -2.9950 -0.4198
 7844SOL    HW234995   1.765   2.912  15.111 -0.7997 -1.3187  0.6369
 7845SOL     OW34996   2.833   0.969   9.418 -0.2894  0.1386 -0.5846
 7845SOL    HW134997   2.821   1.053   9.372 -0.3601  0.9210  0.8661
 7845SOL    HW234998   2.897   0.935   9.355  1.4562 -1.3793  2.0213
 7846SOL     OW34999   1.250   4.334   3.953  0.2941  0.3804 -0.1054
 7846SOL    HW135000   1.273   4.385   3.876  2.0132 -0.1085  0.0865
 7846SOL    HW235001   1.324   4.344   4.013  0.8871 -0.8480 -0.6319
 7847SOL     OW35002   4.206   0.669   4.551  0.2280 -0.0608  0.2536
 7847SOL    HW135003   4.237   0.737   4.491  2.3233 -1.2917 -0.0496
 7847SOL    HW235004   4.290   0.629   4.573  0.0161 -0.2130  0.7892
 7848SOL     OW35005   2.057   3.109   5.290 -0.3518 -0.2556 -0.1951
 7848SOL    HW135006   2.150   3.088   5.297 -0.2356  0.0202 -0.9046
 7848SOL    HW235007   2.017   3.022   5.286  0.7749 -0.7882  0.1391
 7849SOL     OW35008   4.662   2.749   8.294  0.2997 -0.3050 -0.0049
 7849SOL    HW135009   4.687   2.716   8.380 -1.1814  0.6573  0.8034
 7849SOL    HW235010   4.715   2.682   8.250 -1.3886 -2.9696  1.9724
 7850SOL     OW35011   0.048   4.151   2.885 -0.4797 -0.3422 -0.5680
 7850SOL    HW135012   4.710   4.210   2.840  1.2680  0.7809 -1.4567
 7850SOL    HW235013   0.097   4.136   2.804  2.4326  0.5549  1.0396
 7851SOL     OW35014   1.764   0.218   8.253 -0.0850 -0.1544 -0.0134
 7851SOL    HW135015   1.809   0.157   8.196 -0.6986 -1.3705  0.8096
 7851SOL    HW235016   1.699   0.254   8.193 -1.0878 -0.5320  0.8431
 7852SOL     OW35017   1.229   2.146  16.539  0.1564  0.6836 -0.1303
 7852SOL    HW135018   1.318   2.128  16.570 -0.1864  0.0470  0.5042
 7852SOL    HW235019   1.223   2.087  16.464  2.0364 -0.3288  0.5257
 7853SOL     OW35020   1.777   1.177   9.275  0.4708  0.1645 -0.9097
 7853SOL    HW135021   1.839   1.206   9.209  0.7511  0.9111 -0.3140
 7853SOL    HW235022   1.708   1.147   9.216 -3.3985  0.7104  3.2641
 7854SOL     OW35023   4.176   3.456  10.367  0.6507 -0.4774  0.1398
 7854SOL    HW135024   4.193   3.428  10.457  0.1267 -0.4581  0.2433
 7854SOL    HW235025   4.088   3.492  10.363 -0.2656 -2.5608  1.9663
 7855SOL     OW35026   3.393   0.365  12.124  0.4635 -0.3698  0.3267
 7855SOL    HW135027   3.369   0.350  12.032 -4.0257 -1.3387  1.6285
 7855SOL    HW235028   3.484   0.341  12.139  1.1044  0.7061 -1.8129
 7856SOL     OW35029   1.421   3.016  17.643  0.6065 -0.7047  0.0899
 7856SOL    HW135030   1.486   3.080  17.615  1.7672 -0.8963  2.3345
 7856SOL    HW235031   1.339   3.057  17.616  2.0130  2.6941  0.9146
 7857SOL     OW35032   2.631   1.056   1.176 -0.0610 -0.5007 -0.2353
 7857SOL    HW135033   2.606   1.136   1.131 -1.0357 -0.2532  0.7531
 7857SOL    HW235034   2.718   1.082   1.205 -0.0838 -0.9226  0.2101
 7858SOL     OW35035   4.121   1.866   0.549  0.1381  0.4323  0.6228
 7858SOL    HW135036   4.150   1.776   0.563 -0.5069  0.4266  1.9484
 7858SOL    HW235037   4.141   1.901   0.636 -0.0053 -2.8626  1.9638
 7859SOL     OW35038   3.927   0.059  11.275  0.2101 -0.3905 -0.0349
 7859SOL    HW135039   3.836   0.031  11.264 -0.0411 -0.5133  2.2285
 7859SOL    HW235040   3.924   0.068  11.371 -0.3097  0.0589 -0.0884
 7860SOL     OW35041   4.060   0.054  13.553 -0.1917  0.4411  0.1593
 7860SOL    HW135042   4.057   4.715  13.626 -2.3817  0.2300 -0.1073
 7860SOL    HW235043   4.078   0.140  13.590 -1.3482  0.9212 -0.4182
 7861SOL     OW35044   4.200   0.256   6.465  0.4127  0.1945  0.5019
 7861SOL    HW135045   4.212   0.331   6.524  0.4032  1.1671 -0.7239
 7861SOL    HW235046   4.291   0.240   6.440 -0.9000 -0.8264 -3.5260
 7862SOL     OW35047   0.505   4.235  12.740 -0.4764 -0.0931  0.2519
 7862SOL    HW135048   0.528   4.249  12.648 -0.2015  2.1126  0.6638
 7862SOL    HW235049   0.412   4.259  12.731 -0.7802 -0.9224  1.0866
 7863SOL     OW35050   0.523   2.561   0.551  0.4514 -0.2566 -0.3608
 7863SOL    HW135051   0.575   2.568   0.471  1.7976  0.2899  0.5473
 7863SOL    HW235052   0.575   2.492   0.593 -1.4208 -0.9848  0.7610
 7864SOL     OW35053   1.291   4.569   2.185  0.1752 -0.4126  1.0811
 7864SOL    HW135054   1.316   4.541   2.097  0.3285  0.7716  0.7461
 7864SOL    HW235055   1.205   4.531   2.202 -0.6552  0.7127 -0.6099
 7865SOL     OW35056   3.040   0.320  11.995  0.0480  0.3201 -0.1033
 7865SOL    HW135057   2.986   0.261  12.048 -0.3024  1.2102  0.5407
 7865SOL    HW235058   3.026   0.274  11.912  1.8513  0.4266 -0.4480
 7866SOL     OW35059   2.287   0.959  10.052 -0.0632  0.6664 -0.3891
 7866SOL    HW135060   2.294   0.871  10.091  0.2546  1.4880  1.4265
 7866SOL    HW235061   2.321   0.944   9.964 -0.2046 -1.0824 -0.1620
 7867SOL     OW35062   0.274   4.402  12.379  0.4507 -0.7102 -0.2458
 7867SOL    HW135063   0.234   4.334  12.324 -0.4870 -0.8625  0.6193
 7867SOL    HW235064   0.258   4.471  12.315 -1.0318 -0.7143  0.1161
 7868SOL     OW35065   1.084   0.315   1.272 -0.0141 -0.3271 -0.0902
 7868SOL    HW135066   1.040   0.399   1.262  1.8201  0.5165 -1.2302
 7868SOL    HW235067   1.096   0.310   1.367  0.2085 -0.0799 -0.1048
 7869SOL     OW35068   0.321   4.696   3.676  0.5155 -0.1976 -0.3762
 7869SOL    HW135069   0.275   4.699   3.592  0.6464 -1.6967 -0.5044
 7869SOL    HW235070   0.254   4.663   3.735 -1.6658 -0.8256 -3.2004
 7870SOL     OW35071   2.772   2.934  11.303 -0.1017  0.1018  0.2533
 7870SOL    HW135072   2.749   2.980  11.384 -1.4500  0.5275 -0.3743
 7870SOL    HW235073   2.868   2.933  11.300 -0.0783  0.3724  0.8257
 7871SOL     OW35074   0.789   2.732   0.081  0.1573 -0.6067 -0.0827
 7871SOL    HW135075   0.830   2.793   0.020  0.6662 -0.4166  0.4521
 7871SOL    HW235076   0.801   2.659   0.021  0.2481 -0.0251 -0.7672
 7872SOL     OW35077   3.648   3.317   2.005  0.1938 -0.0583 -0.2543
 7872SOL    HW135078   3.680   3.390   1.951  0.4864 -1.9038 -2.5951
 7872SOL    HW235079   3.557   3.319   1.976 -0.8003  0.1756  2.8954
 7873SOL     OW35080   3.176   0.298   8.807  0.8324 -0.2507 -0.6498
 7873SOL    HW135081   3.097   0.284   8.859 -0.8626 -1.1546 -3.4524
 7873SOL    HW235082   3.132   0.328   8.727 -0.0195  0.1673 -0.0190
 7874SOL     OW35083   4.465   1.898   4.757 -0.2100 -0.6527 -0.3676
 7874SOL    HW135084   4.409   1.955   4.810  0.7210  1.0766 -1.2420
 7874SOL    HW235085   4.397   1.868   4.698 -0.5527 -0.2601 -0.1716
 7875SOL     OW35086   2.911   3.106   1.016 -0.0704  0.7883 -0.0643
 7875SOL    HW135087   2.977   3.130   1.081  1.5595  2.5198 -2.3716
 7875SOL    HW235088   2.952   3.034   0.969 -0.9198 -0.6459  1.3818
 7876SOL     OW35089   2.792   4.545   6.163  0.9224 -0.4956  0.4837
 7876SOL    HW135090   2.779   4.457   6.128  0.2137 -0.0034 -0.4758
 7876SOL    HW235091   2.730   4.540   6.236  1.9952  0.0454  1.4393
 7877SOL     OW35092   4.467   3.406  11.679 -0.1849 -0.0095  0.0747
 7877SOL    HW135093   4.529   3.437  11.746  0.0408 -0.2577 -0.0187
 7877SOL    HW235094   4.427   3.335  11.729 -1.2219 -1.2708 -2.5920
 7878SOL     OW35095   2.640   3.191   7.353 -0.9098  0.0891  0.0306
 7878SOL    HW135096   2.735   3.197   7.345 -0.8016 -1.9146 -0.2319
 7878SOL    HW235097   2.615   3.209   7.262  1.1095 -2.1549 -0.9881
 7879SOL     OW35098   1.409   0.822   0.683  0.2613 -0.2576 -0.1615
 7879SOL    HW135099   1.466   0.776   0.621 -1.9066 -0.8108 -1.7280
 7879SOL    HW235100   1.392   0.903   0.636 -0.8670 -0.6035 -0.3544
 7880SOL     OW35101   1.200   4.621  12.528  0.1685  0.6160  0.1834
 7880SOL    HW135102   1.158   4.667  12.455  0.9090 -0.7414 -1.0774
 7880SOL    HW235103   1.129   4.559  12.538 -0.9444  1.7593 -0.6579
 7881SOL     OW35104   2.620   0.219   9.557  0.0009  0.1885 -0.9755
 7881SOL    HW135105   2.664   0.164   9.622  1.4605  1.4925 -0.8636
 7881SOL    HW235106   2.530   0.189   9.563  0.2095 -0.2476  0.0940
 7882SOL     OW35107   2.415   3.246  14.894 -0.1948  0.1449 -0.1337
 7882SOL    HW135108   2.408   3.319  14.955 -1.9674 -1.3055  1.4170
 7882SOL    HW235109   2.334   3.195  14.901 -0.1865  0.1457 -0.0341
 7883SOL     OW35110   3.133   2.462   8.926 -0.0560 -0.4852  0.0607
 7883SOL    HW135111   3.068   2.504   8.984  0.1619 -2.3031  1.6283
 7883SOL    HW235112   3.181   2.544   8.916 -1.8585  0.4869 -0.6707
 7884SOL     OW35113   0.162   4.200   4.945  0.8206 -0.0756  0.8198
 7884SOL    HW135114   0.257   4.191   4.942  0.8209  0.7585 -1.2175
 7884SOL    HW235115   0.154   4.294   4.957  0.4500 -0.1359  1.0613
 7885SOL     OW35116   4.566   2.352   7.989 -0.0861 -0.3060 -0.5903
 7885SOL    HW135117   4.632   2.292   7.954  0.9773  1.0482 -0.9183
 7885SOL    HW235118   4.593   2.424   7.932 -3.4478  1.8666  0.5600
 7886SOL     OW35119   2.570   3.335  11.402 -0.4734  1.1812 -0.1591
 7886SOL    HW135120   2.539   3.245  11.415 -0.1814  1.2623  1.0921
 7886SOL    HW235121   2.610   3.327  11.315  0.1447 -0.0662  0.2320
 7887SOL     OW35122   1.159   4.114   0.399  0.0567 -0.4828 -0.2615
 7887SOL    HW135123   1.082   4.105   0.344  0.4775 -2.0457 -0.5849
 7887SOL    HW235124   1.183   4.204   0.374 -0.2860 -0.2536  0.2237
 7888SOL     OW35125   4.014   1.331   9.610  0.0310  0.1598  0.5475
 7888SOL    HW135126   4.007   1.245   9.651  1.3158  1.3184  3.2565
 7888SOL    HW235127   4.085   1.374   9.658 -0.6155  1.2748  0.5041
 7889SOL     OW35128   0.228   0.521   5.286 -0.1248  0.3378 -0.2756
 7889SOL    HW135129   0.216   0.430   5.312 -0.8550  0.7159  0.7179
 7889SOL    HW235130   0.171   0.518   5.209  0.1418  0.7901 -0.4887
 7890SOL     OW35131   4.053   2.734   8.574 -0.0752  0.5223  0.0873
 7890SOL    HW135132   3.986   2.784   8.527 -0.8630 -1.4198 -0.8419
 7890SOL    HW235133   4.044   2.754   8.667 -0.6455 -1.2837  0.4261
 7891SOL     OW35134   1.840   4.683   5.237  0.1377  0.0596  0.1938
 7891SOL    HW135135   1.846   4.697   5.143 -1.3080  0.5779  0.1842
 7891SOL    HW235136   1.842   4.588   5.225  0.2257  0.1564 -0.5248
 7892SOL     OW35137   3.531   0.913   0.728 -0.6413 -0.6270 -0.2744
 7892SOL    HW135138   3.570   0.843   0.780  0.2298  0.2718  0.2700
 7892SOL    HW235139   3.445   0.914   0.770 -0.6459 -0.1648 -0.3044
 7893SOL     OW35140   4.343   2.691   8.832 -0.2181 -0.9288  0.0893
 7893SOL    HW135141   4.323   2.782   8.855  0.9609 -0.3946 -0.9732
 7893SOL    HW235142   4.334   2.646   8.916 -2.5232 -1.4487 -0.4586
 7894SOL     OW35143   1.245   2.578  14.222 -0.0408 -0.1814  0.1209
 7894SOL    HW135144   1.337   2.549  14.221 -0.2206 -0.7135 -1.0994
 7894SOL    HW235145   1.237   2.601  14.314 -2.9802 -2.1698  0.3450
 7895SOL     OW35146   3.911   1.242   8.840  0.1204  0.2892  0.2017
 7895SOL    HW135147   3.921   1.300   8.764 -0.5350  0.3008  0.1229
 7895SOL    HW235148   3.944   1.305   8.904  0.5189 -1.1951  1.4457
 7896SOL     OW35149   2.276   2.971   2.602 -0.2639 -0.0635 -0.3500
 7896SOL    HW135150   2.197   2.948   2.651 -0.0683 -0.8336 -0.3954
 7896SOL    HW235151   2.337   2.998   2.670 -2.5928  0.8234  1.3830
 7897SOL     OW35152   4.096   0.178  15.645  0.1976 -0.6637  0.1463
 7897SOL    HW135153   4.180   0.137  15.664  0.7188  0.1103 -0.4699
 7897SOL    HW235154   4.121   0.270  15.658 -1.2159  0.1388 -2.7086
 7898SOL     OW35155   3.006   0.337   4.598  0.1913 -0.1716  0.3049
 7898SOL    HW135156   3.098   0.319   4.578 -0.2326 -1.9188 -0.0232
 7898SOL    HW235157   2.955   0.264   4.565  0.2045 -0.8515  1.7962
 7899SOL     OW35158   3.471   4.405   2.361  0.8521 -0.5674  0.1561
 7899SOL    HW135159   3.563   4.410   2.332  0.9269  0.1099  0.5146
 7899SOL    HW235160   3.454   4.497   2.379  2.5689 -0.4353  1.1164
 7900SOL     OW35161   4.616   3.010  16.470  0.7831 -0.0547  0.9807
 7900SOL    HW135162   4.550   3.064  16.426  0.5756  0.4971  1.9562
 7900SOL    HW235163   4.608   3.028  16.564  1.5627  0.7428  0.8844
 7901SOL     OW35164   0.204   2.341   5.992 -0.3005  0.2220  0.4252
 7901SOL    HW135165   0.156   2.398   6.052  1.6457  0.0088  2.2090
 7901SOL    HW235166   0.139   2.333   5.923 -3.2829 -3.0911  3.5860
 7902SOL     OW35167   4.704   3.393   6.923  0.1242  0.7197  0.3182
 7902SOL    HW135168   4.621   3.399   6.969  0.9372  2.7713  1.5005
 7902SOL    HW235169   4.677   3.400   6.832 -0.1765 -1.6943  0.2145
 7903SOL     OW35170   3.183   4.437   5.816 -0.1145 -0.0758 -0.2905
 7903SOL    HW135171   3.179   4.476   5.729  0.2154 -2.3772 -1.3327
 7903SOL    HW235172   3.099   4.466   5.851 -0.0251 -2.1138  1.6400
 7904SOL     OW35173   3.602   2.399   3.636 -0.0320  0.2538  0.0662
 7904SOL    HW135174   3.636   2.391   3.547 -0.4343 -3.6214  0.2480
 7904SOL    HW235175   3.533   2.464   3.624  2.0037  2.2240 -0.8954
 7905SOL     OW35176   1.503   4.444  15.662 -0.3156 -0.0232 -0.3108
 7905SOL    HW135177   1.435   4.410  15.605  0.9511 -0.1435 -1.7454
 7905SOL    HW235178   1.585   4.427  15.616 -0.2700  0.6287 -0.4793
 7906SOL     OW35179   0.568   1.721   2.410 -0.3425 -0.2775 -0.1787
 7906SOL    HW135180   0.636   1.767   2.361 -1.4422  2.7012  1.1045
 7906SOL    HW235181   0.503   1.789   2.394  1.0726  0.9668 -0.6107
 7907SOL     OW35182   0.393   0.128   3.905 -0.2048 -0.3887 -0.0228
 7907SOL    HW135183   0.388   0.058   3.841  0.6959 -2.6589  2.3767
 7907SOL    HW235184   0.310   0.110   3.948 -0.3789  1.4176  0.4021
 7908SOL     OW35185   1.285   1.969  15.247  0.0908 -0.3120 -0.5971
 7908SOL    HW135186   1.313   1.902  15.184 -1.6625 -0.1584 -1.5399
 7908SOL    HW235187   1.216   1.927  15.299  0.1491 -0.4240 -0.6121
 7909SOL     OW35188   1.044   3.618   3.865  0.0100 -0.1813  0.3233
 7909SOL    HW135189   1.022   3.582   3.951  0.0966  0.4930  0.6265
 7909SOL    HW235190   0.990   3.696   3.854 -2.2946 -1.5681  1.7966
 7910SOL     OW35191   3.673   0.146   7.215  0.0776 -0.1812  0.0515
 7910SOL    HW135192   3.641   0.073   7.163 -2.4946 -0.4335  1.9465
 7910SOL    HW235193   3.600   0.155   7.277  1.4331 -0.4392  1.6788
 7911SOL     OW35194   4.090   4.432   3.764  0.2715 -0.0961 -1.0955
 7911SOL    HW135195   4.141   4.506   3.797 -0.8889  0.0293  0.4389
 7911SOL    HW235196   4.075   4.371   3.837 -1.3427  1.6433  0.0048
 7912SOL     OW35197   3.638   4.329   6.025  0.3104 -0.3776  0.7890
 7912SOL    HW135198   3.644   4.422   6.005  0.4746 -0.7301 -0.8448
 7912SOL    HW235199   3.613   4.331   6.117 -0.2393 -0.3156  0.6386
 7913SOL     OW35200   0.111   2.916  11.690  0.2743 -0.9593 -0.4067
 7913SOL    HW135201   0.065   2.833  11.704 -1.0431 -0.0075  0.9932
 7913SOL    HW235202   0.048   2.987  11.704 -0.2164 -1.2796 -1.0206
 7914SOL     OW35203   3.360   2.079   5.091 -0.2975 -0.6559 -0.9322
 7914SOL    HW135204   3.297   2.016   5.127 -0.5494  0.2467  0.2143
 7914SOL    HW235205   3.438   2.067   5.144 -1.7607 -1.8285  0.9659
 7915SOL     OW35206   0.421   2.469   7.172 -0.1552 -0.0286 -0.3228
 7915SOL    HW135207   0.458   2.493   7.087  0.5992  0.8139  0.2378
 7915SOL    HW235208   0.426   2.374   7.164  0.7647  0.0050 -0.1650
 7916SOL     OW35209   0.720   3.362   4.680  0.6554 -0.3147 -0.1676
 7916SOL    HW135210   0.741   3.392   4.592 -1.5868 -1.0309 -0.9347
 7916SOL    HW235211   0.636   3.402   4.702  0.8774 -0.2598  0.5716
 7917SOL     OW35212   1.587   1.841   2.420 -0.8448  0.8357  0.4696
 7917SOL    HW135213   1.537   1.806   2.346  0.4700  0.2898 -0.1578
 7917SOL    HW235214   1.666   1.787   2.420 -0.5049  1.3285 -0.3491
 7918SOL     OW35215   3.070   0.561  17.464 -0.1663 -0.1467 -0.1881
 7918SOL    HW135216   3.154   0.594  17.433 -0.0054 -0.0884  0.3152
 7918SOL    HW235217   3.016   0.554  17.385  2.1291  2.3255 -1.9462
 7919SOL     OW35218   2.991   4.190   6.000  0.5745  0.1816 -0.0648
 7919SOL    HW135219   3.049   4.266   6.005  1.2279 -0.3882  1.1082
 7919SOL    HW235220   3.024   4.150   5.920 -2.2598 -3.4544  0.5789
 7920SOL     OW35221   1.580   1.891   7.416 -0.2963 -0.0349 -0.0874
 7920SOL    HW135222   1.662   1.889   7.366  1.1420 -0.1063  2.2713
 7920SOL    HW235223   1.547   1.802   7.401 -0.3363  0.1444 -1.0608
 7921SOL     OW35224   4.589   3.278   2.441  0.2414 -0.5030 -0.5038
 7921SOL    HW135225   4.635   3.213   2.386  0.8834 -0.9833  0.6031
 7921SOL    HW235226   4.648   3.274   2.516  1.3708  0.1461 -1.3543
 7922SOL     OW35227   0.483   3.724  17.158  0.1386  0.2427 -0.2983
 7922SOL    HW135228   0.406   3.728  17.214  0.8702  0.6982  0.6907
 7922SOL    HW235229   0.476   3.659  17.088  1.5823 -2.5209  2.1188
 7923SOL     OW35230   1.394   4.061   4.472 -0.2027  0.3070  0.2794
 7923SOL    HW135231   1.386   3.994   4.540 -1.2327  0.1868  0.0462
 7923SOL    HW235232   1.406   4.134   4.531  1.3572  0.7769 -0.6180
 7924SOL     OW35233   0.921   0.335   7.908  0.1851  0.4658  0.0881
 7924SOL    HW135234   0.931   0.374   7.821  1.6497 -2.3519 -1.0163
 7924SOL    HW235235   0.898   0.404   7.970 -0.0640  0.0815  0.4257
 7925SOL     OW35236   0.226   2.440   6.917 -0.0263  0.0646 -0.1534
 7925SOL    HW135237   0.274   2.398   6.845 -0.4384 -1.3748  0.4086
 7925SOL    HW235238   0.199   2.375   6.982  0.2377 -1.1384 -1.2467
 7926SOL     OW35239   3.559   2.854   8.656 -0.1494 -0.4303 -0.1527
 7926SOL    HW135240   3.600   2.940   8.651  0.3035 -0.5277  1.8990
 7926SOL    HW235241   3.631   2.793   8.644 -0.5531 -0.8026 -0.6964
 7927SOL     OW35242   3.627   0.951   0.337  0.5592 -0.6237 -0.0467
 7927SOL    HW135243   3.687   0.890   0.292 -2.1573 -1.5652 -2.3820
 7927SOL    HW235244   3.566   0.887   0.374 -1.1938  0.9010 -0.3032
 7928SOL     OW35245   2.449   2.203   7.142  0.5630  0.4413  0.0183
 7928SOL    HW135246   2.390   2.179   7.214  0.8471 -1.0344 -0.2294
 7928SOL    HW235247   2.450   2.298   7.140  0.1473  0.3483 -3.4395
 7929SOL     OW35248   4.380   0.643   9.298 -0.1495 -0.0394 -0.1150
 7929SOL    HW135249   4.451   0.652   9.361  0.1702 -0.1873 -0.4568
 7929SOL    HW235250   4.303   0.634   9.354  0.4011 -2.2866  0.2869
 7930SOL     OW35251   1.410   2.479  11.654  0.0821  0.2624 -0.0575
 7930SOL    HW135252   1.327   2.445  11.623  0.8430 -2.7698  1.2332
 7930SOL    HW235253   1.390   2.571  11.635  1.3531  0.3134 -1.1709
 7931SOL     OW35254   4.522   2.131   6.923  0.5833  0.0212 -0.3853
 7931SOL    HW135255   4.600   2.075   6.916 -1.4073 -2.4058 -3.2061
 7931SOL    HW235256   4.532   2.188   7.000 -0.9121 -1.9760  1.2875
 7932SOL     OW35257   0.436   2.839   5.837  0.1555 -0.0630  0.5050
 7932SOL    HW135258   0.503   2.771   5.837  0.0308 -0.1874  2.3974
 7932SOL    HW235259   0.385   2.810   5.761  0.8143 -0.2955  0.1512
 7933SOL     OW35260   0.921   0.711  17.238 -0.0085 -0.4951  0.1447
 7933SOL    HW135261   0.947   0.795  17.275 -1.9047 -0.2624  0.9744
 7933SOL    HW235262   0.994   0.651  17.252  2.1530  2.8596  3.1689
 7934SOL     OW35263   1.261   1.526  17.171  0.3421 -0.0009 -0.1695
 7934SOL    HW135264   1.182   1.529  17.118 -1.7205  0.1176  2.8612
 7934SOL    HW235265   1.317   1.482  17.108  0.0551  1.0551 -1.1666
 7935SOL     OW35266   1.330   3.240  10.506  0.2723 -0.1746 -0.6742
 7935SOL    HW135267   1.421   3.237  10.533  0.0702  0.3174  0.0695
 7935SOL    HW235268   1.328   3.264  10.414 -1.1647  0.3523 -0.5050
 7936SOL     OW35269   2.805   1.708  12.874 -0.2090  0.3461  0.2056
 7936SOL    HW135270   2.868   1.724  12.804 -1.3690  3.0913 -0.2210
 7936SOL    HW235271   2.799   1.613  12.867  1.6087  0.0588  2.6687
 7937SOL     OW35272   1.140   2.824   6.094  0.0887 -0.2903 -0.5514
 7937SOL    HW135273   1.206   2.805   6.161 -2.2878  0.5393  2.0287
 7937SOL    HW235274   1.098   2.890   6.150 -0.6762  0.4162 -1.9759
 7938SOL     OW35275   0.091   0.674   9.138 -0.2077 -0.2406 -0.1509
 7938SOL    HW135276   0.164   0.728   9.107 -0.0225 -1.7678 -2.2847
 7938SOL    HW235277   0.085   0.715   9.225  1.6703 -0.6113  0.1570
 7939SOL     OW35278   1.144   0.356   8.095 -0.6636 -0.0308  0.0365
 7939SOL    HW135279   1.094   0.365   8.013 -0.0438  1.3198 -0.1904
 7939SOL    HW235280   1.133   0.262   8.110  1.0894 -0.6104 -2.2774
 7940SOL     OW35281   3.145   2.966   6.354 -0.4299  0.2057  0.1649
 7940SOL    HW135282   3.195   2.885   6.368  1.5914  1.0979 -1.8321
 7940SOL    HW235283   3.119   2.995   6.441  1.2044 -0.9425  1.0377
 7941SOL     OW35284   3.015   1.731  12.047  0.1235  0.2943 -0.2380
 7941SOL    HW135285   2.959   1.677  11.992 -1.6104  3.5316 -1.5978
 7941SOL    HW235286   2.952   1.797  12.073  0.9444  0.6863  0.7788
 7942SOL     OW35287   2.905   3.910  15.246  0.0407 -0.1800  0.1134
 7942SOL    HW135288   2.918   3.821  15.279 -1.2884 -0.3446  0.1916
 7942SOL    HW235289   2.817   3.937  15.271  0.1101  0.6838 -0.5807
 7943SOL     OW35290   4.191   0.024   5.282 -0.0449  0.0618  0.3419
 7943SOL    HW135291   4.218   0.106   5.240 -0.1861  0.0364  0.2002
 7943SOL    HW235292   4.153   0.056   5.364 -0.2253  0.6018  0.0520
 7944SOL     OW35293   3.668   1.333   0.705  0.0996  0.0676  0.5385
 7944SOL    HW135294   3.592   1.347   0.648 -0.0352 -2.6927  0.0725
 7944SOL    HW235295   3.694   1.261   0.648 -0.3153  0.0176  0.4122
 7945SOL     OW35296   2.892   0.817   5.611  0.3323 -0.1541  0.2738
 7945SOL    HW135297   2.930   0.730   5.602  2.6619  0.9045 -0.2787
 7945SOL    HW235298   2.799   0.799   5.601  0.6506 -1.9850  0.5649
 7946SOL     OW35299   3.975   2.623  16.829 -0.2596  0.1728 -0.2022
 7946SOL    HW135300   3.880   2.616  16.819  0.0465 -3.0915 -0.8970
 7946SOL    HW235301   4.009   2.540  16.861  3.1020  1.2910 -0.8643
 7947SOL     OW35302   1.197   3.029   8.130  0.1310 -0.2640  0.3268
 7947SOL    HW135303   1.109   3.054   8.158 -0.1176 -0.0722 -0.6342
 7947SOL    HW235304   1.211   3.092   8.060 -0.2283  2.1400  2.4032
 7948SOL     OW35305   1.997   0.468   3.434  0.0893 -0.3400 -0.3472
 7948SOL    HW135306   1.907   0.448   3.461 -0.0156  1.1211  0.3644
 7948SOL    HW235307   2.015   0.420   3.353 -0.7566  0.8426 -1.2367
 7949SOL     OW35308   2.080   2.913  11.344 -0.0897  0.4415  0.1436
 7949SOL    HW135309   2.066   2.847  11.412  2.4591 -0.7420 -0.4636
 7949SOL    HW235310   2.173   2.907  11.323 -0.6612 -0.4212 -2.1912
 7950SOL     OW35311   3.531   3.359  15.728 -0.2040 -0.2359  0.1744
 7950SOL    HW135312   3.558   3.338  15.818  0.7400 -0.2338 -0.1070
 7950SOL    HW235313   3.438   3.364  15.749 -0.0581 -1.1150  1.0503
 7951SOL     OW35314   4.281   3.197  11.513 -0.3929 -0.1767 -0.1038
 7951SOL    HW135315   4.322   3.200  11.599 -2.4142 -2.3592  0.9295
 7951SOL    HW235316   4.356   3.184  11.455 -0.5780  0.0984 -0.3991
 7952SOL     OW35317   3.870   2.205   1.368  0.6177  0.3494  0.5499
 7952SOL    HW135318   3.828   2.235   1.288  0.9129  2.4362  1.1687
 7952SOL    HW235319   3.867   2.271   1.438  1.2918 -0.2954  1.1936
 7953SOL     OW35320   1.121   0.053   3.250 -0.2673 -0.6731  0.0177
 7953SOL    HW135321   1.188   0.063   3.182 -1.3926 -0.5553 -1.0724
 7953SOL    HW235322   1.040   0.079   3.207 -0.7307 -1.9155  0.1535
 7954SOL     OW35323   2.241   2.329   4.751  0.3318 -0.3331  0.1106
 7954SOL    HW135324   2.260   2.249   4.702 -0.7707 -1.3843  1.3908
 7954SOL    HW235325   2.145   2.331   4.742  0.0824 -1.6900  2.6120
 7955SOL     OW35326   4.231   0.019   2.850 -0.3999 -0.4110  0.2972
 7955SOL    HW135327   4.177   0.079   2.797 -2.9574 -0.3681  2.9596
 7955SOL    HW235328   4.222   0.044   2.942  1.6392 -0.8097  0.6085
 7956SOL     OW35329   2.899   0.286   8.878  0.3841  0.3692  0.5198
 7956SOL    HW135330   2.904   0.232   8.799  0.0379 -0.4957  1.0885
 7956SOL    HW235331   2.895   0.219   8.945 -0.7792 -1.1072 -1.0382
 7957SOL     OW35332   3.486   4.210   5.213 -0.2091 -0.2917 -0.0122
 7957SOL    HW135333   3.464   4.233   5.122  2.6305  0.2671 -0.5527
 7957SOL    HW235334   3.412   4.152   5.230  0.0914 -1.0399 -1.2609
 7958SOL     OW35335   3.839   0.366   6.347 -0.0179 -0.1276  0.0937
 7958SOL    HW135336   3.752   0.394   6.319 -0.7383 -1.4716  1.0414
 7958SOL    HW235337   3.840   0.415   6.429  0.3371  0.4271 -0.2362
 7959SOL     OW35338   3.325   0.874   8.719  0.0909  0.3844  0.0845
 7959SOL    HW135339   3.337   0.795   8.771  0.7207  0.8532  0.6438
 7959SOL    HW235340   3.371   0.939   8.773  0.0440 -0.1863  0.8001
 7960SOL     OW35341   1.251   4.184   6.444  0.1724 -0.2002 -0.8357
 7960SOL    HW135342   1.184   4.124   6.476 -1.1064  1.3202 -0.6467
 7960SOL    HW235343   1.248   4.257   6.506  1.5049 -0.8287 -0.0215
 7961SOL     OW35344   4.533   3.410   7.302  0.6744  0.0837 -0.2037
 7961SOL    HW135345   4.448   3.366   7.302  0.1302  1.1346 -0.1785
 7961SOL    HW235346   4.530   3.466   7.224  0.1135  0.3329 -0.0056
 7962SOL     OW35347   1.630   1.151   0.361 -0.5445 -0.6926 -0.2169
 7962SOL    HW135348   1.605   1.060   0.344 -1.7729 -0.6900  1.6126
 7962SOL    HW235349   1.688   1.170   0.288 -0.0564  0.0116  0.3580
 7963SOL     OW35350   1.971   2.128   9.282  0.0119  0.5981 -0.0294
 7963SOL    HW135351   1.888   2.087   9.308  1.0495 -1.5470 -0.0956
 7963SOL    HW235352   2.033   2.056   9.294  0.5851  0.6681 -2.6225
 7964SOL     OW35353   0.207   3.719   1.353 -0.2578 -0.0191  0.4989
 7964SOL    HW135354   0.204   3.792   1.290  1.2865  0.1628  0.6362
 7964SOL    HW235355   0.281   3.747   1.407  0.5582 -0.6116 -0.3051
 7965SOL     OW35356   0.569   0.017   4.595  0.4035  0.2481 -0.1967
 7965SOL    HW135357   0.543   0.079   4.527 -0.9381  2.1735  2.0503
 7965SOL    HW235358   0.626   4.683   4.543  1.4907  1.9801 -0.9106
 7966SOL     OW35359   3.013   1.608   8.384  0.3058 -0.0845  0.6183
 7966SOL    HW135360   2.953   1.562   8.325  2.1026 -1.1571 -0.3717
 7966SOL    HW235361   3.095   1.594   8.337 -0.9209 -0.9493 -1.2904
 7967SOL     OW35362   3.448   1.539  11.795  0.4349 -0.1172 -0.2118
 7967SOL    HW135363   3.417   1.629  11.793  2.6930  0.6754  0.8796
 7967SOL    HW235364   3.433   1.517  11.887 -1.1589 -1.3645 -0.7711
 7968SOL     OW35365   3.931   2.054   7.592  0.5085 -0.4492  0.3101
 7968SOL    HW135366   4.016   2.030   7.556  0.3568 -1.6930  0.7984
 7968SOL    HW235367   3.871   2.042   7.519 -1.9186  1.8378  1.8958
 7969SOL     OW35368   3.307   4.184  13.724 -0.4483 -0.4591 -0.6001
 7969SOL    HW135369   3.315   4.279  13.730 -0.1282 -0.4358 -1.4061
 7969SOL    HW235370   3.335   4.165  13.634  2.5500 -2.4440  0.7967
 7970SOL     OW35371   2.491   1.941  17.501  0.4535  0.8269  0.2987
 7970SOL    HW135372   2.471   2.017  17.555  3.6754  1.8262  0.0819
 7970SOL    HW235373   2.500   1.980  17.414  0.3638  1.0190  0.3735
 7971SOL     OW35374   1.726   2.426   8.102  0.7729 -0.2972  0.2970
 7971SOL    HW135375   1.730   2.343   8.150  2.2015 -0.1555  0.4384
 7971SOL    HW235376   1.733   2.396   8.012 -0.1995  2.3318 -0.6665
 7972SOL     OW35377   4.374   4.375   4.006  0.8006 -0.3509  0.2682
 7972SOL    HW135378   4.331   4.306   4.057 -0.7197  1.0678  0.8933
 7972SOL    HW235379   4.363   4.450   4.065 -1.7631 -0.0566 -0.5799
 7973SOL     OW35380   3.043   0.763   2.439  0.0044  0.2180  0.3147
 7973SOL    HW135381   3.034   0.769   2.344  0.7514  2.4110  0.3680
 7973SOL    HW235382   2.969   0.710   2.467 -0.3108  0.4605 -0.0520
 7974SOL     OW35383   0.463   4.248   3.616 -0.4567  0.4528 -0.2595
 7974SOL    HW135384   0.368   4.259   3.612 -0.2917  1.8551 -0.1276
 7974SOL    HW235385   0.502   4.332   3.637 -1.3654  0.4345  1.4670
 7975SOL     OW35386   3.883   0.533   5.187  0.5761  0.1656 -0.2927
 7975SOL    HW135387   3.970   0.514   5.152  0.6884  2.9792 -1.5148
 7975SOL    HW235388   3.883   0.453   5.241 -1.5504 -1.6716 -2.9979
 7976SOL     OW35389   0.272   0.055   2.208  0.5888 -0.3891 -0.5189
 7976SOL    HW135390   0.333   0.091   2.272  0.3531 -2.6284  0.9592
 7976SOL    HW235391   0.190   0.100   2.229  1.3743  0.3537  0.9555
 7977SOL     OW35392   2.312   1.961   3.308 -0.1496  0.3621 -0.0075
 7977SOL    HW135393   2.343   1.960   3.218  1.0902 -1.6787  0.4560
 7977SOL    HW235394   2.229   2.008   3.304  0.4470  1.4466  0.2312
 7978SOL     OW35395   1.728   3.395  14.746  0.1902  0.4240 -0.5963
 7978SOL    HW135396   1.645   3.432  14.716 -1.0669  0.2828  2.7587
 7978SOL    HW235397   1.774   3.405  14.663  1.1951 -1.4514 -0.2600
 7979SOL     OW35398   4.493   0.499  10.735  0.3942 -0.8099  0.0747
 7979SOL    HW135399   4.441   0.467  10.661  0.0832 -0.2501  0.0565
 7979SOL    HW235400   4.576   0.514  10.690 -0.0277 -0.6103 -0.6502
 7980SOL     OW35401   1.382   1.768   2.205 -0.3698 -0.4093 -0.4779
 7980SOL    HW135402   1.444   1.717   2.154  1.3126  0.8417  0.3107
 7980SOL    HW235403   1.307   1.770   2.145 -0.0444  1.6229 -0.8360
 7981SOL     OW35404   2.512   0.942  15.292 -0.0558  0.3375 -0.1671
 7981SOL    HW135405   2.423   0.930  15.261  0.0457 -1.4731  0.2632
 7981SOL    HW235406   2.545   1.008  15.230 -1.3836 -0.4258 -1.6726
 7982SOL     OW35407   0.588   2.168   6.500 -0.3205 -0.1985  0.4643
 7982SOL    HW135408   0.517   2.228   6.475 -0.3675 -0.7026 -0.6202
 7982SOL    HW235409   0.661   2.207   6.452 -0.5976  0.1677  0.3437
 7983SOL     OW35410   4.570   1.925   3.381  0.0246  0.3111  0.1981
 7983SOL    HW135411   4.639   1.966   3.328 -1.7531  2.3582 -0.5495
 7983SOL    HW235412   4.523   1.875   3.315 -0.2195 -0.7815  1.1968
 7984SOL     OW35413   0.515   0.533   6.423  0.0544  0.0756  0.3439
 7984SOL    HW135414   0.448   0.473   6.391  0.5832 -0.2119 -0.2103
 7984SOL    HW235415   0.457   0.607   6.440 -2.5598 -1.4912 -1.8447
 7985SOL     OW35416   4.599   3.854   5.728  0.6577  0.3474  0.0440
 7985SOL    HW135417   4.604   3.938   5.684 -0.5257  0.5644  0.3312
 7985SOL    HW235418   4.503   3.855   5.734  0.5525 -0.9422 -1.5106
 7986SOL     OW35419   2.812   3.127   5.817 -0.3502  0.5363  0.7201
 7986SOL    HW135420   2.839   3.172   5.897 -1.0077  2.4341 -0.1366
 7986SOL    HW235421   2.748   3.064   5.850 -2.3109  2.6218  0.8617
 7987SOL     OW35422   3.102   2.670   1.357  0.1639  0.0930 -0.3766
 7987SOL    HW135423   3.121   2.664   1.451  1.7341 -0.8522 -0.7442
 7987SOL    HW235424   3.171   2.613   1.322 -1.0111 -2.1186  0.8413
 7988SOL     OW35425   3.069   1.273   3.590 -0.2881  0.4837 -0.3391
 7988SOL    HW135426   3.008   1.343   3.568 -0.3579  0.1907 -1.0735
 7988SOL    HW235427   3.136   1.276   3.522  0.1175  0.9294  0.0856
 7989SOL     OW35428   1.979   4.719   1.411  0.0177  0.0877  0.2683
 7989SOL    HW135429   2.051   0.001   1.475 -0.3745 -0.8627  0.7688
 7989SOL    HW235430   1.937   0.075   1.447 -2.7067 -0.3355 -2.0515
 7990SOL     OW35431   2.400   2.637   5.438  0.3014  0.3598  0.2651
 7990SOL    HW135432   2.445   2.712   5.398  1.4051  0.8831  2.4789
 7990SOL    HW235433   2.308   2.664   5.443 -0.7068 -2.7563 -1.8474
 7991SOL     OW35434   2.950   3.909   1.906  0.1300  0.2283 -0.1204
 7991SOL    HW135435   2.975   3.974   1.840  0.3191  0.1116 -0.1633
 7991SOL    HW235436   2.984   3.948   1.987 -2.3669  0.1119  0.9746
 7992SOL     OW35437   2.975   4.562   1.618 -0.0883  0.2316 -0.4668
 7992SOL    HW135438   2.992   4.615   1.696 -4.7151  0.0918  0.6629
 7992SOL    HW235439   2.939   4.484   1.660  0.6681  1.3200  2.1894
 7993SOL     OW35440   3.028   3.067  13.713  0.1122  0.2414  0.1065
 7993SOL    HW135441   3.110   3.025  13.742 -0.6068 -1.0129  0.3126
 7993SOL    HW235442   2.997   3.005  13.648  0.7551  2.0841 -1.9540
 7994SOL     OW35443   2.091   0.322   5.282 -0.3132  0.1141  0.1153
 7994SOL    HW135444   2.146   0.246   5.263 -0.1807 -0.1036  1.3818
 7994SOL    HW235445   2.011   0.287   5.323  0.9591 -1.5559  1.1839
 7995SOL     OW35446   0.520   3.763   8.483 -0.0399  0.6720 -0.3490
 7995SOL    HW135447   0.543   3.831   8.547 -0.2640  1.0614 -0.6774
 7995SOL    HW235448   0.427   3.750   8.501  0.0727  1.0399  0.5004
 7996SOL     OW35449   4.306   2.120   3.291  0.1128 -0.2034  0.3375
 7996SOL    HW135450   4.342   2.207   3.303  0.6329 -0.1954 -1.2893
 7996SOL    HW235451   4.214   2.139   3.304 -0.1221 -1.9732  1.2809
 7997SOL     OW35452   3.106   2.661   8.317  0.0773  0.2748 -0.0424
 7997SOL    HW135453   3.172   2.602   8.282 -0.8995 -1.3826  0.8899
 7997SOL    HW235454   3.084   2.627   8.403 -0.8252  0.0194 -0.3693
 7998SOL     OW35455   0.589   4.401   3.322  0.2758  0.1063 -0.9430
 7998SOL    HW135456   0.516   4.422   3.381  1.9637  2.5515  0.2759
 7998SOL    HW235457   0.581   4.307   3.308 -2.0643  0.3046 -1.0631
 7999SOL     OW35458   3.424   0.556   1.336  0.0772  0.4604 -0.0853
 7999SOL    HW135459   3.332   0.572   1.358 -0.2614  2.2452 -2.8599
 7999SOL    HW235460   3.447   0.493   1.405  1.6798  1.2669  0.1250
 8000SOL     OW35461   2.548   3.159   3.058  0.4010 -0.4098 -0.6341
 8000SOL    HW135462   2.489   3.128   2.989 -0.4473 -0.4574  0.1023
 8000SOL    HW235463   2.523   3.109   3.136  0.2929 -0.8232 -0.9369
 8001SOL     OW35464   3.067   3.323   1.433  0.0045 -0.0989  0.5275
 8001SOL    HW135465   2.973   3.331   1.417  0.4663 -1.7530 -3.0137
 8001SOL    HW235466   3.093   3.415   1.436  0.2125 -0.1891  1.6939
 8002SOL     OW35467   3.789   1.813   8.515 -0.1606  0.4289  0.1618
 8002SOL    HW135468   3.775   1.864   8.435  0.9113 -0.4512 -0.5880
 8002SOL    HW235469   3.877   1.788   8.489 -0.7879 -1.3117 -0.2609
 8003SOL     OW35470   3.899   1.113   6.016 -0.7216 -0.4188  0.1265
 8003SOL    HW135471   3.834   1.166   6.062 -0.6195 -0.5509  0.4283
 8003SOL    HW235472   3.919   1.050   6.086  0.1296 -0.6628 -0.3418
 8004SOL     OW35473   3.171   0.202   5.329  0.5731  0.2367 -0.3126
 8004SOL    HW135474   3.137   0.255   5.257  1.9730  2.2913  0.5608
 8004SOL    HW235475   3.258   0.189   5.291  0.7326  2.5316 -0.7552
 8005SOL     OW35476   2.712   4.282  12.014 -0.2357 -0.0921 -0.3090
 8005SOL    HW135477   2.621   4.307  12.001 -0.6293 -0.9889  0.6986
 8005SOL    HW235478   2.752   4.283  11.927 -0.5187 -5.2997 -0.5191
 8006SOL     OW35479   2.466   4.018   4.324  0.7345  0.6095 -0.5436
 8006SOL    HW135480   2.546   4.054   4.287 -0.1941 -0.2335 -3.3386
 8006SOL    HW235481   2.488   3.930   4.354  1.5085  1.0701  0.2547
 8007SOL     OW35482   4.428   1.624   1.388 -0.0472  0.2044  0.3710
 8007SOL    HW135483   4.357   1.663   1.439  0.8424 -0.1281  1.8727
 8007SOL    HW235484   4.421   1.665   1.302  2.6290  1.6499  0.8703
 8008SOL     OW35485   4.152   4.138   2.030  0.1252 -0.0079 -0.8122
 8008SOL    HW135486   4.086   4.156   2.097  0.8029 -1.6850  0.3162
 8008SOL    HW235487   4.218   4.206   2.041  0.3302 -0.7000  2.1988
 8009SOL     OW35488   3.987   3.058   3.902 -0.1358  0.0881 -0.2852
 8009SOL    HW135489   3.961   3.150   3.894  1.3864  0.6993  1.5731
 8009SOL    HW235490   4.026   3.034   3.818  0.8495  2.4351 -0.5077
 8010SOL     OW35491   1.798   2.336   6.724 -0.2579  0.5300  0.1945
 8010SOL    HW135492   1.874   2.393   6.729 -0.8258  1.2153  1.0872
 8010SOL    HW235493   1.748   2.397   6.669 -0.3203 -1.6887 -2.2359
 8011SOL     OW35494   3.137   3.515  16.841 -0.3400 -0.3933 -0.0119
 8011SOL    HW135495   3.078   3.521  16.916 -1.9450 -0.2313 -1.2965
 8011SOL    HW235496   3.160   3.423  16.828 -0.1666 -0.6109  1.7378
 8012SOL     OW35497   4.451   2.880   1.555 -0.3920  0.1056 -0.1623
 8012SOL    HW135498   4.520   2.815   1.545  0.0911  0.5497  0.2553
 8012SOL    HW235499   4.503   2.945   1.602  0.2090  1.1898 -2.3178
 8013SOL     OW35500   1.571   2.152   4.267  0.4245  0.1016 -0.1000
 8013SOL    HW135501   1.662   2.175   4.248  0.3823 -0.8543 -1.4435
 8013SOL    HW235502   1.586   2.058   4.264  0.9164  0.1104  2.2666
 8014SOL     OW35503   1.752   3.098   3.956  0.6120 -0.4023  0.2123
 8014SOL    HW135504   1.821   3.137   4.009  1.3901 -2.0831  0.4117
 8014SOL    HW235505   1.704   3.063   4.031  3.0279 -2.4186  0.8074
 8015SOL     OW35506   4.412   4.497  11.431 -0.1429  0.3240 -0.2286
 8015SOL    HW135507   4.391   4.586  11.400  1.1154  1.2575  1.6104
 8015SOL    HW235508   4.337   4.476  11.486  1.7344  0.8525  2.5670
 8016SOL     OW35509   3.227   4.590   4.927 -0.4140  0.2322 -0.6191
 8016SOL    HW135510   3.145   4.599   4.878 -0.4826  0.9186 -0.3846
 8016SOL    HW235511   3.284   4.577   4.851  0.6244 -0.6816  0.3241
 8017SOL     OW35512   1.173   4.069   1.386 -0.6846 -0.2501  0.5087
 8017SOL    HW135513   1.144   3.978   1.393 -0.6492 -0.4255 -1.6556
 8017SOL    HW235514   1.233   4.055   1.312 -1.6600 -0.1122 -0.3053
 8018SOL     OW35515   2.496   2.350  10.468  0.4000 -0.4238 -0.2025
 8018SOL    HW135516   2.576   2.390  10.435 -0.1180 -0.8593 -2.0062
 8018SOL    HW235517   2.453   2.299  10.399 -1.6327  1.5804 -0.4359
 8019SOL     OW35518   3.800   2.107   3.035  0.2815  0.7163  0.0045
 8019SOL    HW135519   3.811   2.106   2.940 -2.1138  0.7934 -0.2874
 8019SOL    HW235520   3.836   2.022   3.061  2.7969  1.8082  0.0913
 8020SOL     OW35521   0.663   1.032   2.200  0.2659  0.6275  0.1579
 8020SOL    HW135522   0.720   1.019   2.124  1.1382  1.9684  0.5889
 8020SOL    HW235523   0.658   0.940   2.228  1.0877 -0.1374 -2.1554
 8021SOL     OW35524   1.163   0.247  15.094  0.0563  0.2902  0.6349
 8021SOL    HW135525   1.193   0.180  15.155 -0.3510  1.0200  1.6481
 8021SOL    HW235526   1.068   0.240  15.107 -0.1683 -0.6902 -1.5260
 8022SOL     OW35527   0.948   4.031   0.134  0.5933 -0.1923  0.3242
 8022SOL    HW135528   0.873   4.064   0.084  0.9274  0.6573  0.3779
 8022SOL    HW235529   1.017   4.044   0.069 -1.2279  1.0436 -1.3754
 8023SOL     OW35530   3.169   2.100   9.616 -0.3263  0.3469  0.0514
 8023SOL    HW135531   3.244   2.100   9.675  0.8729 -1.2077 -1.4687
 8023SOL    HW235532   3.180   2.180   9.565 -0.4096 -0.0745 -0.6392
 8024SOL     OW35533   2.188   0.466   3.904  0.3464  0.0606 -0.1592
 8024SOL    HW135534   2.136   0.544   3.926 -0.7184 -0.9847  0.9772
 8024SOL    HW235535   2.279   0.495   3.897  0.7936 -0.9681  1.6399
 8025SOL     OW35536   4.708   2.659  15.840  0.3405  0.4276 -0.1723
 8025SOL    HW135537   0.003   2.635  15.931  0.1558 -0.8060 -0.4634
 8025SOL    HW235538   4.694   2.754  15.848 -0.7241  0.2972 -0.5132
 8026SOL     OW35539   1.155   1.272   8.397 -0.1034 -0.4239  0.0650
 8026SOL    HW135540   1.087   1.220   8.440  0.6848 -1.8369 -0.3956
 8026SOL    HW235541   1.221   1.203   8.393  0.2690  0.0502 -1.7539
 8027SOL     OW35542   4.357   3.555   6.122 -0.0899  0.2023  0.7965
 8027SOL    HW135543   4.435   3.599   6.087  0.2753 -1.0536  0.0166
 8027SOL    HW235544   4.354   3.586   6.212  1.3999  0.6773  0.6796
 8028SOL     OW35545   3.132   0.245  12.596  0.7192  0.2505 -0.0703
 8028SOL    HW135546   3.059   0.298  12.627  0.5131  0.0294 -0.1787
 8028SOL    HW235547   3.122   0.256  12.501  0.3932  0.1739 -0.0464
 8029SOL     OW35548   1.368   0.694   2.463 -0.3493  0.5024  0.2063
 8029SOL    HW135549   1.379   0.785   2.489 -3.2938  1.2726 -1.2381
 8029SOL    HW235550   1.280   0.668   2.488 -0.6361  1.7115  0.4658
 8030SOL     OW35551   1.113   0.642   2.530 -0.2645 -0.1107 -0.5696
 8030SOL    HW135552   1.072   0.568   2.574 -1.0443  0.4239 -0.3908
 8030SOL    HW235553   1.041   0.658   2.470 -0.8776  0.8723  0.4190
 8031SOL     OW35554   1.642   2.576   4.336  0.6030  0.2216 -0.1244
 8031SOL    HW135555   1.631   2.644   4.403 -0.0780  2.4816 -2.5079
 8031SOL    HW235556   1.700   2.516   4.383 -1.9631 -1.4453  0.9237
 8032SOL     OW35557   4.690   3.016   1.422 -0.1927 -0.5273  0.7253
 8032SOL    HW135558   4.640   3.001   1.341  0.8290  1.2748 -0.2521
 8032SOL    HW235559   4.648   3.096   1.454 -0.0966 -0.0191 -0.4182
 8033SOL     OW35560   4.282   2.831   2.054  0.0031 -0.1936  0.1057
 8033SOL    HW135561   4.350   2.898   2.046  0.0597 -0.0871  1.4087
 8033SOL    HW235562   4.330   2.749   2.039 -1.8083 -1.1091 -0.7616
 8034SOL     OW35563   0.242   3.687  16.796  0.0907 -0.1758  0.1449
 8034SOL    HW135564   0.280   3.684  16.708 -0.6838 -0.5122 -0.1700
 8034SOL    HW235565   0.194   3.769  16.803 -0.9987 -0.5188 -3.2463
 8035SOL     OW35566   2.816   3.272  13.932 -0.3875  0.1651 -0.0385
 8035SOL    HW135567   2.745   3.255  13.993 -0.9981  2.3515 -0.1365
 8035SOL    HW235568   2.781   3.347  13.884  0.5687  1.2424  0.9332
 8036SOL     OW35569   3.867   1.961   1.873  0.7234 -0.5292  0.2490
 8036SOL    HW135570   3.877   1.899   1.946 -1.8208 -0.3098  0.7972
 8036SOL    HW235571   3.925   2.030   1.904 -0.9795  0.6391  0.8256
 8037SOL     OW35572   3.621   1.229   3.602 -0.8283 -0.0822 -0.4756
 8037SOL    HW135573   3.550   1.256   3.544 -0.2610 -0.7846 -1.4906
 8037SOL    HW235574   3.593   1.231   3.694 -0.9963  1.5837 -0.5504
 8038SOL     OW35575   3.859   4.072   8.627  0.1644 -0.3246 -0.8200
 8038SOL    HW135576   3.798   4.027   8.568 -0.1819 -0.6935 -0.1882
 8038SOL    HW235577   3.946   4.041   8.603  0.6156  2.0492 -2.2351
 8039SOL     OW35578   1.039   2.520  14.043 -0.4513 -0.3140  0.0900
 8039SOL    HW135579   1.104   2.534  14.112  0.9840 -0.4253 -1.2338
 8039SOL    HW235580   1.080   2.572  13.974 -2.1503  0.4671 -0.3429
 8040SOL     OW35581   4.365   2.878   0.958 -0.6669  0.0169  0.3484
 8040SOL    HW135582   4.346   2.972   0.965 -1.4182 -0.1548  0.5790
 8040SOL    HW235583   4.303   2.843   1.022  0.3100 -1.9830  0.1960
 8041SOL     OW35584   1.038   1.079   1.964  0.6875 -0.2194  0.0678
 8041SOL    HW135585   1.117   1.028   1.943  0.7047 -0.4155  0.6140
 8041SOL    HW235586   0.992   0.997   1.982  1.2324 -0.2635  1.2213
 8042SOL     OW35587   3.046   1.740  10.726  0.5579 -0.3797 -0.5265
 8042SOL    HW135588   2.988   1.790  10.783  2.1198  0.9621 -0.1478
 8042SOL    HW235589   3.019   1.650  10.745 -2.7044  0.5825 -0.5265
 8043SOL     OW35590   3.385   2.564   2.116  0.6504  0.2555  0.6648
 8043SOL    HW135591   3.331   2.514   2.177 -0.2288  0.3194 -0.0467
 8043SOL    HW235592   3.331   2.548   2.038  0.7538 -2.3047  1.1373
 8044SOL     OW35593   3.022   0.266   3.099 -0.6515  0.0861 -0.3183
 8044SOL    HW135594   3.107   0.247   3.137 -0.3306 -1.8824 -2.0303
 8044SOL    HW235595   3.042   0.353   3.064  2.2395 -1.3102 -2.0567
 8045SOL     OW35596   3.957   0.922   7.473  0.1583 -0.7969  0.1479
 8045SOL    HW135597   3.978   1.015   7.474 -1.7416 -0.3886  2.1149
 8045SOL    HW235598   3.942   0.905   7.380 -1.9755  0.5685  0.2434
 8046SOL     OW35599   1.644   4.305  11.929  0.6983  0.6627  0.1269
 8046SOL    HW135600   1.579   4.316  11.999 -0.6129  0.3426 -1.0555
 8046SOL    HW235601   1.610   4.350  11.852 -1.5211  1.6468  1.6664
 8047SOL     OW35602   2.556   3.127  16.327 -0.8275 -0.0329  0.1162
 8047SOL    HW135603   2.482   3.127  16.387 -0.6747 -0.6385  0.3055
 8047SOL    HW235604   2.555   3.215  16.289 -2.3734  0.6250  1.6875
 8048SOL     OW35605   2.597   2.749   0.218  0.5140  0.7546 -0.4711
 8048SOL    HW135606   2.578   2.811   0.289  0.0180 -0.1303  0.1676
 8048SOL    HW235607   2.626   2.678   0.275 -0.4620  0.3083 -0.5363
 8049SOL     OW35608   0.157   1.576  16.455 -0.0496  0.2597  1.0521
 8049SOL    HW135609   0.099   1.614  16.521 -0.4674  1.4767 -0.0019
 8049SOL    HW235610   0.175   1.653  16.400  1.2714 -0.6348  0.2413
 8050SOL     OW35611   2.710   2.666   3.007  0.0399  0.1195  0.0209
 8050SOL    HW135612   2.798   2.636   3.030  0.8116  1.0463 -1.7366
 8050SOL    HW235613   2.722   2.710   2.923  1.8471 -0.6971 -0.1551
 8051SOL     OW35614   0.454   4.366   1.953 -0.3228  0.2319  0.5220
 8051SOL    HW135615   0.518   4.370   2.024  1.0811  3.0734 -0.9024
 8051SOL    HW235616   0.415   4.278   1.956  2.4928 -1.0957 -2.1768
 8052SOL     OW35617   2.625   0.050   4.887 -0.1796  0.1430  0.8271
 8052SOL    HW135618   2.704   0.012   4.924  0.6139  0.7141 -0.2734
 8052SOL    HW235619   2.635   0.022   4.796  0.1852  1.4003  0.4857
 8053SOL     OW35620   2.447   3.712   1.321  0.3622 -0.4049  0.3989
 8053SOL    HW135621   2.357   3.742   1.327  0.5954  0.5054 -0.4796
 8053SOL    HW235622   2.449   3.722   1.225  1.3352 -1.8764  0.2676
 8054SOL     OW35623   3.646   2.426  15.148 -0.2327 -0.5585 -0.2992
 8054SOL    HW135624   3.646   2.521  15.157 -0.1683 -0.6194  0.3697
 8054SOL    HW235625   3.589   2.415  15.072 -2.8321 -0.9646  1.7202
 8055SOL     OW35626   2.235   1.181   0.393  0.2612 -0.6469 -0.0149
 8055SOL    HW135627   2.250   1.257   0.337  1.0622 -1.3761 -0.7849
 8055SOL    HW235628   2.309   1.189   0.452 -0.1853 -1.5150  0.6547
 8056SOL     OW35629   4.233   2.540  12.748 -0.5150 -0.1193 -0.4051
 8056SOL    HW135630   4.277   2.605  12.802 -2.7562  1.4855 -0.5284
 8056SOL    HW235631   4.278   2.578  12.672  0.3308  0.2271  0.2744
 8057SOL     OW35632   4.396   2.059   3.543 -0.2363  0.1899 -0.6863
 8057SOL    HW135633   4.458   2.010   3.489  0.4062 -0.3135  0.5047
 8057SOL    HW235634   4.341   2.092   3.472 -0.7711  0.1953 -0.2631
 8058SOL     OW35635   1.661   2.547   3.551  0.1657 -0.0155  0.1551
 8058SOL    HW135636   1.741   2.578   3.508  0.9280 -1.6083  0.3904
 8058SOL    HW235637   1.665   2.569   3.644  1.5643  3.5130 -0.7492
 8059SOL     OW35638   2.714   4.252   2.339  0.2050  0.2777 -0.3839
 8059SOL    HW135639   2.802   4.274   2.311  1.7024 -3.4127  1.3636
 8059SOL    HW235640   2.733   4.165   2.376 -0.8348 -0.8224 -2.4424
 8060SOL     OW35641   2.284   1.066   3.171  0.0339  0.3084 -0.7917
 8060SOL    HW135642   2.370   1.024   3.165 -0.7879 -1.4446 -0.1955
 8060SOL    HW235643   2.243   1.001   3.228  1.5623  0.4031  0.4343
 8061SOL     OW35644   2.493   3.751  17.054  0.1642  0.1770  0.0343
 8061SOL    HW135645   2.542   3.732  17.134  0.7295  0.1574 -0.3177
 8061SOL    HW235646   2.461   3.662  17.037 -0.2081  0.4715 -0.8015
 8062SOL     OW35647   2.660   4.312   0.199 -1.0928  0.3528  0.1672
 8062SOL    HW135648   2.652   4.288   0.107 -1.9515  0.6233  0.1743
 8062SOL    HW235649   2.752   4.336   0.205 -0.9042 -0.0423 -1.2183
 8063SOL     OW35650   0.630   4.508  11.384  0.8370  0.6075  0.3495
 8063SOL    HW135651   0.708   4.544  11.427  1.1146 -1.2537  1.3736
 8063SOL    HW235652   0.579   4.588  11.369  0.4198  0.4688  1.0477
 8064SOL     OW35653   4.583   1.738   8.299  0.0760 -0.2410 -0.4687
 8064SOL    HW135654   4.514   1.778   8.353  0.6827 -1.3504  1.1295
 8064SOL    HW235655   4.636   1.816   8.280  1.6581 -1.1365  0.1999
 8065SOL     OW35656   0.122   0.736  11.362 -0.7903 -0.3210  0.4010
 8065SOL    HW135657   0.061   0.663  11.353 -1.3135  0.4031 -2.1408
 8065SOL    HW235658   0.087   0.783  11.437 -0.3635 -0.3023  0.5880
 8066SOL     OW35659   1.629   4.487   5.793 -0.3294 -0.6368  0.1454
 8066SOL    HW135660   1.654   4.397   5.815  1.6497  0.3415  1.9534
 8066SOL    HW235661   1.679   4.502   5.713 -1.0906 -0.0303 -0.2166
 8067SOL     OW35662   3.061   3.897   4.130 -0.6277 -0.1396  0.2114
 8067SOL    HW135663   2.991   3.839   4.098 -0.1110 -0.1696 -0.8367
 8067SOL    HW235664   3.045   3.967   4.067  2.3906  0.2361 -0.1067
 8068SOL     OW35665   4.551   0.352   8.181  0.2429 -0.7294 -0.1514
 8068SOL    HW135666   4.484   0.414   8.208 -0.3014 -0.7438 -1.4987
 8068SOL    HW235667   4.595   0.415   8.125  1.9027 -0.5434  1.3466
 8069SOL     OW35668   3.913   3.822  15.322  0.1784 -0.3836 -0.4227
 8069SOL    HW135669   3.908   3.777  15.406 -1.2761 -0.3409 -0.4908
 8069SOL    HW235670   3.839   3.782  15.275  0.4343 -0.4045 -0.8139
 8070SOL     OW35671   0.485   3.217   9.221 -0.7367 -0.0461  0.2502
 8070SOL    HW135672   0.544   3.142   9.224  0.4956  0.8855 -0.7334
 8070SOL    HW235673   0.523   3.263   9.146 -0.8296 -0.0268  0.2155
 8071SOL     OW35674   1.460   2.188   5.658 -0.1255  0.6048  0.5614
 8071SOL    HW135675   1.414   2.107   5.678 -2.0338  1.1436 -1.6312
 8071SOL    HW235676   1.464   2.224   5.747  2.8246  0.9046  0.3101
 8072SOL     OW35677   0.109   1.549  14.737 -0.2826  0.2178  0.9199
 8072SOL    HW135678   0.016   1.557  14.759  0.0692  2.1975  1.7040
 8072SOL    HW235679   0.112   1.476  14.676  2.4958  2.2901 -1.4157
 8073SOL     OW35680   4.606   4.105   5.567 -0.2275 -0.1847  0.0028
 8073SOL    HW135681   4.537   4.160   5.603  0.2049  0.3614 -0.0123
 8073SOL    HW235682   4.610   4.129   5.475 -0.1394 -1.2266 -0.2701
 8074SOL     OW35683   3.677   4.582   4.938  0.3991 -0.3086  0.0480
 8074SOL    HW135684   3.764   4.576   4.898 -0.8307 -0.8717 -2.5455
 8074SOL    HW235685   3.705   4.577   5.029 -0.4019  0.6817  0.3562
 8075SOL     OW35686   0.571   2.378   1.932 -0.2227 -0.1689 -0.0715
 8075SOL    HW135687   0.575   2.346   2.023  1.4822  1.0165  0.2562
 8075SOL    HW235688   0.480   2.407   1.927 -0.1839 -0.1030 -0.3750
 8076SOL     OW35689   3.149   0.050   0.287 -0.3093  0.3389  0.9362
 8076SOL    HW135690   3.154   0.056   0.382  0.2487  1.3448  0.8386
 8076SOL    HW235691   3.223   0.106   0.265 -0.8668  0.1519 -1.4699
 8077SOL     OW35692   4.455   4.612   1.117 -0.5530 -0.6331 -0.2817
 8077SOL    HW135693   4.405   4.691   1.096 -0.0646 -0.4436 -0.7276
 8077SOL    HW235694   4.420   4.547   1.056 -0.3233 -1.1844  0.1757
 8078SOL     OW35695   0.202   4.203   3.533  0.3917  0.0693 -0.2045
 8078SOL    HW135696   0.139   4.251   3.480 -2.5010 -1.4587  1.8725
 8078SOL    HW235697   0.227   4.133   3.473 -1.3914  0.0888 -0.9568
 8079SOL     OW35698   4.312   4.516  16.123 -0.1027 -0.5412 -0.0092
 8079SOL    HW135699   4.299   4.583  16.056 -1.9078 -0.6165  0.2673
 8079SOL    HW235700   4.220   4.515  16.148  0.0523  0.1099  0.5720
 8080SOL     OW35701   0.450   3.462   3.458  0.7105  0.0233 -0.1277
 8080SOL    HW135702   0.428   3.431   3.370  0.7773 -2.8140  0.8599
 8080SOL    HW235703   0.502   3.540   3.438 -0.4211  0.5446 -1.0543
 8081SOL     OW35704   2.344   2.267   2.489  0.1234 -0.4534 -0.0621
 8081SOL    HW135705   2.321   2.175   2.503  0.4244 -0.1256  2.6917
 8081SOL    HW235706   2.317   2.284   2.399 -0.1621 -1.3563 -0.1492
 8082SOL     OW35707   0.732   1.923   1.463 -0.4284 -0.7605  0.4085
 8082SOL    HW135708   0.727   1.829   1.480 -0.9059 -0.9146 -0.6055
 8082SOL    HW235709   0.682   1.921   1.382  1.8264 -2.8055 -0.9403
 8083SOL     OW35710   2.497   0.353   0.563 -0.3599 -0.1622 -0.0331
 8083SOL    HW135711   2.539   0.406   0.496 -0.3262  1.7800  1.5391
 8083SOL    HW235712   2.527   0.263   0.550  0.9188  0.3115 -0.2593
 8084SOL     OW35713   3.510   1.497   5.205 -0.1494 -0.2812 -0.2229
 8084SOL    HW135714   3.540   1.587   5.191  0.5122 -0.5669 -0.6193
 8084SOL    HW235715   3.588   1.455   5.243 -2.0191 -0.6849  3.1880
 8085SOL     OW35716   2.308   0.838   7.701 -0.0465 -0.3666 -0.1218
 8085SOL    HW135717   2.344   0.815   7.787 -0.8671  1.3136  0.6612
 8085SOL    HW235718   2.389   0.836   7.651 -0.2655 -2.2761 -0.4199
 8086SOL     OW35719   3.542   4.050   7.005  0.2894  0.0605 -0.6628
 8086SOL    HW135720   3.481   4.041   7.078  1.5449  2.2123  0.6722
 8086SOL    HW235721   3.583   4.136   7.018  0.8882 -0.4826  1.0404
 8087SOL     OW35722   4.110   2.568   4.997  0.1310 -0.1906 -0.0197
 8087SOL    HW135723   4.033   2.607   5.038  1.0789  0.9053  0.7234
 8087SOL    HW235724   4.173   2.617   5.050  0.3326  1.0153 -1.3637
 8088SOL     OW35725   4.192   1.652   9.699  0.1647 -0.2000 -0.5073
 8088SOL    HW135726   4.191   1.566   9.743  0.9009  0.1732  0.2297
 8088SOL    HW235727   4.098   1.668   9.696  0.3837  1.0957 -0.1416
 8089SOL     OW35728   1.098   4.306   4.655 -0.1695 -0.3600 -0.1836
 8089SOL    HW135729   1.108   4.212   4.639 -0.7802 -0.7431  1.7256
 8089SOL    HW235730   1.109   4.349   4.570 -0.3855  0.0348 -0.0073
 8090SOL     OW35731   4.581   1.869   0.962 -0.0332 -0.1471  0.2646
 8090SOL    HW135732   4.558   1.943   0.906 -0.5390  1.1459  2.1895
 8090SOL    HW235733   4.651   1.916   1.008  0.3235  0.3538 -0.8064
 8091SOL     OW35734   0.510   0.487  11.282  0.6222  0.3683  0.0960
 8091SOL    HW135735   0.466   0.572  11.288 -4.3123 -2.1965  0.6485
 8091SOL    HW235736   0.474   0.456  11.365  2.3426 -0.3637  0.5536
 8092SOL     OW35737   0.203   4.289   8.248 -0.5779 -0.1491  0.1466
 8092SOL    HW135738   0.226   4.286   8.341  1.0314 -0.0187 -0.2330
 8092SOL    HW235739   0.200   4.381   8.223  0.4835 -0.9923 -3.0924
 8093SOL     OW35740   0.066   3.385   3.435  0.1558  0.8300 -0.1354
 8093SOL    HW135741   0.077   3.480   3.426  0.3306  0.6779 -1.5107
 8093SOL    HW235742   4.694   3.378   3.441  0.3645 -1.5247  0.2520
 8094SOL     OW35743   4.410   0.355  11.989 -0.4233  0.0357 -0.1708
 8094SOL    HW135744   4.365   0.438  11.998 -1.0162 -0.3698  0.5692
 8094SOL    HW235745   4.503   0.374  11.979 -0.9172  2.6970  0.4477
 8095SOL     OW35746   2.563   3.153   1.760 -0.0570  0.2712  0.2429
 8095SOL    HW135747   2.486   3.211   1.755 -1.7235 -1.8568  1.1941
 8095SOL    HW235748   2.613   3.160   1.679  0.3837  0.5139  0.5405
 8096SOL     OW35749   1.688   0.733   4.771 -0.0574 -0.1645  0.5620
 8096SOL    HW135750   1.777   0.764   4.789 -0.2714  1.3487 -1.0450
 8096SOL    HW235751   1.647   0.768   4.850  0.1140 -1.2063  1.1083
 8097SOL     OW35752   1.246   4.520  13.413 -0.3485  0.9556 -0.3978
 8097SOL    HW135753   1.159   4.514  13.452 -1.2992  1.7911 -2.3818
 8097SOL    HW235754   1.208   4.528  13.325  2.2572 -0.7295 -1.6908
 8098SOL     OW35755   1.927   0.929  13.765  0.2555  0.4078  0.3638
 8098SOL    HW135756   1.935   0.843  13.805  1.8915 -0.3963 -1.7008
 8098SOL    HW235757   1.879   0.973  13.836  1.5375  3.5593 -0.7169
 8099SOL     OW35758   3.366   3.991  14.798 -0.0647  0.1347 -0.7217
 8099SOL    HW135759   3.359   4.071  14.850  2.5124 -1.1044  1.5465
 8099SOL    HW235760   3.274   3.980  14.773 -0.2039  1.5238 -0.7916
 8100SOL     OW35761   4.066   2.827   5.328  0.4739  0.1103  0.2486
 8100SOL    HW135762   4.070   2.921   5.313 -2.3145  0.2669  0.4643
 8100SOL    HW235763   4.014   2.787   5.259  2.3541 -1.8785  0.0120
 8101SOL     OW35764   4.452   0.371  11.378 -0.1962  0.2149  0.2674
 8101SOL    HW135765   4.398   0.367  11.299  0.9495  0.7625 -0.5450
 8101SOL    HW235766   4.383   0.354  11.442  1.3012 -0.6270  1.6557
 8102SOL     OW35767   2.781   3.994  16.949  1.2239  0.2840 -0.0206
 8102SOL    HW135768   2.872   3.992  16.980  0.4725 -0.5029  2.1533
 8102SOL    HW235769   2.784   4.055  16.875 -0.5799  0.1512 -0.1821
 8103SOL     OW35770   0.389   2.744  11.702  0.1852 -0.1780  0.2688
 8103SOL    HW135771   0.423   2.757  11.790 -1.4207  0.9220  0.7171
 8103SOL    HW235772   0.435   2.665  11.674 -1.3938 -1.8376  2.3403
 8104SOL     OW35773   0.168   0.756   9.376  0.4789 -0.0791  0.3519
 8104SOL    HW135774   0.148   0.723   9.464 -0.6188 -2.4462 -0.7758
 8104SOL    HW235775   0.201   0.842   9.400 -0.3668 -0.2035  2.0032
 8105SOL     OW35776   3.997   0.415   2.500  0.3648 -0.9033  0.2309
 8105SOL    HW135777   3.959   0.494   2.539  0.0842 -0.7497 -0.3572
 8105SOL    HW235778   4.039   0.437   2.417  1.6229 -0.7221  0.9304
 8106SOL     OW35779   3.270   4.435   4.658  0.3437  0.4148  0.1493
 8106SOL    HW135780   3.289   4.494   4.584  0.6537 -0.8606 -0.7994
 8106SOL    HW235781   3.360   4.417   4.685 -0.2869 -0.0485  1.9382
 8107SOL     OW35782   4.407   2.599  12.990 -0.0871  0.0310 -0.1005
 8107SOL    HW135783   4.328   2.567  13.033  0.0647 -1.0782 -0.6499
 8107SOL    HW235784   4.459   2.621  13.067  0.1503  1.1239 -0.5774
 8108SOL     OW35785   1.788   3.419   5.372  0.6864 -0.2113  0.2760
 8108SOL    HW135786   1.789   3.354   5.302 -0.3695 -0.9359  0.9344
 8108SOL    HW235787   1.774   3.359   5.445 -0.0512 -0.1366  0.2019
 8109SOL     OW35788   1.112   0.918   4.421 -0.5482 -0.2603 -0.3297
 8109SOL    HW135789   1.207   0.916   4.433 -0.5781 -2.4279 -0.4304
 8109SOL    HW235790   1.081   0.939   4.509 -1.2506 -2.7618  0.0264
 8110SOL     OW35791   3.486   1.619  15.840  0.2257 -0.8151 -0.4662
 8110SOL    HW135792   3.396   1.618  15.872  1.1884  0.5989  2.3386
 8110SOL    HW235793   3.476   1.581  15.753  0.8899  0.4184 -1.0805
 8111SOL     OW35794   4.553   4.100   3.284 -0.0330  0.6592  0.6379
 8111SOL    HW135795   4.575   4.054   3.365 -0.7569 -0.3872  0.2355
 8111SOL    HW235796   4.499   4.036   3.239  0.3970 -0.0400  1.1249
 8112SOL     OW35797   2.509   3.189   0.868  0.2705  0.1213  0.4963
 8112SOL    HW135798   2.470   3.276   0.872  0.4386  0.2329 -0.3061
 8112SOL    HW235799   2.604   3.204   0.863  0.3222 -0.8820 -1.2396
 8113SOL     OW35800   3.857   0.119   8.615 -0.7886 -0.3350 -0.1612
 8113SOL    HW135801   3.834   0.211   8.601 -0.0447  0.1732  1.9475
 8113SOL    HW235802   3.894   0.112   8.703  0.7747  1.0314 -0.7082
 8114SOL     OW35803   1.658   1.766   5.157  0.3391 -0.3174 -0.3930
 8114SOL    HW135804   1.673   1.677   5.188  0.9063  0.1449  0.6453
 8114SOL    HW235805   1.717   1.806   5.221  0.5136 -0.6865 -0.3271
 8115SOL     OW35806   1.465   3.412  12.754  0.0532  0.1497  0.6449
 8115SOL    HW135807   1.422   3.492  12.722  1.6118 -0.0730 -2.0043
 8115SOL    HW235808   1.507   3.450  12.831  0.8280  2.6467 -0.9895
 8116SOL     OW35809   4.532   3.507   3.531 -0.4485  0.4064 -0.4192
 8116SOL    HW135810   4.504   3.566   3.461  1.5549  1.7650 -0.0842
 8116SOL    HW235811   4.463   3.442   3.543  1.1204 -0.6153  3.2665
 8117SOL     OW35812   3.630   3.752   0.632 -0.4929 -0.0462  0.3633
 8117SOL    HW135813   3.712   3.799   0.616 -0.2636  0.0331  1.7305
 8117SOL    HW235814   3.620   3.762   0.727 -1.0806 -0.4594  0.3466
 8118SOL     OW35815   2.107   3.630   5.883  0.4948  0.2153  0.2291
 8118SOL    HW135816   2.094   3.584   5.966 -0.4526 -2.0599 -1.1643
 8118SOL    HW235817   2.202   3.618   5.874  0.4971  0.9779 -0.8198
 8119SOL     OW35818   1.039   4.367  12.975  0.2420 -0.6138  0.1173
 8119SOL    HW135819   1.116   4.393  12.926  0.4542 -1.5283 -0.0340
 8119SOL    HW235820   0.996   4.451  12.993 -0.8385 -0.5675 -2.6564
 8120SOL     OW35821   1.822   3.273   7.831  0.4034 -0.5048  0.6544
 8120SOL    HW135822   1.778   3.191   7.855 -1.5409  0.5719  0.8306
 8120SOL    HW235823   1.799   3.326   7.907  0.4013 -0.6164  0.7303
 8121SOL     OW35824   3.706   0.240  15.673 -0.2666 -0.0332  0.8187
 8121SOL    HW135825   3.689   0.324  15.630 -0.9554 -1.8547 -2.4328
 8121SOL    HW235826   3.627   0.188  15.658 -0.0114  0.2191 -1.2744
 8122SOL     OW35827   0.143   3.234   3.226  0.3191 -0.0733 -0.2502
 8122SOL    HW135828   0.128   3.304   3.162 -3.3274  0.9522  1.7433
 8122SOL    HW235829   0.113   3.279   3.305  1.1273  0.7811 -0.4244
 8123SOL     OW35830   1.580   0.313   1.996  0.0050 -0.4861 -0.0581
 8123SOL    HW135831   1.634   0.389   2.017 -0.1702 -0.2717 -0.3783
 8123SOL    HW235832   1.634   0.236   1.980  1.2357  0.4517 -0.4228
 8124SOL     OW35833   0.739   3.823  10.385  0.5486 -0.0764 -0.1202
 8124SOL    HW135834   0.804   3.885  10.419  1.5327 -2.0262  1.5802
 8124SOL    HW235835   0.659   3.860  10.421 -0.2023 -0.7502 -1.0993
 8125SOL     OW35836   3.714   3.020   7.667 -0.3443 -0.0528 -0.3578
 8125SOL    HW135837   3.680   3.002   7.755  1.1883 -0.2962  0.1796
 8125SOL    HW235838   3.668   2.952   7.618 -1.7788  2.0522 -1.9220
 8126SOL     OW35839   2.187   0.286   3.686 -0.6609 -0.2419 -0.4802
 8126SOL    HW135840   2.201   0.205   3.735  1.0180 -0.3834 -1.2133
 8126SOL    HW235841   2.156   0.344   3.755  0.5518 -0.2525  0.0751
 8127SOL     OW35842   4.458   4.199   6.074  0.3960 -0.5486  0.1210
 8127SOL    HW135843   4.397   4.138   6.032 -0.3994 -0.3868  1.0245
 8127SOL    HW235844   4.439   4.168   6.163  0.7913 -1.5628 -0.1491
 8128SOL     OW35845   2.149   2.616   2.373 -0.0665  0.4090  0.6175
 8128SOL    HW135846   2.058   2.610   2.403 -0.8194  4.2589 -0.9652
 8128SOL    HW235847   2.146   2.709   2.353 -2.1819  0.2788  0.3182
 8129SOL     OW35848   0.880   4.339   4.283  0.3397 -0.2023 -0.4277
 8129SOL    HW135849   0.866   4.368   4.373  2.5414 -0.8755  0.1307
 8129SOL    HW235850   0.796   4.365   4.246  0.3966  0.0051 -0.4106
 8130SOL     OW35851   2.080   2.472   6.012  0.1972 -0.0422 -0.1016
 8130SOL    HW135852   2.081   2.446   5.920  0.9439  0.5869 -0.2696
 8130SOL    HW235853   2.003   2.429   6.048  0.0670  1.1663  1.0723
 8131SOL     OW35854   2.213   2.471  15.299  0.0075 -0.5491 -0.1569
 8131SOL    HW135855   2.283   2.442  15.240 -0.8667 -2.3857 -0.3021
 8131SOL    HW235856   2.256   2.430  15.374 -0.6049 -0.8332  0.0406
 8132SOL     OW35857   0.565   2.519   2.432  0.2840  0.2263  0.0970
 8132SOL    HW135858   0.482   2.489   2.468  0.3651  0.7473  0.7227
 8132SOL    HW235859   0.622   2.473   2.493  1.8966 -2.3931 -3.4205
 8133SOL     OW35860   1.965   3.633   1.736 -0.5434 -0.1574  0.0814
 8133SOL    HW135861   1.932   3.712   1.778 -1.0676 -0.9296  1.1295
 8133SOL    HW235862   2.051   3.662   1.707 -0.4743  0.6311  1.0785
 8134SOL     OW35863   4.552   2.458   4.482 -0.4543 -0.1216 -0.3141
 8134SOL    HW135864   4.580   2.369   4.502 -0.8967 -0.0350  0.7306
 8134SOL    HW235865   4.602   2.485   4.405  1.0952  2.0884  1.4513
 8135SOL     OW35866   1.965   1.356   4.436  0.5306 -0.4238  0.1567
 8135SOL    HW135867   1.940   1.297   4.507  0.9024 -0.6322  0.1148
 8135SOL    HW235868   1.882   1.370   4.390 -0.0967 -0.3129  1.3170
 8136SOL     OW35869   1.840   1.027   6.229  0.2950 -0.2938  0.2019
 8136SOL    HW135870   1.918   1.017   6.173 -1.2620 -1.8604 -1.6538
 8136SOL    HW235871   1.771   1.017   6.164  0.9430 -0.3161 -0.4880
 8137SOL     OW35872   4.485   2.627  14.906 -0.1118 -0.1072  0.2372
 8137SOL    HW135873   4.410   2.572  14.886  1.1998 -1.2620 -1.5310
 8137SOL    HW235874   4.480   2.701  14.846  1.4390 -0.6538 -0.5831
 8138SOL     OW35875   0.668   1.867   8.855 -0.0818  0.2835  0.1476
 8138SOL    HW135876   0.746   1.895   8.806  1.1624 -4.2299 -0.4191
 8138SOL    HW235877   0.628   1.954   8.853 -1.2285 -0.2490  0.5253
 8139SOL     OW35878   4.336   4.503   0.511 -0.1390  0.6000 -0.5343
 8139SOL    HW135879   4.390   4.432   0.475  0.5792  0.5119  0.7558
 8139SOL    HW235880   4.303   4.461   0.590  3.2969 -1.8524 -0.3727
 8140SOL     OW35881   3.347   0.121   1.657  0.3440 -0.3919  0.1154
 8140SOL    HW135882   3.355   0.059   1.585 -0.5125 -0.6516  0.2314
 8140SOL    HW235883   3.396   0.072   1.723  0.4856  0.2549  0.4870
 8141SOL     OW35884   0.397   1.858  12.990  0.2619 -0.5692  0.9299
 8141SOL    HW135885   0.436   1.945  13.003 -1.4997  0.1840  1.1315
 8141SOL    HW235886   0.318   1.882  12.941  1.7630 -0.2939 -1.3922
 8142SOL     OW35887   2.966   2.576   4.322  0.0939 -0.0971  0.1518
 8142SOL    HW135888   2.891   2.634   4.334 -0.3413  0.2503 -4.4114
 8142SOL    HW235889   2.987   2.568   4.415  0.7351  1.7070  0.1679
 8143SOL     OW35890   4.719   1.989   9.174 -0.2151  0.1702 -0.7646
 8143SOL    HW135891   0.087   1.961   9.191  0.7824  2.8216 -1.8053
 8143SOL    HW235892   4.686   1.917   9.120 -1.0003 -0.3805  0.4384
 8144SOL     OW35893   2.167   1.159   9.330 -0.2256 -0.3677 -0.0605
 8144SOL    HW135894   2.197   1.086   9.385 -2.9919 -0.1805  1.7050
 8144SOL    HW235895   2.142   1.122   9.246  0.0379  0.3842 -0.4667
 8145SOL     OW35896   4.093   4.473   8.778  0.0991 -0.1767  0.5357
 8145SOL    HW135897   4.015   4.417   8.781 -0.2478  0.2772 -0.1503
 8145SOL    HW235898   4.122   4.451   8.867 -1.4594 -1.1453  0.7970
 8146SOL     OW35899   1.500   3.078   7.178 -0.6787 -0.0995  0.6356
 8146SOL    HW135900   1.523   3.171   7.168  0.8841 -0.7158 -1.5119
 8146SOL    HW235901   1.475   3.057   7.268 -1.2572  2.4611  1.0857
 8147SOL     OW35902   1.449   2.909   3.902 -0.3512  0.0856  0.9199
 8147SOL    HW135903   1.402   2.839   3.855 -0.4031 -0.8909  2.4394
 8147SOL    HW235904   1.447   2.861   3.985 -2.2510  0.9711  1.3824
 8148SOL     OW35905   0.123   0.311  15.181  0.0679 -0.6413 -0.6730
 8148SOL    HW135906   0.163   0.324  15.095  0.9546 -0.6025 -0.2559
 8148SOL    HW235907   0.078   0.393  15.201 -0.4846 -1.7271  2.5119
 8149SOL     OW35908   0.616   3.979  12.754  0.1866  0.0982  0.2112
 8149SOL    HW135909   0.659   3.967  12.670 -0.6888 -0.2089 -0.1853
 8149SOL    HW235910   0.592   4.072  12.755 -0.8953 -0.2029  1.9495
 8150SOL     OW35911   3.617   0.512   7.350 -0.9883  0.2700  0.2820
 8150SOL    HW135912   3.579   0.473   7.429 -0.5547  0.8258  0.7707
 8150SOL    HW235913   3.705   0.518   7.388 -0.8738 -1.3839  0.2784
 8151SOL     OW35914   2.837   4.489   6.561 -0.2314 -0.0319 -0.4524
 8151SOL    HW135915   2.883   4.561   6.605  0.4536 -0.4646 -0.4520
 8151SOL    HW235916   2.833   4.525   6.473 -0.0469  0.3115 -0.3231
 8152SOL     OW35917   3.608   4.603   7.100  0.1811  0.3084 -0.0523
 8152SOL    HW135918   3.678   4.540   7.083 -0.4461 -0.9760  2.0453
 8152SOL    HW235919   3.538   4.557   7.054  1.6526 -1.6361 -0.3794
 8153SOL     OW35920   1.854   1.220   3.670  0.2886  0.3039  0.5295
 8153SOL    HW135921   1.826   1.256   3.587 -3.6641 -1.4918  1.0898
 8153SOL    HW235922   1.942   1.202   3.637 -1.1971 -0.3543 -2.9964
 8154SOL     OW35923   0.969   1.674   7.313 -0.2627 -0.1156  0.2762
 8154SOL    HW135924   1.051   1.625   7.322 -1.4350 -2.3868 -1.3731
 8154SOL    HW235925   0.988   1.759   7.352 -0.7704 -0.4066  1.1519
 8155SOL     OW35926   1.120   1.409   8.145 -0.0083 -0.3502 -0.2670
 8155SOL    HW135927   1.198   1.458   8.173 -0.4167  0.7123 -0.9765
 8155SOL    HW235928   1.108   1.350   8.219 -1.0378 -0.8025 -0.8019
 8156SOL     OW35929   1.104   0.162   2.177 -0.4882  0.2846 -0.8684
 8156SOL    HW135930   1.185   0.111   2.169 -0.2327  0.5224  0.2225
 8156SOL    HW235931   1.052   0.147   2.098 -1.0000  0.9363 -0.6574
 8157SOL     OW35932   2.139   2.688   7.060 -0.0526 -0.1585 -0.2861
 8157SOL    HW135933   2.100   2.627   7.123  1.9251  0.0319  1.1042
 8157SOL    HW235934   2.224   2.707   7.098  0.3934  1.1809 -1.9431
 8158SOL     OW35935   2.877   1.560   6.497 -0.1270  0.0212  0.2090
 8158SOL    HW135936   2.945   1.622   6.525 -2.0629  2.7219 -1.1671
 8158SOL    HW235937   2.810   1.628   6.491  1.0764  1.2120  0.2988
 8159SOL     OW35938   3.077   1.292  10.200  0.0701 -0.0207 -0.1299
 8159SOL    HW135939   3.088   1.347  10.122  0.7003  1.2292  0.8401
 8159SOL    HW235940   3.159   1.313  10.244 -0.9552  1.0246  1.2688
 8160SOL     OW35941   3.515   2.073   8.158  0.6710  0.6098  0.5879
 8160SOL    HW135942   3.475   2.123   8.229 -0.5529 -0.7808  0.8841
 8160SOL    HW235943   3.520   2.131   8.081  0.1333 -1.7736 -1.2483
 8161SOL     OW35944   1.009   2.866   3.721 -0.4170  0.7663  0.0415
 8161SOL    HW135945   0.950   2.795   3.746  0.3950  1.1461  2.9823
 8161SOL    HW235946   1.080   2.821   3.676 -1.9782 -0.1001 -1.5229
 8162SOL     OW35947   3.492   1.230   3.882 -0.0807  0.6587  0.3900
 8162SOL    HW135948   3.412   1.178   3.876  0.5204 -0.3382  1.1238
 8162SOL    HW235949   3.536   1.183   3.953  0.6922 -0.5145 -0.8755
 8163SOL     OW35950   3.004   4.266   8.134 -0.3275  0.7753 -0.3018
 8163SOL    HW135951   2.966   4.352   8.118  0.3097  1.5979  2.5847
 8163SOL    HW235952   2.928   4.213   8.111 -0.1080 -0.0042  0.7780
 8164SOL     OW35953   4.071   1.083   2.540  0.0185  0.0421  0.2993
 8164SOL    HW135954   4.105   1.001   2.504 -0.0804 -0.7703  2.0607
 8164SOL    HW235955   3.979   1.059   2.554  0.0175  0.9472  1.8922
 8165SOL     OW35956   4.685   4.023   8.619 -0.1137  0.3130 -0.0104
 8165SOL    HW135957   0.046   4.012   8.574 -1.1947 -1.3416 -1.6120
 8165SOL    HW235958   4.708   4.065   8.702  1.8624 -0.6985 -0.0448
 8166SOL     OW35959   4.163   4.719   4.316 -0.7209 -0.3264 -0.4834
 8166SOL    HW135960   4.074   0.002   4.281 -0.3221 -0.6578 -1.5522
 8166SOL    HW235961   4.151   4.653   4.384 -0.4218 -0.4691 -0.5692
 8167SOL     OW35962   0.990   4.226  13.565  0.1513 -0.1105 -0.6726
 8167SOL    HW135963   1.051   4.192  13.629 -0.3576 -0.4789 -0.3810
 8167SOL    HW235964   0.944   4.147  13.537 -2.1389  0.9018  0.2115
 8168SOL     OW35965   2.381   0.920   9.814 -0.7618 -0.2739 -0.8390
 8168SOL    HW135966   2.418   1.008   9.801 -0.9912 -0.0978 -0.2693
 8168SOL    HW235967   2.457   0.867   9.789 -1.0828 -1.6499  1.1653
 8169SOL     OW35968   4.651   1.152   2.380 -0.8909  0.2008  0.0366
 8169SOL    HW135969   4.565   1.162   2.420 -1.6356  0.3704 -1.6056
 8169SOL    HW235970   4.630   1.160   2.287  2.9118  0.9535 -0.7580
 8170SOL     OW35971   4.394   4.224   1.050  0.0301 -0.0899 -0.4174
 8170SOL    HW135972   4.478   4.255   1.084  1.3692 -1.0165 -2.8916
 8170SOL    HW235973   4.357   4.305   1.015 -0.0356  0.1733  0.2770
 8171SOL     OW35974   3.101   1.201   3.974 -0.6004  0.4960  0.5450
 8171SOL    HW135975   3.073   1.283   3.934  1.5854  2.1515  2.4101
 8171SOL    HW235976   3.096   1.230   4.065  0.3985  1.2431  0.3644
 8172SOL     OW35977   2.192   3.822   2.331  0.1704  0.0190  0.3669
 8172SOL    HW135978   2.171   3.750   2.272  1.8824  0.4941 -0.8392
 8172SOL    HW235979   2.270   3.796   2.381 -1.6191 -0.2240  3.0912
 8173SOL     OW35980   2.178   1.026   3.972  0.3382 -0.5722  0.0029
 8173SOL    HW135981   2.223   1.040   3.889 -0.1914 -0.8428 -0.3343
 8173SOL    HW235982   2.093   1.009   3.931 -0.0304  1.0215  0.0974
 8174SOL     OW35983   0.101   2.992   9.699  0.6334  0.0577 -0.1367
 8174SOL    HW135984   0.150   2.990   9.617  0.9976  0.1571  0.0806
 8174SOL    HW235985   0.173   2.959   9.752  0.7764 -0.3309 -0.5821
 8175SOL     OW35986   0.908   4.684   5.789 -0.0975 -0.2015 -0.4239
 8175SOL    HW135987   0.850   0.015   5.734  0.6268 -2.2983 -3.2808
 8175SOL    HW235988   0.849   4.644   5.853 -0.5943  0.2066 -0.6285
 8176SOL     OW35989   0.497   1.756   5.619 -0.0134 -0.4182 -0.2008
 8176SOL    HW135990   0.486   1.784   5.528  1.3229 -1.8392 -0.7943
 8176SOL    HW235991   0.427   1.809   5.658 -0.8050 -1.6463  0.0617
 8177SOL     OW35992   4.243   0.092   9.120  0.1599 -0.7407 -0.5237
 8177SOL    HW135993   4.320   0.036   9.129 -0.1348 -0.4797  3.5300
 8177SOL    HW235994   4.221   0.076   9.028  0.0896 -1.3327 -0.4013
 8178SOL     OW35995   4.579   2.503   2.138 -0.4341  0.1967  0.1982
 8178SOL    HW135996   4.605   2.414   2.115 -1.5022 -0.1500  0.3415
 8178SOL    HW235997   4.650   2.524   2.198 -0.0518 -0.6506  0.0437
 8179SOL     OW35998   3.922   3.000   9.634  0.1584 -0.7888  0.2673
 8179SOL    HW135999   3.988   2.985   9.566  1.3995  1.8919  0.8667
 8179SOL    HW236000   3.958   3.069   9.690  1.6740 -0.3040 -1.2884
 8180SOL     OW36001   0.517   1.588  15.362  0.0369 -0.4484 -0.4643
 8180SOL    HW136002   0.609   1.591  15.337  0.4163  2.5129  1.2471
 8180SOL    HW236003   0.485   1.565  15.275  0.5487 -1.2373 -0.4467
 8181SOL     OW36004   3.141   1.595   7.204  0.1783 -0.2212 -0.0157
 8181SOL    HW136005   3.177   1.576   7.117  2.8198  1.8581  0.6644
 8181SOL    HW236006   3.100   1.681   7.197  1.7348  0.4719 -0.3656
 8182SOL     OW36007   3.759   3.340   7.772 -0.0407  0.3218  0.3071
 8182SOL    HW136008   3.783   3.254   7.739  0.4483  0.0537  1.3641
 8182SOL    HW236009   3.683   3.365   7.720  0.7256  0.5009 -0.7369
 8183SOL     OW36010   0.447   1.000   1.818 -0.1593  0.2927  0.2209
 8183SOL    HW136011   0.527   1.047   1.844  0.4503 -0.0703 -1.0222
 8183SOL    HW236012   0.470   0.990   1.726  1.5278  1.1154  0.5474
 8184SOL     OW36013   2.839   2.040  17.387  0.1976 -0.1679  0.4193
 8184SOL    HW136014   2.918   2.077  17.427  0.6024 -0.5683 -0.0028
 8184SOL    HW236015   2.837   2.089  17.305 -1.3933 -0.5050  0.2634
 8185SOL     OW36016   1.078   3.932   5.396  0.0243 -0.3606 -0.0472
 8185SOL    HW136017   1.035   4.016   5.377 -1.3178 -0.4763  2.5673
 8185SOL    HW236018   1.099   3.952   5.487  0.5269  2.5959 -0.7986
 8186SOL     OW36019   1.058   1.131   5.255  0.2547  0.2543 -0.2051
 8186SOL    HW136020   1.066   1.191   5.180 -0.9118  0.7534  0.0773
 8186SOL    HW236021   1.140   1.146   5.302  0.2166  1.1585 -0.4229
 8187SOL     OW36022   4.253   3.434   2.488  0.1595 -0.2784  0.1221
 8187SOL    HW136023   4.225   3.501   2.425 -1.2220  2.3027  3.4910
 8187SOL    HW236024   4.177   3.423   2.545  1.2152 -2.2194  1.1189
 8188SOL     OW36025   0.417   0.966   6.014 -0.1611  0.0940 -0.0733
 8188SOL    HW136026   0.361   0.996   5.942  0.6725 -0.8382 -1.1062
 8188SOL    HW236027   0.375   1.013   6.086 -0.4210 -0.3697  0.0796
 8189SOL     OW36028   3.650   1.211   6.096 -0.2790 -0.2772  0.3318
 8189SOL    HW136029   3.629   1.248   6.181 -3.2719 -1.1284 -0.0302
 8189SOL    HW236030   3.574   1.245   6.049 -0.3252  2.9920  2.7913
 8190SOL     OW36031   0.537   0.644   5.062  0.2135 -0.4971  0.1174
 8190SOL    HW136032   0.627   0.674   5.072 -0.4960  1.7845 -0.2579
 8190SOL    HW236033   0.520   0.584   5.134 -3.9146  0.2712 -0.1894
 8191SOL     OW36034   1.836   4.587  17.331 -0.2364  0.7683 -0.3787
 8191SOL    HW136035   1.816   4.663  17.386  2.3919  2.3256 -1.5567
 8191SOL    HW236036   1.931   4.593  17.341 -0.3608  2.1142  0.0157
 8192SOL     OW36037   3.002   0.435   6.025  0.1938 -0.0444 -0.3008
 8192SOL    HW136038   3.071   0.405   6.085 -0.1518 -0.2907 -0.0296
 8192SOL    HW236039   2.916   0.423   6.064  0.6852 -1.0248  0.4719
 8193SOL     OW36040   4.257   3.179  13.585  0.1762 -0.9894 -0.0782
 8193SOL    HW136041   4.292   3.092  13.566 -0.1926 -1.5284  1.6388
 8193SOL    HW236042   4.202   3.166  13.663 -1.3343 -0.0661 -0.9792
 8194SOL     OW36043   0.117   2.660  11.526  0.5975  0.1059 -0.2980
 8194SOL    HW136044   0.022   2.662  11.538  0.7955  0.7245  1.1314
 8194SOL    HW236045   0.135   2.568  11.542 -1.4145 -0.1052  0.7914
 8195SOL     OW36046   2.381   3.501  15.001 -0.3552 -0.0180  0.3635
 8195SOL    HW136047   2.290   3.501  14.972 -0.6352 -0.3412  1.2313
 8195SOL    HW236048   2.403   3.594  15.013 -0.5642  0.4151 -2.7366
 8196SOL     OW36049   3.720   2.411  14.787  0.0656  0.5650 -0.4448
 8196SOL    HW136050   3.687   2.328  14.753 -2.5048  1.6028 -0.5024
 8196SOL    HW236051   3.666   2.427  14.865  0.5185 -1.1237  0.2060
 8197SOL     OW36052   0.554   4.655   3.129  0.6685 -0.0140  0.2702
 8197SOL    HW136053   0.593   4.579   3.172  0.9137  1.1435  2.1114
 8197SOL    HW236054   0.482   4.665   3.191  0.0031  1.5505 -0.7531
 8198SOL     OW36055   4.062   1.674   8.823  0.0082 -0.5189 -0.6871
 8198SOL    HW136056   4.136   1.694   8.880 -1.6405  2.5999  0.3331
 8198SOL    HW236057   4.008   1.749   8.845 -1.3055 -1.6302 -0.0726
 8199SOL     OW36058   1.917   3.597   0.427 -0.3149  0.0781 -0.3974
 8199SOL    HW136059   1.958   3.669   0.379 -1.4481  0.3488 -0.9478
 8199SOL    HW236060   1.835   3.636   0.456 -1.2979 -0.4875 -2.3989
 8200SOL     OW36061   2.318   0.099   4.434  0.6034 -0.3360  0.0645
 8200SOL    HW136062   2.339   0.174   4.489  1.7199  0.2052 -1.1071
 8200SOL    HW236063   2.233   0.117   4.393 -1.2898 -1.5345  3.4221
 8201SOL     OW36064   1.720   3.690   5.369 -0.5321  0.0369 -0.3789
 8201SOL    HW136065   1.695   3.690   5.462 -0.8460 -2.2878 -0.4739
 8201SOL    HW236066   1.761   3.604   5.359 -1.5611 -0.6067  0.9694
 8202SOL     OW36067   2.872   0.314   1.313  0.0826 -0.6166  0.0873
 8202SOL    HW136068   2.799   0.254   1.297 -0.9986  0.7984 -0.2893
 8202SOL    HW236069   2.827   0.394   1.340  1.0187 -0.1076  0.1264
 8203SOL     OW36070   0.201   1.727   5.620  0.1013 -0.5838  0.2223
 8203SOL    HW136071   0.231   1.658   5.679 -0.9184 -0.2833  1.1103
 8203SOL    HW236072   0.145   1.674   5.564  1.1765 -1.9013  0.4077
 8204SOL     OW36073   1.504   4.427   3.654  0.9992  0.1556  0.1704
 8204SOL    HW136074   1.590   4.456   3.625  0.6709  1.0911  0.1246
 8204SOL    HW236075   1.530   4.342   3.691  0.5483 -0.0964 -0.0824
 8205SOL     OW36076   4.432   0.632   7.246 -0.1670  0.1387 -0.4599
 8205SOL    HW136077   4.512   0.580   7.238  0.3588  0.8132  0.3229
 8205SOL    HW236078   4.461   0.721   7.224 -1.3515  0.4233 -0.8514
 8206SOL     OW36079   3.292   2.239  11.687 -0.4590 -0.3527  0.5590
 8206SOL    HW136080   3.388   2.237  11.690 -0.4396  0.0622  0.2923
 8206SOL    HW236081   3.269   2.171  11.624  0.2996  2.2738 -2.5380
 8207SOL     OW36082   3.942   0.795  17.051 -0.3229  0.1255  0.0244
 8207SOL    HW136083   3.956   0.879  17.007 -2.0930  1.0324  1.2423
 8207SOL    HW236084   3.890   0.747  16.986 -0.1526  0.7627 -0.5778
 8208SOL     OW36085   1.316   4.505   8.013  0.0276 -0.6850  0.0731
 8208SOL    HW136086   1.302   4.572   8.081 -2.1693  0.7148 -1.7689
 8208SOL    HW236087   1.236   4.513   7.961  0.4226 -0.6696 -0.5190
 8209SOL     OW36088   4.238   4.352   3.525 -0.3268 -0.1986 -0.4118
 8209SOL    HW136089   4.183   4.373   3.600  0.6555 -1.4939  0.6747
 8209SOL    HW236090   4.226   4.431   3.473  2.9656  0.7829  0.2753
 8210SOL     OW36091   3.979   3.254  17.371  0.2627 -0.7901 -0.3861
 8210SOL    HW136092   3.918   3.265  17.298  0.2379  3.4075  0.3087
 8210SOL    HW236093   4.001   3.162  17.350 -1.2382 -1.4553  1.0262
 8211SOL     OW36094   1.534   0.166   7.148 -0.3304  0.1912  0.1079
 8211SOL    HW136095   1.566   0.080   7.174 -1.8847 -0.1887  0.7564
 8211SOL    HW236096   1.549   0.214   7.230 -0.4498 -1.4664  1.0967
 8212SOL     OW36097   3.789   0.518   4.672 -0.2646  0.4225  0.0929
 8212SOL    HW136098   3.832   0.536   4.589 -0.2082 -1.9561 -0.3904
 8212SOL    HW236099   3.862   0.470   4.712 -1.7513 -0.7761  1.3503
 8213SOL     OW36100   4.454   1.814   3.729 -0.2182  0.2303  0.0007
 8213SOL    HW136101   4.377   1.774   3.689 -0.4686  0.9668 -0.2527
 8213SOL    HW236102   4.494   1.729   3.747  1.0008  0.7674 -0.1984
 8214SOL     OW36103   0.993   3.025   4.296  0.1893  0.4979  0.4694
 8214SOL    HW136104   1.010   2.939   4.335  1.7397  1.0884  1.1319
 8214SOL    HW236105   1.039   3.012   4.213 -0.0802 -0.4369  0.4609
 8215SOL     OW36106   4.063   2.412   3.318 -0.6146 -0.4280  0.2261
 8215SOL    HW136107   4.020   2.329   3.336  1.3826 -1.1364  1.6779
 8215SOL    HW236108   4.150   2.392   3.353 -0.3865 -0.1484 -0.1826
 8216SOL     OW36109   3.146   4.323   0.840  0.0726 -0.2187  0.5871
 8216SOL    HW136110   3.061   4.283   0.858 -0.2402  0.3137  0.3061
 8216SOL    HW236111   3.191   4.240   0.822 -0.9332 -0.9569  1.4965
 8217SOL     OW36112   1.700   1.610  10.971 -0.0942 -0.1052  0.5904
 8217SOL    HW136113   1.637   1.542  10.949 -1.5015  0.2701  3.3734
 8217SOL    HW236114   1.719   1.592  11.063  0.6919 -0.3823  0.3682
 8218SOL     OW36115   2.253   2.755   7.966 -0.2180  0.1332  0.3104
 8218SOL    HW136116   2.313   2.684   7.945 -0.0950  0.0341  0.9856
 8218SOL    HW236117   2.314   2.814   8.011  0.4633 -1.5906  1.6438
 8219SOL     OW36118   4.297   0.896  10.501  0.1095  0.4469 -0.0502
 8219SOL    HW136119   4.229   0.831  10.482  1.0356 -0.5606  0.1076
 8219SOL    HW236120   4.375   0.846  10.476 -1.8720 -2.5607 -0.1575
 8220SOL     OW36121   1.899   3.823   3.115  0.9108  0.0777 -0.1274
 8220SOL    HW136122   1.890   3.730   3.137 -0.2853 -0.2483 -1.9540
 8220SOL    HW236123   1.931   3.816   3.025  1.7754  0.0784  0.1722
 8221SOL     OW36124   2.015   2.097   7.393 -0.1973 -0.1504  0.4312
 8221SOL    HW136125   1.951   2.073   7.326 -0.3079 -0.7916  0.7588
 8221SOL    HW236126   1.971   2.068   7.474 -1.1736 -0.7097 -0.2977
 8222SOL     OW36127   4.355   4.587   4.178  0.3239 -0.3276  0.7195
 8222SOL    HW136128   4.285   4.647   4.204  2.0737  1.9077  0.2900
 8222SOL    HW236129   4.421   4.655   4.164 -0.4013  0.2680  0.2465
 8223SOL     OW36130   0.743   2.599  16.091  0.3559 -0.4385  0.2212
 8223SOL    HW136131   0.693   2.616  16.011  0.4380 -2.0455 -0.1655
 8223SOL    HW236132   0.707   2.516  16.124 -2.9365  0.7602 -0.3055
 8224SOL     OW36133   0.094   2.686   2.906  0.1966  0.1121  0.6825
 8224SOL    HW136134   0.110   2.777   2.930  1.1057  0.1551 -0.0775
 8224SOL    HW236135   0.016   2.670   2.960 -1.2545 -1.5424 -1.9443
 8225SOL     OW36136   0.874   4.250   9.345 -0.5292 -0.8914  0.3400
 8225SOL    HW136137   0.952   4.243   9.289 -0.0638  1.3378  0.7315
 8225SOL    HW236138   0.800   4.283   9.293  1.0831 -0.9872 -2.0198
 8226SOL     OW36139   3.970   3.603   9.373 -0.0289 -0.4650  0.1609
 8226SOL    HW136140   4.028   3.677   9.390 -2.6379  1.6457 -0.1591
 8226SOL    HW236141   3.894   3.613   9.431 -2.0400 -1.8078 -2.2502
 8227SOL     OW36142   0.459   1.575  13.950 -0.0892 -0.3606 -0.1952
 8227SOL    HW136143   0.549   1.602  13.967  0.2064 -2.1699  1.0867
 8227SOL    HW236144   0.432   1.548  14.037  0.0458  1.4266  0.4005
 8228SOL     OW36145   2.473   0.770   2.967  0.1853  0.4235  0.6466
 8228SOL    HW136146   2.479   0.832   3.040  0.2149  0.9025  0.2435
 8228SOL    HW236147   2.544   0.794   2.908 -1.4779  2.4595 -0.5507
 8229SOL     OW36148   3.813   3.280   9.801 -0.3790 -0.2069 -0.1437
 8229SOL    HW136149   3.826   3.364   9.846 -1.6128  0.9614 -1.9266
 8229SOL    HW236150   3.721   3.288   9.774 -0.5463 -0.3590  0.3945
 8230SOL     OW36151   4.384   3.911   7.535  0.5292 -0.1936 -0.1973
 8230SOL    HW136152   4.311   3.971   7.520  0.5878  0.3625  1.7693
 8230SOL    HW236153   4.419   3.937   7.620 -2.0066  0.2603  0.7030
 8231SOL     OW36154   0.012   4.458   5.447  0.4872 -0.3703  0.2087
 8231SOL    HW136155   4.690   4.490   5.525  0.7710 -1.1623  0.6911
 8231SOL    HW236156   4.661   4.440   5.389 -0.0031  1.3187  0.2875
 8232SOL     OW36157   1.846   0.821  11.731 -0.0667  0.0335  0.4636
 8232SOL    HW136158   1.865   0.911  11.706 -1.0979 -0.1767 -1.0703
 8232SOL    HW236159   1.807   0.794  11.648 -0.4724 -3.9842  1.9759
 8233SOL     OW36160   1.309   3.870  17.340 -0.7905 -0.1428  0.4842
 8233SOL    HW136161   1.296   3.958  17.304 -0.3494  0.4343  1.7256
 8233SOL    HW236162   1.235   3.824  17.302 -0.1389  0.1721 -1.2000
 8234SOL     OW36163   4.537   1.780  15.823  0.1758  0.6259 -0.1634
 8234SOL    HW136164   4.552   1.854  15.764 -0.2894 -0.5614 -1.7436
 8234SOL    HW236165   4.466   1.809  15.880  1.4001  2.0972  0.6118
 8235SOL     OW36166   1.464   1.374  11.968  0.0016  0.1355 -0.7877
 8235SOL    HW136167   1.479   1.455  12.016 -0.2616  1.0376 -2.2246
 8235SOL    HW236168   1.523   1.314  12.015  1.0486  0.0109 -2.2655
 8236SOL     OW36169   3.934   1.371  11.745  0.2000  0.1449  0.2925
 8236SOL    HW136170   3.850   1.339  11.715  0.4675 -1.0955  0.8735
 8236SOL    HW236171   3.912   1.459  11.775  1.7397  0.7447 -0.2990
 8237SOL     OW36172   2.892   3.691   3.936  0.1545  0.5979  0.0603
 8237SOL    HW136173   2.822   3.726   3.880 -0.5700 -0.8356  0.0522
 8237SOL    HW236174   2.967   3.706   3.879  1.0091  1.8825  1.5168
 8238SOL     OW36175   3.485   1.801   1.553 -0.4140  0.1260  0.1428
 8238SOL    HW136176   3.560   1.780   1.609  0.4628 -0.4992 -1.2488
 8238SOL    HW236177   3.517   1.832   1.469 -0.2743 -0.4813 -0.0318
 8239SOL     OW36178   4.036   2.801   9.773  0.1406  0.2638  0.2951
 8239SOL    HW136179   4.026   2.707   9.791  1.9111 -0.2540 -1.4062
 8239SOL    HW236180   3.980   2.812   9.697  0.6851  1.9645  0.1519
 8240SOL     OW36181   4.418   3.240   9.025 -0.2419 -0.1366 -0.2524
 8240SOL    HW136182   4.514   3.233   9.030 -0.1990 -0.1117 -0.9940
 8240SOL    HW236183   4.408   3.256   8.931  0.0433 -1.9842 -0.5960
 8241SOL     OW36184   3.037   2.858   3.199 -0.1175 -0.0001  0.7090
 8241SOL    HW136185   3.011   2.774   3.160  2.0904 -0.7913  0.9716
 8241SOL    HW236186   2.991   2.919   3.141 -0.5268 -0.6681  0.3339
 8242SOL     OW36187   3.758   4.115   7.689 -0.0806 -0.7356 -0.0233
 8242SOL    HW136188   3.793   4.199   7.719  2.0445 -1.1969 -1.2332
 8242SOL    HW236189   3.830   4.085   7.633 -0.1018 -0.8184 -0.0066
 8243SOL     OW36190   1.483   4.546  12.531  0.2236 -0.1282  0.1329
 8243SOL    HW136191   1.404   4.594  12.554  1.2174  1.3985  0.3269
 8243SOL    HW236192   1.525   4.600  12.464  2.0011 -1.4634  0.1640
 8244SOL     OW36193   3.010   1.397   2.365 -0.1659 -0.2045 -0.0247
 8244SOL    HW136194   3.042   1.314   2.329 -1.7387 -0.7686 -0.0973
 8244SOL    HW236195   2.925   1.361   2.389 -0.3560 -0.6593 -1.4249
 8245SOL     OW36196   4.523   3.793  14.810 -0.2998 -0.2411 -0.3524
 8245SOL    HW136197   4.448   3.844  14.842 -1.3456 -2.5862  1.0042
 8245SOL    HW236198   4.499   3.712  14.855  1.1825 -0.8392 -0.6256
 8246SOL     OW36199   3.362   4.120   0.029  0.0448  0.7516 -0.7615
 8246SOL    HW136200   3.400   4.093   0.113  0.6397  0.5218 -1.1086
 8246SOL    HW236201   3.278   4.076   0.045  0.2921  1.0077  1.3091
 8247SOL     OW36202   0.155   1.948   4.148  0.0418 -0.3111  0.1299
 8247SOL    HW136203   0.134   1.880   4.213  0.7941 -1.7894 -1.1992
 8247SOL    HW236204   0.228   1.993   4.191 -0.1260  0.6929 -0.6447
 8248SOL     OW36205   2.059   0.661   4.406  0.1952  0.1339  0.0962
 8248SOL    HW136206   2.039   0.610   4.328 -0.8871 -1.6311  1.5212
 8248SOL    HW236207   2.014   0.607   4.471 -0.5134  1.7018  0.9010
 8249SOL     OW36208   0.633   2.331   0.306 -0.0863 -0.0096 -0.7450
 8249SOL    HW136209   0.542   2.353   0.290 -0.5293 -0.6326  0.8884
 8249SOL    HW236210   0.671   2.416   0.330  0.0005 -1.0699  2.9851
 8250SOL     OW36211   2.158   4.576   4.475 -0.3997  0.1922 -0.2407
 8250SOL    HW136212   2.216   4.648   4.450 -2.6003  2.0949  0.1547
 8250SOL    HW236213   2.221   4.527   4.529 -0.1750  1.4916  0.6629
 8251SOL     OW36214   3.522   3.392   8.836  0.1344  0.2602  0.2884
 8251SOL    HW136215   3.495   3.380   8.744 -0.2556 -1.1107  0.5808
 8251SOL    HW236216   3.540   3.485   8.840  1.4775 -0.0398  1.0311
 8252SOL     OW36217   2.633   0.112   8.042  0.6271  0.2431 -0.2558
 8252SOL    HW136218   2.677   0.036   8.081  0.8197  0.7188  0.4608
 8252SOL    HW236219   2.653   0.178   8.108 -0.5456  0.4096 -0.0637
 8253SOL     OW36220   3.755   1.550  11.868  0.8096 -0.2551 -0.0857
 8253SOL    HW136221   3.726   1.640  11.877  0.7039 -0.4946  1.8948
 8253SOL    HW236222   3.673   1.517  11.830  0.0961 -2.9328  3.8140
 8254SOL     OW36223   2.283   3.094   6.161  0.0311  0.3200 -0.0020
 8254SOL    HW136224   2.277   3.013   6.211  0.2942 -0.4717 -1.2556
 8254SOL    HW236225   2.331   3.148   6.224 -1.7353  0.9953  0.7687
 8255SOL     OW36226   3.948   1.991   7.938 -0.6472  0.3017  0.3329
 8255SOL    HW136227   3.889   1.926   7.900  0.4776 -1.0089  0.8515
 8255SOL    HW236228   3.898   2.002   8.020 -0.9328  2.4414 -0.1196
 8256SOL     OW36229   0.421   3.552  14.233 -0.0651 -0.0000 -0.5765
 8256SOL    HW136230   0.506   3.593  14.222  0.5845 -1.3642 -0.6508
 8256SOL    HW236231   0.398   3.566  14.141  0.6156  1.4109 -0.5328
 8257SOL     OW36232   2.901   3.828   1.159  0.2333 -0.5839  0.3052
 8257SOL    HW136233   2.931   3.867   1.241 -0.5302  0.5298  0.0484
 8257SOL    HW236234   2.905   3.905   1.102 -1.5418  0.8566  2.1719
 8258SOL     OW36235   4.104   4.382   7.546  0.4523  0.4459  0.1153
 8258SOL    HW136236   4.086   4.472   7.519  3.3709  0.8818 -0.3779
 8258SOL    HW236237   4.182   4.402   7.598  1.2918 -2.1111 -0.1835
 8259SOL     OW36238   0.462   2.893   2.059  0.1284  0.3295  0.1240
 8259SOL    HW136239   0.501   2.811   2.029 -1.7331  0.0665 -1.5732
 8259SOL    HW236240   0.534   2.931   2.111  1.2872  0.7876 -1.8278
 8260SOL     OW36241   1.703   0.887   4.360  0.4752 -0.0377 -0.1554
 8260SOL    HW136242   1.742   0.829   4.426 -0.1507 -0.9117 -0.5452
 8260SOL    HW236243   1.742   0.844   4.284  0.1045  0.2052 -0.4864
 8261SOL     OW36244   3.260   0.333   3.735 -0.6981  0.5047 -0.2100
 8261SOL    HW136245   3.313   0.255   3.715  2.4203  2.1791  1.5529
 8261SOL    HW236246   3.276   0.341   3.829 -0.6297  3.2161 -0.4529
 8262SOL     OW36247   2.258   1.490   6.569 -0.2115 -0.3036  0.1774
 8262SOL    HW136248   2.348   1.509   6.597 -1.0024  2.8298  0.5341
 8262SOL    HW236249   2.258   1.399   6.599 -4.6217 -0.6213 -0.7491
 8263SOL     OW36250   3.263   3.258   6.400 -0.1179  0.0824  0.0498
 8263SOL    HW136251   3.315   3.338   6.395  0.7994 -0.5399 -0.3410
 8263SOL    HW236252   3.226   3.272   6.488  0.9358  0.4921  0.4281
 8264SOL     OW36253   1.237   4.631  17.007 -0.4880 -0.4435  0.4558
 8264SOL    HW136254   1.322   4.592  17.027 -0.0120  1.2194  1.6623
 8264SOL    HW236255   1.253   0.002  17.004  0.9083 -0.7280 -1.2095
 8265SOL     OW36256   2.334   0.388   6.215  1.1955 -0.3661 -0.0834
 8265SOL    HW136257   2.403   0.448   6.244  1.7463 -0.6749 -0.7481
 8265SOL    HW236258   2.287   0.372   6.297  0.5537  0.9149 -0.2109
 8266SOL     OW36259   0.639   0.904  13.537  0.1890  0.1220 -0.1125
 8266SOL    HW136260   0.600   0.829  13.493 -0.2478  0.6369 -0.5995
 8266SOL    HW236261   0.660   0.862  13.621 -0.5476 -0.7006 -0.3373
 8267SOL     OW36262   3.898   4.492   3.280 -0.0671  0.0588 -0.0173
 8267SOL    HW136263   3.990   4.471   3.265  0.6018  2.3343  1.0449
 8267SOL    HW236264   3.884   4.473   3.372  1.7619  0.4310  0.3270
 8268SOL     OW36265   3.749   0.888   6.278 -0.2598 -0.2252  0.0576
 8268SOL    HW136266   3.813   0.820   6.300  0.7940 -0.0578 -2.4762
 8268SOL    HW236267   3.801   0.968   6.285  0.0679 -0.4516  0.2400
 8269SOL     OW36268   2.142   2.158  10.950 -0.2895 -0.0398 -0.0867
 8269SOL    HW136269   2.217   2.101  10.935 -0.5746  0.2100 -2.5081
 8269SOL    HW236270   2.175   2.237  10.992 -2.8224 -0.5416  2.8371
 8270SOL     OW36271   2.721   3.493   4.635 -0.3136 -0.0803  0.3155
 8270SOL    HW136272   2.698   3.585   4.631  0.9871  0.3286  2.5329
 8270SOL    HW236273   2.637   3.447   4.636 -0.6618  0.5022 -1.5343
 8271SOL     OW36274   1.104   1.632   4.289 -0.0613  0.4614 -0.1305
 8271SOL    HW136275   1.087   1.604   4.379  0.4281 -0.7248 -0.4047
 8271SOL    HW236276   1.108   1.728   4.296  1.2171  0.4636 -0.8591
 8272SOL     OW36277   2.685   0.596   2.172  0.7285 -0.5309  0.1333
 8272SOL    HW136278   2.693   0.501   2.186  0.2701 -0.4639  0.8135
 8272SOL    HW236279   2.622   0.613   2.242  1.7229  0.7316  0.7135
 8273SOL     OW36280   4.641   4.722   0.882  0.1571 -0.0691  0.1983
 8273SOL    HW136281   4.636   0.072   0.944  0.4533  0.8396 -0.8293
 8273SOL    HW236282   4.714   0.016   0.823 -1.3108  2.9227 -0.8249
 8274SOL     OW36283   2.053   0.972   5.745  0.3959 -0.2481  0.6241
 8274SOL    HW136284   2.114   1.033   5.703 -0.4592 -1.3280 -2.2174
 8274SOL    HW236285   1.965   0.991   5.712  0.6537 -0.8953 -0.4448
 8275SOL     OW36286   3.747   3.190   4.723 -0.4323  0.3157  0.5752
 8275SOL    HW136287   3.837   3.224   4.719  0.2225 -1.5968 -0.8197
 8275SOL    HW236288   3.714   3.242   4.650 -0.9242  0.4413  0.8941
 8276SOL     OW36289   1.431   3.719   7.478  0.2889 -0.3875  0.2834
 8276SOL    HW136290   1.467   3.633   7.503 -1.4975 -0.6968  1.7369
 8276SOL    HW236291   1.469   3.719   7.390  0.9403 -1.1129  0.5597
 8277SOL     OW36292   3.683   4.623   6.428  0.2574 -0.0483  0.3668
 8277SOL    HW136293   3.745   4.685   6.392 -0.6088  0.6148  0.0142
 8277SOL    HW236294   3.623   4.620   6.354  0.3674  0.2590  0.2675
 8278SOL     OW36295   3.451   1.923   9.230  0.5541 -0.7044  0.0330
 8278SOL    HW136296   3.379   1.986   9.228  2.3603  1.2694 -2.4168
 8278SOL    HW236297   3.526   1.976   9.203 -0.2438  0.0798 -0.6714
 8279SOL     OW36298   4.690   1.387   2.160  0.7176  0.2193  0.3114
 8279SOL    HW136299   4.617   1.396   2.222 -0.0297 -2.2175 -0.2140
 8279SOL    HW236300   4.696   1.295   2.136  2.0297  0.8807 -1.8747
 8280SOL     OW36301   1.480   2.981   7.444  0.2589  1.1269 -0.2043
 8280SOL    HW136302   1.515   2.911   7.389  2.0477  0.9756  1.1465
 8280SOL    HW236303   1.515   2.953   7.528 -3.1958  0.5858  1.0233
 8281SOL     OW36304   0.260   2.366  12.726  0.0163  0.2534 -0.0821
 8281SOL    HW136305   0.178   2.394  12.685  0.4629 -0.2767 -1.3509
 8281SOL    HW236306   0.303   2.446  12.758 -0.7077  1.9790 -3.4401
 8282SOL     OW36307   4.094   4.561   2.462  0.0482 -0.7884 -0.0020
 8282SOL    HW136308   4.023   4.520   2.512 -1.6243 -0.1495 -1.8510
 8282SOL    HW236309   4.079   4.501   2.388  1.2414 -1.9957  0.7271
 8283SOL     OW36310   0.059   2.987   6.183  0.2863  0.0919  0.6999
 8283SOL    HW136311   0.030   3.068   6.142 -0.1876 -1.6517 -2.4540
 8283SOL    HW236312   0.115   2.947   6.116 -2.2702 -1.4674 -0.5100
 8284SOL     OW36313   2.983   1.545  13.035 -0.1850 -0.2381  0.5381
 8284SOL    HW136314   3.010   1.455  13.018 -0.5492  0.3269 -3.0555
 8284SOL    HW236315   2.952   1.583  12.953  0.6676  0.8263  0.7094
 8285SOL     OW36316   0.008   2.787   5.840  0.2438 -0.1151 -0.2902
 8285SOL    HW136317   4.714   2.693   5.832 -0.7872 -0.1595  2.2645
 8285SOL    HW236318   0.066   2.798   5.915 -1.3515  2.5950  0.5371
 8286SOL     OW36319   1.056   2.308  12.180  0.2148 -0.1551 -0.2786
 8286SOL    HW136320   1.013   2.306  12.265 -0.1267 -1.2418 -0.4746
 8286SOL    HW236321   1.141   2.273  12.204  0.1538 -1.8995 -2.5300
 8287SOL     OW36322   1.749   4.083   7.857 -0.2418  0.4242  0.4988
 8287SOL    HW136323   1.812   4.088   7.786  0.6537 -1.4532  1.1706
 8287SOL    HW236324   1.800   4.116   7.931 -0.2246  0.8498  0.2968
 8288SOL     OW36325   2.913   3.885   1.454 -0.0553  0.6938 -0.0555
 8288SOL    HW136326   2.880   3.972   1.433 -1.7363 -0.5282 -2.4193
 8288SOL    HW236327   2.857   3.877   1.531  0.2453 -1.0013 -0.0117
 8289SOL     OW36328   0.165   1.165   3.127 -0.7510 -0.2202 -0.2068
 8289SOL    HW136329   0.255   1.153   3.094 -0.2249 -1.2911  1.6094
 8289SOL    HW236330   0.126   1.078   3.128  2.6234 -1.7523  0.8672
 8290SOL     OW36331   0.721   2.427   2.644 -0.8155  0.5600  0.2965
 8290SOL    HW136332   0.785   2.498   2.637  1.6324 -1.5249  1.5795
 8290SOL    HW236333   0.741   2.380   2.725  0.4296  0.3465 -0.1280
 8291SOL     OW36334   2.732   3.693   7.531 -0.5978  0.1055 -0.3752
 8291SOL    HW136335   2.783   3.753   7.584 -0.8461 -0.4676  0.5121
 8291SOL    HW236336   2.798   3.623   7.528 -0.4657  0.1631  0.9918
 8292SOL     OW36337   4.154   0.388   2.243  0.0225 -0.0530  0.4694
 8292SOL    HW136338   4.120   0.311   2.197  1.7995 -1.1518  1.0000
 8292SOL    HW236339   4.188   0.439   2.170  1.4247 -0.8488  0.5625
 8293SOL     OW36340   0.504   3.512   8.203 -0.4479 -0.0662 -0.0803
 8293SOL    HW136341   0.463   3.437   8.159 -1.4968  0.6000 -0.2545
 8293SOL    HW236342   0.470   3.586   8.154 -2.4189 -0.4509  0.6699
 8294SOL     OW36343   4.198   1.735   1.515  0.4142  1.0474  0.0560
 8294SOL    HW136344   4.161   1.787   1.587 -0.4564  1.7803 -0.9330
 8294SOL    HW236345   4.171   1.795   1.446  0.3739 -0.7808 -1.5303
 8295SOL     OW36346   0.396   3.481  15.539  0.0285 -0.2501 -0.1716
 8295SOL    HW136347   0.352   3.429  15.607  2.7151 -1.9777  0.2190
 8295SOL    HW236348   0.328   3.469  15.473 -3.4410  2.1963  2.9174
 8296SOL     OW36349   4.079   1.555   6.170  0.4853 -0.1811  0.5183
 8296SOL    HW136350   4.025   1.583   6.244  1.1911  0.9001  0.6196
 8296SOL    HW236351   4.013   1.505   6.120  0.5765  0.8673 -0.6676
 8297SOL     OW36352   3.319   0.479   4.298  0.3931 -0.5217 -0.1521
 8297SOL    HW136353   3.412   0.455   4.298  0.2484 -1.0810 -0.6626
 8297SOL    HW236354   3.325   0.557   4.353  1.2088 -0.9410  0.3583
 8298SOL     OW36355   3.177   1.270   5.826 -0.1746  0.1982  0.2651
 8298SOL    HW136356   3.139   1.358   5.835  1.2114  0.7819  0.3304
 8298SOL    HW236357   3.106   1.219   5.787 -0.9197  2.4730 -1.3508
 8299SOL     OW36358   1.537   1.045   3.002  0.5116 -0.2095  0.1788
 8299SOL    HW136359   1.523   0.971   2.942 -1.4050 -0.2386  0.6751
 8299SOL    HW236360   1.454   1.039   3.049 -0.2344  0.8874 -0.9914
 8300SOL     OW36361   2.960   4.505   0.814 -0.2515 -0.2008 -0.3908
 8300SOL    HW136362   3.042   4.462   0.839 -1.9508 -1.7869  2.3396
 8300SOL    HW236363   2.952   4.540   0.902 -0.9375  0.9565 -0.9164
 8301SOL     OW36364   1.868   1.129   4.235 -0.0808 -0.4482 -0.2369
 8301SOL    HW136365   1.806   1.099   4.169 -1.5540  1.7953  0.1435
 8301SOL    HW236366   1.819   1.206   4.262 -1.4477 -1.7647  1.0729
 8302SOL     OW36367   3.879   2.606   7.762 -0.0352  0.5595 -0.3674
 8302SOL    HW136368   3.913   2.587   7.675 -1.2291 -0.3767 -0.6307
 8302SOL    HW236369   3.959   2.579   7.808 -0.7914 -2.1515 -0.6182
 8303SOL     OW36370   2.528   1.620  10.969 -0.1570 -0.0858  0.2601
 8303SOL    HW136371   2.579   1.542  10.948  0.6939  0.4958  0.1445
 8303SOL    HW236372   2.500   1.590  11.056  2.4261  0.2764  1.2371
 8304SOL     OW36373   0.940   4.003  17.424 -0.0750 -0.0037  0.4243
 8304SOL    HW136374   0.868   3.951  17.458 -0.3325  1.6921  2.5057
 8304SOL    HW236375   0.983   3.944  17.363  2.2826  0.1057  1.9765
 8305SOL     OW36376   1.739   2.071   5.790  0.0532 -0.3524 -0.4998
 8305SOL    HW136377   1.746   2.062   5.885  2.7286  0.9710 -0.5674
 8305SOL    HW236378   1.678   2.000   5.770  0.0945 -0.3337 -0.6971
 8306SOL     OW36379   4.157   2.278   2.315  0.3719  0.2947 -0.1013
 8306SOL    HW136380   4.187   2.304   2.402  0.8503 -0.2911 -0.0956
 8306SOL    HW236381   4.230   2.233   2.274  0.4786  2.2674 -2.0536
 8307SOL     OW36382   2.071   1.915   6.981 -0.3559  0.5788  0.0445
 8307SOL    HW136383   1.992   1.869   6.952 -1.6824 -0.0266  4.5159
 8307SOL    HW236384   2.128   1.865   6.923 -1.9500  0.2819 -1.2776
 8308SOL     OW36385   3.612   2.335   5.276 -0.0033 -0.1082 -0.4756
 8308SOL    HW136386   3.602   2.315   5.369 -1.4721 -2.2287 -1.0871
 8308SOL    HW236387   3.627   2.430   5.281  1.2962 -0.4193  1.4355
 8309SOL     OW36388   2.313   3.500   4.061 -0.1951  0.4336 -0.4310
 8309SOL    HW136389   2.288   3.474   3.973  0.1196 -3.8350  0.7289
 8309SOL    HW236390   2.403   3.468   4.051  0.0530  1.2574 -0.8374
 8310SOL     OW36391   3.732   2.738  13.900 -0.0890  0.2896  0.2916
 8310SOL    HW136392   3.743   2.767  13.991  1.0074 -2.1914  0.9561
 8310SOL    HW236393   3.751   2.645  13.907  2.0667  0.7442  0.5234
 8311SOL     OW36394   0.863   3.578   2.012 -0.5053 -0.0358  0.3749
 8311SOL    HW136395   0.802   3.554   1.943  0.8196  1.7916 -1.4471
 8311SOL    HW236396   0.909   3.494   2.016 -3.0216 -1.4530 -0.5139
 8312SOL     OW36397   2.362   0.056   7.056  0.0798 -0.2119 -0.4567
 8312SOL    HW136398   2.405   4.715   6.999 -0.1187 -0.4490 -0.3401
 8312SOL    HW236399   2.371   0.135   7.004  1.2263 -0.1001 -0.0808
 8313SOL     OW36400   0.776   3.526   6.873 -0.3864  0.0558 -0.5350
 8313SOL    HW136401   0.756   3.547   6.965  1.3410 -1.6458  0.2280
 8313SOL    HW236402   0.817   3.441   6.881 -1.7496 -0.5767 -0.1798
 8314SOL     OW36403   0.081   1.171   3.534 -0.1486 -0.3515  0.3190
 8314SOL    HW136404   4.715   1.136   3.521 -0.4153 -0.3707  2.2581
 8314SOL    HW236405   0.057   1.263   3.537  2.8893  0.4652 -0.2347
 8315SOL     OW36406   3.774   3.734   7.209 -0.5123  0.3812 -0.8209
 8315SOL    HW136407   3.858   3.693   7.227 -0.1914  1.7024  0.6177
 8315SOL    HW236408   3.810   3.814   7.171 -0.2418  1.2562  1.3127
 8316SOL     OW36409   2.568   1.783   3.914  0.0880 -0.1059 -0.7049
 8316SOL    HW136410   2.561   1.878   3.898 -3.5249 -0.4146 -0.9377
 8316SOL    HW236411   2.609   1.764   3.830  1.3060 -0.1426 -0.1030
 8317SOL     OW36412   3.395   2.584   3.565  0.1076 -0.3903  0.3079
 8317SOL    HW136413   3.299   2.586   3.563  0.1821  0.0095 -2.6876
 8317SOL    HW236414   3.414   2.605   3.474  0.3538  1.7716  0.8627
 8318SOL     OW36415   0.179   2.875  15.375 -0.0636  0.0984  0.5619
 8318SOL    HW136416   0.273   2.858  15.386 -0.4578 -3.2095 -1.1802
 8318SOL    HW236417   0.166   2.967  15.398 -0.0177 -0.0299  1.1178
 8319SOL     OW36418   0.518   0.413   3.285 -0.4832 -0.3421  0.1362
 8319SOL    HW136419   0.589   0.470   3.257  0.3500 -0.8502  1.2169
 8319SOL    HW236420   0.559   0.363   3.356 -0.7970  0.6205  0.9891
 8320SOL     OW36421   1.523   1.884   4.971  0.1862  0.6629 -0.2858
 8320SOL    HW136422   1.577   1.833   5.031  0.8144 -1.1351 -2.3966
 8320SOL    HW236423   1.479   1.935   5.039  0.8928 -0.8573  1.2943
 8321SOL     OW36424   3.030   0.617   3.877 -0.5365  0.3749 -0.1052
 8321SOL    HW136425   2.989   0.618   3.963 -0.7723  2.6944 -0.2261
 8321SOL    HW236426   3.118   0.648   3.901 -0.0845 -0.2208 -0.9916
 8322SOL     OW36427   3.679   0.601   3.980  0.2285  0.1583 -0.2737
 8322SOL    HW136428   3.587   0.583   3.958 -0.2186 -0.6316  2.2343
 8322SOL    HW236429   3.678   0.693   3.955  1.1618  0.7232  1.7230
 8323SOL     OW36430   0.041   3.829   3.926 -0.0883 -0.0450  0.1752
 8323SOL    HW136431   0.017   3.736   3.916  1.5530 -0.7165  2.4781
 8323SOL    HW236432   0.135   3.814   3.925 -0.0823  0.0310 -0.8127
 8324SOL     OW36433   2.963   0.117   9.122  0.0370  0.2788  0.1042
 8324SOL    HW136434   3.037   0.164   9.160  0.4248 -0.4434  0.2362
 8324SOL    HW236435   2.984   0.025   9.136 -0.3263  0.0933 -0.5577
 8325SOL     OW36436   4.631   4.371   8.635 -0.6064 -0.4526  0.6634
 8325SOL    HW136437   4.690   4.302   8.663 -0.4533 -1.3751 -1.8549
 8325SOL    HW236438   4.547   4.356   8.679 -1.2375 -1.9105 -1.0075
 8326SOL     OW36439   1.362   0.759  17.024  0.9063 -0.2362 -0.2258
 8326SOL    HW136440   1.373   0.666  17.041 -0.9892 -0.3478  0.4160
 8326SOL    HW236441   1.358   0.793  17.113  1.1513 -0.3591 -0.1673
 8327SOL     OW36442   4.605   3.762   5.993 -0.3250  0.0216  0.2037
 8327SOL    HW136443   4.673   3.821   6.027  0.8041 -1.9723  1.4510
 8327SOL    HW236444   4.594   3.783   5.901 -0.7037 -0.1612  0.2088
 8328SOL     OW36445   4.359   2.451   6.746  0.8189  0.3877  1.0009
 8328SOL    HW136446   4.430   2.489   6.797  0.4200 -0.2477  2.0545
 8328SOL    HW236447   4.332   2.526   6.694  0.2729  0.1296  0.9069
 8329SOL     OW36448   3.876   3.815   3.407 -0.1519  0.2071 -0.6419
 8329SOL    HW136449   3.793   3.817   3.455 -0.7310 -0.6743 -1.5795
 8329SOL    HW236450   3.855   3.888   3.349 -0.8505 -0.7916 -1.6482
 8330SOL     OW36451   4.543   0.741  12.354  1.3595 -0.7171  0.3507
 8330SOL    HW136452   4.558   0.685  12.277 -0.7590 -0.5967 -0.1429
 8330SOL    HW236453   4.500   0.681  12.415  0.1445 -0.8963 -0.6771
 8331SOL     OW36454   4.551   2.470   5.693  0.0609  0.1168 -0.4440
 8331SOL    HW136455   4.456   2.478   5.687 -0.1257 -0.8329  1.2073
 8331SOL    HW236456   4.584   2.535   5.631  1.5726  0.0568  0.3130
 8332SOL     OW36457   1.748   4.333   4.656  0.4311  0.3849 -0.5095
 8332SOL    HW136458   1.799   4.354   4.735 -0.2121 -0.3699  0.1038
 8332SOL    HW236459   1.749   4.415   4.607  0.1897 -1.4143 -3.5122
 8333SOL     OW36460   0.786   0.216   7.593  0.1904 -0.1340  0.1763
 8333SOL    HW136461   0.741   0.189   7.513  0.6861  1.0106 -0.4816
 8333SOL    HW236462   0.756   0.307   7.599 -2.8835 -1.2133  1.0823
 8334SOL     OW36463   1.275   2.688  15.858  0.0457 -0.0146  0.5513
 8334SOL    HW136464   1.223   2.763  15.826  1.1386  0.3644 -0.3373
 8334SOL    HW236465   1.218   2.617  15.830  0.9013 -0.1032 -0.9709
 8335SOL     OW36466   3.577   3.071  10.635  0.4993 -0.5509  0.0815
 8335SOL    HW136467   3.671   3.074  10.613  0.8998 -1.1139  1.7562
 8335SOL    HW236468   3.578   3.088  10.729  2.0026  1.1132 -0.2221
 8336SOL     OW36469   2.682   4.658  15.964 -0.0914 -0.3982  0.1058
 8336SOL    HW136470   2.758   4.707  15.933 -0.3225 -0.3233 -0.3435
 8336SOL    HW236471   2.726   4.578  15.994 -0.6206 -0.3096  1.0954
 8337SOL     OW36472   2.197   2.257  16.772  0.1234 -0.1297 -0.2895
 8337SOL    HW136473   2.212   2.328  16.710 -2.9638 -0.1958 -1.1316
 8337SOL    HW236474   2.111   2.279  16.808  1.3174  1.0694  1.8657
 8338SOL     OW36475   2.028   0.150   7.661 -0.6323  0.0858 -0.8868
 8338SOL    HW136476   2.067   0.234   7.637  2.2766 -0.7958  0.6978
 8338SOL    HW236477   1.944   0.192   7.681 -1.0019 -1.5756  1.1199
 8339SOL     OW36478   2.456   4.502   1.935 -0.1327  0.3451  0.1267
 8339SOL    HW136479   2.473   4.421   1.887  1.5727 -0.6961  2.5130
 8339SOL    HW236480   2.457   4.472   2.025  0.5216 -0.3099 -0.0996
 8340SOL     OW36481   3.992   4.325   4.261  0.2001  0.0055  0.2264
 8340SOL    HW136482   4.025   4.398   4.312  2.0133 -1.7870  1.6194
 8340SOL    HW236483   4.069   4.272   4.239  0.1029 -0.0529  0.0226
 8341SOL     OW36484   1.674   2.746   6.017  0.1061  0.6647 -0.0289
 8341SOL    HW136485   1.765   2.719   6.032  0.0956 -1.1994 -3.3586
 8341SOL    HW236486   1.660   2.814   6.083  3.3675 -1.0325  2.4290
 8342SOL     OW36487   2.212   3.100   2.354  0.6638 -0.1643  0.3750
 8342SOL    HW136488   2.167   3.016   2.349  1.0377 -0.3170 -0.4512
 8342SOL    HW236489   2.253   3.084   2.440 -0.8788  2.3268  1.5860
 8343SOL     OW36490   4.418   4.627   8.714 -0.5285  0.0236  0.2841
 8343SOL    HW136491   4.421   4.532   8.722 -0.5222  0.1715  2.1160
 8343SOL    HW236492   4.507   4.646   8.743 -0.8225  2.8835 -0.6663
 8344SOL     OW36493   0.605   1.720   5.898  0.4566  0.2224  0.0458
 8344SOL    HW136494   0.606   1.738   5.804  3.5852 -2.0355 -0.3488
 8344SOL    HW236495   0.634   1.629   5.906  3.9769  1.2852 -0.7679
 8345SOL     OW36496   1.064   3.367   0.579  0.2968 -0.3872  0.5497
 8345SOL    HW136497   1.007   3.443   0.592 -0.8725 -1.1746 -0.0015
 8345SOL    HW236498   1.121   3.391   0.652  0.4727 -0.0388  0.2959
 8346SOL     OW36499   0.230   0.464   6.433  0.0404  0.1041  0.2508
 8346SOL    HW136500   0.149   0.513   6.419  0.0897  0.7084  1.9678
 8346SOL    HW236501   0.243   0.463   6.528 -0.1029 -2.7606  0.2295
 8347SOL     OW36502   3.205   2.821   4.768  0.4442 -0.1359 -0.1052
 8347SOL    HW136503   3.159   2.904   4.755 -1.1869 -1.4230 -2.4811
 8347SOL    HW236504   3.264   2.804   4.695  0.2348 -1.3062 -0.0060
 8348SOL     OW36505   1.983   2.116   0.795  0.2673 -0.3525 -0.0191
 8348SOL    HW136506   2.017   2.201   0.824  3.7523 -1.5477 -0.5587
 8348SOL    HW236507   1.959   2.129   0.703  0.9998  2.7219  0.2146
 8349SOL     OW36508   1.822   0.777   4.146 -0.0682 -0.0502  0.1708
 8349SOL    HW136509   1.782   0.690   4.137  0.3756 -0.1680 -0.6382
 8349SOL    HW236510   1.915   0.756   4.153 -0.3650 -2.0063 -1.7893
 8350SOL     OW36511   2.304   4.595   3.980 -0.8445 -0.0344  0.1269
 8350SOL    HW136512   2.360   4.561   3.910  0.9549  0.6946  1.1981
 8350SOL    HW236513   2.366   4.623   4.048  1.1499 -2.3539 -0.7333
 8351SOL     OW36514   3.691   2.817   5.689  1.0931 -0.0095 -0.0076
 8351SOL    HW136515   3.739   2.898   5.708  0.1917  0.7322 -0.9321
 8351SOL    HW236516   3.636   2.846   5.617  0.2191 -0.9842  0.2702
 8352SOL     OW36517   1.069   3.292   2.321 -0.7049 -0.0023  0.1761
 8352SOL    HW136518   1.035   3.211   2.283  0.9432 -0.3903 -0.4482
 8352SOL    HW236519   1.164   3.292   2.308 -0.5286  1.7210  1.3491
 8353SOL     OW36520   3.086   4.522  12.263  0.5078 -0.3200  0.2690
 8353SOL    HW136521   3.008   4.553  12.218  0.1611 -2.3115 -0.5073
 8353SOL    HW236522   3.038   4.477  12.332 -0.1151  0.2279  0.1843
 8354SOL     OW36523   3.528   0.365   8.017 -0.0803 -0.0266  0.2811
 8354SOL    HW136524   3.609   0.391   8.060 -0.3491  0.9886  0.1603
 8354SOL    HW236525   3.502   0.447   7.975 -3.6374 -0.9507  0.6974
 8355SOL     OW36526   4.054   0.985  14.862  0.0288 -0.0917  0.2137
 8355SOL    HW136527   4.015   1.050  14.804 -0.8609  1.0699  2.1154
 8355SOL    HW236528   4.138   0.966  14.819 -0.1287 -1.1844  0.3785
 8356SOL     OW36529   2.930   0.051  10.944 -0.1856  0.0766  0.3363
 8356SOL    HW136530   2.838   0.038  10.966  0.3319  0.5776  2.7203
 8356SOL    HW236531   2.964   4.706  11.003 -1.0474  0.5526  1.3756
 8357SOL     OW36532   2.093   0.466  12.448 -0.0077  0.2429  0.1986
 8357SOL    HW136533   2.051   0.390  12.487  2.9591 -2.0109 -0.9946
 8357SOL    HW236534   2.166   0.472  12.511  0.4427  0.5338 -0.3496
 8358SOL     OW36535   1.637   2.714  14.574  0.2581 -0.2221 -0.2988
 8358SOL    HW136536   1.670   2.666  14.650  0.2049  0.6739  0.2868
 8358SOL    HW236537   1.715   2.726  14.521 -0.2893  1.3719 -0.7441
 8359SOL     OW36538   1.203   4.159  12.498 -0.0213 -0.2852 -0.1258
 8359SOL    HW136539   1.269   4.121  12.439  0.1991 -3.2845  2.0716
 8359SOL    HW236540   1.237   4.245  12.524 -0.0995 -0.6777  1.2676
 8360SOL     OW36541   0.376   4.298   4.186  0.3669  0.0454  0.3234
 8360SOL    HW136542   0.340   4.227   4.133 -0.8443  0.7050  0.2753
 8360SOL    HW236543   0.470   4.276   4.183  0.4709  0.6769 -0.9641
 8361SOL     OW36544   1.088   4.485   7.854  0.2021  0.5649  0.0483
 8361SOL    HW136545   1.037   4.562   7.827  0.2296  0.9283  1.0598
 8361SOL    HW236546   1.142   4.478   7.775 -1.3787 -2.0168 -0.7983
 8362SOL     OW36547   0.864   3.327   0.319  0.0503  0.1337 -0.1585
 8362SOL    HW136548   0.896   3.276   0.245  0.9777  0.6478 -0.1192
 8362SOL    HW236549   0.870   3.268   0.394  1.2876 -1.1672 -1.2796
 8363SOL     OW36550   3.392   0.642   1.036 -0.0072 -0.4523  0.1318
 8363SOL    HW136551   3.363   0.663   1.124 -0.0274 -2.4999  0.6260
 8363SOL    HW236552   3.315   0.651   0.979  0.1392 -2.7178 -0.4493
 8364SOL     OW36553   3.662   2.098   1.746  1.0266  0.5507 -0.2037
 8364SOL    HW136554   3.669   2.042   1.669  1.2303  1.0615 -0.5610
 8364SOL    HW236555   3.710   2.043   1.807 -2.7638  0.2950  2.5239
 8365SOL     OW36556   2.362   4.675   3.437  0.8210  0.0541 -0.2101
 8365SOL    HW136557   2.454   4.694   3.417  2.0725 -2.4487  3.1631
 8365SOL    HW236558   2.321   0.032   3.405  2.4427  0.0334 -2.3485
 8366SOL     OW36559   0.423   0.019   8.948 -0.1099  0.2377  0.1298
 8366SOL    HW136560   0.484   4.710   8.881 -0.0530  1.0306 -0.1974
 8366SOL    HW236561   0.380   4.657   8.961  1.9061 -0.5756  1.4098
 8367SOL     OW36562   0.003   4.290  17.530 -0.3859  0.2512  0.0282
 8367SOL    HW136563   4.714   4.205  17.572  2.2008 -0.3912 -0.5218
 8367SOL    HW236564   4.644   4.311  17.485  0.9530  2.1575 -1.4835
 8368SOL     OW36565   4.172   2.209   1.286 -0.4123  0.0545  0.2984
 8368SOL    HW136566   4.088   2.235   1.324 -0.8933 -1.0429 -0.0232
 8368SOL    HW236567   4.138   2.149   1.219  0.4359  0.4658 -0.4976
 8369SOL     OW36568   0.658   3.513   1.861 -0.2632 -0.5290  0.2851
 8369SOL    HW136569   0.644   3.475   1.774  0.0552  0.4989 -0.2217
 8369SOL    HW236570   0.621   3.448   1.920  1.1220 -0.8662  0.7953
 8370SOL     OW36571   1.360   0.250  11.298  0.3869 -0.0889 -0.4341
 8370SOL    HW136572   1.383   0.342  11.288 -0.4926  0.3018  1.0098
 8370SOL    HW236573   1.288   0.241  11.236 -0.2457  0.6407  0.1933
 8371SOL     OW36574   3.216   4.011   4.853  0.3029  0.4470 -0.5312
 8371SOL    HW136575   3.164   4.085   4.823 -0.5821  0.0929  0.1488
 8371SOL    HW236576   3.146   3.950   4.877 -0.7940  1.1022 -2.0778
 8372SOL     OW36577   2.030   4.647   5.539 -0.1351 -0.4872  0.3133
 8372SOL    HW136578   2.060   4.561   5.568 -0.5414 -0.7811 -0.1471
 8372SOL    HW236579   1.935   4.638   5.534 -0.1869  1.6252 -3.3609
 8373SOL     OW36580   1.673   3.675   0.499 -0.6020 -0.1030  0.3375
 8373SOL    HW136581   1.592   3.625   0.491 -1.9188  1.9154  1.1301
 8373SOL    HW236582   1.648   3.746   0.440 -1.2789 -1.9847 -1.6649
 8374SOL     OW36583   2.902   0.121   5.330 -0.3979 -0.0583 -1.1084
 8374SOL    HW136584   2.989   0.147   5.360  0.3129 -0.2437 -3.0259
 8374SOL    HW236585   2.846   0.187   5.372 -0.6806 -0.4957 -0.8068
 8375SOL     OW36586   1.124   3.390   0.270  0.0847  0.3016  0.3459
 8375SOL    HW136587   1.041   3.394   0.318  0.0794 -2.0362  0.5163
 8375SOL    HW236588   1.117   3.479   0.236  0.2004 -0.0929 -0.7231
 8376SOL     OW36589   0.764   1.113   4.435  0.0002 -0.0057 -0.5483
 8376SOL    HW136590   0.699   1.180   4.413 -1.0031 -0.0436  2.3253
 8376SOL    HW236591   0.808   1.076   4.358  1.8513 -1.6793  1.3096
 8377SOL     OW36592   3.276   4.714   0.844 -0.3976 -0.4148  0.6369
 8377SOL    HW136593   3.294   4.631   0.801  0.0954  0.6246 -1.1911
 8377SOL    HW236594   3.196   4.692   0.892 -0.2548 -1.1176  0.5484
 8378SOL     OW36595   2.631   2.021   2.266 -0.4221 -0.3492  0.3965
 8378SOL    HW136596   2.668   2.016   2.354 -0.5056 -0.3703  0.4303
 8378SOL    HW236597   2.624   1.927   2.248 -0.1803 -0.3009  0.0416
 8379SOL     OW36598   3.237   3.768  11.434 -0.4143 -0.5405 -0.0906
 8379SOL    HW136599   3.146   3.745  11.416 -0.7696 -0.4270  1.5308
 8379SOL    HW236600   3.270   3.688  11.475 -0.8410 -0.5890  0.1555
 8380SOL     OW36601   2.357   3.440   9.800  0.0049  0.4461 -0.8406
 8380SOL    HW136602   2.439   3.486   9.820 -0.2499  0.2037  0.6954
 8380SOL    HW236603   2.385   3.400   9.717  0.1858  1.6015 -1.3396
 8381SOL     OW36604   3.628   0.126  12.630 -0.3175 -0.0488  0.2210
 8381SOL    HW136605   3.533   0.116  12.619 -0.7675  1.1249  3.0851
 8381SOL    HW236606   3.657   0.183  12.558 -1.0982 -0.0862 -0.1271
 8382SOL     OW36607   0.646   2.652   1.637  0.1088 -0.0810  0.1252
 8382SOL    HW136608   0.640   2.644   1.542  2.2027 -0.5625  0.0315
 8382SOL    HW236609   0.622   2.744   1.635  0.6142  0.0452 -0.2751
 8383SOL     OW36610   3.162   2.518   3.285 -0.3840  0.1366 -0.2481
 8383SOL    HW136611   3.202   2.432   3.271  1.3484  0.8631  0.2343
 8383SOL    HW236612   3.244   2.566   3.279  0.1602 -0.8901 -1.0861
 8384SOL     OW36613   2.103   1.286   4.892 -0.0973  0.0658 -0.5279
 8384SOL    HW136614   2.172   1.306   4.828  0.5442 -0.2937  0.0507
 8384SOL    HW236615   2.131   1.207   4.939  1.7754  0.8106 -0.3755
 8385SOL     OW36616   2.530   0.931   0.307 -0.4152  0.3810 -0.6031
 8385SOL    HW136617   2.518   0.956   0.398  1.5420 -0.7233 -0.0357
 8385SOL    HW236618   2.602   0.988   0.279  0.5847 -0.1806  0.8242
 8386SOL     OW36619   0.588   2.892  13.199  0.1275  0.6899 -0.1301
 8386SOL    HW136620   0.548   2.967  13.243  1.5725 -0.1858  2.6142
 8386SOL    HW236621   0.663   2.944  13.169  0.7670  0.0163  0.3253
 8387SOL     OW36622   4.376   0.086   4.549  0.1080  0.1835 -0.0854
 8387SOL    HW136623   4.388   0.004   4.501  1.5919 -0.0255  0.6485
 8387SOL    HW236624   4.433   0.154   4.514  0.1630 -0.1449 -0.6360
 8388SOL     OW36625   2.946   2.600   3.120 -0.5121  0.6521  0.1977
 8388SOL    HW136626   3.021   2.586   3.179 -1.1618 -3.7414 -0.0262
 8388SOL    HW236627   2.971   2.542   3.049 -0.1856  1.2305 -0.1605
 8389SOL     OW36628   1.849   3.190   0.867  0.2255  0.5403  0.3403
 8389SOL    HW136629   1.941   3.188   0.894  0.7828  2.7670 -1.3907
 8389SOL    HW236630   1.808   3.260   0.918 -0.0256 -0.0236  0.9171
 8390SOL     OW36631   3.762   1.342   1.547 -0.0401 -0.7814 -0.7762
 8390SOL    HW136632   3.797   1.429   1.567  1.2510 -2.1810  2.9819
 8390SOL    HW236633   3.775   1.282   1.620  0.4081  0.2211 -0.0373
 8391SOL     OW36634   4.303   3.234   9.467 -0.1962 -0.1962 -0.2354
 8391SOL    HW136635   4.290   3.319   9.426  0.7299  0.5183  0.9739
 8391SOL    HW236636   4.276   3.177   9.394  1.1985 -1.5680  0.3140
 8392SOL     OW36637   4.434   4.031   0.856 -0.0171  0.0636 -0.6336
 8392SOL    HW136638   4.489   3.973   0.908  1.3356  1.2776 -0.6876
 8392SOL    HW236639   4.421   4.103   0.918  0.6401  1.3032 -1.9265
 8393SOL     OW36640   3.644   4.062   4.977  0.2526  0.3357  0.6475
 8393SOL    HW136641   3.562   4.092   4.938 -0.0226 -0.8238  0.3428
 8393SOL    HW236642   3.619   4.086   5.066 -1.0573 -0.3419  0.4658
 8394SOL     OW36643   0.696   0.564  10.826  0.3846  0.4956 -0.1012
 8394SOL    HW136644   0.760   0.624  10.864 -2.2015  3.7269 -0.8740
 8394SOL    HW236645   0.750   0.499  10.780 -2.4839 -1.0729 -1.3316
 8395SOL     OW36646   0.502   4.193   4.576 -0.1847  0.1475  0.4172
 8395SOL    HW136647   0.523   4.100   4.586  2.1310  0.5026 -1.2341
 8395SOL    HW236648   0.416   4.197   4.534  0.2596 -0.3331 -0.5225
 8396SOL     OW36649   1.935   2.375   2.625 -0.2560 -0.3647 -0.2807
 8396SOL    HW136650   2.021   2.416   2.614  0.0752 -0.7399  0.9976
 8396SOL    HW236651   1.887   2.431   2.685 -1.4023 -0.0989 -1.4479
 8397SOL     OW36652   0.525   3.619  17.525 -0.2596 -0.4447 -0.0271
 8397SOL    HW136653   0.601   3.565  17.502  1.7145  2.7864 -1.2061
 8397SOL    HW236654   0.511   3.604  17.618 -0.0934  0.3523  0.1331
 8398SOL     OW36655   1.338   3.774  13.677 -0.1992 -0.2091  0.2124
 8398SOL    HW136656   1.329   3.722  13.757 -1.0873 -1.0263 -0.4177
 8398SOL    HW236657   1.250   3.810  13.674 -0.2096 -0.2442  0.0616
 8399SOL     OW36658   2.600   2.449  12.490 -0.0328  0.2692  0.2334
 8399SOL    HW136659   2.679   2.409  12.453 -0.6294 -0.4248 -0.2893
 8399SOL    HW236660   2.619   2.543  12.484 -0.2703  0.0747 -3.2088
 8400SOL     OW36661   2.238   3.235   3.408  0.2021 -0.0766  0.0123
 8400SOL    HW136662   2.150   3.196   3.408 -0.0064  0.4261  2.4358
 8400SOL    HW236663   2.220   3.278   3.324 -1.2632  0.9843  0.8668
 8401SOL     OW36664   2.078   0.228   1.823 -1.0311 -0.0897 -0.3299
 8401SOL    HW136665   2.157   0.262   1.864  0.5245 -2.6246 -1.1983
 8401SOL    HW236666   2.105   0.218   1.731  2.8754 -0.3195  0.8332
 8402SOL     OW36667   4.062   1.532   4.572  0.3421  0.1130  0.4835
 8402SOL    HW136668   3.986   1.512   4.517  2.1784 -0.8082 -1.7498
 8402SOL    HW236669   4.041   1.622   4.598 -0.3753  0.2716 -0.6162
 8403SOL     OW36670   3.911   0.070   4.211  0.6335  0.1686 -0.5755
 8403SOL    HW136671   3.873   0.151   4.176 -1.1763 -0.2504  0.4385
 8403SOL    HW236672   3.899   0.084   4.305  0.7719  0.0300 -0.5372
 8404SOL     OW36673   0.558   0.523   7.162 -0.4039 -0.5832  0.7711
 8404SOL    HW136674   0.604   0.442   7.139  0.0914  0.1279 -0.7334
 8404SOL    HW236675   0.467   0.494   7.165 -0.2556 -1.4228 -2.0852
 8405SOL     OW36676   3.562   1.437   7.148 -0.2262  0.2743  0.1758
 8405SOL    HW136677   3.501   1.371   7.183  1.9261 -1.9121 -0.2003
 8405SOL    HW236678   3.516   1.516   7.175  0.3330 -0.0274  2.0248
 8406SOL     OW36679   1.311   3.043   7.750 -0.0886 -0.2215  0.5436
 8406SOL    HW136680   1.348   3.000   7.828 -2.4071  1.4294  2.5663
 8406SOL    HW236681   1.346   3.131   7.765 -0.5833  0.0668  0.0231
 8407SOL     OW36682   0.635   4.521   4.178  0.1946  0.2781  0.6814
 8407SOL    HW136683   0.577   4.500   4.252 -1.6231 -2.3531 -1.4767
 8407SOL    HW236684   0.586   4.508   4.097  1.3082  1.4063 -0.1631
 8408SOL     OW36685   1.202   0.981  10.936  0.0178  0.7225 -0.3607
 8408SOL    HW136686   1.293   1.009  10.934 -0.0786  1.1410  1.3266
 8408SOL    HW236687   1.157   1.066  10.929  0.1423  0.6814 -1.7626
 8409SOL     OW36688   0.089   0.915   7.941  0.8286 -0.0074 -0.0152
 8409SOL    HW136689   0.000   0.916   7.978  1.5442  1.3220  1.6749
 8409SOL    HW236690   0.098   1.004   7.907 -0.5737 -0.2394 -1.0052
 8410SOL     OW36691   1.421   4.387   0.058 -0.1164  0.2857 -0.0723
 8410SOL    HW136692   1.383   4.385  17.663 -0.7865  0.5682  0.2124
 8410SOL    HW236693   1.508   4.424   0.045 -0.5981  0.7029 -2.1236
 8411SOL     OW36694   3.438   1.630  11.489 -0.6251  0.1185 -0.5461
 8411SOL    HW136695   3.476   1.629  11.401  1.7186 -2.5417  0.4892
 8411SOL    HW236696   3.464   1.708  11.537  0.9862 -0.8484  0.1521
 8412SOL     OW36697   4.672   0.987  10.138  0.3897 -0.0627 -0.0223
 8412SOL    HW136698   0.036   1.003  10.174  0.7865 -0.1644 -0.9345
 8412SOL    HW236699   4.609   1.026  10.199  0.1485  5.5494 -3.8471
 8413SOL     OW36700   0.900   0.402   6.076  0.3466 -0.0617 -0.4710
 8413SOL    HW136701   0.910   0.470   6.142 -0.7115 -0.4495  0.0897
 8413SOL    HW236702   0.805   0.409   6.061  0.8583  3.1534 -2.1893
 8414SOL     OW36703   3.129   0.651   6.726 -0.4214  0.0330  0.4932
 8414SOL    HW136704   3.185   0.728   6.729  2.7407 -2.2031 -0.6782
 8414SOL    HW236705   3.135   0.631   6.819  0.0666 -1.5539  0.1232
 8415SOL     OW36706   3.128   0.312  12.301  0.6865 -0.2378  0.4509
 8415SOL    HW136707   3.087   0.343  12.220  0.4811 -0.3332  0.5174
 8415SOL    HW236708   3.220   0.334  12.288  0.8621 -1.4714 -0.3721
 8416SOL     OW36709   2.583   1.765   5.072 -0.4231  0.0418  0.1061
 8416SOL    HW136710   2.650   1.702   5.043 -1.3531 -0.8105 -0.1691
 8416SOL    HW236711   2.523   1.762   4.998 -0.9287  0.3710  0.5056
 8417SOL     OW36712   3.152   1.408  11.791 -0.1572 -0.2425 -0.1186
 8417SOL    HW136713   3.135   1.502  11.779 -0.0322 -0.3252 -0.9446
 8417SOL    HW236714   3.219   1.420  11.858  0.2970  0.2780 -0.6604
 8418SOL     OW36715   2.390   3.498   6.945  0.2521 -0.4382  0.0787
 8418SOL    HW136716   2.360   3.536   7.027 -0.4761  0.4973 -0.6166
 8418SOL    HW236717   2.431   3.418   6.976  0.1308 -0.6690 -0.3510
 8419SOL     OW36718   1.929   2.511   1.678 -0.3695 -0.3698  0.0693
 8419SOL    HW136719   1.850   2.485   1.727 -0.6739 -0.9995 -0.7538
 8419SOL    HW236720   1.912   2.477   1.590 -0.6671 -0.8799  0.3191
 8420SOL     OW36721   3.113   3.164   7.282 -0.2980 -0.1190 -0.6422
 8420SOL    HW136722   3.097   3.078   7.320  2.0304 -0.9774 -1.5906
 8420SOL    HW236723   3.201   3.146   7.248 -1.6191  1.1054 -4.8002
 8421SOL     OW36724   0.202   2.552   5.195  0.0482  0.1099  0.8347
 8421SOL    HW136725   0.257   2.582   5.123  0.4385  0.5927  1.3307
 8421SOL    HW236726   0.125   2.521   5.148  0.6567  2.2829 -1.6398
 8422SOL     OW36727   3.475   1.509  15.584 -0.8071 -0.2270 -0.1384
 8422SOL    HW136728   3.441   1.592  15.550  0.3150 -0.4606 -1.8833
 8422SOL    HW236729   3.565   1.510  15.550 -1.9847  1.8562 -3.1913
 8423SOL     OW36730   1.663   1.152   4.507  0.4820 -0.6949 -0.4794
 8423SOL    HW136731   1.752   1.178   4.533  0.4029  0.5173 -1.3900
 8423SOL    HW236732   1.676   1.071   4.459 -0.5876 -1.8456  1.1770
 8424SOL     OW36733   2.949   4.172   0.739 -0.0075 -0.2808  0.0067
 8424SOL    HW136734   2.857   4.196   0.735  0.0090 -0.3847 -1.1631
 8424SOL    HW236735   2.989   4.211   0.661  1.6733 -2.2101 -0.1094
 8425SOL     OW36736   2.758   0.561   4.910  0.4049  0.0092  0.2260
 8425SOL    HW136737   2.814   0.596   4.840 -0.2848  0.3656 -0.1402
 8425SOL    HW236738   2.769   0.469   4.885  0.9366  0.6544 -1.9040
 8426SOL     OW36739   3.932   2.159   2.452  0.2233  0.1734  0.1732
 8426SOL    HW136740   3.989   2.097   2.406  2.3855  1.4277  1.1592
 8426SOL    HW236741   3.959   2.241   2.411 -0.0926 -0.6289 -1.6774
 8427SOL     OW36742   2.704   0.852   2.855  0.2476 -0.1020 -0.4534
 8427SOL    HW136743   2.768   0.798   2.808 -1.3338 -1.6202 -0.8853
 8427SOL    HW236744   2.758   0.895   2.921 -0.3839  0.3429 -0.2295
 8428SOL     OW36745   1.489   2.530  14.415 -0.4635  0.5004  0.2508
 8428SOL    HW136746   1.506   2.454  14.471  4.0639  0.4747 -1.2146
 8428SOL    HW236747   1.539   2.596  14.463  0.8133 -0.4371  0.1772
 8429SOL     OW36748   1.829   1.921   8.997  0.0509  0.0641  0.2438
 8429SOL    HW136749   1.817   1.921   8.902  0.3874  4.0794  0.1836
 8429SOL    HW236750   1.884   1.999   9.007  0.8310 -0.5600  0.7745
 8430SOL     OW36751   4.396   0.917  12.529  0.0211  0.1306  0.0554
 8430SOL    HW136752   4.382   0.862  12.606 -1.0538  0.6403  0.2366
 8430SOL    HW236753   4.465   0.871  12.483  1.2983  3.2315 -1.1395
 8431SOL     OW36754   3.736   3.415   8.031  0.5011 -0.2757  0.1218
 8431SOL    HW136755   3.745   3.376   7.944  0.8938  0.3786 -0.1310
 8431SOL    HW236756   3.731   3.507   8.008  1.8542  0.2014  1.7451
 8432SOL     OW36757   0.491   0.393   5.880 -0.4708 -0.5438  0.0089
 8432SOL    HW136758   0.516   0.323   5.819 -0.9183  0.1022 -0.9151
 8432SOL    HW236759   0.423   0.434   5.827  0.5822  1.2542  0.0346
 8433SOL     OW36760   0.448   4.484   2.928  0.1007 -0.9284 -0.2847
 8433SOL    HW136761   0.370   4.485   2.983  0.5328 -1.8936  0.3434
 8433SOL    HW236762   0.514   4.436   2.978  0.1331 -0.4063  0.1683
 8434SOL     OW36763   2.902   0.850   5.297 -0.2226  0.0698  0.0414
 8434SOL    HW136764   2.989   0.889   5.303 -0.1983 -0.1100  0.7798
 8434SOL    HW236765   2.868   0.895   5.220  1.2740  2.3185  0.7044
 8435SOL     OW36766   3.133   2.886   6.010  0.1835  0.2445  0.4897
 8435SOL    HW136767   3.226   2.899   5.990  0.0716  0.1617 -0.0797
 8435SOL    HW236768   3.125   2.960   6.070 -0.9321  0.1862  0.4122
 8436SOL     OW36769   4.011   4.552  11.824 -0.3018  0.4903  0.5331
 8436SOL    HW136770   3.925   4.592  11.838  0.5657  1.3862  3.3557
 8436SOL    HW236771   4.013   4.567  11.730 -0.3246  1.2273  0.6497
 8437SOL     OW36772   2.625   4.204   7.060 -0.3665  0.2001 -0.5519
 8437SOL    HW136773   2.633   4.223   7.153 -0.5149 -1.2220 -0.2437
 8437SOL    HW236774   2.539   4.164   7.051  0.8909 -2.6465 -0.0486
 8438SOL     OW36775   3.309   3.823   3.481  0.2126 -0.4046  0.1119
 8438SOL    HW136776   3.380   3.761   3.463 -0.2476 -0.6304 -0.9564
 8438SOL    HW236777   3.229   3.772   3.464  0.5749 -0.2513 -2.1295
 8439SOL     OW36778   0.749   2.542   5.197  0.3515  0.0304  0.3410
 8439SOL    HW136779   0.675   2.526   5.140  0.2032 -0.0113  0.5453
 8439SOL    HW236780   0.751   2.453   5.233  2.7322 -0.2762 -0.5257
 8440SOL     OW36781   2.295   3.373   8.358 -0.2948 -0.1409  0.3044
 8440SOL    HW136782   2.261   3.309   8.296  0.7299 -0.8873  0.5222
 8440SOL    HW236783   2.382   3.338   8.375 -0.1787 -0.4134 -0.8970
 8441SOL     OW36784   1.540   2.271   3.907 -0.1528 -0.0321  0.2955
 8441SOL    HW136785   1.618   2.311   3.868 -0.0484  1.1794  1.7532
 8441SOL    HW236786   1.534   2.303   3.997 -1.2085 -0.0091  0.2159
 8442SOL     OW36787   3.926   1.528   8.076 -0.1918 -0.2029 -0.4852
 8442SOL    HW136788   3.945   1.456   8.136 -2.6170 -0.5092 -0.0854
 8442SOL    HW236789   3.992   1.590   8.108 -0.3959 -0.9654  1.4148
 8443SOL     OW36790   1.224   2.612  12.912 -0.0104 -0.2854 -0.4729
 8443SOL    HW136791   1.210   2.643  12.822  0.4688  0.0247 -0.4390
 8443SOL    HW236792   1.140   2.586  12.950 -0.5165 -2.0375 -2.7394
 8444SOL     OW36793   3.523   4.110   7.520  0.4224  0.4493 -0.2297
 8444SOL    HW136794   3.612   4.104   7.556 -0.0937  1.5792  1.2166
 8444SOL    HW236795   3.477   4.065   7.591  0.2025  2.1742  0.7124
 8445SOL     OW36796   1.365   1.541   4.083 -0.1363 -0.0107  0.0018
 8445SOL    HW136797   1.328   1.516   4.168 -2.0497  1.7363 -0.3017
 8445SOL    HW236798   1.459   1.524   4.093  0.0558  1.1077  0.1425
 8446SOL     OW36799   2.424   0.785   6.770 -0.2658 -0.0221  0.2681
 8446SOL    HW136800   2.355   0.758   6.831 -1.1505  1.5739 -0.0425
 8446SOL    HW236801   2.388   0.870   6.747  2.3759  1.3909  1.3635
 8447SOL     OW36802   3.777   2.552   6.320  0.2709 -0.0547 -0.1548
 8447SOL    HW136803   3.790   2.623   6.256 -0.2756  0.7910  0.6722
 8447SOL    HW236804   3.771   2.484   6.254  1.9269 -0.4427  0.0848
 8448SOL     OW36805   1.014   2.233   5.179 -0.5493 -0.3399  0.0674
 8448SOL    HW136806   0.996   2.194   5.094 -1.5789 -2.2326  1.1703
 8448SOL    HW236807   0.927   2.222   5.218 -1.5944 -0.3940 -2.3261
 8449SOL     OW36808   2.586   4.178  17.268  0.4335  0.1978  0.0609
 8449SOL    HW136809   2.519   4.186  17.336  1.8717  1.0573  1.4079
 8449SOL    HW236810   2.536   4.221  17.200 -1.1026 -1.6288  0.0371
 8450SOL     OW36811   3.764   1.229   7.947 -0.0159 -0.2252 -0.3987
 8450SOL    HW136812   3.779   1.197   8.036 -0.2473 -0.8409 -0.5811
 8450SOL    HW236813   3.710   1.303   7.973  0.4411 -0.4900  1.3463
 8451SOL     OW36814   0.692   3.693   8.295  0.1247  0.7741  0.8571
 8451SOL    HW136815   0.657   3.616   8.251 -0.3139  1.5602 -0.1730
 8451SOL    HW236816   0.620   3.712   8.354  0.9197  2.5199  1.2847
 8452SOL     OW36817   4.030   4.635   7.470  0.2700  0.4990 -0.2165
 8452SOL    HW136818   3.978   4.705   7.429  0.2818  0.7743  0.2279
 8452SOL    HW236819   4.085   4.687   7.530 -1.0055  1.1926  0.3639
 8453SOL     OW36820   1.656   1.928   1.834  0.0656 -0.7373  0.2730
 8453SOL    HW136821   1.688   1.882   1.911 -0.7740  0.1890  1.1817
 8453SOL    HW236822   1.703   1.887   1.762  1.1093  0.0990  0.4768
 8454SOL     OW36823   4.399   0.906   7.383 -0.0297  0.2604  0.0845
 8454SOL    HW136824   4.448   0.975   7.337  0.4391  0.5072  0.9384
 8454SOL    HW236825   4.340   0.870   7.317  2.4825  0.3381 -2.2044
 8455SOL     OW36826   2.533   2.420   0.326  0.4345 -0.2193  0.4693
 8455SOL    HW136827   2.461   2.387   0.380  0.1166 -2.1265 -1.1290
 8455SOL    HW236828   2.537   2.349   0.261 -0.2383  0.5890 -0.4656
 8456SOL     OW36829   1.809   0.853   8.558  0.4020  0.0357 -0.0311
 8456SOL    HW136830   1.901   0.871   8.573  0.9684 -1.1336 -2.1230
 8456SOL    HW236831   1.816   0.789   8.488  0.9265  0.4606 -0.3626
 8457SOL     OW36832   2.344   0.995   6.500  0.3560  0.1947  0.2723
 8457SOL    HW136833   2.280   0.945   6.450  0.2135  0.1055  0.5417
 8457SOL    HW236834   2.291   1.006   6.579 -0.5988  0.9652 -0.4968
 8458SOL     OW36835   3.480   3.481  13.833 -0.3042 -0.0701 -0.6197
 8458SOL    HW136836   3.541   3.552  13.813 -0.6528  0.0955 -1.0988
 8458SOL    HW236837   3.545   3.411  13.834 -0.9715 -0.6987 -2.1440
 8459SOL     OW36838   4.051   1.711   9.381  0.1677  0.5973 -0.2968
 8459SOL    HW136839   3.965   1.669   9.381  1.0814 -1.2626 -0.5754
 8459SOL    HW236840   4.032   1.804   9.367  0.7179  0.5966 -1.0523
 8460SOL     OW36841   2.104   1.246   4.134 -0.0865 -0.1668  0.1976
 8460SOL    HW136842   2.150   1.177   4.085 -0.9688  0.8017 -2.0082
 8460SOL    HW236843   2.043   1.196   4.187  0.2613  0.2838  1.0275
 8461SOL     OW36844   2.301   3.631   7.155 -0.2993 -0.3654 -0.0577
 8461SOL    HW136845   2.381   3.669   7.191  1.0714 -0.4519 -3.0792
 8461SOL    HW236846   2.275   3.569   7.224  1.9072 -1.4535 -0.2210
 8462SOL     OW36847   0.216   2.123   9.685 -0.3903  0.0351  0.5609
 8462SOL    HW136848   0.240   2.214   9.668 -0.4934  0.0117  0.2830
 8462SOL    HW236849   0.142   2.135   9.745 -1.2787  1.0183 -0.7340
 8463SOL     OW36850   3.058   1.955   8.704  0.0945  0.6353  0.7348
 8463SOL    HW136851   2.963   1.941   8.704  0.6596 -3.3582  1.6972
 8463SOL    HW236852   3.071   1.916   8.790 -0.1545  2.8909  1.7645
 8464SOL     OW36853   2.346   3.838   5.028  0.3539  0.1944 -0.2090
 8464SOL    HW136854   2.360   3.750   4.992  0.3121 -0.2683  0.9087
 8464SOL    HW236855   2.301   3.879   4.954  0.3522 -0.1241 -0.3877
 8465SOL     OW36856   4.188   4.152   5.953  0.2720 -0.0280  0.1715
 8465SOL    HW136857   4.117   4.163   5.890  1.7167 -1.0806 -1.6368
 8465SOL    HW236858   4.142   4.131   6.035 -0.2474 -0.4987 -0.2452
 8466SOL     OW36859   0.145   1.454   1.076 -0.5871 -0.2800 -0.0308
 8466SOL    HW136860   0.109   1.522   1.132 -1.9444 -2.8423  2.2183
 8466SOL    HW236861   0.082   1.428   1.009 -2.5174 -0.1014  1.7317
 8467SOL     OW36862   4.413   3.413   6.824 -0.2971  0.6104  0.3336
 8467SOL    HW136863   4.354   3.344   6.794  0.8824 -1.1187  1.9701
 8467SOL    HW236864   4.400   3.466   6.746 -2.1999 -0.7629 -0.2632
 8468SOL     OW36865   0.545   3.043  16.717 -0.3258  0.3409  0.3898
 8468SOL    HW136866   0.598   3.019  16.641 -0.7558 -1.4283  0.6440
 8468SOL    HW236867   0.479   2.975  16.707  1.9857 -1.5668 -1.6250
 8469SOL     OW36868   3.013   3.067   8.335  0.0201  0.2970  0.2424
 8469SOL    HW136869   3.048   2.983   8.363 -0.9599 -1.1652 -2.8480
 8469SOL    HW236870   3.027   3.060   8.240  0.3908  0.3599  0.2948
 8470SOL     OW36871   2.646   2.124   6.468 -0.1001 -0.0888  0.0891
 8470SOL    HW136872   2.662   2.218   6.454  0.9501 -0.3574 -0.5039
 8470SOL    HW236873   2.587   2.115   6.393 -0.7387  1.0152  0.4548
 8471SOL     OW36874   1.943   3.634   5.592  0.2889 -0.1932 -0.3234
 8471SOL    HW136875   1.976   3.650   5.504  1.1632 -0.3200 -0.0164
 8471SOL    HW236876   1.978   3.708   5.642  0.5790 -0.9199  0.5564
 8472SOL     OW36877   2.490   1.034   0.579  0.2882 -0.8052  0.0003
 8472SOL    HW136878   2.569   1.051   0.631  1.6256 -1.0461 -1.9752
 8472SOL    HW236879   2.454   1.120   0.600  0.3817 -0.8744  0.4483
 8473SOL     OW36880   1.671   0.212   7.580  0.2660 -0.2705  0.6346
 8473SOL    HW136881   1.671   0.134   7.634 -0.9556 -0.5774  0.1683
 8473SOL    HW236882   1.692   0.279   7.645 -0.7056 -0.5514  1.2224
 8474SOL     OW36883   4.477   2.114   0.901  0.1645  0.4588 -0.1200
 8474SOL    HW136884   4.504   2.173   0.972  0.6033  0.8229 -0.5912
 8474SOL    HW236885   4.472   2.175   0.828 -1.0214  0.2823 -0.1923
 8475SOL     OW36886   1.834   1.872  12.353  0.1632  0.0421 -0.3272
 8475SOL    HW136887   1.814   1.865  12.446  1.9988  1.6413  0.1980
 8475SOL    HW236888   1.860   1.965  12.353  2.3904 -0.5730 -0.9694
 8476SOL     OW36889   1.540   3.364   8.971 -0.5415  0.3256 -0.9524
 8476SOL    HW136890   1.481   3.309   8.920  0.0564 -1.3183  0.1231
 8476SOL    HW236891   1.613   3.308   8.998 -0.3641  0.5270 -1.0133
 8477SOL     OW36892   1.622   0.993  14.512  0.2219 -0.0606 -0.1449
 8477SOL    HW136893   1.624   0.971  14.419  1.5050  0.4897 -0.2498
 8477SOL    HW236894   1.621   0.903  14.545 -0.3334 -0.4163 -1.1267
 8478SOL     OW36895   1.550   3.959  15.451  0.0236 -0.2513  0.0293
 8478SOL    HW136896   1.626   3.992  15.404  0.6830  1.3887  2.2339
 8478SOL    HW236897   1.480   4.007  15.406  0.0003  0.9447  1.3303
 8479SOL     OW36898   4.716   3.454   3.024 -0.2670  0.4834  0.0735
 8479SOL    HW136899   4.625   3.477   3.042 -0.4841 -1.7178  1.8254
 8479SOL    HW236900   4.722   3.486   2.934 -2.0994 -0.5971 -0.4455
 8480SOL     OW36901   4.079   3.559  15.903 -0.6713 -0.2350 -0.6775
 8480SOL    HW136902   4.098   3.465  15.903 -0.3982 -0.1945 -2.6997
 8480SOL    HW236903   4.150   3.599  15.852  1.3122 -0.6393  1.7274
 8481SOL     OW36904   4.483   2.506   7.690  0.1947  0.4214  0.4122
 8481SOL    HW136905   4.436   2.423   7.685  0.2887  0.6243 -3.3349
 8481SOL    HW236906   4.415   2.568   7.717 -1.5968 -1.3506 -0.1265
 8482SOL     OW36907   1.702   3.563   8.895 -0.2123 -0.0313  0.0736
 8482SOL    HW136908   1.666   3.478   8.870  0.1253  1.1445 -4.3016
 8482SOL    HW236909   1.671   3.549   8.985 -1.2898 -0.8675 -0.4271
 8483SOL     OW36910   2.650   0.412   3.104  0.2351 -0.1154  0.1828
 8483SOL    HW136911   2.639   0.367   3.188  1.1106 -0.2866  0.2058
 8483SOL    HW236912   2.597   0.491   3.113 -1.0394 -1.1174  1.4782
 8484SOL     OW36913   0.859   0.524   7.668 -0.0035  0.3151 -0.2730
 8484SOL    HW136914   0.772   0.500   7.638  0.3651 -3.0947  1.3331
 8484SOL    HW236915   0.864   0.612   7.631  2.3054  0.2945  0.0020
 8485SOL     OW36916   3.492   0.857   7.935 -0.0092 -0.0144 -0.6258
 8485SOL    HW136917   3.449   0.898   8.011  1.4475  3.3113 -1.6182
 8485SOL    HW236918   3.469   0.922   7.870  0.8422  1.8241  0.9130
 8486SOL     OW36919   0.100   3.886   2.337  0.0568  0.1933 -0.1238
 8486SOL    HW136920   0.050   3.959   2.300 -2.0649 -0.6322  1.0835
 8486SOL    HW236921   0.105   3.827   2.261  0.3318 -2.2211  1.7683
 8487SOL     OW36922   1.514   0.939   2.483 -0.0794  0.0709 -0.1515
 8487SOL    HW136923   1.588   0.917   2.427  2.6901  0.6447  3.2812
 8487SOL    HW236924   1.555   0.966   2.565  1.9688 -2.0441 -0.4784
 8488SOL     OW36925   0.704   3.881   2.515  0.2473 -0.0232 -0.1842
 8488SOL    HW136926   0.740   3.843   2.435  0.6042  1.9013 -0.9258
 8488SOL    HW236927   0.610   3.866   2.506 -0.0139  1.6770 -0.2901
 8489SOL     OW36928   4.582   2.749   7.493 -0.0320  0.3416  0.0636
 8489SOL    HW136929   4.489   2.725   7.491 -0.2751  1.1888  1.1528
 8489SOL    HW236930   4.602   2.760   7.586 -1.2591  1.6764  0.1790
 8490SOL     OW36931   2.588   4.166  16.062 -0.3419 -0.4347  0.0099
 8490SOL    HW136932   2.680   4.183  16.080 -1.1983  1.4039  2.5778
 8490SOL    HW236933   2.534   4.206  16.130 -2.6617 -0.2977 -1.8956
 8491SOL     OW36934   0.823   1.499   7.472 -0.1101  0.6617  0.2034
 8491SOL    HW136935   0.853   1.554   7.545  0.3502 -0.9426  1.2109
 8491SOL    HW236936   0.866   1.549   7.402 -1.7435 -0.9614 -1.9445
 8492SOL     OW36937   2.957   0.390  12.720 -0.2961 -0.2569  0.6899
 8492SOL    HW136938   2.932   0.474  12.683 -0.0113  0.1065  1.3172
 8492SOL    HW236939   2.940   0.395  12.814 -0.6180 -1.0987  0.6783
 8493SOL     OW36940   2.179   4.068   5.634  0.4567  0.6040  0.0563
 8493SOL    HW136941   2.249   4.008   5.610  1.0996  0.5102  2.1623
 8493SOL    HW236942   2.159   4.043   5.724  0.0343  1.1002  0.1031
 8494SOL     OW36943   1.763   3.286   3.384 -0.1501  0.4044  0.5883
 8494SOL    HW136944   1.691   3.348   3.374 -2.2372 -2.1570 -0.2795
 8494SOL    HW236945   1.767   3.281   3.480 -2.0022  1.1310  0.7116
 8495SOL     OW36946   1.604   4.495   3.102 -0.1406 -0.0454  0.5326
 8495SOL    HW136947   1.648   4.580   3.093 -1.0419  0.2274 -1.4280
 8495SOL    HW236948   1.632   4.465   3.188 -0.9355 -0.9889  0.4651
 8496SOL     OW36949   1.955   4.278   6.726 -0.1754  0.0452  0.2296
 8496SOL    HW136950   1.892   4.226   6.775  0.3786 -0.5572  0.2948
 8496SOL    HW236951   1.933   4.247   6.638  1.1094 -1.1239  0.3195
 8497SOL     OW36952   1.391   0.252   8.183 -0.4320 -0.6158  0.0600
 8497SOL    HW136953   1.435   0.289   8.260 -2.0815  1.1196  0.1753
 8497SOL    HW236954   1.336   0.325   8.153  1.8330  1.8557  1.9563
 8498SOL     OW36955   2.742   0.310   4.793  0.1971  0.1306 -0.2103
 8498SOL    HW136956   2.686   0.242   4.831 -2.3918  1.4522 -1.6260
 8498SOL    HW236957   2.806   0.259   4.744  1.3195  0.6936  0.6897
 8499SOL     OW36958   0.891   0.145   0.687  0.9555  0.1644 -0.0295
 8499SOL    HW136959   0.923   0.061   0.720  0.6735  0.7102  1.6700
 8499SOL    HW236960   0.943   0.217   0.722 -1.7285  0.8502  2.5443
 8500SOL     OW36961   4.326   2.580   1.738  0.0395  0.5305 -0.5108
 8500SOL    HW136962   4.360   2.518   1.803  0.1538 -0.4123 -1.4599
 8500SOL    HW236963   4.308   2.660   1.787  0.9816 -0.4555  1.4334
 8501SOL     OW36964   4.705   1.055   9.728  0.0640  0.0130  0.4019
 8501SOL    HW136965   0.074   1.044   9.750 -0.0108  2.1902  1.8393
 8501SOL    HW236966   4.665   1.070   9.814  1.6678  0.4583  1.0698
 8502SOL     OW36967   4.711   0.382   6.991  0.0957  0.1227  0.0136
 8502SOL    HW136968   4.623   0.349   6.976  0.4042  0.3653 -2.3508
 8502SOL    HW236969   0.029   0.316   7.047 -3.4414 -1.6745  0.4565
 8503SOL     OW36970   3.604   4.169   5.813 -0.4283  0.6110  0.6865
 8503SOL    HW136971   3.512   4.193   5.820 -0.2155  1.1776  1.6552
 8503SOL    HW236972   3.633   4.215   5.892 -1.2801  0.5907  1.0131
 8504SOL     OW36973   1.530   3.943  16.037 -0.1920 -0.6087 -0.0462
 8504SOL    HW136974   1.611   3.970  16.079  0.6051 -3.1192  0.0102
 8504SOL    HW236975   1.508   3.865  16.088  0.0052  0.6367  1.9099
 8505SOL     OW36976   1.691   1.335  15.980  0.3598  0.3204  0.3515
 8505SOL    HW136977   1.764   1.354  16.038 -0.1306 -1.4085  1.5199
 8505SOL    HW236978   1.723   1.372  15.898 -0.3930 -1.8471 -0.9312
 8506SOL     OW36979   4.051   2.155   3.406 -0.1830  0.0416  0.7975
 8506SOL    HW136980   3.958   2.138   3.386 -0.2913  0.7781  0.6731
 8506SOL    HW236981   4.059   2.134   3.499  0.4938 -1.2505  0.4470
 8507SOL     OW36982   4.455   0.366   0.606 -0.8364  0.5705  0.9777
 8507SOL    HW136983   4.417   0.304   0.544  0.5171 -0.1158  0.8328
 8507SOL    HW236984   4.547   0.348   0.588 -0.7459  0.4779  1.5468
 8508SOL     OW36985   2.884   4.282   4.141 -0.3698 -0.0206 -0.3926
 8508SOL    HW136986   2.979   4.289   4.142 -0.3664 -0.0675 -0.2988
 8508SOL    HW236987   2.866   4.370   4.175  0.7521 -0.5803  1.6653
 8509SOL     OW36988   3.294   1.150   3.422  0.5476  0.2787 -0.1761
 8509SOL    HW136989   3.300   1.232   3.373 -2.2154  0.4199 -0.2615
 8509SOL    HW236990   3.378   1.108   3.403  0.4192 -0.1152  0.1254
 8510SOL     OW36991   1.109   2.441   3.544  0.3156  0.0613  0.7338
 8510SOL    HW136992   1.183   2.486   3.502  1.9639 -2.7075  0.6814
 8510SOL    HW236993   1.036   2.500   3.524  0.9531 -0.2488 -2.5433
 8511SOL     OW36994   4.200   3.389   8.565  0.5254 -0.0530 -0.1349
 8511SOL    HW136995   4.241   3.475   8.578 -0.9712  0.2154  2.6621
 8511SOL    HW236996   4.190   3.395   8.470 -0.0243  0.0569 -0.0662
 8512SOL     OW36997   4.648   0.829   8.821  0.5650  0.7334  0.0814
 8512SOL    HW136998   0.002   0.863   8.774 -0.0524  0.1536 -1.3290
 8512SOL    HW236999   4.606   0.905   8.862  0.8663  0.4967  0.8364
 8513SOL     OW37000   3.442   0.898   5.684  0.2141  0.0348  0.1006
 8513SOL    HW137001   3.506   0.956   5.723  1.3374 -2.1633  1.5408
 8513SOL    HW237002   3.370   0.899   5.747 -0.7382  2.3547 -1.0480
 8514SOL     OW37003   1.885   3.662   4.111  0.0305 -0.2532 -0.0685
 8514SOL    HW137004   1.948   3.685   4.043  2.1331 -0.5767  1.7751
 8514SOL    HW237005   1.844   3.582   4.079  0.5538 -1.3451  2.0425
 8515SOL     OW37006   0.049   0.882   3.072  0.0198 -0.0102  0.0327
 8515SOL    HW137007   0.104   0.804   3.078 -1.8653 -1.4107 -0.7798
 8515SOL    HW237008   0.077   0.927   2.992 -1.9514 -0.8554 -1.1357
 8516SOL     OW37009   2.852   4.535   0.583  0.4511  0.6558  0.3724
 8516SOL    HW137010   2.845   4.630   0.569  2.0656  0.5292 -1.3322
 8516SOL    HW237011   2.892   4.533   0.670 -0.1721 -0.6583  0.6238
 8517SOL     OW37012   1.434   1.804  13.582 -0.1205  0.0519 -0.1301
 8517SOL    HW137013   1.358   1.831  13.530  1.0185 -0.1156 -1.8949
 8517SOL    HW237014   1.430   1.869  13.653  0.7557 -0.1254  0.0819
 8518SOL     OW37015   3.854   4.120   6.843 -0.1265 -0.1999  0.3556
 8518SOL    HW137016   3.816   4.203   6.872 -1.3141 -0.9102  0.8438
 8518SOL    HW237017   3.799   4.050   6.879  2.2537 -0.3880  3.5672
 8519SOL     OW37018   0.627   1.885  12.795  0.1656 -0.1171  0.2600
 8519SOL    HW137019   0.580   1.848  12.869 -0.2957 -2.7141 -1.3596
 8519SOL    HW237020   0.658   1.803  12.755  0.1734  0.2575 -0.5055
 8520SOL     OW37021   1.783   3.418   4.037 -0.0625 -0.3130  0.1069
 8520SOL    HW137022   1.849   3.352   4.059 -0.3579 -0.3368  0.9178
 8520SOL    HW237023   1.723   3.395   4.108 -1.0748 -0.0766 -0.6600
 8521SOL     OW37024   1.072   2.662   7.375  0.7733 -0.5946 -0.4852
 8521SOL    HW137025   1.149   2.620   7.337  0.8918 -1.4278  0.6650
 8521SOL    HW237026   1.117   2.741   7.407  1.6607 -1.9694  1.6711
 8522SOL     OW37027   0.787   3.292  14.812  0.2469  0.4343  0.5198
 8522SOL    HW137028   0.881   3.313  14.818  0.0171  1.2185  1.4185
 8522SOL    HW237029   0.763   3.327  14.727  2.5238 -0.4895 -0.5092
 8523SOL     OW37030   2.167   2.292  10.502  0.6668  0.0787 -0.4130
 8523SOL    HW137031   2.169   2.249  10.588 -0.4395 -2.5442 -1.6925
 8523SOL    HW237032   2.114   2.367  10.529  0.8818  0.3322 -0.7072
 8524SOL     OW37033   4.215   2.527   4.274 -0.0264  0.4248 -0.1899
 8524SOL    HW137034   4.135   2.491   4.234 -0.7279  3.4182 -1.5015
 8524SOL    HW237035   4.224   2.469   4.349 -0.5862  1.5062  0.7090
 8525SOL     OW37036   1.426   4.549   5.433 -0.1325  0.0285 -0.2287
 8525SOL    HW137037   1.331   4.558   5.427 -0.1050 -1.5158 -2.8696
 8525SOL    HW237038   1.441   4.473   5.378  0.4439 -0.1566  0.1840
 8526SOL     OW37039   1.517   2.586   2.205  1.0559  0.3871 -0.3160
 8526SOL    HW137040   1.444   2.639   2.237  1.2196  0.4887 -0.1081
 8526SOL    HW237041   1.590   2.631   2.249  1.0224  0.9771 -0.8643
 8527SOL     OW37042   3.268   1.310   8.024 -0.3996 -0.0306 -0.3795
 8527SOL    HW137043   3.192   1.252   8.031 -0.8009  0.5522  0.0445
 8527SOL    HW237044   3.266   1.350   8.110  0.5346  0.6197 -0.6552
 8528SOL     OW37045   2.709   0.729   0.347 -0.0223  0.2613 -0.1298
 8528SOL    HW137046   2.701   0.756   0.438  2.9892 -1.0917  0.5394
 8528SOL    HW237047   2.627   0.765   0.314 -1.7686 -1.0822  2.7261
 8529SOL     OW37048   4.341   0.914   6.648 -0.2650 -0.1048 -0.1268
 8529SOL    HW137049   4.295   0.980   6.698  0.5128  1.6064 -1.6848
 8529SOL    HW237050   4.428   0.923   6.687 -0.9707  1.4002  1.0820
 8530SOL     OW37051   1.354   2.944   3.178  0.8871 -0.3403 -0.2708
 8530SOL    HW137052   1.290   3.013   3.166 -1.2536 -1.7565  2.8872
 8530SOL    HW237053   1.370   2.946   3.272 -0.1730  0.0754 -0.1046
 8531SOL     OW37054   1.686   1.460   1.878 -0.7791  0.5634 -0.3241
 8531SOL    HW137055   1.656   1.549   1.898 -1.9609 -0.6269  3.1053
 8531SOL    HW237056   1.609   1.409   1.901  1.4543 -1.9575  1.5056
 8532SOL     OW37057   2.606   3.825   0.412  0.3082  0.0192  0.3458
 8532SOL    HW137058   2.581   3.911   0.448  0.7419 -0.4858  1.8776
 8532SOL    HW237059   2.604   3.778   0.496 -0.5424 -0.0828  0.2740
 8533SOL     OW37060   1.869   1.248   4.730  0.7013 -0.1830  1.3032
 8533SOL    HW137061   1.854   1.154   4.738 -0.2897 -0.0859  0.5104
 8533SOL    HW237062   1.936   1.269   4.795  1.3389 -0.3016  0.6986
 8534SOL     OW37063   3.207   2.436   5.132  0.3014  0.2169  0.1339
 8534SOL    HW137064   3.205   2.514   5.077 -0.1889  0.0469 -0.0898
 8534SOL    HW237065   3.288   2.392   5.107 -0.1495 -0.6313  0.1709
 8535SOL     OW37066   4.653   0.462   2.522  0.0505  0.0057  0.1203
 8535SOL    HW137067   4.640   0.462   2.617 -3.7175 -1.5156 -0.3630
 8535SOL    HW237068   0.025   0.456   2.518 -0.0140 -0.2785 -0.9873
 8536SOL     OW37069   1.491   3.809  13.470 -0.3351 -0.6773 -0.1033
 8536SOL    HW137070   1.450   3.762  13.542  0.7553 -0.9436  0.3346
 8536SOL    HW237071   1.435   3.886  13.460  2.2353  1.2240  0.2239
 8537SOL     OW37072   0.824   1.980   5.704  0.0673  0.5321  0.1645
 8537SOL    HW137073   0.890   2.049   5.712  0.9978 -0.5075  1.4700
 8537SOL    HW237074   0.751   2.030   5.742  1.3391  0.1025  3.1831
 8538SOL     OW37075   1.296   0.641  15.093 -0.2501 -0.1869  0.2728
 8538SOL    HW137076   1.210   0.645  15.051  0.7202  1.8299 -1.4791
 8538SOL    HW237077   1.281   0.670  15.183 -0.1598  0.7781 -0.0216
 8539SOL     OW37078   4.260   3.420   9.137  0.4938  0.0371 -0.1992
 8539SOL    HW137079   4.318   3.349   9.109  0.2904 -0.2783  0.1763
 8539SOL    HW237080   4.309   3.499   9.113  1.8740 -0.4493  1.0419
 8540SOL     OW37081   0.562   0.790   6.721  0.2058 -0.0549  0.0259
 8540SOL    HW137082   0.601   0.707   6.747  1.7136  0.7284  0.3368
 8540SOL    HW237083   0.481   0.758   6.683  0.8975 -1.3011 -0.3815
 8541SOL     OW37084   3.371   0.670   5.080  0.2609 -0.0825  0.6176
 8541SOL    HW137085   3.465   0.687   5.084  0.3740 -0.8982  1.3500
 8541SOL    HW237086   3.333   0.742   5.131 -0.6001 -1.5949  2.1141
 8542SOL     OW37087   4.080   3.525   7.656  0.4447 -0.2665  0.0325
 8542SOL    HW137088   4.174   3.518   7.671  0.1879 -3.0380  0.1940
 8542SOL    HW237089   4.057   3.618   7.649  1.5440  0.1977  2.3497
 8543SOL     OW37090   0.265   4.031   3.352  0.1907 -0.0989 -0.5774
 8543SOL    HW137091   0.233   4.079   3.275 -1.4269 -0.2772 -0.0179
 8543SOL    HW237092   0.286   3.944   3.320 -2.6180 -1.0240  0.0598
 8544SOL     OW37093   1.476   3.190  11.991  0.5415  0.5898 -0.2680
 8544SOL    HW137094   1.450   3.098  11.978  0.6864  0.5987 -0.6038
 8544SOL    HW237095   1.405   3.232  11.943 -1.1384 -0.9768  0.8318
 8545SOL     OW37096   2.086   4.244   9.134 -0.4848  0.6338  0.1817
 8545SOL    HW137097   2.120   4.180   9.072  1.1835  2.0133 -0.3192
 8545SOL    HW237098   2.030   4.192   9.192 -0.7346 -1.6838 -2.1401
 8546SOL     OW37099   0.828   1.931   6.792  0.2665  0.0992  0.1958
 8546SOL    HW137100   0.826   1.930   6.696  0.3319 -1.5408  0.2001
 8546SOL    HW237101   0.921   1.908   6.792  0.1780 -0.2672 -2.1976
 8547SOL     OW37102   1.109   1.760   3.091 -0.2936 -0.5295  0.0110
 8547SOL    HW137103   1.054   1.832   3.061  0.8003  0.3570  0.1454
 8547SOL    HW237104   1.146   1.744   3.004  0.9499 -0.4483  0.5204
 8548SOL     OW37105   1.440   2.550   5.037 -1.1518 -0.2909 -0.7820
 8548SOL    HW137106   1.359   2.502   5.048 -1.0979 -0.3331 -0.5790
 8548SOL    HW237107   1.416   2.629   5.085 -0.5563  0.2531 -1.3722
 8549SOL     OW37108   1.377   3.493   5.909 -0.0162 -0.2384 -0.4951
 8549SOL    HW137109   1.346   3.403   5.906  0.3029 -0.4060  1.1132
 8549SOL    HW237110   1.299   3.545   5.930  0.2113 -0.7044  1.4729
 8550SOL     OW37111   1.081   3.718  11.691  0.1884  0.3010  0.0001
 8550SOL    HW137112   1.122   3.643  11.734  0.5442  0.2762 -0.3834
 8550SOL    HW237113   1.044   3.678  11.613 -3.3505  1.6738  0.9695
 8551SOL     OW37114   0.326   1.582   8.178  0.3940  0.3023 -0.2130
 8551SOL    HW137115   0.264   1.577   8.251 -1.6808 -0.9940 -2.0730
 8551SOL    HW237116   0.397   1.632   8.219 -1.5243  3.8880 -1.2650
 8552SOL     OW37117   0.939   2.595  12.939  0.0812 -0.0239  0.1600
 8552SOL    HW137118   0.897   2.579  12.854  1.2860 -0.9259 -0.2539
 8552SOL    HW237119   0.912   2.686  12.949  0.0147  0.1357 -1.4533
 8553SOL     OW37120   1.591   4.245   6.353  0.7985 -0.3817  0.0296
 8553SOL    HW137121   1.671   4.215   6.311  2.7371  1.0031  2.7557
 8553SOL    HW237122   1.581   4.339   6.342  0.8032 -0.2549  1.1378
 8554SOL     OW37123   3.617   4.196   4.030  0.1940  0.0073 -0.2354
 8554SOL    HW137124   3.595   4.168   4.119 -0.0990  0.0595 -0.2915
 8554SOL    HW237125   3.662   4.124   3.987 -3.3616 -1.5223 -1.4282
 8555SOL     OW37126   0.946   1.828  13.280 -0.6335  0.1784 -0.6955
 8555SOL    HW137127   0.898   1.881  13.217  1.4399  1.5813 -1.0917
 8555SOL    HW237128   0.884   1.807  13.350 -1.3791  0.6614 -1.2134
 8556SOL     OW37129   4.113   0.711   3.352 -0.0969  0.0196  0.2226
 8556SOL    HW137130   4.190   0.679   3.305 -0.2930 -2.9549  1.9427
 8556SOL    HW237131   4.151   0.707   3.440  1.9042 -1.0060 -0.6838
 8557SOL     OW37132   1.084   2.999  10.686 -0.2098  0.2449  0.2145
 8557SOL    HW137133   1.021   2.949  10.633  0.3494 -1.4106  1.1249
 8557SOL    HW237134   1.097   3.072  10.625  2.7172  0.5953  1.3040
 8558SOL     OW37135   2.115   2.962   8.312  0.0716 -0.0613 -0.7548
 8558SOL    HW137136   2.205   2.987   8.292  0.3486 -1.8480 -1.7674
 8558SOL    HW237137   2.121   2.868   8.329  0.7509 -0.1215 -1.3528
 8559SOL     OW37138   2.405   3.119   5.730 -0.9539 -0.0889  0.0139
 8559SOL    HW137139   2.424   3.031   5.697 -0.1902  0.4632 -1.0219
 8559SOL    HW237140   2.313   3.126   5.707 -0.4279  0.2077 -2.0169
 8560SOL     OW37141   2.609   0.552   4.460 -0.2151 -0.9401 -0.5226
 8560SOL    HW137142   2.596   0.544   4.554  0.8837  2.1782 -0.0890
 8560SOL    HW237143   2.521   0.581   4.433  0.7963  1.7463 -0.8873
 8561SOL     OW37144   0.291   3.820  13.617  0.2637  0.4103 -0.3993
 8561SOL    HW137145   0.271   3.727  13.621  3.1601 -0.2851 -2.2186
 8561SOL    HW237146   0.252   3.832  13.530 -0.0345 -0.9630 -0.4452
 8562SOL     OW37147   1.793   2.053  15.176 -0.5958 -0.2726  0.0642
 8562SOL    HW137148   1.835   2.130  15.138  0.8871 -1.4435 -0.6595
 8562SOL    HW237149   1.856   1.982  15.168 -1.7962 -1.4286  0.8172
 8563SOL     OW37150   0.883   1.989  13.051  0.0156  0.4516  0.3886
 8563SOL    HW137151   0.960   1.946  13.016  0.7470  0.4667  1.9740
 8563SOL    HW237152   0.845   2.004  12.965  0.3868  2.7614  0.6358
 8564SOL     OW37153   1.755   2.677   9.685  0.4607  0.2916  0.0558
 8564SOL    HW137154   1.705   2.627   9.621  0.4224  0.6694 -0.2098
 8564SOL    HW237155   1.842   2.672   9.645  0.3263 -1.3569 -0.0250
 8565SOL     OW37156   0.791   3.977   4.993 -0.0991 -0.8144  0.5163
 8565SOL    HW137157   0.877   3.938   5.011 -1.2050 -3.2734  0.3864
 8565SOL    HW237158   0.739   3.954   5.069 -0.8180  1.3497  0.6859
 8566SOL     OW37159   3.479   3.097   4.346  0.9657  0.2008 -0.3518
 8566SOL    HW137160   3.404   3.155   4.335  0.6981 -0.0152  0.3380
 8566SOL    HW237161   3.522   3.128   4.425 -0.9065 -0.7188  1.0284
 8567SOL     OW37162   3.367   4.542   8.263 -0.2742  0.7042 -0.4863
 8567SOL    HW137163   3.342   4.450   8.263 -1.6329  1.0609 -2.3170
 8567SOL    HW237164   3.380   4.561   8.356  1.4982 -2.5935 -0.0587
 8568SOL     OW37165   3.088   1.344   7.294 -0.2735 -0.1065  0.0590
 8568SOL    HW137166   3.152   1.344   7.365  0.6112  2.5849 -0.7283
 8568SOL    HW237167   3.099   1.434   7.263  1.0084 -0.2114  0.1831
 8569SOL     OW37168   1.035   1.436   7.770 -0.0045  0.2820 -0.2843
 8569SOL    HW137169   1.010   1.518   7.812  0.1133  0.6828 -0.9882
 8569SOL    HW237170   1.079   1.464   7.689  4.0982  0.7769  2.1286
 8570SOL     OW37171   1.854   3.853   4.475  0.2417  0.4545  0.2367
 8570SOL    HW137172   1.895   3.909   4.541 -0.6407  1.1249  0.2280
 8570SOL    HW237173   1.847   3.926   4.413  0.8635 -1.1397 -1.6773
 8571SOL     OW37174   3.255   2.308  14.715 -0.0859  0.3216 -0.1602
 8571SOL    HW137175   3.220   2.303  14.804  1.6699  0.5864  0.5359
 8571SOL    HW237176   3.295   2.394  14.725 -0.1969  0.3804 -0.2213
 8572SOL     OW37177   1.047   0.808  10.657  0.1598 -0.5828  0.4059
 8572SOL    HW137178   1.064   0.721  10.692 -1.3657 -0.7080  0.8357
 8572SOL    HW237179   1.062   0.860  10.735  0.9106 -2.0608  1.2561
 8573SOL     OW37180   3.520   1.222   1.136  0.0061  0.2765  0.4167
 8573SOL    HW137181   3.605   1.261   1.120 -0.3566  1.7436  2.1879
 8573SOL    HW237182   3.540   1.128   1.135  0.9081  0.4855 -1.2903
 8574SOL     OW37183   3.906   4.073   9.177 -0.1635 -0.0792 -0.1920
 8574SOL    HW137184   3.912   3.984   9.143  0.0528 -0.3881  0.6626
 8574SOL    HW237185   3.847   4.116   9.115  1.2684  0.8392 -0.9539
 8575SOL     OW37186   0.628   4.567   2.385  0.2276 -0.2651  0.2252
 8575SOL    HW137187   0.626   4.654   2.425 -0.2855  0.0708 -0.5575
 8575SOL    HW237188   0.719   4.541   2.400 -0.0136 -0.8189  0.7197
 8576SOL     OW37189   3.351   3.125   4.865  0.1621  0.0552  0.0083
 8576SOL    HW137190   3.351   3.123   4.961 -1.0650  2.5928  0.0606
 8576SOL    HW237191   3.419   3.062   4.840  0.7927  0.8582 -0.3352
 8577SOL     OW37192   0.831   4.656  12.962  0.2555  0.3070 -0.2674
 8577SOL    HW137193   0.774   0.004  12.993 -0.7997 -0.8288  0.4089
 8577SOL    HW237194   0.787   4.630  12.881 -1.6343 -1.3098  1.2743
 8578SOL     OW37195   1.002   3.396   2.913 -0.5399 -0.3309 -0.0518
 8578SOL    HW137196   0.932   3.459   2.927  0.8453  0.6752  2.2431
 8578SOL    HW237197   1.004   3.368   3.004  0.3859  2.4119  0.7804
 8579SOL     OW37198   3.576   0.967   2.397  0.0518  0.4624  0.3727
 8579SOL    HW137199   3.494   0.922   2.415  1.0641 -1.4270  0.3380
 8579SOL    HW237200   3.543   1.026   2.329 -0.2780 -0.8776 -0.6547
 8580SOL     OW37201   1.035   3.038  13.251 -0.1364  0.8765  0.4906
 8580SOL    HW137202   0.955   3.020  13.201 -0.7409 -1.0737  2.1591
 8580SOL    HW237203   1.044   3.131  13.228  0.1907  1.5587  3.3265
 8581SOL     OW37204   4.120   2.415   9.407 -0.4865 -0.3194 -0.0546
 8581SOL    HW137205   4.088   2.472   9.477  0.9892 -0.7660  0.9773
 8581SOL    HW237206   4.205   2.389   9.442 -0.9463  0.3269  1.5902
 8582SOL     OW37207   3.149   3.121   6.127  0.3089 -0.1818 -0.1673
 8582SOL    HW137208   3.168   3.105   6.220 -0.7678  0.5996  0.1877
 8582SOL    HW237209   3.229   3.168   6.104 -0.3034  0.4122 -1.0628
 8583SOL     OW37210   2.650   0.494  10.524  0.2955 -0.5870  0.2742
 8583SOL    HW137211   2.682   0.469  10.610  2.2011 -0.1532 -0.3035
 8583SOL    HW237212   2.592   0.568  10.544 -0.2961 -0.5079 -1.7066
 8584SOL     OW37213   1.361   3.231   3.339 -0.1827  0.0910 -0.4010
 8584SOL    HW137214   1.307   3.240   3.417  0.3926  1.3786 -0.1588
 8584SOL    HW237215   1.365   3.324   3.319 -0.6753  0.4408  1.1033
 8585SOL     OW37216   1.661   1.939   0.797  0.1632 -0.8194  0.6869
 8585SOL    HW137217   1.569   1.952   0.822  0.6228 -0.0306  1.9420
 8585SOL    HW237218   1.710   1.988   0.862 -1.6442 -0.7429  1.9931
 8586SOL     OW37219   0.810   0.663  16.025 -0.2474 -0.2481 -0.1234
 8586SOL    HW137220   0.823   0.621  16.110 -1.5392 -1.1739 -0.3739
 8586SOL    HW237221   0.855   0.601  15.968  0.3185 -0.7481  0.8783
 8587SOL     OW37222   4.682   3.299   4.178 -0.0179  0.0925 -0.0354
 8587SOL    HW137223   4.663   3.350   4.100 -2.2466  0.3515  0.6640
 8587SOL    HW237224   4.594   3.278   4.210  1.4491 -2.2195  2.4977
 8588SOL     OW37225   1.095   2.252   4.190  0.3233 -0.3178 -0.0694
 8588SOL    HW137226   1.003   2.230   4.176  0.7470 -1.1552 -1.4528
 8588SOL    HW237227   1.137   2.220   4.111 -0.2812 -2.4015  0.4364
 8589SOL     OW37228   2.991   4.039   2.148 -0.0216  0.2477  0.1118
 8589SOL    HW137229   2.989   4.135   2.152  1.7690  0.2968 -0.3030
 8589SOL    HW237230   3.002   4.022   2.241  0.8140  0.6093  0.0768
 8590SOL     OW37231   4.558   1.547   6.920  0.5346 -0.4293 -0.2005
 8590SOL    HW137232   4.595   1.506   6.842  0.5177 -0.7831 -0.0199
 8590SOL    HW237233   4.468   1.554   6.888  1.5619 -0.3557 -3.0208
 8591SOL     OW37234   2.082   4.580   6.411 -0.5139  0.1285  0.0181
 8591SOL    HW137235   2.138   4.540   6.344  0.8142  0.5133  0.8922
 8591SOL    HW237236   2.001   4.540   6.380 -1.1866  1.2833  0.2971
 8592SOL     OW37237   4.222   2.359   4.772  0.2659 -0.4783 -0.0309
 8592SOL    HW137238   4.162   2.319   4.835  0.4704 -1.7683 -0.6494
 8592SOL    HW237239   4.173   2.439   4.755  0.9352 -0.2961 -1.1359
 8593SOL     OW37240   2.621   0.269   3.816 -0.1401  0.2724  0.4143
 8593SOL    HW137241   2.662   0.286   3.901  0.1386  0.9000  0.1503
 8593SOL    HW237242   2.588   0.180   3.831  0.1971 -0.2401 -1.9527
 8594SOL     OW37243   4.220   3.452   9.936  0.3955 -0.1644  0.0379
 8594SOL    HW137244   4.163   3.527   9.951  0.8409  0.5896 -1.9781
 8594SOL    HW237245   4.265   3.483   9.857  0.4911 -1.6746 -0.5044
 8595SOL     OW37246   4.394   1.811   1.175 -0.0337  0.1713  0.2228
 8595SOL    HW137247   4.426   1.883   1.228 -2.4155  0.4243  1.3196
 8595SOL    HW237248   4.457   1.818   1.103  0.8584  1.2124  1.1043
 8596SOL     OW37249   3.736   4.594   3.094 -0.0272 -0.3938 -0.4802
 8596SOL    HW137250   3.792   4.609   3.018  1.3102 -0.7106  0.4614
 8596SOL    HW237251   3.794   4.548   3.154  0.6091  0.8930 -0.1269
 8597SOL     OW37252   4.486   1.266   8.425  0.7726  0.7728  0.2419
 8597SOL    HW137253   4.550   1.332   8.397  1.7758 -0.2649  0.1013
 8597SOL    HW237254   4.545   1.228   8.490 -0.1331  0.9901  1.1938
 8598SOL     OW37255   2.353   0.412  11.011  0.2681  0.1609 -0.0930
 8598SOL    HW137256   2.303   0.487  10.981 -1.9054 -1.3548 -0.2477
 8598SOL    HW237257   2.305   0.336  10.979  0.5685 -0.0889  0.0416
 8599SOL     OW37258   1.107   3.056   8.595 -0.2327 -0.3003 -0.2419
 8599SOL    HW137259   1.014   3.044   8.617 -0.7772 -0.3355 -2.5045
 8599SOL    HW237260   1.111   3.131   8.654  0.9157 -1.6197  1.3364
 8600SOL     OW37261   1.756   2.561   3.861 -0.0418 -0.2646  0.3085
 8600SOL    HW137262   1.769   2.532   3.951  2.6766 -1.1977 -0.3711
 8600SOL    HW237263   1.740   2.655   3.874  0.6236 -0.4831  2.6846
 8601SOL     OW37264   3.444   2.822   8.163  0.3851 -0.2623  0.3937
 8601SOL    HW137265   3.526   2.869   8.176 -0.2115  0.2919  2.2354
 8601SOL    HW237266   3.463   2.732   8.186  0.4583  0.0385  1.5132
 8602SOL     OW37267   2.625   1.247   4.682  0.0766 -0.2752  0.0313
 8602SOL    HW137268   2.611   1.331   4.726  0.9453  0.6629 -1.4675
 8602SOL    HW237269   2.713   1.230   4.715 -0.1536  1.3275  1.5177
 8603SOL     OW37270   3.046   3.904   2.855 -0.3430 -0.5679  0.1427
 8603SOL    HW137271   2.994   3.841   2.804 -2.0723  0.5673  0.5113
 8603SOL    HW237272   3.005   3.987   2.830 -0.4008 -0.4650  0.5939
 8604SOL     OW37273   4.599   2.921  15.825 -0.5522 -0.1479  0.0245
 8604SOL    HW137274   4.507   2.930  15.799 -0.2611  1.8444 -0.3569
 8604SOL    HW237275   4.579   2.938  15.917 -0.6341  2.7035 -0.5069
 8605SOL     OW37276   4.602   3.160   2.967 -0.0795 -0.6173 -0.4742
 8605SOL    HW137277   4.566   3.163   3.055 -2.6199  1.3358 -1.6022
 8605SOL    HW237278   4.658   3.238   2.968  0.9042 -1.3703  3.4960
 8606SOL     OW37279   3.430   3.755  11.765 -0.1129 -0.4058 -0.0834
 8606SOL    HW137280   3.360   3.769  11.701 -0.9119  0.1301  0.9030
 8606SOL    HW237281   3.378   3.758  11.846  0.2020 -0.8957  0.1314
 8607SOL     OW37282   0.826   1.877   9.898  0.4568 -0.2294  0.0399
 8607SOL    HW137283   0.914   1.912   9.911 -0.1183  1.7799 -1.6676
 8607SOL    HW237284   0.781   1.917   9.973  1.3548 -0.5465  0.7520
 8608SOL     OW37285   3.222   3.104  15.101 -0.0336 -0.0284  0.0701
 8608SOL    HW137286   3.271   3.113  15.019 -2.2388  1.7011 -1.0805
 8608SOL    HW237287   3.245   3.183  15.151  0.4277  0.1139 -0.3636
 8609SOL     OW37288   3.936   0.341   3.051  0.0276  0.3770  0.0163
 8609SOL    HW137289   3.926   0.255   3.009 -1.9251 -0.1154  1.4565
 8609SOL    HW237290   3.945   0.394   2.972 -0.5018 -0.3172 -0.5156
 8610SOL     OW37291   3.970   1.076   8.490 -0.0925 -0.5066 -0.0233
 8610SOL    HW137292   3.998   1.138   8.423 -0.3243 -0.1157  0.2460
 8610SOL    HW237293   4.018   1.103   8.568  2.0646  1.3999 -2.0177
 8611SOL     OW37294   3.368   0.782   7.549  0.2497  0.4186  0.2019
 8611SOL    HW137295   3.315   0.703   7.562  2.1560 -0.6768  1.4363
 8611SOL    HW237296   3.459   0.761   7.570  0.1270  0.0027  0.3268
 8612SOL     OW37297   3.137   2.508   7.977  0.4663  0.2101 -0.6291
 8612SOL    HW137298   3.056   2.484   8.021 -0.1946 -2.3327 -3.2242
 8612SOL    HW237299   3.181   2.423   7.979  0.1076  0.0090 -1.4697
 8613SOL     OW37300   4.495   2.965  13.655  0.4604 -0.5527 -0.0029
 8613SOL    HW137301   4.446   2.930  13.729  2.6654 -0.0930  1.6799
 8613SOL    HW237302   4.443   2.924  13.586 -0.1475 -1.1361  0.8032
 8614SOL     OW37303   1.267   1.453   2.590  0.1723  0.3427  0.2835
 8614SOL    HW137304   1.318   1.420   2.517 -0.7825 -0.2698 -0.1026
 8614SOL    HW237305   1.177   1.460   2.559  0.1869  1.3060  0.4406
 8615SOL     OW37306   1.958   3.868   7.549 -0.1949  0.2376 -0.2840
 8615SOL    HW137307   1.916   3.783   7.560 -0.8915  0.7723  1.2700
 8615SOL    HW237308   2.048   3.845   7.527 -0.4635 -2.9420  1.8847
 8616SOL     OW37309   2.035   1.543   5.635  0.0767  0.5790 -0.1243
 8616SOL    HW137310   2.008   1.517   5.547 -2.1562  1.5757  0.2668
 8616SOL    HW237311   2.129   1.526   5.625 -1.0310 -3.6546 -3.1575
 8617SOL     OW37312   4.179   4.070   7.456  0.1781  0.1150 -0.8192
 8617SOL    HW137313   4.110   4.006   7.474  1.5281 -1.6375 -1.9345
 8617SOL    HW237314   4.145   4.141   7.510  3.1346 -0.6039  2.0281
 8618SOL     OW37315   2.500   2.970   3.302  0.1636  0.1099 -0.0827
 8618SOL    HW137316   2.554   2.892   3.292  0.2598  0.2363 -0.5440
 8618SOL    HW237317   2.510   2.974   3.397 -1.4241 -0.8972  0.1343
 8619SOL     OW37318   1.908   0.481  11.908 -0.7078  0.5389 -0.2432
 8619SOL    HW137319   1.887   0.399  11.953  0.2476  0.8929  0.8264
 8619SOL    HW237320   1.866   0.545  11.966  0.0418  0.0529  0.8383
 8620SOL     OW37321   2.270   0.836   4.182 -0.0517  0.2064  0.2349
 8620SOL    HW137322   2.247   0.903   4.118 -1.7590 -0.2763  0.3421
 8620SOL    HW237323   2.314   0.773   4.124 -2.0158  0.0735 -1.0952
 8621SOL     OW37324   0.234   1.101   6.145 -0.0484 -0.0879  0.5473
 8621SOL    HW137325   0.189   1.039   6.201 -0.7723 -0.1537 -0.1115
 8621SOL    HW237326   0.203   1.187   6.173 -1.2787 -0.3003 -0.1726
 8622SOL     OW37327   2.689   3.166   9.961 -0.0092 -0.3570 -0.4745
 8622SOL    HW137328   2.695   3.210   9.876  0.6847  0.3101 -0.0716
 8622SOL    HW237329   2.638   3.090   9.934  0.5138 -0.5591 -0.8922
 8623SOL     OW37330   3.380   2.965   7.683 -0.3351 -0.2285  0.2805
 8623SOL    HW137331   3.320   2.909   7.635  1.7358 -0.4338 -2.0559
 8623SOL    HW237332   3.423   3.014   7.613  0.6068  0.5442  1.3822
 8624SOL     OW37333   3.910   1.725   4.052  0.3505  0.0604 -0.0621
 8624SOL    HW137334   3.917   1.645   4.000  0.6359  0.0104  0.0553
 8624SOL    HW237335   3.849   1.781   4.003 -0.1715 -0.9486 -0.5576
 8625SOL     OW37336   0.940   3.327   7.233 -0.8628 -0.0392  0.3543
 8625SOL    HW137337   0.980   3.371   7.308  2.5682 -0.3433 -1.2903
 8625SOL    HW237338   1.002   3.255   7.217  0.6232  1.1392  0.8485
 8626SOL     OW37339   2.384   2.936   6.678  0.3429  0.7459  0.4231
 8626SOL    HW137340   2.446   3.007   6.662  1.2244  0.3554  2.0651
 8626SOL    HW237341   2.393   2.887   6.596 -1.5055  0.0512  0.6411
 8627SOL     OW37342   4.112   3.587  17.147  0.4122  0.5828  0.1339
 8627SOL    HW137343   4.148   3.526  17.083 -0.5878 -0.2470  0.3661
 8627SOL    HW237344   4.179   3.656  17.151  1.1480 -0.0828 -0.6411
 8628SOL     OW37345   1.538   3.486   2.107  0.0267  0.0550 -0.1152
 8628SOL    HW137346   1.590   3.458   2.032 -1.4090  0.2408 -1.1698
 8628SOL    HW237347   1.600   3.471   2.179  0.5130  1.7976 -0.1580
 8629SOL     OW37348   1.442   3.841   3.079  0.3869  0.0217  0.3099
 8629SOL    HW137349   1.424   3.775   3.012  0.1816  0.9944 -0.5994
 8629SOL    HW237350   1.521   3.885   3.048  1.7217 -1.7886  1.1848
 8630SOL     OW37351   4.387   0.712   5.425  0.3286  0.2252  0.0632
 8630SOL    HW137352   4.340   0.635   5.392  0.9036 -0.5353  1.0228
 8630SOL    HW237353   4.365   0.770   5.352 -1.4417 -0.3754  0.1241
 8631SOL     OW37354   3.889   0.240   5.023  0.0754  0.0712 -0.2641
 8631SOL    HW137355   3.959   0.305   5.026 -0.7298  0.9743 -1.0099
 8631SOL    HW237356   3.814   0.295   5.047 -0.4958  0.2093 -2.3676
 8632SOL     OW37357   3.053   3.698   3.455 -0.1911  0.9925  0.3618
 8632SOL    HW137358   3.008   3.655   3.528  1.2624  2.6932  2.2798
 8632SOL    HW237359   3.071   3.627   3.394  2.2466  1.6367  0.3154
 8633SOL     OW37360   1.165   2.308   5.547 -0.4849 -0.2316  0.4383
 8633SOL    HW137361   1.182   2.359   5.627  1.1516 -2.0127  1.2246
 8633SOL    HW237362   1.257   2.304   5.522 -0.7741 -2.8714 -0.1669
 8634SOL     OW37363   3.774   3.380   3.473  0.1934 -0.1767  0.2255
 8634SOL    HW137364   3.689   3.342   3.494  0.2429 -1.2393 -1.5169
 8634SOL    HW237365   3.778   3.344   3.384 -2.8837  0.3903 -0.1376
 8635SOL     OW37366   1.382   1.251   6.590 -0.4573  0.0181 -0.7962
 8635SOL    HW137367   1.452   1.296   6.542  0.2927 -1.4341 -1.0739
 8635SOL    HW237368   1.432   1.178   6.628 -1.0134  0.3181  0.5039
 8636SOL     OW37369   4.275   3.706   2.746 -0.2296 -0.5665  0.5580
 8636SOL    HW137370   4.251   3.799   2.753  2.3747  0.0556  0.9999
 8636SOL    HW237371   4.200   3.658   2.710  0.8611 -0.8597 -1.3413
 8637SOL     OW37372   0.626   2.191   5.784  0.1267 -0.3345 -0.2653
 8637SOL    HW137373   0.602   2.255   5.851 -0.0675  0.4950 -1.1296
 8637SOL    HW237374   0.541   2.196   5.741  0.6803  1.0129 -1.1775
 8638SOL     OW37375   4.032   3.581  12.622 -0.0364  0.3471 -0.1211
 8638SOL    HW137376   4.100   3.646  12.604  0.5233  0.0993  1.0977
 8638SOL    HW237377   3.945   3.619  12.607 -0.3839 -0.5107 -0.2560
 8639SOL     OW37378   2.522   1.557   4.650  0.0667  0.6086  0.4260
 8639SOL    HW137379   2.499   1.628   4.590 -0.7339  0.9566  1.1510
 8639SOL    HW237380   2.618   1.560   4.649  0.1085 -0.7851  2.7495
 8640SOL     OW37381   2.899   2.428   5.199 -0.0527  0.7447  0.2180
 8640SOL    HW137382   2.989   2.433   5.167 -0.1519  0.2574 -0.1364
 8640SOL    HW237383   2.845   2.406   5.123  1.8943  1.3425 -1.3580
 8641SOL     OW37384   0.684   0.124  11.568 -0.1994 -0.5710  0.0971
 8641SOL    HW137385   0.690   0.092  11.478  0.5355  1.2020 -0.4835
 8641SOL    HW237386   0.768   0.167  11.583  0.1684 -1.0043 -0.7136
 8642SOL     OW37387   3.452   0.396   4.903  0.3922  0.2587 -0.0854
 8642SOL    HW137388   3.513   0.425   4.971  0.6419 -1.0936  0.2578
 8642SOL    HW237389   3.517   0.357   4.845  1.3039  2.2303 -0.3831
 8643SOL     OW37390   0.693   4.668   0.209  0.6667 -0.1693  1.0573
 8643SOL    HW137391   0.748   4.696   0.136 -0.8661 -1.3328 -0.5492
 8643SOL    HW237392   0.733   4.588   0.242  0.1672 -0.4057  1.0967
 8644SOL     OW37393   1.569   3.580   6.103  0.1877  0.1636 -0.0394
 8644SOL    HW137394   1.501   3.572   6.036  1.3919  2.7501 -1.5590
 8644SOL    HW237395   1.629   3.515   6.065 -1.4683 -2.2344  1.4581
 8645SOL     OW37396   2.019   4.089   9.779 -0.2975  0.0052 -0.0937
 8645SOL    HW137397   1.973   4.157   9.729 -0.9673 -2.1411 -2.3604
 8645SOL    HW237398   2.049   4.037   9.704 -2.5500  1.0588 -1.7103
 8646SOL     OW37399   0.529   0.699   4.314 -0.1762 -0.0553 -0.3290
 8646SOL    HW137400   0.529   0.730   4.404  0.1594  2.2107 -1.1245
 8646SOL    HW237401   0.620   0.718   4.292 -0.1165 -0.9947 -0.9162
 8647SOL     OW37402   4.255   0.509   2.022  0.4549 -0.7739 -0.4251
 8647SOL    HW137403   4.333   0.458   2.000 -0.1804 -1.6360 -0.6719
 8647SOL    HW237404   4.272   0.592   1.978  1.7249 -0.7205  0.1703
 8648SOL     OW37405   3.977   2.549   0.829  0.3417  0.2790  0.0725
 8648SOL    HW137406   3.946   2.606   0.758 -0.7709 -1.0721 -0.5259
 8648SOL    HW237407   3.915   2.476   0.825  0.2382  0.3239  0.7666
 8649SOL     OW37408   1.381   3.712  14.956  0.0688 -0.1904 -0.2288
 8649SOL    HW137409   1.391   3.806  14.946  0.5375 -0.2617 -0.4572
 8649SOL    HW237410   1.349   3.691  14.868  1.6440 -1.9400 -0.3880
 8650SOL     OW37411   1.160   3.083   6.936 -0.2854 -0.3065  0.2852
 8650SOL    HW137412   1.235   3.112   6.988  0.3442  0.5447 -1.0953
 8650SOL    HW237413   1.184   3.114   6.849 -0.6711  3.8821  1.6448
 8651SOL     OW37414   1.563   0.154   6.890  0.6974  0.6403 -0.0420
 8651SOL    HW137415   1.550   0.180   6.981  0.8779  0.8854 -0.0881
 8651SOL    HW237416   1.509   0.075   6.890 -1.0305  1.8250 -1.4943
 8652SOL     OW37417   4.456   4.524   3.279 -0.5307  0.0959 -0.2181
 8652SOL    HW137418   4.410   4.473   3.212 -1.7293 -0.7040  1.2280
 8652SOL    HW237419   4.533   4.550   3.228 -0.5479 -0.1661 -0.3783
 8653SOL     OW37420   4.222   4.421   9.661 -0.2428 -0.5050 -0.0563
 8653SOL    HW137421   4.263   4.507   9.656 -0.5235 -0.3978 -0.4874
 8653SOL    HW237422   4.216   4.413   9.756  0.1376 -0.2251 -0.0110
 8654SOL     OW37423   0.306   4.297   7.430 -0.4410 -0.3050 -0.4085
 8654SOL    HW137424   0.389   4.344   7.423 -0.3193 -0.1603  2.0901
 8654SOL    HW237425   0.264   4.338   7.506  0.2809  0.0124 -0.1904
 8655SOL     OW37426   2.520   0.300   8.867  0.3106 -0.0915 -0.5700
 8655SOL    HW137427   2.575   0.283   8.944  1.4869 -1.3542 -1.6790
 8655SOL    HW237428   2.517   0.213   8.826 -1.2236 -0.5306  0.4867
 8656SOL     OW37429   0.653   4.425   0.646  0.5409  0.7257 -0.0848
 8656SOL    HW137430   0.676   4.472   0.565  2.7287 -0.0688  0.0835
 8656SOL    HW237431   0.730   4.377   0.676 -0.0103 -0.1966 -0.1531
 8657SOL     OW37432   1.602   4.629   7.980 -0.5353  0.2856  0.1972
 8657SOL    HW137433   1.664   4.571   8.024  0.0665 -1.5553 -3.0087
 8657SOL    HW237434   1.523   4.574   7.976 -0.6075  0.1480  3.7372
 8658SOL     OW37435   4.133   0.755   6.551 -0.3479  0.2273  0.0935
 8658SOL    HW137436   4.199   0.818   6.579 -0.3385  0.0718  0.4249
 8658SOL    HW237437   4.092   0.738   6.636 -0.4508  0.7058  0.1416
 8659SOL     OW37438   2.105   0.391   6.066  0.1561 -0.0152  0.1126
 8659SOL    HW137439   2.166   0.384   5.993  1.8956  1.5599  1.4182
 8659SOL    HW237440   2.169   0.424   6.129 -0.1079 -1.9353  1.3904
 8660SOL     OW37441   1.283   0.841  13.952  0.1073 -0.0078 -0.1446
 8660SOL    HW137442   1.327   0.811  14.032 -1.4395  1.8759  1.4177
 8660SOL    HW237443   1.360   0.845  13.896 -0.6422  0.8000 -1.1071
 8661SOL     OW37444   0.836   1.711   6.187  0.2750  0.0557  0.4058
 8661SOL    HW137445   0.790   1.665   6.116  1.1901  1.8942 -1.3944
 8661SOL    HW237446   0.774   1.704   6.260 -0.8850  1.5399 -0.4480
 8662SOL     OW37447   1.308   3.717   6.509  0.3278 -0.0215  0.0965
 8662SOL    HW137448   1.215   3.713   6.485  0.0107 -1.5337  1.5731
 8662SOL    HW237449   1.344   3.732   6.422 -0.2427 -0.7358 -0.2629
 8663SOL     OW37450   0.421   2.953   3.029 -0.1890  0.4262  0.6732
 8663SOL    HW137451   0.393   2.861   3.031  0.0186  0.3458 -0.1193
 8663SOL    HW237452   0.371   2.974   3.108 -0.1791  0.3240  0.7065
 8664SOL     OW37453   1.102   3.815  14.386  0.2794 -0.4975  0.0936
 8664SOL    HW137454   1.121   3.729  14.424  1.5180 -0.1724  0.2266
 8664SOL    HW237455   1.134   3.871  14.458 -0.5677  1.0242 -0.7098
 8665SOL     OW37456   0.962   1.780   1.819  0.1882 -0.2240  0.6316
 8665SOL    HW137457   0.967   1.754   1.728 -0.8896  1.1234  0.1882
 8665SOL    HW237458   0.976   1.874   1.810  0.3699 -0.2572  0.5742
 8666SOL     OW37459   1.497   1.047   1.926 -0.4058 -0.1445  0.2781
 8666SOL    HW137460   1.563   1.002   1.979  0.2100  2.0947  1.3766
 8666SOL    HW237461   1.510   1.135   1.960 -0.4919 -0.8068  2.0072
 8667SOL     OW37462   2.309   2.129   5.115  0.2280  0.4342 -0.2622
 8667SOL    HW137463   2.256   2.088   5.047  0.3924 -1.0159  0.4837
 8667SOL    HW237464   2.239   2.140   5.180 -0.7783  0.3749 -1.3222
 8668SOL     OW37465   0.523   4.520   3.674 -0.1808 -0.5036  0.1301
 8668SOL    HW137466   0.466   4.594   3.653  2.0536  0.9112 -0.9958
 8668SOL    HW237467   0.605   4.546   3.632 -1.3777  3.4579  0.2610
 8669SOL     OW37468   2.747   1.985  13.329 -0.2249  0.1570 -0.0964
 8669SOL    HW137469   2.794   1.953  13.252 -1.0363 -1.0052 -0.0939
 8669SOL    HW237470   2.765   1.916  13.392  1.7156 -1.3390 -2.2669
 8670SOL     OW37471   2.104   3.686   7.789  0.2539  0.4469 -0.5399
 8670SOL    HW137472   2.044   3.659   7.719 -0.3690  0.8613 -0.1684
 8670SOL    HW237473   2.095   3.613   7.850  0.0850  1.3290  0.4764
 8671SOL     OW37474   4.370   2.695   9.963 -0.2377  0.2123 -0.1058
 8671SOL    HW137475   4.339   2.750  10.034  2.1162 -0.5709  1.5373
 8671SOL    HW237476   4.364   2.750   9.885 -2.8224 -2.0719 -1.5229
 8672SOL     OW37477   1.302   0.998  15.958  0.0040  0.0673 -0.5277
 8672SOL    HW137478   1.265   1.067  15.903 -0.5540 -0.3185 -0.6392
 8672SOL    HW237479   1.396   1.014  15.951  0.1660 -1.5669 -1.8979
 8673SOL     OW37480   4.535   1.756  12.031  0.3609 -0.1457 -0.6855
 8673SOL    HW137481   4.573   1.843  12.033  0.2150 -0.0942 -0.1985
 8673SOL    HW237482   4.494   1.753  11.944  0.0084  1.5436 -0.5668
 8674SOL     OW37483   0.136   0.184   8.052  0.1963  0.4103 -0.6082
 8674SOL    HW137484   0.128   0.268   8.096  0.7359 -0.6546  1.5651
 8674SOL    HW237485   0.083   0.123   8.104  0.1696  0.2710 -0.7973
 8675SOL     OW37486   0.535   1.733   4.410  0.6963 -0.4184  0.2712
 8675SOL    HW137487   0.538   1.733   4.314 -0.3627  0.6444  0.2345
 8675SOL    HW237488   0.609   1.675   4.427 -0.4627 -1.7853  0.7227
 8676SOL     OW37489   1.859   1.245  17.391 -0.2283 -0.3125  0.5766
 8676SOL    HW137490   1.836   1.227  17.299 -2.2684  0.6303  0.8932
 8676SOL    HW237491   1.880   1.338  17.381 -0.7346  0.0930  3.5002
 8677SOL     OW37492   0.743   3.018  14.940 -0.3428 -0.1349  0.1287
 8677SOL    HW137493   0.823   2.982  14.902 -0.2592  0.7015 -0.4965
 8677SOL    HW237494   0.732   3.098  14.889  0.4885 -0.5129 -0.6397
 8678SOL     OW37495   4.711   0.151   3.364 -0.1098  0.1671 -0.2578
 8678SOL    HW137496   0.046   0.098   3.419 -1.5001 -0.3700  0.6974
 8678SOL    HW237497   4.686   0.095   3.291  1.3104 -0.1440 -0.5054
 8679SOL     OW37498   4.419   4.507   4.427  0.4210  0.3066 -0.1588
 8679SOL    HW137499   4.398   4.414   4.418  2.6496 -0.0709 -1.6646
 8679SOL    HW237500   4.394   4.544   4.342 -1.9950  1.3486  0.9974
 8680SOL     OW37501   1.904   2.156  14.381  0.0003 -0.4821  0.3943
 8680SOL    HW137502   1.955   2.228  14.418  0.1983  1.3089 -3.2533
 8680SOL    HW237503   1.864   2.117  14.458  0.0043 -1.4855 -0.1105
 8681SOL     OW37504   3.235   0.959   9.313 -0.4494 -0.2029  0.1703
 8681SOL    HW137505   3.219   1.053   9.318 -0.8663 -0.3829  2.3855
 8681SOL    HW237506   3.150   0.915   9.302  0.4739 -2.3705  1.7258
 8682SOL     OW37507   2.820   0.698   6.170  0.3669  0.4535  0.6237
 8682SOL    HW137508   2.825   0.744   6.087 -2.4300 -0.0971  0.1625
 8682SOL    HW237509   2.741   0.644   6.173  0.1275  0.5391 -4.6444
 8683SOL     OW37510   3.499   3.407   9.952  0.0237  0.2989  0.9245
 8683SOL    HW137511   3.533   3.327   9.913 -1.0803 -0.0487  0.6675
 8683SOL    HW237512   3.582   3.454   9.967 -0.5338  1.8877 -1.0299
 8684SOL     OW37513   2.924   1.270  14.227 -0.8246  0.5204  0.6679
 8684SOL    HW137514   2.946   1.198  14.168 -1.2913  0.8310  0.1139
 8684SOL    HW237515   2.995   1.275  14.291  1.4245  1.6030 -1.8586
 8685SOL     OW37516   2.739   0.293  12.564  0.1844  0.2625 -0.4795
 8685SOL    HW137517   2.714   0.385  12.573 -0.8411 -0.2087  1.3628
 8685SOL    HW237518   2.822   0.299  12.611 -0.9175  1.9578  1.1968
 8686SOL     OW37519   4.492   4.685  10.795  0.6413  0.3556 -0.3629
 8686SOL    HW137520   4.522   0.052  10.778 -2.1077  1.3577  0.1065
 8686SOL    HW237521   4.410   4.701  10.841  0.4379  0.9397 -0.9227
 8687SOL     OW37522   0.978   4.554   4.734  0.3633  0.3264  0.3998
 8687SOL    HW137523   0.893   4.514   4.750 -1.1784  3.3529 -0.1832
 8687SOL    HW237524   1.023   4.483   4.688  1.1442  1.1119 -0.0550
 8688SOL     OW37525   2.642   3.498   8.830 -0.2304  0.6579  0.2545
 8688SOL    HW137526   2.671   3.408   8.816 -0.8071  0.3584  0.9651
 8688SOL    HW237527   2.558   3.499   8.784  0.8215 -0.4769 -1.6549
 8689SOL     OW37528   1.007   0.998   4.665 -0.5877 -0.8284  0.2643
 8689SOL    HW137529   0.915   1.009   4.686 -0.6911 -0.7189 -0.2446
 8689SOL    HW237530   1.049   1.006   4.750  0.8442 -0.9728 -0.4235
 8690SOL     OW37531   2.684   0.801   6.823 -0.2933 -0.5277  0.5864
 8690SOL    HW137532   2.674   0.843   6.908  0.3226 -0.5187  0.6570
 8690SOL    HW237533   2.593   0.790   6.797 -0.3668 -1.9682  1.4673
 8691SOL     OW37534   1.727   1.106   8.467 -0.3624  0.0604 -0.2890
 8691SOL    HW137535   1.744   1.149   8.551  0.3774 -0.7663 -0.0081
 8691SOL    HW237536   1.755   1.015   8.476  1.8794  0.7982  0.2956
 8692SOL     OW37537   1.307   2.615  15.154  0.9943 -0.1945  0.0343
 8692SOL    HW137538   1.364   2.675  15.105 -0.9553 -0.3234 -2.3802
 8692SOL    HW237539   1.232   2.599  15.097  1.3827 -0.0538 -0.5146
 8693SOL     OW37540   4.571   2.513   2.643  0.2357 -0.4545 -0.4545
 8693SOL    HW137541   4.539   2.445   2.584 -0.8608 -0.1736 -0.1807
 8693SOL    HW237542   4.497   2.556   2.684  0.4230  0.2760 -0.8752
 8694SOL     OW37543   0.690   3.020   2.175  0.7915 -0.6808 -0.7024
 8694SOL    HW137544   0.778   3.012   2.139  1.0231 -1.2396 -0.0137
 8694SOL    HW237545   0.705   2.992   2.265 -0.0994 -0.0399 -0.3512
 8695SOL     OW37546   4.578   0.224  10.775 -0.3359 -0.3161 -0.2843
 8695SOL    HW137547   4.553   0.316  10.773 -0.2545 -0.2978 -0.4507
 8695SOL    HW237548   4.666   0.230  10.813 -0.5916 -2.2866  0.6424
 8696SOL     OW37549   4.561   3.002  10.179  0.3614 -0.1320  0.6439
 8696SOL    HW137550   4.494   2.954  10.130  0.5795  0.0145  0.1917
 8696SOL    HW237551   4.516   3.023  10.260 -1.0960  1.5801 -0.5840
 8697SOL     OW37552   0.102   2.186   7.194  0.4476  0.0114  0.0574
 8697SOL    HW137553   0.012   2.216   7.186  0.3743 -0.6640 -1.5090
 8697SOL    HW237554   0.122   2.141   7.112  1.1559  0.9536 -0.2819
 8698SOL     OW37555   1.824   1.828  12.619 -0.1641 -0.4503 -0.0119
 8698SOL    HW137556   1.746   1.865  12.660  0.5413  0.4682  0.5055
 8698SOL    HW237557   1.895   1.885  12.649  1.0894 -2.8949  1.7605
 8699SOL     OW37558   3.328   1.714  10.758  0.0024  0.5572 -0.1233
 8699SOL    HW137559   3.233   1.730  10.759 -0.1148 -0.1745  0.2718
 8699SOL    HW237560   3.364   1.801  10.743 -1.0753  0.8550 -1.0348
 8700SOL     OW37561   1.399   0.025   3.139 -0.0819  0.1523  0.8272
 8700SOL    HW137562   1.493   0.008   3.130 -0.2537 -0.7680  0.8587
 8700SOL    HW237563   1.360   0.000   3.055 -2.1534 -0.6549  2.0433
 8701SOL     OW37564   4.188   1.180   2.276 -0.3656 -0.0337  0.2338
 8701SOL    HW137565   4.180   1.202   2.183  1.6697 -0.6843 -0.0761
 8701SOL    HW237566   4.142   1.097   2.266  0.4151 -0.4462  0.1208
 8702SOL     OW37567   0.492   2.668   7.335  0.0168  0.1216 -0.1850
 8702SOL    HW137568   0.478   2.756   7.300  1.9955  0.7594  0.6133
 8702SOL    HW237569   0.471   2.604   7.266  0.8625 -0.5208  0.1543
 8703SOL     OW37570   1.217   0.998   3.541  0.5528 -0.3436 -0.0705
 8703SOL    HW137571   1.141   0.983   3.485 -0.7711  0.2478  1.5693
 8703SOL    HW237572   1.267   1.036   3.470 -0.1489  1.5614  0.4639
 8704SOL     OW37573   0.504   3.661   9.558 -0.2474  0.0580  0.0765
 8704SOL    HW137574   0.423   3.650   9.508 -0.4159  0.6679  0.2098
 8704SOL    HW237575   0.566   3.682   9.489 -1.1721 -0.3577 -0.8845
 8705SOL     OW37576   2.729   1.751   0.716  0.3652  0.5297 -0.2023
 8705SOL    HW137577   2.820   1.737   0.738 -0.3814 -1.2458  1.7004
 8705SOL    HW237578   2.685   1.686   0.770 -2.0131  0.3425 -2.3508
 8706SOL     OW37579   2.047   1.027   7.033 -0.2961 -0.0042 -0.4144
 8706SOL    HW137580   2.120   1.032   6.970  0.8439 -0.3621  0.8863
 8706SOL    HW237581   2.031   0.933   7.036  0.8321 -0.1491  0.7524
 8707SOL     OW37582   4.100   0.867   9.127  0.5564 -0.4370 -0.3258
 8707SOL    HW137583   4.048   0.869   9.207  1.3528  2.4524  0.1282
 8707SOL    HW237584   4.121   0.774   9.124  1.8176 -0.2192  1.8554
 8708SOL     OW37585   4.534   0.187   1.439  0.4163  0.6512 -0.2558
 8708SOL    HW137586   4.598   0.128   1.400 -0.3089 -0.5906  0.4210
 8708SOL    HW237587   4.534   0.161   1.531  0.0988 -1.3268 -0.8014
 8709SOL     OW37588   3.689   2.832   4.978 -0.3165 -0.3192  0.0443
 8709SOL    HW137589   3.607   2.784   4.989 -1.1001  1.3119  1.3752
 8709SOL    HW237590   3.665   2.866   4.892 -0.1415  2.4653  1.0979
 8710SOL     OW37591   3.368   2.679   3.287  0.3302 -0.2308 -0.0080
 8710SOL    HW137592   3.342   2.770   3.297 -0.2419 -0.3307 -0.5796
 8710SOL    HW237593   3.458   2.692   3.257  0.0206  0.0184 -0.8429
 8711SOL     OW37594   4.502   1.403  15.707  0.1556  0.2430  0.2247
 8711SOL    HW137595   4.461   1.317  15.721  4.7852 -1.8858  0.7165
 8711SOL    HW237596   4.574   1.379  15.648  0.8477 -0.2329  1.2652
 8712SOL     OW37597   1.787   4.380   5.304  0.0819  0.6800  0.0511
 8712SOL    HW137598   1.743   4.315   5.249  1.9432 -0.3771 -0.1701
 8712SOL    HW237599   1.878   4.369   5.278 -1.0866 -0.7704 -3.4890
 8713SOL     OW37600   4.643   3.400  13.901 -0.0472 -0.0319  0.3563
 8713SOL    HW137601   4.669   3.489  13.927  0.2098 -0.2823  0.9441
 8713SOL    HW237602   0.002   3.353  13.891 -0.0287  0.1220 -0.2030
 8714SOL     OW37603   3.016   2.680  10.519 -0.5566  0.1704 -0.1747
 8714SOL    HW137604   3.041   2.628  10.443  1.6786  1.0965 -0.0724
 8714SOL    HW237605   3.060   2.758  10.485  2.0341 -1.3972 -0.4578
 8715SOL     OW37606   3.229   0.412   6.263 -0.2713 -0.0265 -0.0799
 8715SOL    HW137607   3.270   0.498   6.257  0.7047 -0.4858 -0.1406
 8715SOL    HW237608   3.313   0.367   6.248  0.8934  1.0322  3.2222
 8716SOL     OW37609   2.762   0.663  13.669 -0.2198  0.3166  0.0098
 8716SOL    HW137610   2.687   0.619  13.709  1.8228 -2.7584  0.3881
 8716SOL    HW237611   2.724   0.748  13.646  1.0358  0.7686 -0.4069
 8717SOL     OW37612   1.230   2.940  16.919 -0.5604 -0.2597 -0.4376
 8717SOL    HW137613   1.172   2.905  16.852  0.4420 -1.3123 -0.7382
 8717SOL    HW237614   1.165   2.965  16.985  0.2447  1.6745 -0.3549
 8718SOL     OW37615   1.027   2.964   4.029  0.1442 -0.0446  0.6123
 8718SOL    HW137616   1.022   3.059   4.023  0.5538 -0.2682 -2.7625
 8718SOL    HW237617   1.055   2.929   3.945 -1.9892 -1.3341  0.4473
 8719SOL     OW37618   2.503   3.048   4.660 -0.2199 -0.1433 -0.9615
 8719SOL    HW137619   2.555   3.125   4.638 -2.1943  1.5233  0.2635
 8719SOL    HW237620   2.419   3.088   4.681  0.5168  0.3654  0.9908
 8720SOL     OW37621   2.984   4.525  16.569  0.6541 -0.0225 -0.0020
 8720SOL    HW137622   2.982   4.619  16.589 -0.9756 -0.0575 -0.0233
 8720SOL    HW237623   2.925   4.534  16.494 -0.5449  0.7988  1.0378
 8721SOL     OW37624   0.438   3.055   7.441 -0.0903  0.5890 -0.0855
 8721SOL    HW137625   0.382   3.075   7.367 -1.3620 -1.0055  0.4372
 8721SOL    HW237626   0.523   3.064   7.399 -0.6758  2.4761 -0.8522
 8722SOL     OW37627   1.967   0.259  12.575  0.3069  0.5914 -0.2624
 8722SOL    HW137628   1.992   0.167  12.586  2.6320  1.0887 -1.2649
 8722SOL    HW237629   1.881   0.259  12.616  0.0858  1.3825 -0.7287
 8723SOL     OW37630   0.256   0.341   4.812 -0.2042  0.5310 -0.1565
 8723SOL    HW137631   0.306   0.339   4.730 -0.0083  1.7154 -0.0701
 8723SOL    HW237632   0.296   0.264   4.851 -0.8022  1.5157  2.3717
 8724SOL     OW37633   3.352   0.122   3.363  0.0848 -0.1591  0.4530
 8724SOL    HW137634   3.299   0.059   3.410  1.7435 -2.9586 -1.4193
 8724SOL    HW237635   3.358   0.089   3.273  0.6811  0.3489  0.2970
 8725SOL     OW37636   1.934   3.424   5.012 -0.2946 -0.7423  0.5399
 8725SOL    HW137637   1.888   3.349   4.972  1.3637 -1.4980  0.0583
 8725SOL    HW237638   1.870   3.472   5.064  0.3220  1.7121 -0.9799
 8726SOL     OW37639   4.709   0.634   7.603 -0.0824 -0.2536 -0.7300
 8726SOL    HW137640   4.636   0.605   7.657  1.0129 -1.5065  0.0871
 8726SOL    HW237641   0.055   0.610   7.666  1.5506  1.8272 -1.6978
 8727SOL     OW37642   3.820   4.361  16.200 -0.3328 -0.2177 -0.8172
 8727SOL    HW137643   3.767   4.424  16.248  0.3313  0.3406 -0.8230
 8727SOL    HW237644   3.783   4.275  16.220 -1.5114  0.8455  1.5892
 8728SOL     OW37645   0.056   0.351   1.527 -0.2616  0.4413  0.0511
 8728SOL    HW137646   0.013   0.385   1.448 -2.3083 -1.3312  0.4152
 8728SOL    HW237647   0.104   0.282   1.480  0.2683 -0.4309  1.8907
 8729SOL     OW37648   4.634   3.662  11.670  0.3492 -0.4275 -0.0864
 8729SOL    HW137649   4.550   3.707  11.685  0.2588 -0.5897 -0.1142
 8729SOL    HW237650   4.625   3.599  11.740 -1.2609  0.2858  0.3527
 8730SOL     OW37651   4.589   0.992   6.738  0.7221 -0.0667  0.4153
 8730SOL    HW137652   4.644   1.059   6.778  0.8034 -0.0164  0.2198
 8730SOL    HW237653   4.627   0.975   6.652 -0.9017  3.8268 -1.1021
 8731SOL     OW37654   0.386   2.655   4.260  0.1635 -0.6767  0.1952
 8731SOL    HW137655   0.405   2.699   4.177 -0.1385  0.4978  0.7480
 8731SOL    HW237656   0.353   2.570   4.229 -0.0827 -0.0305 -1.3186
 8732SOL     OW37657   2.058   3.840  11.478 -0.1459  0.0984  0.4495
 8732SOL    HW137658   2.037   3.754  11.515 -1.3450  0.3959  0.4527
 8732SOL    HW237659   1.976   3.849  11.430 -0.9801 -1.5614  1.5694
 8733SOL     OW37660   4.315   2.828   7.879  0.1821 -0.3782 -0.5184
 8733SOL    HW137661   4.284   2.769   7.811  2.5678 -2.3864  0.1396
 8733SOL    HW237662   4.409   2.833   7.865  0.1702 -0.0250 -0.4741
 8734SOL     OW37663   0.814   0.880   9.392 -0.7865  0.7599  0.0117
 8734SOL    HW137664   0.881   0.812   9.378 -2.3495 -0.7786 -0.0300
 8734SOL    HW237665   0.734   0.853   9.348  0.4345  0.2384 -1.8946
 8735SOL     OW37666   0.493   1.902   6.043 -0.0394  0.4337  0.8678
 8735SOL    HW137667   0.547   1.841   5.993 -0.8264  0.5893 -0.1633
 8735SOL    HW237668   0.562   1.967   6.058  0.3025 -0.0237  1.3033
 8736SOL     OW37669   4.716   1.267   1.853  0.2417 -0.2032 -0.4216
 8736SOL    HW137670   4.676   1.304   1.775  0.5079  2.8188  0.8983
 8736SOL    HW237671   4.645   1.231   1.907  0.6933  2.3966  1.8903
 8737SOL     OW37672   1.814   3.433   6.262 -0.3557  0.0099 -0.0816
 8737SOL    HW137673   1.799   3.501   6.196  0.2484 -1.8409 -2.1148
 8737SOL    HW237674   1.778   3.471   6.342 -0.6682 -1.6570  0.5630
 8738SOL     OW37675   1.385   1.635   9.272 -0.1515  0.3277 -0.4192
 8738SOL    HW137676   1.378   1.549   9.314  1.0989 -0.2676 -1.4241
 8738SOL    HW237677   1.314   1.680   9.317 -0.5984  1.0221 -1.8392
 8739SOL     OW37678   1.741   2.745   7.024 -0.2929  0.1860  0.1127
 8739SOL    HW137679   1.759   2.654   7.042 -1.4854  0.4208  2.4761
 8739SOL    HW237680   1.811   2.784   7.076  1.1980 -1.0921 -0.9529
 8740SOL     OW37681   2.780   0.496  12.182  0.1820 -0.8397  0.2966
 8740SOL    HW137682   2.732   0.561  12.132  1.2423  0.5281  1.0685
 8740SOL    HW237683   2.818   0.546  12.254 -0.4855 -1.0901  0.8209
 8741SOL     OW37684   0.843   4.114   4.609 -0.0246 -0.0853  0.6420
 8741SOL    HW137685   0.774   4.082   4.667 -2.5210  2.5423 -0.8760
 8741SOL    HW237686   0.919   4.082   4.657  0.5536 -0.8672 -0.7882
 8742SOL     OW37687   1.463   1.357  14.858 -0.3053 -0.3647  0.0409
 8742SOL    HW137688   1.485   1.324  14.771 -0.1783 -0.8905  0.2721
 8742SOL    HW237689   1.541   1.324  14.903  0.3461  0.3891 -0.5244
 8743SOL     OW37690   4.465   1.931   2.619 -0.4320  0.5039 -0.1654
 8743SOL    HW137691   4.505   1.913   2.534 -1.8040 -1.5675 -0.3736
 8743SOL    HW237692   4.530   1.889   2.675  0.3991  1.0301 -0.7525
 8744SOL     OW37693   0.417   2.339  14.580  0.1017 -0.0283  0.6300
 8744SOL    HW137694   0.407   2.245  14.589  0.8577  0.1036  2.7472
 8744SOL    HW237695   0.428   2.387  14.662 -2.3041 -0.1692  1.0442
 8745SOL     OW37696   0.495   2.228   7.083 -0.0042 -0.0363  0.1734
 8745SOL    HW137697   0.471   2.141   7.052 -1.9887  0.2896  0.8087
 8745SOL    HW237698   0.574   2.241   7.030 -0.6802  0.6720 -0.6555
 8746SOL     OW37699   1.312   4.464   0.619  0.3086  0.4669  0.6069
 8746SOL    HW137700   1.357   4.517   0.684  2.5321 -1.6379  0.7912
 8746SOL    HW237701   1.265   4.396   0.668 -0.1751 -0.7780 -1.5772
 8747SOL     OW37702   1.233   4.431   7.635 -0.1358 -0.0339 -0.3732
 8747SOL    HW137703   1.313   4.481   7.619  0.2686 -0.4029  0.5093
 8747SOL    HW237704   1.210   4.385   7.554 -3.3293 -1.7198  1.4853
 8748SOL     OW37705   3.345   4.305   6.558  0.3550 -0.5475  0.2217
 8748SOL    HW137706   3.272   4.330   6.614  0.0009 -0.8619 -0.1012
 8748SOL    HW237707   3.349   4.210   6.561 -1.5909 -0.6596 -0.7850
 8749SOL     OW37708   1.013   2.999  17.411  0.2651 -0.9809  0.2300
 8749SOL    HW137709   1.058   2.916  17.422 -0.9448 -1.5084  1.2418
 8749SOL    HW237710   0.944   2.988  17.345 -0.3560 -0.2769  0.7557
 8750SOL     OW37711   0.333   1.453   6.881 -0.0574  0.3346 -0.2060
 8750SOL    HW137712   0.371   1.392   6.818  0.6181 -0.6104  1.1192
 8750SOL    HW237713   0.339   1.402   6.962  0.0145  1.9097  0.7966
 8751SOL     OW37714   3.695   0.118   3.158  0.1047 -0.1192 -0.2110
 8751SOL    HW137715   3.714   0.026   3.143  2.4071  0.6041 -1.7502
 8751SOL    HW237716   3.667   0.150   3.072  0.3953 -1.0131 -0.6304
 8752SOL     OW37717   3.837   2.685   1.731 -0.0496  0.9494  0.3331
 8752SOL    HW137718   3.893   2.648   1.799  3.3057  2.0904 -1.8023
 8752SOL    HW237719   3.751   2.654   1.761 -0.2595 -0.0441 -1.2889
 8753SOL     OW37720   2.534   2.435   4.512 -0.6512 -0.0026 -0.1847
 8753SOL    HW137721   2.630   2.426   4.511 -0.8031 -1.2277 -3.1360
 8753SOL    HW237722   2.518   2.485   4.432  0.7013  1.4840  0.4682
 8754SOL     OW37723   0.250   2.763   5.359 -0.4076 -0.0204 -0.1384
 8754SOL    HW137724   0.257   2.684   5.305  0.7773  0.2013 -0.3157
 8754SOL    HW237725   0.310   2.823   5.314  1.2049 -0.9044  0.8332
 8755SOL     OW37726   1.523   4.344   8.008  0.2874  0.0938 -0.4993
 8755SOL    HW137727   1.433   4.376   8.019  1.4010  2.4774  1.4742
 8755SOL    HW237728   1.539   4.311   8.096 -1.7477  1.4673  0.3807
 8756SOL     OW37729   4.560   1.527   1.026  0.0883  0.7625 -0.1280
 8756SOL    HW137730   4.580   1.562   0.939  0.6228  0.1746 -0.2371
 8756SOL    HW237731   4.527   1.441   1.001 -0.9661  1.5760 -1.5357
 8757SOL     OW37732   0.308   4.561   8.125 -0.2768 -0.3256 -0.0646
 8757SOL    HW137733   0.297   4.617   8.201 -0.1171 -0.0895 -0.2171
 8757SOL    HW237734   0.400   4.537   8.134 -0.5418 -0.9612  0.9739
 8758SOL     OW37735   3.813   3.586  15.824  0.1753  0.0006  0.1744
 8758SOL    HW137736   3.772   3.593  15.910 -0.7950  0.7023 -0.3498
 8758SOL    HW237737   3.893   3.545  15.857  0.3503 -1.2666 -1.7964
 8759SOL     OW37738   4.216   3.129   3.418  0.6947  0.1770 -0.5070
 8759SOL    HW137739   4.264   3.047   3.407  2.1977  0.6360  2.7613
 8759SOL    HW237740   4.130   3.097   3.445  1.1970  1.4670  2.5460
 8760SOL     OW37741   1.744   2.254   2.916 -0.5641 -0.4259  0.6420
 8760SOL    HW137742   1.691   2.235   2.839  1.4012 -1.6548 -0.4156
 8760SOL    HW237743   1.700   2.336   2.939 -2.9611 -2.0536  1.8337
 8761SOL     OW37744   4.467   3.220  13.801  0.1653 -0.1469  0.3644
 8761SOL    HW137745   4.505   3.168  13.730  0.2845 -1.7766  1.5969
 8761SOL    HW237746   4.539   3.281  13.817 -0.0505  0.2750 -0.3275
 8762SOL     OW37747   1.907   4.545   1.222  0.0142  0.6457  0.2448
 8762SOL    HW137748   1.914   4.603   1.146  0.8454 -1.9258 -1.6279
 8762SOL    HW237749   1.930   4.608   1.290 -0.1280 -1.5746  2.3220
 8763SOL     OW37750   4.150   0.005   2.181 -0.1261  0.1897 -0.1913
 8763SOL    HW137751   4.246   0.004   2.174  0.0278  1.0486  1.8381
 8763SOL    HW237752   4.127   4.635   2.175 -0.3542  0.1803  0.8789
 8764SOL     OW37753   4.013   3.552   3.461 -0.0276 -0.2423  0.2876
 8764SOL    HW137754   3.939   3.496   3.485 -1.3543  0.6480 -1.7100
 8764SOL    HW237755   3.960   3.632   3.465  0.1957 -0.0807  0.0100
 8765SOL     OW37756   2.102   3.862   6.307  0.1255 -0.5578 -0.0587
 8765SOL    HW137757   2.130   3.805   6.236 -0.0695 -0.2761 -0.3588
 8765SOL    HW237758   2.143   3.943   6.277  1.1943 -1.3109 -0.6237
 8766SOL     OW37759   0.337   3.651   2.218 -0.0396  0.3796 -0.4115
 8766SOL    HW137760   0.407   3.587   2.203  0.6125  1.3520 -1.5325
 8766SOL    HW237761   0.255   3.603   2.210  0.2236 -0.6986  3.2811
 8767SOL     OW37762   2.203   0.899  16.515  0.5426  0.4875  0.0960
 8767SOL    HW137763   2.159   0.914  16.432  2.8645 -0.2212 -1.2882
 8767SOL    HW237764   2.239   0.984  16.541  0.3248  0.0821  1.7703
 8768SOL     OW37765   0.295   3.452   5.044  0.2945  0.4563  0.0343
 8768SOL    HW137766   0.279   3.406   5.127  3.0899 -0.8955 -0.1689
 8768SOL    HW237767   0.388   3.434   5.030 -0.3598 -2.2694 -0.8342
 8769SOL     OW37768   1.460   0.385   2.549 -0.1880 -0.6285  0.0931
 8769SOL    HW137769   1.540   0.371   2.600  1.0115  2.5889 -0.9461
 8769SOL    HW237770   1.445   0.479   2.554 -1.7843 -0.9382  1.1152
 8770SOL     OW37771   2.043   0.506   8.044  0.1485  0.1219 -0.0535
 8770SOL    HW137772   1.966   0.563   8.039  0.2923  0.4084  1.0887
 8770SOL    HW237773   2.102   0.565   8.091  0.2646 -0.2173  0.2215
 8771SOL     OW37774   1.136   3.766   4.591  0.1252 -0.0765 -0.3855
 8771SOL    HW137775   1.085   3.686   4.577  0.5017 -0.2909 -0.5275
 8771SOL    HW237776   1.218   3.726   4.619  0.7327  1.4203 -0.0260
 8772SOL     OW37777   2.723   1.791   2.613  0.3932  0.6244 -0.1512
 8772SOL    HW137778   2.695   1.704   2.586  1.1405 -0.4880  2.6907
 8772SOL    HW237779   2.737   1.775   2.706  2.6367  0.9994 -0.4297
 8773SOL     OW37780   2.581   0.093   8.592  0.1521 -0.2223  0.0207
 8773SOL    HW137781   2.530   0.042   8.655  0.8342  0.6860  1.3067
 8773SOL    HW237782   2.604   0.028   8.526  1.4625 -0.7020  0.9410
 8774SOL     OW37783   2.831   1.804   5.850 -0.3698  0.6357  0.2824
 8774SOL    HW137784   2.867   1.873   5.906 -0.6344  1.5849 -0.7073
 8774SOL    HW237785   2.886   1.823   5.774 -1.5668  0.5980 -0.6017
 8775SOL     OW37786   2.711   3.670   7.947  0.7330  0.9919 -0.4216
 8775SOL    HW137787   2.775   3.629   7.889 -0.1013  0.0849 -0.6953
 8775SOL    HW237788   2.635   3.641   7.897  1.1536 -0.3500 -0.2921
 8776SOL     OW37789   3.535   2.341   7.204 -0.0807 -0.1981 -0.0978
 8776SOL    HW137790   3.484   2.329   7.285 -0.9088 -0.2983 -0.6276
 8776SOL    HW237791   3.489   2.406   7.151 -1.6032  0.3629  1.8880
 8777SOL     OW37792   1.793   4.089   6.814  0.6052  0.1663 -0.2786
 8777SOL    HW137793   1.730   4.059   6.749 -0.8701  2.1644  0.2351
 8777SOL    HW237794   1.739   4.127   6.884  1.0986  0.0235  0.1827
 8778SOL     OW37795   1.448   1.416   6.057  0.3984 -0.1655 -0.0769
 8778SOL    HW137796   1.397   1.338   6.082  1.4353 -0.4008  1.3338
 8778SOL    HW237797   1.378   1.469   6.020 -1.4926 -0.5761  2.8454
 8779SOL     OW37798   0.781   2.758   7.067  0.3475 -0.0556 -1.0395
 8779SOL    HW137799   0.692   2.772   7.101  0.9919 -0.3623  0.8026
 8779SOL    HW237800   0.817   2.686   7.119  1.4827  1.1341 -0.1875
 8780SOL     OW37801   1.784   1.131   6.905  0.0155 -0.4581 -0.4715
 8780SOL    HW137802   1.761   1.198   6.969 -0.5717  0.1897 -1.3467
 8780SOL    HW237803   1.856   1.084   6.947 -1.0245 -0.9512  0.7701
 8781SOL     OW37804   2.801   4.137   8.485 -0.3292 -0.1822  0.2309
 8781SOL    HW137805   2.763   4.052   8.505 -1.8241  1.0341  2.5381
 8781SOL    HW237806   2.859   4.120   8.410  0.6650  0.0482  0.9509
 8782SOL     OW37807   3.744   2.331   7.370  0.3466 -0.1745  0.3157
 8782SOL    HW137808   3.673   2.307   7.311  2.3433 -1.3746 -1.6102
 8782SOL    HW237809   3.797   2.400   7.329  0.1449 -0.1831  0.0424
 8783SOL     OW37810   0.860   2.146  11.520  0.3203  0.7157  0.0964
 8783SOL    HW137811   0.934   2.172  11.465  1.2640  0.5356  1.2833
 8783SOL    HW237812   0.866   2.051  11.506 -0.2041  0.8046 -0.6948
 8784SOL     OW37813   2.162   1.268   5.903 -0.0170  0.0372 -0.1404
 8784SOL    HW137814   2.228   1.336   5.897  0.4238 -0.3095  0.7343
 8784SOL    HW237815   2.187   1.223   5.823 -0.3713 -0.3479 -0.0364
 8785SOL     OW37816   3.482   0.872   5.432 -0.0331  0.1031  0.0861
 8785SOL    HW137817   3.574   0.847   5.433  0.3250  1.4497  0.4083
 8785SOL    HW237818   3.456   0.845   5.521  1.4710  2.0544  1.1101
 8786SOL     OW37819   1.095   2.691  11.217  0.0345 -0.8146  0.6221
 8786SOL    HW137820   1.076   2.658  11.305  1.1602  0.8009  1.4737
 8786SOL    HW237821   1.144   2.616  11.182  1.7736  1.0971 -1.0576
 8787SOL     OW37822   3.623   2.601   6.531  0.0286  0.1640  0.4168
 8787SOL    HW137823   3.674   2.589   6.451  1.4790 -0.4051  1.4329
 8787SOL    HW237824   3.574   2.679   6.505  1.5539  0.7206 -0.7560
 8788SOL     OW37825   0.671   1.210   5.004 -0.4492  0.4354 -0.0392
 8788SOL    HW137826   0.692   1.276   4.938 -0.6773  0.6782  0.1371
 8788SOL    HW237827   0.581   1.181   4.988 -0.1566 -0.5057 -0.0080
 8789SOL     OW37828   1.115   3.568   8.302  0.8580  0.0454 -0.4622
 8789SOL    HW137829   1.036   3.570   8.247 -1.4858 -1.4882  2.8370
 8789SOL    HW237830   1.128   3.473   8.294 -0.0110 -0.0828 -0.3842
 8790SOL     OW37831   0.643   0.936   6.420 -0.5897 -0.5643 -0.1531
 8790SOL    HW137832   0.587   0.989   6.476  0.6631 -0.4710  1.0093
 8790SOL    HW237833   0.646   0.990   6.340  0.3104 -1.1231 -0.5041
 8791SOL     OW37834   3.043   2.393   8.590 -0.1326  0.4428  0.4413
 8791SOL    HW137835   3.023   2.474   8.636  1.8668 -0.6212  3.1523
 8791SOL    HW237836   3.127   2.418   8.552  0.5281 -0.9248  0.9875
 8792SOL     OW37837   1.647   0.159   4.810 -0.2194  0.1704  0.3851
 8792SOL    HW137838   1.704   0.235   4.803  0.2810 -0.1592  0.8419
 8792SOL    HW237839   1.577   0.185   4.869  0.7524  3.2402  0.1467
 8793SOL     OW37840   0.860   0.468   7.011  0.2423  0.0845 -0.3688
 8793SOL    HW137841   0.857   0.560   7.036 -0.6165 -0.6706  2.2428
 8793SOL    HW237842   0.921   0.440   7.078  0.3810 -0.3596 -0.6789
 8794SOL     OW37843   2.559   1.046  16.590 -0.3354 -0.1963  0.2556
 8794SOL    HW137844   2.573   1.082  16.502 -0.3035 -2.9407 -0.8512
 8794SOL    HW237845   2.639   1.078  16.632  1.5667 -1.0096 -2.7490
 8795SOL     OW37846   0.639   2.711  10.508 -0.5389 -0.6543  0.3308
 8795SOL    HW137847   0.627   2.790  10.454 -1.3396  0.0185  1.5004
 8795SOL    HW237848   0.630   2.757  10.592  1.8740  0.3139  0.0588
 8796SOL     OW37849   3.582   0.759   8.642  0.0721 -0.3744 -0.1898
 8796SOL    HW137850   3.608   0.804   8.722  0.2857 -2.4813  0.9412
 8796SOL    HW237851   3.506   0.810   8.615  1.0616  0.2578 -1.7722
 8797SOL     OW37852   1.515   1.896   7.704 -0.3194 -0.0460 -0.0064
 8797SOL    HW137853   1.608   1.897   7.728 -0.4616  0.9877  0.5042
 8797SOL    HW237854   1.511   1.915   7.610 -1.4278  0.5829  0.1728
 8798SOL     OW37855   2.069   3.478   2.396  0.8047  0.5007  0.1704
 8798SOL    HW137856   2.051   3.403   2.340  0.8071 -0.0821  0.9519
 8798SOL    HW237857   2.081   3.556   2.342  0.0910  1.7273  1.7752
 8799SOL     OW37858   1.272   2.654   7.181  0.5922  0.1368  0.1480
 8799SOL    HW137859   1.207   2.686   7.120  0.3052 -1.5952 -0.4538
 8799SOL    HW237860   1.246   2.562   7.190  0.3296  0.1709 -0.3076
 8800SOL     OW37861   3.288   2.334   7.657 -0.4697  0.6524  0.5801
 8800SOL    HW137862   3.313   2.417   7.617  0.0804  1.0152  1.6509
 8800SOL    HW237863   3.193   2.333   7.646 -0.9032  2.4373  3.9121
 8801SOL     OW37864   2.450   3.926   7.696 -0.1300 -0.0467 -0.4076
 8801SOL    HW137865   2.475   4.006   7.651 -1.7923  0.0122 -1.2138
 8801SOL    HW237866   2.479   3.943   7.785 -0.4841  0.7363 -0.4466
 8802SOL     OW37867   1.172   2.006   5.318  0.7198 -0.0627 -0.5479
 8802SOL    HW137868   1.114   2.074   5.284 -0.2090  0.6744  2.4670
 8802SOL    HW237869   1.110   1.941   5.351 -1.6026  1.9786 -0.9236
 8803SOL     OW37870   1.719   0.288  11.553  0.0659 -0.0403 -0.5038
 8803SOL    HW137871   1.808   0.321  11.553 -0.6957  1.9617 -2.4168
 8803SOL    HW237872   1.690   0.307  11.643  1.1085 -0.5962 -0.0445
 8804SOL     OW37873   1.696   4.544   7.008 -0.1433 -0.5007 -0.3647
 8804SOL    HW137874   1.710   4.618   6.949 -0.7702  0.0785  0.2025
 8804SOL    HW237875   1.646   4.586   7.079  0.0947 -0.7751 -0.0340
 8805SOL     OW37876   4.591   2.066   5.246  0.0893  0.2879 -0.2649
 8805SOL    HW137877   4.614   2.156   5.269  1.6327  0.2326 -1.6271
 8805SOL    HW237878   4.537   2.043   5.322 -0.6260 -1.4339 -1.2771
 8806SOL     OW37879   4.402   0.665   3.286 -0.2168 -0.6478  0.4205
 8806SOL    HW137880   4.422   0.622   3.203  1.5754  1.9983 -0.5274
 8806SOL    HW237881   4.462   0.739   3.293  0.2094 -1.0959  1.6053
 8807SOL     OW37882   1.932   1.964  13.039  0.1965  0.2788 -0.8381
 8807SOL    HW137883   1.896   1.898  12.981  0.6413 -0.6303 -0.0875
 8807SOL    HW237884   1.851   2.005  13.069  0.7854  1.8137 -1.3143
 8808SOL     OW37885   0.243   2.970   3.230 -0.4841  0.2316  0.6469
 8808SOL    HW137886   0.303   2.972   3.304 -0.4747  2.2513  0.5925
 8808SOL    HW237887   0.205   3.058   3.242  1.2747  0.9346  1.0582
 8809SOL     OW37888   0.571   4.559   8.795  0.5058  0.0993  0.0881
 8809SOL    HW137889   0.551   4.466   8.791  2.2863 -0.3425  1.5413
 8809SOL    HW237890   0.625   4.582   8.719  1.0164 -0.8522  0.1692
 8810SOL     OW37891   4.506   1.224  11.102  0.1110  0.0056 -0.0783
 8810SOL    HW137892   4.577   1.276  11.065  2.7817 -3.0878  0.6853
 8810SOL    HW237893   4.541   1.199  11.188  0.6711 -2.7017 -1.1018
 8811SOL     OW37894   3.397   1.921   7.313  0.2001 -0.4496 -0.0146
 8811SOL    HW137895   3.388   2.001   7.364 -1.5677 -0.6363 -0.0278
 8811SOL    HW237896   3.349   1.937   7.232  1.2324 -3.6773 -1.2334
 8812SOL     OW37897   2.831   4.678  12.358 -0.5542  0.2942  0.0568
 8812SOL    HW137898   2.833   4.586  12.382 -0.6687  0.1814 -0.3581
 8812SOL    HW237899   2.790   4.713  12.437  0.3398  1.9961 -0.2214
 8813SOL     OW37900   3.008   2.596   1.100  0.1345  0.5579 -0.3268
 8813SOL    HW137901   3.030   2.608   1.192  0.8166 -1.2435 -0.2596
 8813SOL    HW237902   3.084   2.642   1.065  0.6847  0.6831  1.0239
 8814SOL     OW37903   1.002   1.968   3.314 -0.7509 -0.3732  0.3034
 8814SOL    HW137904   1.069   2.031   3.340 -1.3853  0.2594  0.4411
 8814SOL    HW237905   1.009   1.905   3.386 -0.6032  1.0228  1.5189
 8815SOL     OW37906   0.342   3.368  17.550 -0.3408  0.5046  0.2227
 8815SOL    HW137907   0.294   3.336  17.627 -3.7968  1.5585 -1.4693
 8815SOL    HW237908   0.435   3.356  17.568 -0.1582  0.3304 -0.8532
 8816SOL     OW37909   2.440   4.344  17.109 -0.1046  0.2470  0.0857
 8816SOL    HW137910   2.478   4.394  17.182  1.1288  1.6382 -1.5097
 8816SOL    HW237911   2.363   4.399  17.100 -0.0917  0.1424 -0.6557
 8817SOL     OW37912   3.621   2.336   5.566 -0.0808 -0.1543  0.1303
 8817SOL    HW137913   3.710   2.355   5.597 -0.5549 -0.4037  1.6199
 8817SOL    HW237914   3.589   2.262   5.617  2.8071 -1.5546 -0.0653
 8818SOL     OW37915   1.729   3.805   0.255  0.1658  0.2403 -0.4213
 8818SOL    HW137916   1.741   3.740   0.186 -3.6208  1.1630 -1.9336
 8818SOL    HW237917   1.817   3.825   0.285 -0.3009  0.3977  0.8439
 8819SOL     OW37918   0.812   2.546  10.792  0.0667 -0.1867  0.4224
 8819SOL    HW137919   0.854   2.615  10.843  0.7723  0.3454 -0.8815
 8819SOL    HW237920   0.718   2.565  10.791 -0.2202 -1.5545  1.8966
 8820SOL     OW37921   4.115   0.415   5.085  0.3519 -0.0985  0.1179
 8820SOL    HW137922   4.154   0.327   5.086 -0.2675 -0.3775 -0.0249
 8820SOL    HW237923   4.184   0.465   5.127  1.4708  0.0196 -1.8401
 8821SOL     OW37924   4.056   3.209   9.880 -0.1944 -0.5240 -0.4618
 8821SOL    HW137925   4.097   3.283   9.924  0.6273  0.0829 -2.2219
 8821SOL    HW237926   3.969   3.245   9.863 -0.1624 -0.2844 -0.1146
 8822SOL     OW37927   1.276   4.025   7.462  0.0263  0.2713  0.0304
 8822SOL    HW137928   1.366   3.991   7.461 -0.0433  0.0764  0.3551
 8822SOL    HW237929   1.236   3.957   7.516 -0.0947 -0.8758 -1.4977
 8823SOL     OW37930   2.903   3.283   8.915 -0.2063  0.3817 -0.0981
 8823SOL    HW137931   2.875   3.353   8.975  1.5731  0.0006  1.1526
 8823SOL    HW237932   2.996   3.300   8.902 -0.6241  1.0091 -2.2758
 8824SOL     OW37933   4.600   1.284   5.218 -0.4913 -0.3644  0.1088
 8824SOL    HW137934   4.620   1.337   5.296  0.7721 -1.4166  0.5062
 8824SOL    HW237935   4.573   1.355   5.160 -1.0871  1.4227  2.5760
 8825SOL     OW37936   1.454   3.037   2.832 -0.5387 -0.2757 -0.6326
 8825SOL    HW137937   1.388   2.995   2.777 -1.5768  0.5930 -0.0481
 8825SOL    HW237938   1.407   3.107   2.878 -3.4267 -2.5775 -0.1091
 8826SOL     OW37939   1.144   2.819  13.429  0.1168 -0.1071  0.2883
 8826SOL    HW137940   1.067   2.763  13.420 -0.5197  0.7271  0.6093
 8826SOL    HW237941   1.110   2.905  13.406  0.2640  0.1229  0.9230
 8827SOL     OW37942   2.935   4.134   3.663 -0.3785  0.5835 -0.0932
 8827SOL    HW137943   2.872   4.087   3.609  0.8350 -0.3869 -0.6667
 8827SOL    HW237944   3.003   4.067   3.657  1.7912  2.9144 -1.4041
 8828SOL     OW37945   4.132   2.473   8.845  0.4430  0.2364  0.0241
 8828SOL    HW137946   4.123   2.473   8.750 -1.8055 -1.5242  0.2292
 8828SOL    HW237947   4.207   2.414   8.847  1.1193  1.0679 -0.8937
 8829SOL     OW37948   3.008   4.552   8.131 -0.5644 -0.5071 -0.0907
 8829SOL    HW137949   3.011   4.646   8.110 -1.4072 -0.6187 -0.6958
 8829SOL    HW237950   3.060   4.539   8.210 -0.1039 -3.7994 -0.9159
 8830SOL     OW37951   1.350   1.769  15.053 -0.3568 -0.7319  0.1267
 8830SOL    HW137952   1.409   1.790  14.981  0.2510 -0.8484  0.5978
 8830SOL    HW237953   1.283   1.730  14.995 -1.7371 -1.4842  2.2429
 8831SOL     OW37954   2.276   1.234  16.273 -0.3281 -0.3357  0.0646
 8831SOL    HW137955   2.243   1.144  16.269  0.6687 -0.7463  1.0161
 8831SOL    HW237956   2.303   1.246  16.364  2.9714 -0.3051 -0.9359
 8832SOL     OW37957   1.337   3.013   5.500 -0.3378  0.2326 -0.1320
 8832SOL    HW137958   1.421   3.035   5.461 -1.4544  2.1423 -1.4445
 8832SOL    HW237959   1.286   3.077   5.451 -1.0908 -0.9661 -0.9048
 8833SOL     OW37960   1.674   3.742   2.204 -0.4244 -0.5807  0.5725
 8833SOL    HW137961   1.640   3.807   2.265 -0.5896 -0.4813  0.3768
 8833SOL    HW237962   1.653   3.656   2.239 -2.0674 -0.3162  0.2485
 8834SOL     OW37963   3.545   3.245   3.470  0.9687 -0.0064  0.2776
 8834SOL    HW137964   3.481   3.249   3.541  1.2089 -0.3579  0.5148
 8834SOL    HW237965   3.495   3.193   3.407 -0.2746 -0.3381  1.5452
 8835SOL     OW37966   3.081   4.219  16.827 -0.5988  0.1973 -0.0212
 8835SOL    HW137967   2.988   4.238  16.812 -0.5079  0.1428 -0.6403
 8835SOL    HW237968   3.083   4.126  16.803  0.3260  0.5037 -1.1016
 8836SOL     OW37969   4.493   0.463  14.114 -0.4025 -0.3635  0.1318
 8836SOL    HW137970   4.527   0.375  14.093  0.9135  0.3390 -0.6854
 8836SOL    HW237971   4.579   0.502  14.131 -0.0891 -1.0122  0.0672
 8837SOL     OW37972   2.417   3.077  10.823  0.0688  0.4402  0.3828
 8837SOL    HW137973   2.497   3.042  10.786  0.3846  1.1430  0.4073
 8837SOL    HW237974   2.391   3.141  10.756 -1.4184 -0.3681  0.1708
 8838SOL     OW37975   3.439   0.551   6.515 -0.1565 -0.1525  0.4874
 8838SOL    HW137976   3.476   0.519   6.432 -1.4820 -1.0090  0.2318
 8838SOL    HW237977   3.496   0.626   6.533  1.4824 -0.9647 -1.1831
 8839SOL     OW37978   1.481   0.021  13.996  0.2020  0.2496 -0.9952
 8839SOL    HW137979   1.457   4.696  14.075 -0.2441  0.2495 -1.1290
 8839SOL    HW237980   1.524   4.674  13.947  0.3866  0.9954 -1.8977
 8840SOL     OW37981   0.172   1.996   3.409  0.3274  0.4370 -0.2614
 8840SOL    HW137982   0.250   2.043   3.438 -0.7767  1.5823  0.8325
 8840SOL    HW237983   0.151   2.040   3.327  1.3803 -2.4632 -2.0996
 8841SOL     OW37984   1.352   2.631   6.754  0.4429 -0.9823  0.3827
 8841SOL    HW137985   1.382   2.712   6.712 -1.0118  0.1468  1.4792
 8841SOL    HW237986   1.301   2.670   6.825  0.1344 -0.1782 -0.2766
 8842SOL     OW37987   3.481   0.850   4.320 -0.3792  0.4667  0.5443
 8842SOL    HW137988   3.538   0.773   4.318  0.9002  1.3955  1.4406
 8842SOL    HW237989   3.396   0.825   4.357 -0.1225 -0.5570  0.4345
 8843SOL     OW37990   2.855   4.295  16.643 -0.5406  0.1890 -0.2445
 8843SOL    HW137991   2.765   4.327  16.648  0.7177  3.7489 -0.3951
 8843SOL    HW237992   2.902   4.371  16.677 -1.1225  0.6838 -0.5454
 8844SOL     OW37993   3.477   4.113   3.454  0.0968 -0.5090  0.1268
 8844SOL    HW137994   3.539   4.180   3.425  0.6712 -0.5176  1.3276
 8844SOL    HW237995   3.532   4.035   3.449  0.0724 -0.5679  0.7112
 8845SOL     OW37996   3.065   0.022   7.700  0.2285 -0.0257  0.3687
 8845SOL    HW137997   3.065   4.676   7.633  1.4472  0.3867 -0.0611
 8845SOL    HW237998   2.976   0.010   7.733 -0.4580 -2.7894 -2.4255
 8846SOL     OW37999   3.675   2.208   2.471  0.5368  0.7228 -0.5504
 8846SOL    HW138000   3.686   2.269   2.398  1.9049  1.1254  0.0011
 8846SOL    HW238001   3.761   2.168   2.469  0.5691  0.7380  0.3899
 8847SOL     OW38002   0.006   3.757   4.614 -0.0883 -0.6091  0.1936
 8847SOL    HW138003   0.031   3.715   4.531  3.1306  1.1011  0.3099
 8847SOL    HW238004   4.663   3.694   4.644 -1.7695  1.3320  0.5547
 8848SOL     OW38005   3.730   1.198   1.771 -0.2870  1.1507  0.1225
 8848SOL    HW138006   3.684   1.268   1.818  0.6693  1.0402  1.2221
 8848SOL    HW238007   3.652   1.172   1.722  3.1777 -1.5078 -3.9611
 8849SOL     OW38008   2.834   0.044   7.854  0.6411 -0.6731 -0.1697
 8849SOL    HW138009   2.893   0.062   7.926  0.9722  0.1105 -0.6396
 8849SOL    HW238010   2.757   0.098   7.873 -0.5953 -2.2680 -0.6362
 8850SOL     OW38011   0.262   1.901  12.722 -0.7188 -0.1536  0.3856
 8850SOL    HW138012   0.269   1.992  12.752  1.6428  0.0084 -0.6300
 8850SOL    HW238013   0.185   1.872  12.770 -0.3737  0.8931  1.5809
 8851SOL     OW38014   4.223   3.122   2.633  0.4743 -0.4862  0.2617
 8851SOL    HW138015   4.139   3.152   2.669 -0.0123  2.3566 -3.2903
 8851SOL    HW238016   4.221   3.026   2.639 -1.6913 -0.5110 -0.9787
 8852SOL     OW38017   3.737   3.599   9.183 -0.1368 -0.4075 -0.8331
 8852SOL    HW138018   3.812   3.636   9.229  0.2617 -2.2663  0.0138
 8852SOL    HW238019   3.746   3.655   9.106 -2.0656 -0.6486 -1.2468
 8853SOL     OW38020   1.291   1.577   0.112 -0.0945  0.0215  0.2849
 8853SOL    HW138021   1.370   1.591   0.163  0.6731  1.0252 -1.1865
 8853SOL    HW238022   1.322   1.526   0.037 -2.3677  0.7510 -1.1672
 8854SOL     OW38023   0.392   1.027   4.390 -0.0635 -0.0863  0.1796
 8854SOL    HW138024   0.440   1.107   4.414 -0.9568  0.3695  0.4267
 8854SOL    HW238025   0.403   1.032   4.295  0.6223 -0.5477  0.2330
 8855SOL     OW38026   2.544   1.005   4.605 -0.4271  0.7847 -0.1143
 8855SOL    HW138027   2.568   1.094   4.630  0.6234  0.8096 -1.2238
 8855SOL    HW238028   2.462   1.025   4.560 -0.9486  0.1038  0.5246
 8856SOL     OW38029   0.462   2.722  11.099  0.3056  0.1934  0.4495
 8856SOL    HW138030   0.556   2.739  11.107  0.0767  2.3785 -1.8477
 8856SOL    HW238031   0.455   2.666  11.022 -1.1279 -1.2406  1.6152
 8857SOL     OW38032   2.732   4.111   4.859  0.0176  0.4173 -0.5205
 8857SOL    HW138033   2.637   4.115   4.845 -0.3859 -3.0059  1.1905
 8857SOL    HW238034   2.756   4.038   4.802  0.3228 -0.6458  0.9897
 8858SOL     OW38035   1.048   3.304   8.299  0.6600 -0.1016  0.6128
 8858SOL    HW138036   1.054   3.328   8.391 -1.7197 -2.3149  1.3217
 8858SOL    HW238037   1.014   3.215   8.297  1.6740 -0.4730  0.0597
 8859SOL     OW38038   2.027   1.570   7.127  0.7131 -0.1788  1.2049
 8859SOL    HW138039   2.094   1.504   7.144  1.0555  0.0762  0.8508
 8859SOL    HW238040   2.022   1.563   7.032  1.6921  1.4394  1.0317
 8860SOL     OW38041   1.937   3.197  13.332  0.3445  0.5399  0.0687
 8860SOL    HW138042   1.981   3.242  13.404  0.7610  0.7024 -0.2904
 8860SOL    HW238043   1.979   3.112  13.328 -2.1833 -0.8139  2.0054
 8861SOL     OW38044   4.262   3.279  10.173  0.2796  0.8572 -0.0644
 8861SOL    HW138045   4.228   3.355  10.220 -0.9767 -0.2825  0.8672
 8861SOL    HW238046   4.228   3.291  10.084  0.4446  1.2847 -0.0705
 8862SOL     OW38047   0.242   4.214   2.501 -0.2707  0.1265  0.1335
 8862SOL    HW138048   0.308   4.276   2.533 -0.6258  0.6948 -0.2177
 8862SOL    HW238049   0.296   4.164   2.440 -0.5670 -1.7825  1.4583
 8863SOL     OW38050   3.229   3.962  16.476  0.6217 -0.4086  0.4342
 8863SOL    HW138051   3.145   3.927  16.446 -0.0693  2.0840 -0.5422
 8863SOL    HW238052   3.274   3.881  16.496 -0.3096 -1.2400 -0.8497
 8864SOL     OW38053   0.883   1.785   2.086  0.4655  0.1239 -0.3566
 8864SOL    HW138054   0.911   1.782   1.994 -0.9853 -1.6153 -0.7519
 8864SOL    HW238055   0.808   1.724   2.084 -1.7288  2.8121  0.5125
 8865SOL     OW38056   0.585   0.748  16.281  0.5559  0.5374  0.2790
 8865SOL    HW138057   0.541   0.790  16.207 -0.4384 -1.8469 -0.5001
 8865SOL    HW238058   0.679   0.765  16.282  0.6829 -0.1679  0.5591
 8866SOL     OW38059   1.950   2.233  10.774  0.2231  0.0743  0.0197
 8866SOL    HW138060   1.923   2.153  10.728 -1.5490  1.1950 -0.8974
 8866SOL    HW238061   2.010   2.196  10.839 -0.2590  0.0743  0.4665
 8867SOL     OW38062   3.041   1.738  16.129  0.2502 -0.0497 -0.6619
 8867SOL    HW138063   3.081   1.824  16.113 -0.1976  0.7531  2.5915
 8867SOL    HW238064   3.099   1.680  16.079  0.9290 -0.4366  0.5818
 8868SOL     OW38065   0.182   1.027   8.451 -0.3395  0.1243  0.1648
 8868SOL    HW138066   0.190   1.069   8.365 -0.1400  1.6750  0.9422
 8868SOL    HW238067   0.274   1.006   8.464 -0.0958  0.2078 -1.4260
 8869SOL     OW38068   2.261   4.398   9.283 -0.4724  0.0979  0.3607
 8869SOL    HW138069   2.190   4.362   9.231 -1.0453  1.2501  0.3401
 8869SOL    HW238070   2.282   4.466   9.219  0.8118 -0.8380 -0.2076
 8870SOL     OW38071   2.458   1.104   4.188 -0.4949 -0.1729 -0.1311
 8870SOL    HW138072   2.450   1.148   4.104 -0.4191 -0.4393 -0.2775
 8870SOL    HW238073   2.407   1.024   4.174  0.9067 -0.8224 -1.4756
 8871SOL     OW38074   2.210   1.317   7.598 -0.4563  0.2279 -0.2573
 8871SOL    HW138075   2.229   1.229   7.566 -2.5133 -0.5046  0.5323
 8871SOL    HW238076   2.163   1.295   7.678 -0.4156  2.9076  0.5054
 8872SOL     OW38077   1.568   1.057  15.972 -0.4300  0.3046 -0.5557
 8872SOL    HW138078   1.605   1.143  15.993  1.7299 -0.3093 -1.8090
 8872SOL    HW238079   1.568   1.013  16.057  0.2104  0.2721 -0.5692
 8873SOL     OW38080   4.294   0.764  14.394 -0.3981 -0.3572 -0.0275
 8873SOL    HW138081   4.244   0.834  14.436  1.9317  1.9005 -0.9831
 8873SOL    HW238082   4.385   0.776  14.421 -0.2919 -2.5183  0.6203
 8874SOL     OW38083   2.431   2.828   6.433 -0.1026 -0.1894  0.2457
 8874SOL    HW138084   2.499   2.845   6.367 -0.5282 -0.3485 -0.2382
 8874SOL    HW238085   2.353   2.832   6.378 -0.1173 -1.6130  0.1598
 8875SOL     OW38086   2.350   1.099   3.766  0.2037 -0.2612  0.3062
 8875SOL    HW138087   2.389   1.154   3.697 -0.5687  0.9955  0.8833
 8875SOL    HW238088   2.409   1.112   3.840  0.4119 -0.2497  0.1407
 8876SOL     OW38089   3.700   1.522   4.145  0.6491 -0.1409 -0.0273
 8876SOL    HW138090   3.629   1.475   4.190  0.2848 -0.6493 -1.1489
 8876SOL    HW238091   3.747   1.573   4.212  1.3697 -0.1516 -0.5279
 8877SOL     OW38092   2.282   2.176   3.678  0.1700  0.0520  0.2678
 8877SOL    HW138093   2.224   2.100   3.682 -1.5995  1.3195 -0.8094
 8877SOL    HW238094   2.261   2.236   3.750 -0.1900  0.0126  0.1946
 8878SOL     OW38095   3.844   1.570   6.353 -0.6516 -0.0910  0.1471
 8878SOL    HW138096   3.764   1.569   6.404 -0.1212 -0.6086  0.9626
 8878SOL    HW238097   3.869   1.655   6.390  1.0884 -0.7246  0.4207
 8879SOL     OW38098   4.575   2.478   6.124  0.4294  0.0160  0.2865
 8879SOL    HW138099   4.542   2.538   6.190 -2.4727 -0.1558 -1.0293
 8879SOL    HW238100   4.666   2.506   6.111 -0.0482  0.9526 -1.0802
 8880SOL     OW38101   4.080   4.436   6.928  0.4752  0.2475 -0.4635
 8880SOL    HW138102   4.167   4.474   6.939 -0.0804  1.3682  0.1154
 8880SOL    HW238103   4.055   4.466   6.840 -1.8044  0.4179  0.2261
 8881SOL     OW38104   4.315   0.524  12.736  0.4385  0.0167 -0.3883
 8881SOL    HW138105   4.231   0.547  12.777  0.4080 -0.3853 -0.2202
 8881SOL    HW238106   4.340   0.443  12.781 -0.5157  0.6174  1.2177
 8882SOL     OW38107   3.957   2.930  10.799  0.0883 -0.2986 -0.2616
 8882SOL    HW138108   3.935   2.885  10.880 -0.0753 -0.7104 -0.5352
 8882SOL    HW238109   4.052   2.938  10.808 -0.0142  1.3018 -0.5554
 8883SOL     OW38110   4.010   1.184   6.648  0.0118 -0.6189  0.3628
 8883SOL    HW138111   4.064   1.205   6.571  1.2547 -0.2456  1.3396
 8883SOL    HW238112   3.953   1.260   6.644  0.5067 -0.1801  1.6671
 8884SOL     OW38113   1.480   4.515   6.311 -0.0723  0.5837 -0.0036
 8884SOL    HW138114   1.497   4.537   6.403 -0.0302  0.4773  0.0143
 8884SOL    HW238115   1.543   4.575   6.271 -1.4123  0.8950 -1.6070
 8885SOL     OW38116   1.437   0.371  11.714  0.1602 -0.4795 -0.1387
 8885SOL    HW138117   1.446   0.276  11.704  2.0759  0.1478 -4.3026
 8885SOL    HW238118   1.375   0.374  11.788  0.3724  1.5458 -0.0296
 8886SOL     OW38119   0.960   1.771   5.855  0.1948 -0.0206 -0.7221
 8886SOL    HW138120   0.912   1.831   5.798  0.3982 -0.4647 -1.3576
 8886SOL    HW238121   0.900   1.749   5.927 -1.9936  4.0433 -1.3305
 8887SOL     OW38122   3.642   3.890   8.169  0.5803  0.0501 -0.0687
 8887SOL    HW138123   3.733   3.913   8.187 -0.0040  1.9157  0.4979
 8887SOL    HW238124   3.608   3.870   8.256  3.4265 -0.7503  0.8350
 8888SOL     OW38125   0.903   3.353   5.224 -0.0697 -0.4243 -0.2101
 8888SOL    HW138126   0.872   3.389   5.307 -2.0495 -0.4345 -0.9459
 8888SOL    HW238127   0.813   3.352   5.191 -0.6464  2.3561  1.2399
 8889SOL     OW38128   1.144   2.486   5.321 -0.7065 -0.3103 -0.0054
 8889SOL    HW138129   1.081   2.414   5.329  1.6807 -2.4795 -0.4881
 8889SOL    HW238130   1.165   2.491   5.227  0.3109 -0.5874  0.2088
 8890SOL     OW38131   3.077   3.683   8.355 -0.3124  0.2849 -0.2121
 8890SOL    HW138132   3.131   3.724   8.287 -0.2180  0.0104 -0.3009
 8890SOL    HW238133   3.142   3.689   8.425 -1.5827 -1.2782  1.0787
 8891SOL     OW38134   1.658   0.826   7.058  0.1011 -0.0795  0.3315
 8891SOL    HW138135   1.608   0.887   7.004  0.1576 -0.3764 -0.0560
 8891SOL    HW238136   1.613   0.743   7.039 -1.7203  0.6078  1.6574
 8892SOL     OW38137   3.698   3.414  17.282  0.1833  0.0947  0.5483
 8892SOL    HW138138   3.745   3.494  17.256  1.0114  0.0357  1.8822
 8892SOL    HW238139   3.742   3.354  17.222  0.2573  0.6185  0.0745
 8893SOL     OW38140   2.871   0.448   0.879 -0.2337 -0.4597 -0.0650
 8893SOL    HW138141   2.874   0.531   0.833 -0.5184 -0.6757 -0.4745
 8893SOL    HW238142   2.864   0.384   0.809  1.4049  0.2490 -0.8558
 8894SOL     OW38143   0.062   3.879  14.739 -0.2988  0.4154 -0.3042
 8894SOL    HW138144   4.697   3.841  14.740  0.5098 -1.4460  0.1185
 8894SOL    HW238145   0.113   3.815  14.689  0.8499  1.6538 -0.7082
 8895SOL     OW38146   1.639   1.099   3.995  0.2638 -0.0504 -0.3082
 8895SOL    HW138147   1.547   1.125   4.006  0.3187  0.4527 -1.0224
 8895SOL    HW238148   1.632   1.017   3.948 -0.0085  0.3916 -1.0342
 8896SOL     OW38149   0.707   3.040   3.553  0.4107 -0.1395  0.0618
 8896SOL    HW138150   0.630   3.096   3.570 -0.8864 -2.1385  0.8370
 8896SOL    HW238151   0.780   3.096   3.577 -0.9511  0.3637  3.0788
 8897SOL     OW38152   3.796   3.964   5.456 -0.7973  0.2103  0.5369
 8897SOL    HW138153   3.749   3.881   5.450 -0.9659  0.2847  0.8124
 8897SOL    HW238154   3.882   3.936   5.423 -2.2350 -1.6328 -1.6670
 8898SOL     OW38155   0.138   4.158  14.535 -0.1631  0.4340  0.2519
 8898SOL    HW138156   0.156   4.220  14.464 -2.1174  0.3121 -0.3353
 8898SOL    HW238157   0.217   4.172  14.588  0.3074  3.0160 -1.1263
 8899SOL     OW38158   2.234   1.665   6.227 -0.0900  0.7836  0.4222
 8899SOL    HW138159   2.163   1.650   6.165 -0.4157  1.9170  0.5290
 8899SOL    HW238160   2.183   1.661   6.307 -0.6504  0.0911  0.0298
 8900SOL     OW38161   4.539   3.087   1.212  0.2900  0.1222  0.3326
 8900SOL    HW138162   4.447   3.112   1.221  0.5897  1.7687 -1.1091
 8900SOL    HW238163   4.587   3.164   1.181  0.2145  0.8031  1.9135
 8901SOL     OW38164   4.288   4.053   7.202 -0.2255 -0.0542 -0.4676
 8901SOL    HW138165   4.261   4.059   7.293 -0.8052  2.5295 -0.7977
 8901SOL    HW238166   4.219   4.111   7.170  1.7737  2.1159 -0.8951
 8902SOL     OW38167   0.245   2.129  12.857  0.0602 -0.3250  0.4255
 8902SOL    HW138168   0.267   2.156  12.946 -1.8125 -1.0725  1.1240
 8902SOL    HW238169   0.240   2.211  12.808 -3.0044 -1.3354 -1.0013
 8903SOL     OW38170   4.709   1.924   5.551  0.1217 -0.1072  0.7292
 8903SOL    HW138171   0.081   1.938   5.557  0.7025 -2.1118 -3.8658
 8903SOL    HW238172   4.683   1.937   5.642  1.4936  0.8090  0.9925
 8904SOL     OW38173   1.907   2.020  11.006  0.4531 -0.9697 -0.1333
 8904SOL    HW138174   1.991   2.062  10.988  0.1376  0.7181  2.4090
 8904SOL    HW238175   1.885   2.068  11.086 -1.8566 -3.2320  0.6050
 8905SOL     OW38176   3.616   3.708   2.882  0.1556  0.2033  0.2440
 8905SOL    HW138177   3.641   3.680   2.794 -0.2834 -2.7849  1.0553
 8905SOL    HW238178   3.690   3.694   2.941 -0.5194  1.4156  1.3860
 8906SOL     OW38179   1.972   3.631   4.370 -0.8907 -1.2958  0.0736
 8906SOL    HW138180   1.942   3.716   4.402  0.5250 -0.1131 -1.7041
 8906SOL    HW238181   1.944   3.645   4.280  0.3334 -2.2660 -0.4516
 8907SOL     OW38182   1.218   3.077   2.560 -0.6500 -0.1129  0.0554
 8907SOL    HW138183   1.131   3.116   2.559 -1.2188 -1.4072 -1.1099
 8907SOL    HW238184   1.257   3.148   2.611  1.3044 -1.5956  0.6289
 8908SOL     OW38185   3.802   0.334   7.620 -0.4844 -0.1523 -0.0276
 8908SOL    HW138186   3.877   0.326   7.680 -0.0082 -1.8292 -0.8222
 8908SOL    HW238187   3.731   0.293   7.670 -1.4629  0.2343 -1.1039
 8909SOL     OW38188   2.967   3.862   4.836 -0.1277 -0.1008 -0.0442
 8909SOL    HW138189   2.904   3.835   4.903 -1.6955 -0.4822 -1.6703
 8909SOL    HW238190   2.911   3.901   4.770 -0.3323  1.4697  1.0540
 8910SOL     OW38191   4.449   4.243   9.190 -0.7406  0.2043 -0.5399
 8910SOL    HW138192   4.465   4.239   9.285  1.2637 -3.2414 -1.0316
 8910SOL    HW238193   4.377   4.180   9.193 -0.3195 -0.1641  1.7306
 8911SOL     OW38194   4.628   4.096   4.118  0.0638  0.3146 -0.1474
 8911SOL    HW138195   4.603   4.010   4.151 -0.2818 -0.6376 -2.9470
 8911SOL    HW238196   0.000   4.082   4.119 -0.0775 -0.6202 -0.4614
 8912SOL     OW38197   1.311   2.538   2.783  0.2257 -0.6347 -0.0886
 8912SOL    HW138198   1.312   2.607   2.849 -1.0859 -1.8790  1.2425
 8912SOL    HW238199   1.258   2.472   2.828 -1.4787 -0.3285 -1.6700
 8913SOL     OW38200   3.351   0.760   7.026  0.1103  0.2634  0.2066
 8913SOL    HW138201   3.372   0.847   6.993  1.4065  0.5343  1.7667
 8913SOL    HW238202   3.316   0.780   7.113 -0.3341 -2.7119  0.7244
 8914SOL     OW38203   4.464   4.409   4.803 -0.6090 -0.1195 -0.2564
 8914SOL    HW138204   4.532   4.377   4.745  0.4034  2.4129 -0.4819
 8914SOL    HW238205   4.488   4.502   4.809  0.3836 -0.5149  1.6688
 8915SOL     OW38206   1.080   2.749   0.215 -0.1118  0.1286 -0.1583
 8915SOL    HW138207   0.987   2.742   0.235 -0.3533  0.5327 -1.1441
 8915SOL    HW238208   1.099   2.812   0.285 -1.0468 -0.6489  0.7950
 8916SOL     OW38209   3.391   3.784  10.310  0.4858 -0.3700 -0.5607
 8916SOL    HW138210   3.328   3.718  10.338  1.9441 -0.9000  1.4470
 8916SOL    HW238211   3.342   3.863  10.334 -1.4958 -1.5389 -0.7747
 8917SOL     OW38212   1.470   1.379   7.330  0.1507 -0.3573 -0.1242
 8917SOL    HW138213   1.387   1.334   7.315 -1.7062  2.7998  0.6283
 8917SOL    HW238214   1.528   1.309   7.300  0.9099 -0.9405  2.7242
 8918SOL     OW38215   1.757   3.362   1.049  0.3244 -0.0026 -0.0325
 8918SOL    HW138216   1.784   3.356   1.141  1.8092  2.8091 -0.2692
 8918SOL    HW238217   1.802   3.441   1.018 -2.2986  1.5665  0.2184
 8919SOL     OW38218   1.931   2.792   5.582  0.6716  0.6954  0.8675
 8919SOL    HW138219   1.952   2.747   5.664  0.6573  0.9293  0.9978
 8919SOL    HW238220   1.942   2.731   5.509 -0.7999  0.2086  1.0325
 8920SOL     OW38221   1.955   3.416   5.762  0.8454 -0.4089  0.1732
 8920SOL    HW138222   1.980   3.495   5.713  1.5356  0.1922  1.4917
 8920SOL    HW238223   2.042   3.391   5.792  1.1501  0.2720 -0.1363
 8921SOL     OW38224   2.152   0.930  11.720 -0.4779 -0.1469 -0.0457
 8921SOL    HW138225   2.095   1.001  11.689 -0.8724 -0.3031  0.3347
 8921SOL    HW238226   2.189   0.909  11.634 -0.4615 -0.9376  0.1510
 8922SOL     OW38227   1.050   2.986   4.862 -0.0585  0.4851 -0.0612
 8922SOL    HW138228   0.985   3.053   4.881  2.7890  3.0215  0.6869
 8922SOL    HW238229   1.068   3.010   4.771  0.7525  0.7548  0.1650
 8923SOL     OW38230   3.311   0.374   9.954 -0.1714  0.5629 -0.1043
 8923SOL    HW138231   3.243   0.389  10.019 -0.4338  1.4205 -0.5675
 8923SOL    HW238232   3.335   0.286   9.983  1.6309 -0.2794 -4.1135
 8924SOL     OW38233   1.619   2.169   2.685  0.2847  0.4816  0.5569
 8924SOL    HW138234   1.546   2.108   2.673 -0.5948  1.2292  2.2486
 8924SOL    HW238235   1.578   2.255   2.678 -0.2774  0.0133 -2.1693
 8925SOL     OW38236   1.757   0.902   3.561  0.3911  0.5222 -0.2947
 8925SOL    HW138237   1.693   0.900   3.490  1.6320 -1.5672 -1.3370
 8925SOL    HW238238   1.703   0.924   3.637  0.0500 -1.3443 -0.0113
 8926SOL     OW38239   2.391   3.566  11.393 -0.2598  0.3732  0.5023
 8926SOL    HW138240   2.362   3.508  11.323 -1.3900  0.8622  0.5762
 8926SOL    HW238241   2.483   3.541  11.386 -0.5288 -0.1151 -1.2554
 8927SOL     OW38242   4.689   3.023   7.183 -0.0128 -1.1094 -0.3514
 8927SOL    HW138243   0.009   2.963   7.244 -1.5933 -0.2299  1.6101
 8927SOL    HW238244   4.603   3.035   7.222 -0.1046 -0.2854 -0.7968
 8928SOL     OW38245   4.388   2.165   5.471 -0.2575 -0.0321  0.5518
 8928SOL    HW138246   4.353   2.248   5.438  1.3378  0.4043 -0.0189
 8928SOL    HW238247   4.315   2.109   5.445  0.2010  0.1622 -1.1856
 8929SOL     OW38248   1.726   4.691  12.399 -0.0781  0.3392 -0.3646
 8929SOL    HW138249   1.773   4.616  12.361  0.0746  1.0850 -1.6350
 8929SOL    HW238250   1.732   4.684  12.495  1.1514 -0.7571 -0.5194
 8930SOL     OW38251   2.598   0.212  14.051 -0.5225  0.0590 -0.0389
 8930SOL    HW138252   2.556   0.247  13.972  0.6056 -0.7046 -0.9833
 8930SOL    HW238253   2.656   0.157  13.999 -1.0227  1.5307 -2.1650
 8931SOL     OW38254   0.021   4.022  13.661 -0.2543  0.0749 -0.0818
 8931SOL    HW138255   0.038   3.928  13.651  2.8375  0.6800 -0.7127
 8931SOL    HW238256   0.006   4.026  13.755  0.4079  0.5893 -0.0026
 8932SOL     OW38257   2.108   3.128   2.848  0.6255 -0.4256 -0.4160
 8932SOL    HW138258   2.160   3.066   2.899  2.4826  0.0885 -1.6604
 8932SOL    HW238259   2.026   3.080   2.841  1.6512 -2.2018 -0.1379
 8933SOL     OW38260   0.917   1.224   7.607  0.1723  0.1825 -0.3205
 8933SOL    HW138261   0.944   1.268   7.687  1.5484  0.0630 -0.7295
 8933SOL    HW238262   0.847   1.284   7.580 -0.6641 -0.7763 -0.2802
 8934SOL     OW38263   0.121   1.611   7.083  0.8433 -0.5564  0.0382
 8934SOL    HW138264   0.215   1.628   7.078  0.7826 -0.0103  0.6912
 8934SOL    HW238265   0.102   1.575   6.997  0.1911  0.8781 -0.4256
 8935SOL     OW38266   0.138   3.732   3.068  0.4657  0.1049 -0.4142
 8935SOL    HW138267   0.160   3.824   3.081  1.3654 -0.0138 -1.0148
 8935SOL    HW238268   0.179   3.721   2.982 -1.8185 -0.7166 -1.3785
 8936SOL     OW38269   1.707   2.550   8.687  0.2703  0.5002  0.1015
 8936SOL    HW138270   1.711   2.457   8.711 -2.6357  0.9595  2.3515
 8936SOL    HW238271   1.660   2.588   8.761  0.9619 -0.3766  0.9830
 8937SOL     OW38272   0.179   3.009   1.267  0.0827 -0.7869  0.5049
 8937SOL    HW138273   0.149   2.949   1.198 -0.8439 -0.5850  0.7278
 8937SOL    HW238274   0.113   2.988   1.333 -0.8552  2.6630  0.6578
 8938SOL     OW38275   0.375   4.273   6.275  0.5739 -0.5896  0.3569
 8938SOL    HW138276   0.395   4.287   6.367 -0.7195  1.1513  0.3740
 8938SOL    HW238277   0.314   4.346   6.269 -0.6470 -1.7007 -0.7465
 8939SOL     OW38278   2.822   3.719   5.539  0.4438 -0.2109  0.5335
 8939SOL    HW138279   2.784   3.778   5.604  2.7366 -0.4769  2.1544
 8939SOL    HW238280   2.748   3.691   5.485  1.3294 -1.8559  0.1457
 8940SOL     OW38281   3.953   2.097  14.075  0.5541 -0.3364  0.2867
 8940SOL    HW138282   3.959   2.005  14.049 -0.0885 -0.1538 -0.4981
 8940SOL    HW238283   3.938   2.078  14.168 -2.2526  2.2784  0.3635
 8941SOL     OW38284   0.151   4.497   3.011 -0.0993  0.4631  0.2778
 8941SOL    HW138285   0.092   4.457   3.074 -1.7727  1.1106 -0.8853
 8941SOL    HW238286   0.092   4.539   2.948 -0.1038  0.1707  0.0866
 8942SOL     OW38287   4.116   0.424   0.945 -0.1816 -0.3331  0.2213
 8942SOL    HW138288   4.172   0.362   0.898 -2.5143 -0.8626 -1.9245
 8942SOL    HW238289   4.126   0.499   0.887 -1.2243  0.3957  0.9803
 8943SOL     OW38290   2.275   4.593  15.129 -0.3474 -0.0810 -0.1982
 8943SOL    HW138291   2.301   4.674  15.173  2.4065 -0.7300 -0.6157
 8943SOL    HW238292   2.221   4.558  15.200 -0.0390  1.3661  0.7360
 8944SOL     OW38293   4.501   3.661   2.982 -0.5040  0.4514  0.2992
 8944SOL    HW138294   4.591   3.694   2.982  0.3608 -1.9709  2.3850
 8944SOL    HW238295   4.456   3.711   2.913  0.9867 -0.3839 -1.2919
 8945SOL     OW38296   2.094   2.255   3.484 -0.4886 -0.4852 -0.2892
 8945SOL    HW138297   2.036   2.279   3.556  1.4164 -0.1889  1.1445
 8945SOL    HW238298   2.169   2.229   3.537 -0.1906 -3.7685 -2.3515
 8946SOL     OW38299   0.540   3.442   7.714  0.0656 -0.6514  0.5212
 8946SOL    HW138300   0.467   3.475   7.767  0.2197 -0.2411  0.4776
 8946SOL    HW238301   0.534   3.347   7.725 -3.3699  0.1079  5.2237
 8947SOL     OW38302   0.588   1.309   6.956  0.3327 -0.3664 -0.0947
 8947SOL    HW138303   0.607   1.219   6.982 -1.6879 -1.0134 -0.8562
 8947SOL    HW238304   0.675   1.342   6.935  0.0963 -0.2732 -0.9073
 8948SOL     OW38305   0.058   3.463   5.993  0.3891  0.6582 -0.0168
 8948SOL    HW138306   0.105   3.489   5.913 -1.0918  2.5774 -0.2538
 8948SOL    HW238307   0.019   3.549   6.006 -0.8279  0.2863 -1.1779
 8949SOL     OW38308   3.074   1.145   2.299  0.5562  0.2581 -0.8616
 8949SOL    HW138309   3.076   1.057   2.262 -1.7986  0.1842 -0.8513
 8949SOL    HW238310   3.081   1.130   2.393  0.3214 -0.1506 -0.9129
 8950SOL     OW38311   0.799   0.918  14.542  0.0502  0.2279 -0.1435
 8950SOL    HW138312   0.761   0.830  14.548 -3.0735  1.6923  2.0060
 8950SOL    HW238313   0.806   0.934  14.448  1.7060  0.7166  0.0740
 8951SOL     OW38314   2.584   4.350  16.623  0.8847  0.3561 -0.3653
 8951SOL    HW138315   2.552   4.283  16.684  1.1449 -2.6982 -3.6277
 8951SOL    HW238316   2.526   4.421  16.652 -0.5141 -0.7181 -0.5194
 8952SOL     OW38317   4.118   0.626  16.325 -0.6556 -0.2878 -0.1073
 8952SOL    HW138318   4.026   0.605  16.340 -1.0622  0.5891 -1.3544
 8952SOL    HW238319   4.144   0.543  16.286  2.3477  0.6404 -0.1027
 8953SOL     OW38320   0.959   0.566   1.571  0.0564  0.7615 -0.0716
 8953SOL    HW138321   0.939   0.592   1.481 -0.9843 -1.3712 -0.4529
 8953SOL    HW238322   0.950   0.654   1.607  1.4943  2.0050 -2.6943
 8954SOL     OW38323   0.813   3.560  10.726  0.3864 -0.2699 -0.0629
 8954SOL    HW138324   0.867   3.638  10.717 -1.0107  0.5555 -1.2599
 8954SOL    HW238325   0.733   3.596  10.764  0.6880  0.1717  0.1474
 8955SOL     OW38326   4.165   4.649  12.043  0.7173 -0.2023 -0.2673
 8955SOL    HW138327   4.225   4.715  12.008  1.2948 -0.9349 -0.6276
 8955SOL    HW238328   4.093   4.642  11.980  0.5679  0.1040 -0.1359
 8956SOL     OW38329   3.309   4.613  10.943 -0.4592 -0.0662  0.6427
 8956SOL    HW138330   3.343   4.524  10.947  2.5426  1.1024  1.6225
 8956SOL    HW238331   3.324   4.645  10.854 -0.5656  0.7506  0.9199
 8957SOL     OW38332   3.758   3.222   3.243 -0.4261 -0.2232  0.5767
 8957SOL    HW138333   3.809   3.142   3.253  1.8979  1.4964  2.5674
 8957SOL    HW238334   3.671   3.185   3.236 -0.0449 -0.7020 -1.5584
 8958SOL     OW38335   0.276   2.342   3.551 -0.3606  0.5193  0.1620
 8958SOL    HW138336   0.352   2.307   3.504  0.0639  1.3465  0.2284
 8958SOL    HW238337   0.241   2.396   3.481 -0.5920 -0.2308 -0.2953
 8959SOL     OW38338   4.067   1.268  12.000  0.3873 -0.1274  0.1979
 8959SOL    HW138339   4.013   1.314  12.065  2.4346 -0.0125  1.8172
 8959SOL    HW238340   4.006   1.279  11.928  0.9097  1.0152 -0.0740
 8960SOL     OW38341   3.916   4.275   3.969 -0.2939 -0.7776  0.7573
 8960SOL    HW138342   3.955   4.189   3.952 -1.9348 -1.4932  0.6147
 8960SOL    HW238343   3.916   4.278   4.064 -1.0398  1.6956  0.6837
 8961SOL     OW38344   4.030   0.408   9.448 -0.0853  0.2456 -0.4116
 8961SOL    HW138345   4.069   0.494   9.433  0.2144  0.0959 -0.4982
 8961SOL    HW238346   4.080   0.347   9.393  0.6065  0.6085 -0.1864
 8962SOL     OW38347   0.844   4.675   5.132  0.4505 -0.4857  0.0799
 8962SOL    HW138348   0.884   0.012   5.196 -1.4553 -0.1133  0.9139
 8962SOL    HW238349   0.896   4.697   5.055 -0.6989  1.6457 -0.0871
 8963SOL     OW38350   0.263   2.325   9.382  0.0494  0.0485  0.5802
 8963SOL    HW138351   0.269   2.391   9.451  0.2210 -0.6169  1.1913
 8963SOL    HW238352   0.323   2.262   9.420 -0.0209 -1.3136 -1.5791
 8964SOL     OW38353   4.478   3.002   8.821  0.4539  0.2736  0.8981
 8964SOL    HW138354   4.406   3.033   8.767  1.3974  0.1591 -0.4314
 8964SOL    HW238355   4.536   2.981   8.748 -2.1732 -1.8737 -0.5566
 8965SOL     OW38356   4.563   2.681   6.552  0.1156  0.3431 -0.5992
 8965SOL    HW138357   4.638   2.740   6.540  1.0380 -0.6385  0.3090
 8965SOL    HW238358   4.603   2.641   6.629  3.1649  4.2918 -0.1524
 8966SOL     OW38359   4.332   0.583   8.647 -0.7578  0.0912  0.2419
 8966SOL    HW138360   4.328   0.611   8.738 -0.9888 -0.0746  0.2809
 8966SOL    HW238361   4.414   0.617   8.610  1.6929 -1.3807  4.2348
 8967SOL     OW38362   3.950   3.896   6.172  0.4710  0.6044  0.4279
 8967SOL    HW138363   3.869   3.846   6.158  0.5915 -0.0308  2.0771
 8967SOL    HW238364   3.926   3.973   6.121  0.6626 -0.2380 -0.9621
 8968SOL     OW38365   1.118   4.296   0.767  0.2514 -0.0968  0.6135
 8968SOL    HW138366   1.031   4.335   0.773  0.6049  0.9103 -0.7001
 8968SOL    HW238367   1.094   4.203   0.773 -0.3214  0.0359  0.3553
 8969SOL     OW38368   2.129   4.270  14.898 -0.9684  0.3602 -0.1897
 8969SOL    HW138369   2.217   4.306  14.890 -0.0795 -1.8221 -0.2201
 8969SOL    HW238370   2.135   4.183  14.936 -2.0145  1.2584  1.9812
 8970SOL     OW38371   1.061   4.362  17.678  0.0363  0.1854 -0.2651
 8970SOL    HW138372   1.086   4.376  17.587  0.9715 -1.6932 -0.2805
 8970SOL    HW238373   1.076   4.268  17.687  1.2995  0.3771 -0.3644
 8971SOL     OW38374   1.930   3.335   6.969 -0.2002 -0.1794 -0.7547
 8971SOL    HW138375   1.931   3.411   7.027  0.1487 -1.7431  1.2801
 8971SOL    HW238376   1.971   3.267   7.022 -2.5935 -1.9017 -1.1276
 8972SOL     OW38377   1.767   1.535   7.912 -0.0200  0.1727  0.4166
 8972SOL    HW138378   1.861   1.549   7.898  0.1700  0.4101  1.9741
 8972SOL    HW238379   1.760   1.479   7.988 -1.8348  0.4366  0.4322
 8973SOL     OW38380   3.391   4.294  14.833 -0.0411  0.0706 -0.4137
 8973SOL    HW138381   3.431   4.297  14.746 -2.5602 -0.9801 -1.6116
 8973SOL    HW238382   3.394   4.385  14.860  0.2635 -0.4567  1.3245
 8974SOL     OW38383   2.960   4.623  11.379 -0.3456 -0.1157 -0.3525
 8974SOL    HW138384   2.988   4.682  11.449  0.4166  0.9264 -1.5187
 8974SOL    HW238385   2.987   4.538  11.412 -1.0907  0.6711  2.3047
 8975SOL     OW38386   0.443   1.455   7.397  1.2924 -0.2040 -0.0761
 8975SOL    HW138387   0.458   1.530   7.454 -1.5623 -0.3076  0.7905
 8975SOL    HW238388   0.478   1.485   7.313 -0.0737  0.0786 -0.5295
 8976SOL     OW38389   2.303   3.086  11.200 -0.4143 -0.3376  0.5558
 8976SOL    HW138390   2.380   3.134  11.168 -0.8311 -0.4031 -0.5667
 8976SOL    HW238391   2.294   3.007  11.145  1.6816  0.8513 -1.4970
 8977SOL     OW38392   3.064   0.613   5.343 -0.3217  0.0711 -0.1592
 8977SOL    HW138393   3.005   0.688   5.342 -0.0343  0.3100  0.5720
 8977SOL    HW238394   3.065   0.577   5.254 -0.1306  1.0711 -0.5584
 8978SOL     OW38395   3.486   4.493   9.075 -0.1221  0.3779 -0.0249
 8978SOL    HW138396   3.573   4.511   9.040 -0.1086 -0.0119 -0.1928
 8978SOL    HW238397   3.432   4.529   9.006 -0.1575 -1.8538 -1.1590
 8979SOL     OW38398   2.756   1.578   5.009  0.4776 -0.1916  0.2511
 8979SOL    HW138399   2.697   1.508   5.037 -1.6762  1.1653 -0.9188
 8979SOL    HW238400   2.835   1.536   4.974 -1.0232 -2.0151 -0.9498
 8980SOL     OW38401   1.107   3.125   3.708  0.3673  0.2689  0.5751
 8980SOL    HW138402   1.184   3.079   3.741 -0.0607 -0.0548  1.1313
 8980SOL    HW238403   1.054   3.047   3.696 -0.1950  0.5249  1.3885
 8981SOL     OW38404   4.187   1.928   2.834 -0.3094 -0.3276  0.7123
 8981SOL    HW138405   4.121   1.888   2.891 -0.0096 -0.6966  0.7965
 8981SOL    HW238406   4.155   1.895   2.750 -1.9264 -0.4808  1.3892
 8982SOL     OW38407   4.145   2.046   3.836  0.1293  0.0562  0.1118
 8982SOL    HW138408   4.198   1.974   3.869  0.1453 -0.1259 -0.3211
 8982SOL    HW238409   4.109   2.012   3.754 -0.2859  0.1238  0.2649
 8983SOL     OW38410   0.575   3.286   1.035 -0.3208  0.6777  0.0280
 8983SOL    HW138411   0.499   3.332   1.073 -0.5979  1.5907 -1.6066
 8983SOL    HW238412   0.521   3.216   0.999  2.8897 -0.7712 -1.9441
 8984SOL     OW38413   1.958   0.077   5.851 -0.2573 -0.2768  0.2347
 8984SOL    HW138414   1.954   0.139   5.924  3.0310  1.5138 -1.1020
 8984SOL    HW238415   1.865   0.081   5.829 -0.3046  2.0390  0.8712
 8985SOL     OW38416   3.939   3.909  12.091  0.3005  0.3497 -0.1355
 8985SOL    HW138417   4.004   3.979  12.090 -0.4921  1.1171  2.3027
 8985SOL    HW238418   3.928   3.880  12.000 -0.4132  1.4194 -0.3900
 8986SOL     OW38419   1.113   1.908   6.784 -0.1652 -0.3147 -0.1905
 8986SOL    HW138420   1.123   1.813   6.792  0.8430 -0.0974  1.2419
 8986SOL    HW238421   1.205   1.931   6.798 -0.1942  0.5713 -1.4553
 8987SOL     OW38422   3.962   3.728  16.087 -0.0953 -0.2235  0.0454
 8987SOL    HW138423   4.013   3.666  16.035  1.8984  1.6636 -0.2594
 8987SOL    HW238424   4.029   3.790  16.116 -1.4419  0.9801  0.6087
 8988SOL     OW38425   3.347   0.686   4.518 -0.1300  0.5645  0.5169
 8988SOL    HW138426   3.280   0.754   4.512 -0.8775 -0.2395 -0.2396
 8988SOL    HW238427   3.354   0.678   4.614  0.2910  1.5773  0.5718
 8989SOL     OW38428   0.088   3.084   2.105  0.4636  0.0603  0.2338
 8989SOL    HW138429   0.054   3.077   2.194 -0.8997  1.2255 -0.1883
 8989SOL    HW238430   0.148   3.010   2.102 -1.3708 -1.3640 -1.0229
 8990SOL     OW38431   4.012   4.127  17.660  0.0305  0.1888 -0.9212
 8990SOL    HW138432   4.068   4.189   0.013  0.2521 -0.1247 -0.7644
 8990SOL    HW238433   4.076   4.057  17.648 -0.8333 -0.8592  0.4628
 8991SOL     OW38434   2.256   3.742   4.169 -0.5916 -0.4535 -0.3101
 8991SOL    HW138435   2.197   3.777   4.102 -1.4871  0.5677  1.0073
 8991SOL    HW238436   2.251   3.648   4.150 -2.3979 -0.2410 -0.8487
 8992SOL     OW38437   3.379   3.253  11.364  0.6584 -0.0806 -0.3228
 8992SOL    HW138438   3.286   3.267  11.380  0.2199 -3.0003 -0.2163
 8992SOL    HW238439   3.405   3.229  11.453 -0.2509 -0.5068 -0.1765
 8993SOL     OW38440   3.173   1.828   2.369 -0.0314  0.4225  0.1306
 8993SOL    HW138441   3.084   1.862   2.374  0.3222  1.1271  1.6643
 8993SOL    HW238442   3.158   1.753   2.311  4.3897  0.4934 -1.0781
 8994SOL     OW38443   3.619   1.287   5.510 -0.4590  0.7523  0.5873
 8994SOL    HW138444   3.615   1.217   5.444 -0.5635  0.1185  1.2692
 8994SOL    HW238445   3.656   1.354   5.452  0.8425  0.4338  1.0665
 8995SOL     OW38446   3.968   4.525   8.483 -0.1625  0.1849  0.3385
 8995SOL    HW138447   3.911   4.509   8.558 -0.6806  1.7926  0.2935
 8995SOL    HW238448   4.039   4.465   8.507 -2.0825 -1.7545  1.1683
 8996SOL     OW38449   3.442   4.640   1.826 -0.2383  0.0257 -0.7918
 8996SOL    HW138450   3.405   4.700   1.890  0.9850 -2.7096  2.4739
 8996SOL    HW238451   3.475   4.577   1.889 -0.2055 -0.4722 -1.3039
 8997SOL     OW38452   3.697   0.670   4.358  0.0684 -0.4132 -0.6662
 8997SOL    HW138453   3.678   0.701   4.447 -1.6008  0.6518 -1.4050
 8997SOL    HW238454   3.792   0.681   4.350  0.1040 -0.7049 -0.6480
 8998SOL     OW38455   4.596   2.261   1.101 -0.3410 -0.3003  0.0373
 8998SOL    HW138456   4.689   2.256   1.120 -0.2763 -1.3976 -0.5526
 8998SOL    HW238457   4.554   2.280   1.185 -0.5541  0.4320 -0.2319
 8999SOL     OW38458   1.198   3.866   1.012  0.3186 -0.9154 -0.0756
 8999SOL    HW138459   1.118   3.833   1.053 -0.8502  1.3943 -0.5288
 8999SOL    HW238460   1.246   3.885   1.093 -1.9384  1.5739  0.6751
 9000SOL     OW38461   0.889   0.825  15.695  0.0323 -0.6766 -0.4746
 9000SOL    HW138462   0.973   0.838  15.651  0.8858 -1.2384  0.9949
 9000SOL    HW238463   0.840   0.900  15.661 -0.7113 -0.8409  0.2180
 9001SOL     OW38464   2.635   4.219  17.626 -0.4102 -0.0569 -0.1741
 9001SOL    HW138465   2.725   4.238  17.603 -0.1577 -1.7228 -0.5836
 9001SOL    HW238466   2.612   4.187  17.539  1.6186 -0.3252 -0.5956
 9002SOL     OW38467   4.081   2.036  11.461  0.0281 -0.1588  0.0957
 9002SOL    HW138468   4.169   2.028  11.424  1.0779 -0.8228  2.8005
 9002SOL    HW238469   4.027   2.034  11.382  2.5165 -1.4722 -1.5682
 9003SOL     OW38470   0.552   3.639  12.923  0.5430 -0.3750 -0.4516
 9003SOL    HW138471   0.537   3.546  12.905  1.6642 -0.3285 -1.6258
 9003SOL    HW238472   0.643   3.645  12.895  0.2465 -2.4372 -1.8109
 9004SOL     OW38473   1.926   2.770   9.889  0.4520  0.6378  0.0055
 9004SOL    HW138474   1.872   2.759   9.811  1.0829  0.7159 -0.4496
 9004SOL    HW238475   1.995   2.707   9.868  1.8107  2.4732 -1.0768
 9005SOL     OW38476   1.620   0.831   3.850  0.1486  0.5089 -0.5324
 9005SOL    HW138477   1.538   0.788   3.825 -0.8057  2.1585 -0.2107
 9005SOL    HW238478   1.660   0.757   3.896  1.9210  2.9778  1.8975
 9006SOL     OW38479   4.109   2.342   3.663  0.2628 -0.4126 -0.3388
 9006SOL    HW138480   4.057   2.261   3.667  0.9183 -0.8443 -0.4591
 9006SOL    HW238481   4.170   2.325   3.735  0.6508 -0.7671 -0.7538
 9007SOL     OW38482   4.195   1.160   9.866 -0.2785  0.0098  0.1000
 9007SOL    HW138483   4.180   1.065   9.856 -1.4952  0.1918  0.2182
 9007SOL    HW238484   4.144   1.180   9.944  0.7025  1.7925  0.2649
 9008SOL     OW38485   2.455   4.289   2.693  0.1807  0.1046  0.2566
 9008SOL    HW138486   2.471   4.364   2.750  2.7953 -0.3784  0.1616
 9008SOL    HW238487   2.371   4.270   2.734 -1.1348  0.9982 -2.0829
 9009SOL     OW38488   3.875   1.619   1.624 -0.1674  0.5765  0.1390
 9009SOL    HW138489   3.893   1.685   1.558 -0.1405  2.1156  1.6751
 9009SOL    HW238490   3.808   1.670   1.669  0.7686  1.0630  0.9823
 9010SOL     OW38491   1.999   4.680   7.857 -0.0739  0.0875 -0.1430
 9010SOL    HW138492   2.066   4.621   7.823  1.3468  2.7055 -1.9609
 9010SOL    HW238493   2.017   0.026   7.793  1.1859 -0.7744 -0.7191
 9011SOL     OW38494   4.648   0.086   8.772 -0.2173  0.4398 -0.0181
 9011SOL    HW138495   0.005   0.124   8.809 -0.7213  1.5492 -0.0862
 9011SOL    HW238496   4.592   0.159   8.799 -1.3463 -0.2579 -0.4747
 9012SOL     OW38497   1.297   2.709   1.179 -0.1071 -0.8177  0.2026
 9012SOL    HW138498   1.259   2.792   1.150 -1.9157 -1.4558  0.7279
 9012SOL    HW238499   1.242   2.705   1.257  0.9046 -1.8762  0.8658
 9013SOL     OW38500   2.549   4.631   6.900  0.7102 -0.2025  0.4436
 9013SOL    HW138501   2.638   4.641   6.934  0.5969  0.5617  0.5185
 9013SOL    HW238502   2.562   4.549   6.852  0.4738 -0.2427  0.4481
 9014SOL     OW38503   4.564   1.014   3.532 -0.4029  0.0391 -0.0287
 9014SOL    HW138504   4.470   1.005   3.544 -0.1421 -2.0669  0.4064
 9014SOL    HW238505   4.575   0.963   3.452 -0.1165 -0.9261  0.6187
 9015SOL     OW38506   2.912   0.896   5.979 -0.0964 -0.3623 -0.2766
 9015SOL    HW138507   2.912   0.973   6.036 -0.7831 -1.0262  0.6294
 9015SOL    HW238508   2.949   0.945   5.905  2.0910 -1.7833 -0.1078
 9016SOL     OW38509   4.513   1.569   3.536 -0.1717 -0.0562 -0.0562
 9016SOL    HW138510   4.599   1.526   3.542  0.0275  0.7246  2.8799
 9016SOL    HW238511   4.517   1.606   3.448 -1.4602 -0.6185 -0.3557
 9017SOL     OW38512   2.210   3.105  13.389  0.1631  0.0793  0.4216
 9017SOL    HW138513   2.138   3.061  13.434 -1.5570  2.3627 -0.1214
 9017SOL    HW238514   2.285   3.057  13.423  0.1985  0.0764  0.3394
 9018SOL     OW38515   3.318   0.671   6.266 -0.0087  0.3503 -0.5486
 9018SOL    HW138516   3.376   0.724   6.321  1.6917 -1.6082 -0.4307
 9018SOL    HW238517   3.276   0.738   6.213 -2.0383  0.1468  0.7875
 9019SOL     OW38518   2.969   3.542  17.054  0.3807 -0.1965 -0.3424
 9019SOL    HW138519   2.875   3.525  17.057  0.0886  1.5139 -0.0047
 9019SOL    HW238520   2.998   3.490  17.130  2.7865 -2.1004 -2.5664
 9020SOL     OW38521   1.226   1.020   7.706 -0.8319 -0.4551  0.4640
 9020SOL    HW138522   1.143   1.060   7.731  1.8095  2.7763  3.9217
 9020SOL    HW238523   1.282   1.097   7.693 -0.3031 -0.7434  1.0440
 9021SOL     OW38524   0.297   2.135   6.380 -0.5808  0.2493  0.5060
 9021SOL    HW138525   0.359   2.063   6.386  0.4048  1.1391  0.9575
 9021SOL    HW238526   0.337   2.186   6.310 -0.0004 -2.4794 -1.1582
 9022SOL     OW38527   0.502   2.378   5.918  0.2582 -0.0685 -0.2138
 9022SOL    HW138528   0.407   2.378   5.919  0.2620  2.4076  0.1735
 9022SOL    HW238529   0.517   2.468   5.890 -1.4909 -0.3020 -1.8855
 9023SOL     OW38530   3.771   3.863  14.868 -0.1241  0.7350  0.1681
 9023SOL    HW138531   3.685   3.832  14.896  0.0591 -0.2085 -0.3270
 9023SOL    HW238532   3.800   3.910  14.946 -2.3156 -0.0036  1.4281
 9024SOL     OW38533   2.308   3.437   1.133  0.1370  0.2635  0.4758
 9024SOL    HW138534   2.262   3.368   1.181  3.1244 -0.5151  2.1741
 9024SOL    HW238535   2.238   3.501   1.119  0.2213  0.5478  1.3726
 9025SOL     OW38536   3.286   1.135   3.724 -0.0899 -0.1485  0.2338
 9025SOL    HW138537   3.282   1.135   3.628 -2.0379  2.5292  0.3285
 9025SOL    HW238538   3.216   1.198   3.742  0.0665  0.0501  0.1514
 9026SOL     OW38539   2.953   0.128   2.637 -0.4980 -0.1354  0.2984
 9026SOL    HW138540   2.906   0.046   2.620 -0.9501  0.5115 -1.5681
 9026SOL    HW238541   2.978   0.106   2.727  1.1503 -3.5039 -0.9761
 9027SOL     OW38542   2.758   0.016  15.093  0.6598  0.0080 -0.3673
 9027SOL    HW138543   2.715   4.685  15.159 -0.8991  1.8516  0.1225
 9027SOL    HW238544   2.678   0.052  15.054 -0.0637 -1.2472 -0.0409
 9028SOL     OW38545   1.683   1.612   5.596  0.0895 -0.0599 -0.3846
 9028SOL    HW138546   1.668   1.551   5.668  0.9914  0.9068  0.6355
 9028SOL    HW238547   1.625   1.685   5.617 -0.5027 -1.2547  2.0251
 9029SOL     OW38548   1.057   4.665  13.682  0.3387 -0.1560  0.3490
 9029SOL    HW138549   1.027   4.607  13.612  0.3353  1.8640 -1.3101
 9029SOL    HW238550   0.978   4.710  13.710 -2.2598 -3.0304 -2.3004
 9030SOL     OW38551   1.720   1.217   2.827  0.5679 -0.1574 -0.0920
 9030SOL    HW138552   1.676   1.161   2.890  1.4775  1.7205  2.1918
 9030SOL    HW238553   1.730   1.154   2.755 -1.0821 -0.1700 -0.3214
 9031SOL     OW38554   3.756   4.707  11.604  0.8871 -0.7200 -0.0485
 9031SOL    HW138555   3.724   4.657  11.679 -1.3753 -1.1339 -1.2878
 9031SOL    HW238556   3.826   4.651  11.571 -0.8818 -1.1124 -3.0708
 9032SOL     OW38557   2.354   1.557   5.091  0.0320  0.0090 -0.0950
 9032SOL    HW138558   2.301   1.636   5.098 -0.2641 -0.2148  0.1729
 9032SOL    HW238559   2.342   1.518   5.005 -1.4883 -2.5289  1.2703
 9033SOL     OW38560   2.358   2.207  10.289 -0.4697 -0.0689 -0.3842
 9033SOL    HW138561   2.281   2.251  10.326  0.0635  0.5309  0.0015
 9033SOL    HW238562   2.324   2.139  10.232  0.6211 -0.6216 -0.3718
 9034SOL     OW38563   1.933   1.590   3.095  0.0291 -0.1514 -0.7484
 9034SOL    HW138564   1.985   1.645   3.036  1.0673  0.6012  0.8796
 9034SOL    HW238565   2.000   1.563   3.158 -1.4616 -1.5349  0.2649
 9035SOL     OW38566   4.157   3.257   3.670  0.2398  0.5373  0.0162
 9035SOL    HW138567   4.069   3.268   3.634  0.7547  2.6577 -0.6412
 9035SOL    HW238568   4.210   3.219   3.600  2.4032 -0.8342  2.3724
 9036SOL     OW38569   3.447   0.470  14.294  0.6897  0.4868 -0.6178
 9036SOL    HW138570   3.501   0.513  14.360 -0.1718 -0.4186  0.6677
 9036SOL    HW238571   3.509   0.422  14.238  1.5324  0.2933  0.4869
 9037SOL     OW38572   1.131   2.591   9.376  0.0525  0.4791  0.4023
 9037SOL    HW138573   1.147   2.528   9.447 -0.7016  0.8952  0.9393
 9037SOL    HW238574   1.057   2.551   9.331 -2.0717  1.4971  2.9901
 9038SOL     OW38575   4.277   2.950   4.969  0.7142  0.8028  0.4972
 9038SOL    HW138576   4.349   2.919   5.024 -0.6745 -1.5621  0.9423
 9038SOL    HW238577   4.282   2.887   4.897  0.6275  0.7342  0.5529
 9039SOL     OW38578   3.771   2.375   6.124  0.2924  0.4356  0.1896
 9039SOL    HW138579   3.723   2.295   6.147 -0.0976  1.1661  1.9240
 9039SOL    HW238580   3.760   2.373   6.029 -1.1350  1.8889  0.3224
 9040SOL     OW38581   1.658   2.777   8.203 -0.0061  0.5724  0.1728
 9040SOL    HW138582   1.615   2.712   8.258  0.6552  0.5196  0.6298
 9040SOL    HW238583   1.594   2.848   8.210 -0.1060  0.4322  0.6779
 9041SOL     OW38584   1.575   4.394  10.240  0.3301 -0.1011  0.4169
 9041SOL    HW138585   1.615   4.465  10.191  1.5293 -0.4041  0.9602
 9041SOL    HW238586   1.506   4.370  10.178 -0.0669  3.1177 -0.3671
 9042SOL     OW38587   3.460   2.433  14.938 -0.4038  0.7208  0.3096
 9042SOL    HW138588   3.437   2.468  14.852 -0.2466 -1.7323 -0.7262
 9042SOL    HW238589   3.373   2.401  14.961 -0.8044  1.0335 -0.7830
 9043SOL     OW38590   4.672   3.426   6.653 -0.7061  0.1260  0.0342
 9043SOL    HW138591   0.023   3.485   6.636 -0.6791  0.3484  0.9465
 9043SOL    HW238592   4.648   3.400   6.564  1.0365 -1.6656  0.0908
 9044SOL     OW38593   3.505   1.748   9.443  0.1317 -0.7299 -0.5028
 9044SOL    HW138594   3.481   1.769   9.353  2.5619 -2.1146 -1.4575
 9044SOL    HW238595   3.579   1.804   9.467 -1.5244  0.9619  0.6151
 9045SOL     OW38596   2.344   3.336   1.768  0.4557 -0.1440  0.3161
 9045SOL    HW138597   2.261   3.358   1.725  0.0203 -1.5728  0.4460
 9045SOL    HW238598   2.381   3.417   1.803 -1.9108  1.4545 -0.8938
 9046SOL     OW38599   1.641   4.002   2.324  0.4341  0.3307  0.0367
 9046SOL    HW138600   1.680   4.003   2.411  0.2238  0.6356  0.1306
 9046SOL    HW238601   1.558   4.050   2.323  0.1408 -0.1914 -1.3322
 9047SOL     OW38602   4.411   3.343   8.744 -0.2329 -0.1185 -0.4860
 9047SOL    HW138603   4.319   3.339   8.718  0.2719  2.2637 -2.6411
 9047SOL    HW238604   4.450   3.287   8.677 -1.2349 -1.8012  0.3191
 9048SOL     OW38605   3.597   0.912   6.024  0.6242 -0.4522 -0.4939
 9048SOL    HW138606   3.599   1.007   6.010 -1.2222 -0.6853 -2.2235
 9048SOL    HW238607   3.656   0.904   6.100 -1.1210 -0.0917  0.9044
 9049SOL     OW38608   0.072   1.109   6.876 -0.2677  0.5303  0.0227
 9049SOL    HW138609   0.154   1.122   6.923  0.8955 -1.8763 -1.3225
 9049SOL    HW238610   0.070   1.188   6.821 -2.3738  0.8904  0.5925
 9050SOL     OW38611   1.750   3.995   4.843  0.0138  0.1935  0.0946
 9050SOL    HW138612   1.836   4.005   4.884 -0.6607 -1.8673  1.9916
 9050SOL    HW238613   1.783   4.016   4.755 -0.2518  0.4828  0.0645
 9051SOL     OW38614   2.894   3.444   5.971 -0.3992 -0.2531 -0.2266
 9051SOL    HW138615   2.888   3.354   6.004 -0.6089 -0.2377 -0.2232
 9051SOL    HW238616   2.960   3.429   5.903  0.5145 -1.0719  0.8312
 9052SOL     OW38617   0.566   3.120  17.126 -0.1148 -0.1390  0.2399
 9052SOL    HW138618   0.510   3.063  17.074  0.0264 -0.1401  0.0888
 9052SOL    HW238619   0.524   3.200  17.094 -0.1885 -0.0209  0.6332
 9053SOL     OW38620   4.480   3.050  13.257  0.1871  0.3556 -0.1840
 9053SOL    HW138621   4.573   3.031  13.253  0.4303  2.3130 -3.2191
 9053SOL    HW238622   4.449   2.962  13.233 -0.6874  0.1843  1.5346
 9054SOL     OW38623   2.386   4.191   3.430 -0.4461  0.2794 -0.4096
 9054SOL    HW138624   2.472   4.150   3.418  0.1815  0.5908  2.9292
 9054SOL    HW238625   2.398   4.263   3.368  1.5954 -0.1220 -0.4844
 9055SOL     OW38626   4.533   1.367   1.657  0.2160  0.2677 -0.0247
 9055SOL    HW138627   4.530   1.296   1.593  0.1892  1.2214 -1.0915
 9055SOL    HW238628   4.564   1.437   1.598 -1.0898  2.0273  1.3928
 9056SOL     OW38629   2.690   1.984   5.234 -0.1488  0.4844  0.6847
 9056SOL    HW138630   2.667   1.912   5.174  1.2994  0.6536 -0.0973
 9056SOL    HW238631   2.607   1.997   5.279 -0.8797 -1.6295 -0.0078
 9057SOL     OW38632   3.552   3.509   2.222 -1.0643  0.4047  0.1495
 9057SOL    HW138633   3.636   3.548   2.244 -1.1857 -0.6377  2.4365
 9057SOL    HW238634   3.567   3.448   2.149  0.4753 -0.7644  1.4417
 9058SOL     OW38635   3.442   0.903   3.759 -0.4839  0.1780 -0.2213
 9058SOL    HW138636   3.422   0.995   3.746 -0.9675  0.0649 -0.2522
 9058SOL    HW238637   3.363   0.854   3.736  0.2140 -1.6695  1.3069
 9059SOL     OW38638   1.465   3.669  16.595 -0.3461  0.4218 -0.2922
 9059SOL    HW138639   1.538   3.702  16.647 -1.0077  1.6006 -0.1126
 9059SOL    HW238640   1.431   3.607  16.660  1.2546 -0.6096 -0.4493
 9060SOL     OW38641   0.728   4.157   5.531 -0.7499  0.2518 -0.0043
 9060SOL    HW138642   0.729   4.096   5.457  0.8427 -0.3366  0.5070
 9060SOL    HW238643   0.773   4.234   5.496  0.5111 -0.0684  0.9299
 9061SOL     OW38644   4.651   2.263   2.057  0.1622 -0.2139  0.2828
 9061SOL    HW138645   4.656   2.254   1.961  1.4851 -1.6191  0.4852
 9061SOL    HW238646   0.020   2.242   2.075  0.7292  0.5237 -1.6830
 9062SOL     OW38647   2.790   4.499  12.147  0.4272  0.1282  0.6756
 9062SOL    HW138648   2.804   4.408  12.121 -0.0293  0.3653 -0.3843
 9062SOL    HW238649   2.717   4.481  12.207  0.4406  2.0931  1.2665
 9063SOL     OW38650   3.487   0.491   3.395  0.3624  0.2991  0.2775
 9063SOL    HW138651   3.517   0.401   3.391 -0.0716  0.0762  1.7778
 9063SOL    HW238652   3.523   0.519   3.480  1.4550 -2.1800  0.6189
 9064SOL     OW38653   2.872   1.379   4.407  0.0855  0.3545 -0.0564
 9064SOL    HW138654   2.916   1.350   4.488  1.7231  2.0234 -0.3603
 9064SOL    HW238655   2.831   1.459   4.439 -0.7993  0.5971 -1.8094
 9065SOL     OW38656   2.874   3.666   1.765  0.5688  0.3393  0.4203
 9065SOL    HW138657   2.949   3.629   1.718  0.5926 -0.6565  1.2380
 9065SOL    HW238658   2.913   3.726   1.827 -0.3360  1.4921 -0.1308
 9066SOL     OW38659   0.209   3.999   0.192 -0.2704 -0.6592  0.1131
 9066SOL    HW138660   0.210   4.049   0.273  0.7728 -0.3248 -0.0992
 9066SOL    HW238661   0.266   4.055   0.139 -0.6637  0.5042  0.9401
 9067SOL     OW38662   2.213   4.125   5.104  0.2425  0.1631  0.5147
 9067SOL    HW138663   2.194   4.213   5.136  1.0781  1.6114 -3.0161
 9067SOL    HW238664   2.289   4.103   5.157  0.7784 -3.0887 -1.6281
 9068SOL     OW38665   3.423   3.172  13.639 -0.1994 -0.2380  0.6423
 9068SOL    HW138666   3.347   3.222  13.670  0.0212 -1.1637  2.6476
 9068SOL    HW238667   3.437   3.216  13.555 -0.2117 -2.7147 -0.6707
 9069SOL     OW38668   2.480   1.067   7.005 -0.1626 -0.5656  1.0861
 9069SOL    HW138669   2.555   1.122   6.983 -1.0513 -0.0225 -0.6237
 9069SOL    HW238670   2.440   1.110   7.080 -0.4599 -1.1098  1.2386
 9070SOL     OW38671   1.504   2.577  13.086 -0.5254  0.0050 -0.7463
 9070SOL    HW138672   1.476   2.499  13.039  0.1799 -1.8816  2.0187
 9070SOL    HW238673   1.576   2.615  13.035  0.2284 -1.1742 -0.5394
 9071SOL     OW38674   4.447   4.536   2.950  0.3516 -0.2055 -0.1349
 9071SOL    HW138675   4.367   4.581   2.924  1.7946  3.0547  1.0162
 9071SOL    HW238676   4.441   4.444   2.927 -1.3654 -0.8281  2.8908
 9072SOL     OW38677   2.150   2.650  14.469 -0.0572 -0.5373  0.7971
 9072SOL    HW138678   2.221   2.715  14.470 -0.4531 -0.1425  2.8307
 9072SOL    HW238679   2.123   2.656  14.561 -0.7855  0.6304  0.5026
 9073SOL     OW38680   4.246   1.032   1.091 -0.0302 -0.1097 -0.4333
 9073SOL    HW138681   4.258   0.937   1.086 -1.5529 -0.0832 -4.7654
 9073SOL    HW238682   4.264   1.045   1.184  1.7822  1.3831 -0.9904
 9074SOL     OW38683   1.519   2.342   5.424  0.4205 -0.2838  0.4517
 9074SOL    HW138684   1.600   2.384   5.454  0.4227 -0.2600  0.4127
 9074SOL    HW238685   1.497   2.284   5.496  1.5982  0.8609  1.7296
 9075SOL     OW38686   2.036   1.134   0.590 -0.3042  0.0113 -0.4764
 9075SOL    HW138687   1.992   1.217   0.611  0.4477  0.3113 -0.0986
 9075SOL    HW238688   2.085   1.176   0.519  0.6421 -1.5839 -0.7530
 9076SOL     OW38689   1.168   1.235  17.230 -0.2692  0.0012 -0.2722
 9076SOL    HW138690   1.143   1.225  17.138 -1.6539  1.6118 -0.0607
 9076SOL    HW238691   1.258   1.266  17.222 -0.1470 -0.3578 -0.3248
 9077SOL     OW38692   3.211   4.338   5.052  0.4265 -0.2852 -0.0034
 9077SOL    HW138693   3.244   4.417   5.010  0.1405 -0.3910 -0.4365
 9077SOL    HW238694   3.145   4.306   4.990 -1.3470  0.9930  1.2104
 9078SOL     OW38695   0.777   3.063  14.597 -0.3720  0.4384 -0.4124
 9078SOL    HW138696   0.693   3.094  14.564  0.4825  0.3160 -2.7212
 9078SOL    HW238697   0.798   3.002  14.526  0.9082 -0.8056  1.0324
 9079SOL     OW38698   3.990   3.434  12.298  0.3442  0.1428  0.5236
 9079SOL    HW138699   3.938   3.514  12.306  0.7746  0.5450 -0.6849
 9079SOL    HW238700   4.078   3.463  12.323  0.6817 -0.9251  0.5606
 9080SOL     OW38701   2.665   3.420   5.407  0.1657 -0.2964  0.3188
 9080SOL    HW138702   2.642   3.383   5.492 -1.3581 -1.8898 -0.7970
 9080SOL    HW238703   2.630   3.509   5.413 -1.6556 -1.1334  1.8768
 9081SOL     OW38704   3.877   2.232  15.392 -0.6697  0.5110 -0.7121
 9081SOL    HW138705   3.809   2.166  15.376 -1.4112  1.2586 -0.6107
 9081SOL    HW238706   3.891   2.257  15.301  2.4199 -2.1489 -0.9817
 9082SOL     OW38707   2.767   0.001  14.224 -0.2166 -0.4393 -0.2030
 9082SOL    HW138708   2.754   4.694  14.134 -2.4304  0.0019 -0.0183
 9082SOL    HW238709   2.692   4.690  14.274 -0.4931  0.1777 -0.2030
 9083SOL     OW38710   1.919   1.732  17.473  0.3112  0.4351 -0.3304
 9083SOL    HW138711   1.833   1.747  17.514  1.0508  1.6557  0.7553
 9083SOL    HW238712   1.969   1.799  17.519 -0.9982  1.4780 -0.4071
 9084SOL     OW38713   3.530   4.692   5.270 -0.2271 -0.2657  0.4535
 9084SOL    HW138714   3.592   4.649   5.212  1.5192 -0.6949  2.6489
 9084SOL    HW238715   3.483   0.027   5.209  0.1251 -1.3433 -0.8341
 9085SOL     OW38716   0.556   4.321   5.992  0.1380  0.1013 -0.0093
 9085SOL    HW138717   0.561   4.253   6.060  1.9125  1.2117  0.9636
 9085SOL    HW238718   0.507   4.391   6.037 -1.0761  0.5704 -2.0435
 9086SOL     OW38719   2.443   0.648   9.284 -0.0844 -0.3198 -0.4610
 9086SOL    HW138720   2.516   0.702   9.316  0.3323 -1.0534 -0.1626
 9086SOL    HW238721   2.484   0.566   9.257 -1.0699 -1.1730  0.6582
 9087SOL     OW38722   2.056   2.566   1.257 -0.4841  0.5058  1.1728
 9087SOL    HW138723   2.081   2.547   1.167 -0.5162  2.0601  0.8420
 9087SOL    HW238724   1.961   2.562   1.250 -0.5207 -0.4338  2.2075
 9088SOL     OW38725   4.474   1.891  10.069 -0.6067  0.1498 -0.2120
 9088SOL    HW138726   4.554   1.861  10.112 -0.6860 -1.8216 -1.4295
 9088SOL    HW238727   4.410   1.887  10.140  0.0693 -0.7975  0.3501
 9089SOL     OW38728   4.708   2.089   3.221 -0.3517 -0.0310 -0.0618
 9089SOL    HW138729   4.659   2.165   3.191  0.2745  0.3229 -0.1910
 9089SOL    HW238730   0.041   2.084   3.144 -1.2072  1.0352 -0.7539
 9090SOL     OW38731   0.690   0.196   7.340 -0.5438  0.0347  0.2401
 9090SOL    HW138732   0.655   0.241   7.263 -0.1079 -1.8825 -1.0908
 9090SOL    HW238733   0.781   0.181   7.312 -0.9086  0.7839 -1.3700
 9091SOL     OW38734   1.794   4.548   1.574 -0.0238  0.1555 -0.4516
 9091SOL    HW138735   1.845   4.586   1.503 -0.3701 -0.9018 -1.2623
 9091SOL    HW238736   1.713   4.599   1.566 -0.0379  0.1078 -0.6003
 9092SOL     OW38737   0.881   0.134   0.397  0.0805 -0.0408 -0.1900
 9092SOL    HW138738   0.792   0.166   0.382 -0.7288 -1.5534  1.4122
 9092SOL    HW238739   0.872   0.118   0.491 -0.5830 -0.2614 -0.2874
 9093SOL     OW38740   1.328   4.191   6.803 -0.2475 -0.1883 -0.2348
 9093SOL    HW138741   1.327   4.104   6.763  0.9502  0.6092 -2.0222
 9093SOL    HW238742   1.417   4.218   6.783 -1.2130  2.8237 -0.5044
 9094SOL     OW38743   4.166   2.073   8.387 -0.1670  0.5741  0.0746
 9094SOL    HW138744   4.092   2.119   8.346  0.9763  1.5316 -0.8996
 9094SOL    HW238745   4.181   2.122   8.467  2.3793 -1.2548  0.6988
 9095SOL     OW38746   0.022   0.514   3.060 -0.0032 -0.7085  0.9529
 9095SOL    HW138747   0.036   0.487   3.150 -3.7583 -0.6672  1.5483
 9095SOL    HW238748   0.107   0.554   3.043 -0.5816 -0.3921 -1.2902
 9096SOL     OW38749   4.467   2.591   7.048  1.1792 -0.9968  0.2781
 9096SOL    HW138750   4.428   2.678   7.045  1.8245 -0.7384 -0.5458
 9096SOL    HW238751   4.560   2.608   7.032  0.7474 -0.8213 -1.9232
 9097SOL     OW38752   0.776   2.144  13.246  0.2491  0.5765 -0.0648
 9097SOL    HW138753   0.825   2.089  13.185  0.3991 -1.4350  1.8551
 9097SOL    HW238754   0.795   2.225  13.200  0.4418  1.3193  1.3337
 9098SOL     OW38755   2.311   3.782   7.956 -0.1155 -0.3777 -0.2246
 9098SOL    HW138756   2.347   3.694   7.965  2.4732  0.5511 -1.3527
 9098SOL    HW238757   2.263   3.771   7.874 -3.6890  0.0040  1.8350
 9099SOL     OW38758   3.844   3.378   2.220 -0.0420  0.0946 -0.5638
 9099SOL    HW138759   3.897   3.429   2.158  0.9598 -1.3847 -0.9413
 9099SOL    HW238760   3.755   3.382   2.188 -1.2010 -1.8914  2.3512
 9100SOL     OW38761   3.770   0.673  16.883  0.2735  0.2001 -0.0070
 9100SOL    HW138762   3.690   0.653  16.834  1.1685 -0.8633 -1.0250
 9100SOL    HW238763   3.740   0.637  16.966  1.6387 -1.0235 -0.0517
 9101SOL     OW38764   4.026   1.245  15.870 -0.6297  0.4185 -0.5899
 9101SOL    HW138765   3.972   1.189  15.815  0.6194 -1.3899  0.0091
 9101SOL    HW238766   3.997   1.334  15.855  2.2328  1.3429 -0.7439
 9102SOL     OW38767   2.607   2.888   1.801  0.3419 -0.4262  0.0528
 9102SOL    HW138768   2.686   2.905   1.749  0.4658 -0.5434  0.2012
 9102SOL    HW238769   2.588   2.978   1.826  1.9276  0.1393 -0.7817
 9103SOL     OW38770   3.006   0.102   5.656  0.0699  0.4440 -0.0427
 9103SOL    HW138771   2.925   0.108   5.707  0.2052  3.5902 -0.2019
 9103SOL    HW238772   3.050   0.182   5.687  0.4949 -0.5247  1.8853
 9104SOL     OW38773   3.257   2.897   7.977  0.5685 -1.0086  0.0821
 9104SOL    HW138774   3.248   2.989   7.999  3.2087 -0.4171 -1.2432
 9104SOL    HW238775   3.330   2.870   8.034 -0.9940 -3.2437  1.0303
 9105SOL     OW38776   2.249   2.670   0.729  0.0297 -0.2653  0.4143
 9105SOL    HW138777   2.274   2.609   0.799  1.0323  2.7010  2.6281
 9105SOL    HW238778   2.327   2.681   0.674 -0.7326  1.7257 -0.2600
 9106SOL     OW38779   4.706   2.899   4.809 -0.1918 -0.1510  0.0014
 9106SOL    HW138780   0.070   2.860   4.821 -0.3479 -0.5146 -0.0613
 9106SOL    HW238781   4.665   2.819   4.776  2.3135 -0.9745 -1.1134
 9107SOL     OW38782   4.081   2.974  11.195  0.3538  0.1225 -0.3968
 9107SOL    HW138783   4.156   2.941  11.144  0.6633  2.4055 -1.4207
 9107SOL    HW238784   4.011   2.937  11.141 -0.2949  1.0645 -0.1922
 9108SOL     OW38785   0.331   2.233   5.097  0.3637  0.5187 -0.0773
 9108SOL    HW138786   0.248   2.253   5.054 -0.5068  0.8061  1.7367
 9108SOL    HW238787   0.379   2.198   5.022  1.6925  2.2763 -0.0641
 9109SOL     OW38788   4.367   0.299   2.878 -0.0223 -0.1964  0.1115
 9109SOL    HW138789   4.288   0.325   2.831 -0.6363  0.2023  1.3531
 9109SOL    HW238790   4.389   0.236   2.810  2.5565 -0.3593  1.1116
 9110SOL     OW38791   4.178   2.169   6.389 -0.2049  0.3340 -0.3105
 9110SOL    HW138792   4.137   2.222   6.320 -0.1117 -1.3689 -1.6691
 9110SOL    HW238793   4.099   2.151   6.440  0.5039  1.6481  1.2250
 9111SOL     OW38794   3.565   1.305   8.546 -0.1203  0.7689 -0.3283
 9111SOL    HW138795   3.579   1.217   8.583  1.1498  1.9052  1.8727
 9111SOL    HW238796   3.494   1.299   8.482 -0.1983 -1.6492 -0.0358
 9112SOL     OW38797   0.839   2.765   3.069  0.3119 -0.0738  0.7393
 9112SOL    HW138798   0.807   2.745   2.981 -1.4441 -1.2759  1.6461
 9112SOL    HW238799   0.784   2.842   3.081  0.0910  0.2314 -2.2610
 9113SOL     OW38800   4.239   3.403  12.468 -0.2891 -0.0868 -0.5059
 9113SOL    HW138801   4.165   3.433  12.521 -0.3254 -0.2812 -0.4462
 9113SOL    HW238802   4.306   3.448  12.519  0.0672 -0.8198 -0.3201
 9114SOL     OW38803   1.871   2.862   6.431 -0.5842  0.4087 -0.1649
 9114SOL    HW138804   1.792   2.899   6.469 -0.0240  1.4715 -0.0165
 9114SOL    HW238805   1.930   2.922   6.477  1.4498 -1.5137 -0.2098
 9115SOL     OW38806   4.408   2.036   1.562  0.0187  0.3376  0.4975
 9115SOL    HW138807   4.406   2.114   1.506  1.4504 -0.0032 -0.0269
 9115SOL    HW238808   4.437   2.080   1.642 -0.9988 -0.4983  1.3306
 9116SOL     OW38809   3.427   0.701   4.804 -0.3272 -0.1202  0.2151
 9116SOL    HW138810   3.386   0.628   4.849 -2.5391  0.7504 -0.3554
 9116SOL    HW238811   3.403   0.773   4.862  0.3212  0.8300 -0.6823
 9117SOL     OW38812   1.267   1.112   2.914  1.0277  0.4941 -1.0924
 9117SOL    HW138813   1.228   1.032   2.879  2.0054  0.7849 -2.8166
 9117SOL    HW238814   1.327   1.139   2.845  2.9597  1.6748  1.0169
 9118SOL     OW38815   4.401   0.748   5.697  0.3624 -0.0126 -0.2009
 9118SOL    HW138816   4.464   0.820   5.699 -0.2489  0.5769 -2.3618
 9118SOL    HW238817   4.401   0.737   5.602  0.8706  0.8511 -0.3006
 9119SOL     OW38818   1.206   2.753   3.526  0.7023  0.8032  0.6850
 9119SOL    HW138819   1.285   2.793   3.490  0.8629 -0.5969 -0.4880
 9119SOL    HW238820   1.167   2.717   3.446 -1.6657 -1.8613  3.0261
 9120SOL     OW38821   2.288   4.408   9.591  0.0664 -0.6867  0.0515
 9120SOL    HW138822   2.258   4.412   9.500 -0.2076  1.3585  0.2234
 9120SOL    HW238823   2.310   4.315   9.591  1.6841 -0.3249 -2.3503
 9121SOL     OW38824   0.681   2.385   5.599 -0.3775  0.4650 -0.0710
 9121SOL    HW138825   0.774   2.406   5.591 -0.0191 -0.3084  1.9217
 9121SOL    HW238826   0.682   2.297   5.638  0.1621  0.5273  0.0581
 9122SOL     OW38827   0.654   3.517  16.267 -0.1392 -0.4688 -0.8665
 9122SOL    HW138828   0.674   3.522  16.360 -0.5520  3.3002 -0.9544
 9122SOL    HW238829   0.732   3.478  16.227  0.3338 -0.6996  0.2857
 9123SOL     OW38830   1.193   1.731   7.743  0.6333 -0.2995  0.8126
 9123SOL    HW138831   1.179   1.821   7.774  0.4202  0.5003 -1.6429
 9123SOL    HW238832   1.260   1.698   7.803  0.4040 -1.2952  0.5150
 9124SOL     OW38833   1.590   1.643   4.500 -0.0576  0.0622  0.7365
 9124SOL    HW138834   1.579   1.555   4.463 -0.3463 -0.6374  2.4813
 9124SOL    HW238835   1.674   1.620   4.538  0.1822 -3.5767 -1.9763
 9125SOL     OW38836   1.913   0.193   3.842  0.1481 -0.4962  0.3960
 9125SOL    HW138837   1.828   0.167   3.807  0.8771 -1.3489 -0.7470
 9125SOL    HW238838   1.972   0.136   3.792 -1.2060 -2.2632  0.8151
 9126SOL     OW38839   3.904   2.507   2.682 -0.1991  0.0039 -0.3371
 9126SOL    HW138840   3.978   2.454   2.712  0.1404  0.9814  0.5540
 9126SOL    HW238841   3.941   2.571   2.621 -1.8444 -0.2162 -1.5593
 9127SOL     OW38842   2.297   2.220   7.839 -0.0164 -0.3521  0.1786
 9127SOL    HW138843   2.386   2.187   7.852 -0.6457 -1.5313  1.4807
 9127SOL    HW238844   2.299   2.283   7.767  0.3400 -1.8414 -1.1118
 9128SOL     OW38845   2.080   3.553   8.026 -0.1248  0.0817  0.2724
 9128SOL    HW138846   2.152   3.533   8.086  0.1135 -0.0561 -0.0619
 9128SOL    HW238847   2.014   3.503   8.074  1.7931 -0.7756  2.0146
 9129SOL     OW38848   4.610   1.870   1.562  0.2944 -0.4853 -0.4382
 9129SOL    HW138849   4.530   1.922   1.558  0.9087  0.3096 -2.7842
 9129SOL    HW238850   4.582   1.801   1.621  1.9699  0.4847  1.5072
 9130SOL     OW38851   0.485   1.244   3.423 -0.4969 -0.5013  0.0383
 9130SOL    HW138852   0.509   1.302   3.351  2.8949  0.5637  2.0273
 9130SOL    HW238853   0.474   1.158   3.383  2.5673 -0.4720 -0.9017
 9131SOL     OW38854   3.648   1.386   3.045 -0.3317  0.1689  0.2602
 9131SOL    HW138855   3.644   1.295   3.074 -0.2864  0.1535  0.2191
 9131SOL    HW238856   3.723   1.370   2.987 -0.2917 -0.5386  0.5146
 9132SOL     OW38857   2.444   1.963   3.529  0.4196  0.1958 -0.0164
 9132SOL    HW138858   2.366   1.983   3.477  0.7843 -0.6255 -0.8689
 9132SOL    HW238859   2.471   1.880   3.490  1.0780 -0.0163  0.8885
 9133SOL     OW38860   3.431   0.215  15.601  0.5565  0.4645 -0.0983
 9133SOL    HW138861   3.357   0.243  15.654  0.8177 -0.3042  0.6746
 9133SOL    HW238862   3.406   0.125  15.579  0.4985  0.1346  1.3051
 9134SOL     OW38863   2.689   1.332   8.371  0.1502 -0.6896 -0.2456
 9134SOL    HW138864   2.686   1.287   8.456 -0.1459  0.9820  0.6399
 9134SOL    HW238865   2.673   1.257   8.314  0.1005 -0.9531  0.1144
 9135SOL     OW38866   2.023   2.936   6.010  0.4091 -0.5285  0.3151
 9135SOL    HW138867   2.007   3.030   6.016 -0.1321 -0.4043 -3.0658
 9135SOL    HW238868   1.959   2.897   6.070 -0.6525 -0.4166 -0.7449
 9136SOL     OW38869   0.456   3.909   4.916  0.4273  0.3412  0.5769
 9136SOL    HW138870   0.426   3.952   4.997  1.3537  3.4567 -0.7133
 9136SOL    HW238871   0.369   3.875   4.896  2.0382 -2.4949 -1.5613
 9137SOL     OW38872   3.248   3.532   6.684 -0.4851 -0.4389 -0.1537
 9137SOL    HW138873   3.217   3.565   6.600  0.2876  1.7739  0.4046
 9137SOL    HW238874   3.178   3.475   6.717 -1.0776  0.2440 -0.2287
 9138SOL     OW38875   0.976   3.535   6.379  0.3848 -0.7385  0.5508
 9138SOL    HW138876   0.884   3.509   6.385 -0.3459  1.4780 -1.1431
 9138SOL    HW238877   1.006   3.542   6.470  1.1919  1.5689  0.1196
 9139SOL     OW38878   2.426   1.177   6.275 -0.3594 -0.0339  0.3737
 9139SOL    HW138879   2.432   1.117   6.350  1.7867  0.7552  0.8599
 9139SOL    HW238880   2.499   1.237   6.293  0.6165 -0.4608 -2.2820
 9140SOL     OW38881   2.200   4.535   3.645 -0.4908 -0.2724  0.0166
 9140SOL    HW138882   2.163   4.456   3.606 -2.2158  0.6052 -0.1048
 9140SOL    HW238883   2.239   4.581   3.571 -0.6242  1.4734  1.0426
 9141SOL     OW38884   1.727   3.545   5.088  0.0496 -0.4895  0.3490
 9141SOL    HW138885   1.737   3.611   5.156 -1.2247 -0.2903  0.3346
 9141SOL    HW238886   1.650   3.500   5.122 -0.7682 -0.3827 -1.3416
 9142SOL     OW38887   0.687   2.741  16.325  0.4608 -0.9112 -0.4848
 9142SOL    HW138888   0.623   2.685  16.369  1.4429 -1.6907 -0.0633
 9142SOL    HW238889   0.715   2.688  16.251 -0.1385  1.1062 -2.1501
 9143SOL     OW38890   4.149   0.783   5.808 -0.0123  0.3281  0.7465
 9143SOL    HW138891   4.180   0.797   5.898  3.1911  0.3039 -0.3394
 9143SOL    HW238892   4.227   0.751   5.763 -0.5110  1.1125 -0.6463
 9144SOL     OW38893   0.932   0.985   3.964  0.0001  0.1718 -0.1313
 9144SOL    HW138894   0.902   0.922   3.899 -1.0453  0.5381 -0.0093
 9144SOL    HW238895   0.996   1.029   3.908  0.1433 -1.3346 -1.1508
 9145SOL     OW38896   0.122   0.466  14.872  0.0968  0.0762  0.0255
 9145SOL    HW138897   0.165   0.414  14.805  0.6800  1.0371 -0.3541
 9145SOL    HW238898   0.184   0.537  14.891 -3.0805  2.9386 -0.1476
 9146SOL     OW38899   2.053   2.967  10.046  0.0053  0.0676 -0.0722
 9146SOL    HW138900   2.052   2.909  10.122 -0.9224 -0.0505 -0.1724
 9146SOL    HW238901   2.015   2.920   9.972  0.6534 -1.1432  0.3739
 9147SOL     OW38902   3.675   2.214   4.089  0.6738  0.0652  0.2437
 9147SOL    HW138903   3.743   2.172   4.036  0.4512  0.3601 -0.2730
 9147SOL    HW238904   3.682   2.153   4.163 -0.2739 -1.1797 -0.6784
 9148SOL     OW38905   4.680   3.186   8.941  0.0085  0.0570  0.0725
 9148SOL    HW138906   0.029   3.137   8.982 -2.8738 -2.5702  1.9792
 9148SOL    HW238907   4.618   3.116   8.922  1.2496 -1.5930  2.0379
 9149SOL     OW38908   1.937   0.388   3.141  0.2892  0.4346 -0.2594
 9149SOL    HW138909   1.920   0.327   3.069  3.1655  0.0912 -0.6528
 9149SOL    HW238910   1.857   0.439   3.130 -0.7722 -0.9796  0.9977
 9150SOL     OW38911   3.718   3.445   4.055  0.6241 -0.1307 -0.3911
 9150SOL    HW138912   3.734   3.529   4.098 -0.6767 -0.3303  0.4956
 9150SOL    HW238913   3.628   3.464   4.030  1.0223  0.7150 -1.1514
 9151SOL     OW38914   3.679   0.830   3.456  0.4962  0.1497  0.2812
 9151SOL    HW138915   3.734   0.784   3.392  1.5450  1.0212  0.5460
 9151SOL    HW238916   3.722   0.915   3.452 -1.8214  1.2911  0.0702
 9152SOL     OW38917   1.907   2.618   7.272 -0.1298 -0.3176 -0.3857
 9152SOL    HW138918   1.939   2.530   7.251 -0.4026 -0.6424  0.5804
 9152SOL    HW238919   1.852   2.600   7.348 -0.1474 -0.7218 -0.4964
 9153SOL     OW38920   1.077   0.552   7.451  0.5326 -0.2890  0.4576
 9153SOL    HW138921   1.119   0.619   7.398 -0.2295  0.0233  0.2414
 9153SOL    HW238922   0.985   0.578   7.449  0.7371  0.5269  2.6253
 9154SOL     OW38923   0.198   1.051  15.310 -0.0181 -0.1149  0.1053
 9154SOL    HW138924   0.218   1.143  15.332 -3.1152  0.0333  2.2154
 9154SOL    HW238925   0.287   1.015  15.303 -0.5679 -1.0858 -1.7618
 9155SOL     OW38926   3.413   2.114   3.455  0.1403 -0.0852 -0.2775
 9155SOL    HW138927   3.397   2.033   3.407 -0.4023  1.1881 -2.2508
 9155SOL    HW238928   3.368   2.105   3.539  1.8516  2.3158  0.8889
 9156SOL     OW38929   2.715   2.910   1.431 -0.0625  0.2211  0.0316
 9156SOL    HW138930   2.773   2.856   1.484  0.4305  0.5016 -0.2199
 9156SOL    HW238931   2.662   2.849   1.380  0.9485  0.0263 -0.7827
 9157SOL     OW38932   3.179   0.596   1.890  0.0851  0.1041  0.0426
 9157SOL    HW138933   3.184   0.508   1.853 -0.6907  0.7836 -1.6743
 9157SOL    HW238934   3.240   0.638   1.829  1.8065  0.4997  2.0420
 9158SOL     OW38935   1.575   1.168  12.117 -0.2249  0.1104 -0.1799
 9158SOL    HW138936   1.597   1.104  12.051  1.8942  1.9462 -1.2570
 9158SOL    HW238937   1.584   1.114  12.196 -0.4520 -2.2084 -1.7536
 9159SOL     OW38938   1.123   1.313   0.746  0.4272  0.0533  0.3301
 9159SOL    HW138939   1.117   1.226   0.704  2.3963 -0.5983  1.4096
 9159SOL    HW238940   1.162   1.360   0.672 -2.5932  0.7226 -0.8549
 9160SOL     OW38941   3.459   0.305   1.478  0.3486  0.1781 -0.1950
 9160SOL    HW138942   3.435   0.277   1.390 -2.4912  3.2369 -0.3980
 9160SOL    HW238943   3.400   0.256   1.534  1.5143  1.1671  1.9338
 9161SOL     OW38944   3.743   2.836   4.522 -0.5964  0.0418  0.4923
 9161SOL    HW138945   3.767   2.924   4.491  1.6672 -1.1715 -1.2338
 9161SOL    HW238946   3.818   2.781   4.499  0.1466  1.1275  0.2975
 9162SOL     OW38947   1.546   2.163   4.917  0.2865 -0.2339  0.4262
 9162SOL    HW138948   1.579   2.074   4.917  1.3599  0.1659 -0.0117
 9162SOL    HW238949   1.542   2.182   5.010  0.4314 -2.4549  0.8729
 9163SOL     OW38950   3.857   1.674   5.537  0.4553 -0.1892  0.4600
 9163SOL    HW138951   3.923   1.632   5.591  2.7733 -2.3557 -4.1118
 9163SOL    HW238952   3.899   1.753   5.504  0.0191 -0.2931 -0.3368
 9164SOL     OW38953   3.237   0.897   6.789  0.2000  0.2619 -0.2562
 9164SOL    HW138954   3.143   0.883   6.803 -0.0281  1.6634 -0.4093
 9164SOL    HW238955   3.231   0.992   6.796 -0.2499  0.4472 -3.1932
 9165SOL     OW38956   1.570   2.155   9.816 -0.2514  0.6487  0.1089
 9165SOL    HW138957   1.603   2.122   9.900  1.8714 -2.2535 -1.8656
 9165SOL    HW238958   1.510   2.220   9.853 -1.0591  0.3473 -0.6569
 9166SOL     OW38959   3.259   2.529   5.374 -0.0615  0.1284 -0.9981
 9166SOL    HW138960   3.169   2.549   5.401  0.1282 -0.7800  0.2912
 9166SOL    HW238961   3.241   2.495   5.286 -1.2519 -0.4473 -0.5336
 9167SOL     OW38962   1.089   0.942   5.907 -0.1978  0.6587 -0.0002
 9167SOL    HW138963   1.049   0.900   5.831  2.3649  1.7278 -1.9450
 9167SOL    HW238964   1.059   1.032   5.903  2.3223  1.5133  0.3641
 9168SOL     OW38965   0.761   1.246   7.950 -0.0293 -0.4818  0.7906
 9168SOL    HW138966   0.763   1.326   8.002  1.2317 -0.7785  1.2048
 9168SOL    HW238967   0.835   1.197   7.985  1.1430  0.4133 -0.4331
 9169SOL     OW38968   0.607   4.171   0.360  0.2782 -0.6483  0.1821
 9169SOL    HW138969   0.544   4.203   0.424 -0.6865 -1.7464 -0.2136
 9169SOL    HW238970   0.693   4.164   0.402 -0.7810  3.6163  2.9682
 9170SOL     OW38971   3.821   0.796  13.292  0.1178  0.4220 -0.4255
 9170SOL    HW138972   3.760   0.747  13.236 -0.6967 -0.5386  1.3045
 9170SOL    HW238973   3.876   0.829  13.221 -1.2824 -0.8709 -2.1061
 9171SOL     OW38974   2.945   2.097   5.124  0.5416 -0.0677  0.3043
 9171SOL    HW138975   2.881   2.160   5.090 -0.0776 -1.2770 -0.7386
 9171SOL    HW238976   2.884   2.038   5.167  2.3043 -0.6727  1.9883
 9172SOL     OW38977   1.736   2.755  17.516 -0.0611 -0.2684 -0.0193
 9172SOL    HW138978   1.717   2.818  17.586 -0.8164 -1.9186  1.2349
 9172SOL    HW238979   1.832   2.757  17.515 -0.0815  1.0568  0.5099
 9173SOL     OW38980   4.400   3.480  16.691 -0.2438  0.4614  0.5879
 9173SOL    HW138981   4.468   3.435  16.739 -0.7324 -0.7355  0.1560
 9173SOL    HW238982   4.449   3.520  16.619 -1.4968  3.1153  1.2117
 9174SOL     OW38983   3.797   1.982  13.138 -0.2815 -0.3449  0.0878
 9174SOL    HW138984   3.737   2.057  13.133 -0.1203 -0.2357 -0.2139
 9174SOL    HW238985   3.786   1.959  13.046  1.3763  0.6859 -0.3678
 9175SOL     OW38986   2.446   1.280   3.615 -0.3381  0.0433  0.4153
 9175SOL    HW138987   2.423   1.354   3.560 -1.6323 -1.7494 -1.4803
 9175SOL    HW238988   2.515   1.324   3.665  0.8454 -1.0785 -0.2278
 9176SOL     OW38989   2.427   3.411  11.135  0.2721 -0.3965 -0.4111
 9176SOL    HW138990   2.419   3.414  11.040  1.9595 -0.2055 -0.5492
 9176SOL    HW238991   2.519   3.384  11.145  1.7061  4.1938 -0.9482
 9177SOL     OW38992   2.579   2.987  11.089 -0.4799  0.5326  0.0068
 9177SOL    HW138993   2.646   2.955  11.028  0.8999  0.2162  1.7089
 9177SOL    HW238994   2.614   2.939  11.164 -0.8722 -0.3727 -0.3861
 9178SOL     OW38995   1.968   0.120   6.289 -0.1430 -0.2234  0.1424
 9178SOL    HW138996   2.039   0.139   6.228 -1.1007  1.8626 -0.3356
 9178SOL    HW238997   1.995   0.032   6.317  0.8733  0.1824  0.4259
 9179SOL     OW38998   3.923   3.800  10.983  0.2251  0.3227 -0.1994
 9179SOL    HW138999   3.890   3.721  11.026 -1.2667  1.0433 -0.0121
 9179SOL    HW239000   4.017   3.781  10.986  0.2455  0.6615  1.0660
 9180SOL     OW39001   1.046   4.237  11.774  0.3068 -0.1725 -0.7928
 9180SOL    HW139002   0.994   4.196  11.705  0.6165 -0.4888 -0.8409
 9180SOL    HW239003   1.120   4.260  11.718  0.3729 -3.2612 -2.0168
 9181SOL     OW39004   3.789   4.704   2.182 -0.3848  0.6136 -1.0492
 9181SOL    HW139005   3.698   4.679   2.201  0.5126 -0.0223  2.5232
 9181SOL    HW239006   3.792   4.693   2.087 -1.0393  1.3202 -1.1579
 9182SOL     OW39007   3.037   0.130  17.414 -0.5493 -0.0557  0.1291
 9182SOL    HW139008   2.975   0.134  17.486 -1.7876 -1.7043 -0.8404
 9182SOL    HW239009   2.977   0.092  17.350  1.3158  1.3782 -2.4823
 9183SOL     OW39010   2.334   3.286   7.712 -0.5535 -0.7134  0.0326
 9183SOL    HW139011   2.357   3.219   7.777 -0.7574 -1.3152 -0.5275
 9183SOL    HW239012   2.239   3.278   7.714 -0.7463  1.4545 -0.7220
 9184SOL     OW39013   4.568   1.317  15.970 -0.2802  0.3149 -0.3999
 9184SOL    HW139014   4.655   1.302  15.934 -0.8588 -2.1237 -0.7976
 9184SOL    HW239015   4.531   1.230  15.959 -2.1986  1.1423 -0.4942
 9185SOL     OW39016   2.158   3.502   4.908 -0.5464 -0.3669 -0.0829
 9185SOL    HW139017   2.138   3.470   4.819 -0.8028  2.2721 -0.9686
 9185SOL    HW239018   2.079   3.482   4.957 -1.4021 -0.2454 -1.4229
 9186SOL     OW39019   1.461   1.648   7.339  0.0406  0.0829  0.1413
 9186SOL    HW139020   1.489   1.559   7.361  2.9103  0.9613  0.0887
 9186SOL    HW239021   1.378   1.618   7.303 -0.9315  1.6506  1.1356
 9187SOL     OW39022   3.366   0.096   3.678 -0.6561 -0.1973  0.0311
 9187SOL    HW139023   3.432   0.044   3.631 -1.4337 -0.4270 -0.8085
 9187SOL    HW239024   3.326   0.038   3.742  2.7096 -0.9359  1.4465
 9188SOL     OW39025   1.901   2.964   2.807  0.6973  0.0314 -0.2380
 9188SOL    HW139026   1.915   2.937   2.716 -0.7891 -0.9960 -0.1743
 9188SOL    HW239027   1.816   2.923   2.823  1.2570 -0.4402  1.5050
 9189SOL     OW39028   3.047   3.082   0.368  0.2817  0.3346  0.1452
 9189SOL    HW139029   2.965   3.036   0.351  0.3124 -0.2685  1.5909
 9189SOL    HW239030   3.012   3.135   0.440  2.1493  1.4754  0.2077
 9190SOL     OW39031   1.546   3.637   2.599 -0.0511  0.1730 -0.0148
 9190SOL    HW139032   1.624   3.680   2.634  0.3687  1.5074 -2.5968
 9190SOL    HW239033   1.478   3.698   2.626  0.4290  1.0830 -0.8889
 9191SOL     OW39034   2.179   1.067   5.044 -0.5554 -0.6967 -0.6806
 9191SOL    HW139035   2.150   0.978   5.061 -0.9148 -0.7181 -1.4201
 9191SOL    HW239036   2.173   1.106   5.131 -1.1566 -0.8931 -0.6389
 9192SOL     OW39037   0.756   3.291  13.195 -0.0025 -0.6252 -0.0408
 9192SOL    HW139038   0.843   3.283  13.155  1.2833 -0.7086  2.7809
 9192SOL    HW239039   0.752   3.197  13.209 -1.3720 -0.5835 -0.1910
 9193SOL     OW39040   1.575   1.260  12.967 -0.1752 -0.3756 -0.5035
 9193SOL    HW139041   1.551   1.306  12.887  0.0046  1.2166  0.3619
 9193SOL    HW239042   1.514   1.302  13.029 -1.2361 -1.0788 -1.0608
 9194SOL     OW39043   4.008   1.614   3.778  0.1353 -0.9140  0.2583
 9194SOL    HW139044   4.032   1.677   3.711  0.5282 -0.7162  0.5815
 9194SOL    HW239045   3.919   1.585   3.758  0.3780 -0.2833 -1.6914
 9195SOL     OW39046   3.020   2.084   3.715 -0.2341 -0.2332  0.1190
 9195SOL    HW139047   3.055   2.168   3.686 -1.1860 -0.5331 -1.8423
 9195SOL    HW239048   2.995   2.104   3.806  2.5217  1.0045  0.5863
 9196SOL     OW39049   3.063   3.039   1.592  0.1041  0.0390  0.0924
 9196SOL    HW139050   3.067   2.991   1.675  0.5183  1.0971  0.6734
 9196SOL    HW239051   3.048   3.131   1.613 -0.7206  0.2960 -1.6917
 9197SOL     OW39052   3.877   1.447   6.715  0.0588  0.1446 -0.1352
 9197SOL    HW139053   3.947   1.464   6.778 -0.4957  0.3445  0.4315
 9197SOL    HW239054   3.877   1.524   6.659 -0.2166  0.1675 -0.1028
 9198SOL     OW39055   1.129   3.299   5.078 -0.4605 -0.1221  0.1292
 9198SOL    HW139056   1.057   3.288   5.139 -0.0489 -0.7195  0.5044
 9198SOL    HW239057   1.103   3.361   5.009  1.5511  1.2764  0.6081
 9199SOL     OW39058   0.177   0.267   6.251 -0.2551 -0.1314  0.3075
 9199SOL    HW139059   0.148   0.307   6.169 -2.6757  0.3313  1.3925
 9199SOL    HW239060   0.183   0.349   6.299  0.6023  0.4297 -0.7671
 9200SOL     OW39061   4.340   2.601  12.493  0.1325 -0.2840 -0.3581
 9200SOL    HW139062   4.328   2.515  12.453  0.4711 -0.3935 -0.2201
 9200SOL    HW239063   4.270   2.653  12.454 -1.1965 -1.5130  0.3953
 9201SOL     OW39064   3.798   1.239   1.081 -0.1335  0.4847  0.2261
 9201SOL    HW139065   3.860   1.293   1.032  2.2793 -1.8316  0.7500
 9201SOL    HW239066   3.831   1.256   1.169 -0.0165 -0.6039  0.3930
 9202SOL     OW39067   0.068   0.209   2.322 -0.4737 -0.5909  0.0020
 9202SOL    HW139068   0.073   0.144   2.392  0.8234 -3.5981 -2.8746
 9202SOL    HW239069   4.703   0.247   2.333 -0.9925 -1.4976 -0.8914
 9203SOL     OW39070   3.878   1.310   8.256  0.0795 -0.3947  0.5808
 9203SOL    HW139071   3.806   1.367   8.284  1.3101 -0.2168  3.4008
 9203SOL    HW239072   3.840   1.223   8.256  0.4346 -0.5500 -1.0482
 9204SOL     OW39073   0.038   0.051   1.856  0.1201 -0.5234  0.3566
 9204SOL    HW139074   0.011   4.703   1.797  2.5185 -1.0229 -0.1251
 9204SOL    HW239075   0.075   0.006   1.932  0.5893  2.1428  1.6945
 9205SOL     OW39076   1.315   2.614   8.436  0.3282  0.8250 -0.7273
 9205SOL    HW139077   1.404   2.650   8.442  0.6281 -0.2294  1.2225
 9205SOL    HW239078   1.341   2.523   8.453  0.5653  1.3267  1.6049
 9206SOL     OW39079   0.323   4.308   8.843  0.3298  0.3464  0.2033
 9206SOL    HW139080   0.398   4.255   8.818 -0.8485 -1.5734  0.7018
 9206SOL    HW239081   0.361   4.387   8.881 -1.6265  0.9604  0.9082
 9207SOL     OW39082   3.927   4.693   7.861 -0.4199 -0.3369 -0.7270
 9207SOL    HW139083   3.883   0.055   7.849 -1.0647 -0.3479  1.5545
 9207SOL    HW239084   3.885   4.643   7.791 -1.6216 -1.2558  0.6477
 9208SOL     OW39085   0.735   1.378  16.592 -0.3145  0.1928 -0.0658
 9208SOL    HW139086   0.785   1.297  16.598 -0.9445 -0.0201  2.5883
 9208SOL    HW239087   0.776   1.430  16.523  0.4518  0.9220  0.9283
 9209SOL     OW39088   2.865   3.478   6.280  0.3713  0.0117  0.4386
 9209SOL    HW139089   2.814   3.555   6.253 -0.6894 -0.6261  0.6204
 9209SOL    HW239090   2.944   3.491   6.227 -0.2627  0.3083 -0.4472
 9210SOL     OW39091   1.274   3.892  10.807 -0.9563  0.4850 -0.2463
 9210SOL    HW139092   1.272   3.930  10.895 -0.2569 -3.3225  1.3830
 9210SOL    HW239093   1.352   3.929  10.764  1.9051 -4.2184  0.8912
 9211SOL     OW39094   1.525   3.728  17.350  0.0619 -0.1732  0.6277
 9211SOL    HW139095   1.532   3.670  17.427  1.4727  0.6103  1.0942
 9211SOL    HW239096   1.455   3.788  17.375 -0.8390 -0.9655 -0.0272
 9212SOL     OW39097   4.460   4.469   5.486  0.1504 -0.8671  0.2179
 9212SOL    HW139098   4.452   4.549   5.433 -1.8643 -1.5206 -0.4667
 9212SOL    HW239099   4.436   4.499   5.573 -1.2662  2.0101 -1.1532
 9213SOL     OW39100   4.539   0.722  15.873 -0.0618  0.0888  0.0592
 9213SOL    HW139101   4.494   0.766  15.801  0.0132  0.4139  0.2095
 9213SOL    HW239102   4.471   0.720  15.939  0.1565  0.7101  0.3019
 9214SOL     OW39103   3.098   2.773   8.877 -0.1966  0.2278  0.4554
 9214SOL    HW139104   3.136   2.857   8.900 -0.7027  0.7694 -0.6639
 9214SOL    HW239105   3.067   2.732   8.958  0.2837 -1.0829 -0.0193
 9215SOL     OW39106   1.941   1.776   8.040 -0.4193  0.4604 -0.3611
 9215SOL    HW139107   2.009   1.840   8.019  1.5796 -1.6146 -0.1802
 9215SOL    HW239108   2.002   1.706   8.062 -1.1610 -0.9484 -2.7863
 9216SOL     OW39109   0.625   2.685   2.933 -0.8044  0.1301  0.1805
 9216SOL    HW139110   0.558   2.713   2.996 -1.0885 -0.7147  0.2494
 9216SOL    HW239111   0.576   2.700   2.852 -0.6733 -2.0145 -0.2858
 9217SOL     OW39112   1.142   1.509   5.126  0.7467 -0.3571 -0.0006
 9217SOL    HW139113   1.137   1.436   5.064  1.6576 -1.0384  0.7204
 9217SOL    HW239114   1.191   1.570   5.072 -0.1119 -1.1571 -1.6929
 9218SOL     OW39115   1.457   0.690   3.168 -0.4282 -0.1951  0.4145
 9218SOL    HW139116   1.550   0.692   3.144 -0.5882  0.6098 -0.1483
 9218SOL    HW239117   1.418   0.745   3.100 -0.8006 -1.5952 -0.4966
 9219SOL     OW39118   1.745   3.359  12.247 -0.2748  0.5538  0.2224
 9219SOL    HW139119   1.830   3.391  12.277  0.1267  0.0937 -0.4087
 9219SOL    HW239120   1.676   3.407  12.293  1.6592  3.9275 -0.4022
 9220SOL     OW39121   0.523   0.768   5.374  0.3163 -0.2621  0.7782
 9220SOL    HW139122   0.499   0.844   5.321 -0.2068 -0.6210  0.5119
 9220SOL    HW239123   0.607   0.789   5.416 -0.2659  2.3493  0.6791
 9221SOL     OW39124   0.067   1.545   5.421  0.2223 -0.2348 -0.0275
 9221SOL    HW139125   4.721   1.489   5.457 -0.9204  0.4039 -1.1994
 9221SOL    HW239126   0.014   1.610   5.375 -0.6726 -1.1504 -0.2765
 9222SOL     OW39127   0.304   1.295  11.195 -0.3973 -0.0852 -0.1393
 9222SOL    HW139128   0.315   1.379  11.241 -0.4084 -0.0194 -0.2570
 9222SOL    HW239129   0.226   1.270  11.243 -1.0833  1.5646 -0.3832
 9223SOL     OW39130   0.715   2.075   2.116  0.2184  0.5098 -0.0961
 9223SOL    HW139131   0.738   2.148   2.058 -1.5717  0.3695 -0.9685
 9223SOL    HW239132   0.802   2.039   2.134 -0.8211 -1.5392  0.7940
 9224SOL     OW39133   3.792   0.121   8.338 -0.5340  0.2442 -0.0013
 9224SOL    HW139134   3.736   0.188   8.376 -1.1683  1.0222 -2.2684
 9224SOL    HW239135   3.846   0.089   8.410 -0.4622 -2.8071 -1.4256
 9225SOL     OW39136   0.608   2.373   8.708 -0.2640 -0.0213 -0.3927
 9225SOL    HW139137   0.684   2.425   8.737  0.2457  0.0862 -1.9214
 9225SOL    HW239138   0.615   2.296   8.765 -2.0838 -0.8906 -1.3508
 9226SOL     OW39139   2.285   2.340   6.192 -0.6864 -0.0842 -0.5177
 9226SOL    HW139140   2.236   2.329   6.273  0.7603 -1.2551  0.1858
 9226SOL    HW239141   2.220   2.283   6.150  0.0973 -0.4225 -1.2673
 9227SOL     OW39142   1.409   3.811   6.234  0.0400 -0.2621  0.3666
 9227SOL    HW139143   1.441   3.739   6.180 -0.2446  1.0236 -1.5523
 9227SOL    HW239144   1.488   3.862   6.250 -0.7241  0.8380  0.6995
 9228SOL     OW39145   3.276   4.140   8.854 -0.2287 -0.2886 -0.2548
 9228SOL    HW139146   3.243   4.096   8.933 -3.1676  3.3822  0.5392
 9228SOL    HW239147   3.239   4.082   8.788 -0.1759 -0.0662 -0.4779
 9229SOL     OW39148   3.627   0.500   6.243  0.0102  0.4832 -0.3635
 9229SOL    HW139149   3.580   0.423   6.211 -0.1725  0.8344 -0.9378
 9229SOL    HW239150   3.577   0.576   6.214  0.2099 -0.2343 -2.5879
 9230SOL     OW39151   0.973   0.454   1.820  0.5973 -0.1616  0.0546
 9230SOL    HW139152   0.877   0.461   1.821  0.7301  1.7762 -0.7497
 9230SOL    HW239153   0.994   0.527   1.762  0.2894 -1.0897 -1.2030
 9231SOL     OW39154   3.151   4.324   4.128 -0.3592  0.1530 -0.5446
 9231SOL    HW139155   3.241   4.354   4.117  0.2893 -1.2593  0.7894
 9231SOL    HW239156   3.147   4.248   4.070  1.8536 -0.0736 -0.4198
 9232SOL     OW39157   2.990   0.863  15.003  0.3340 -0.0179  0.2370
 9232SOL    HW139158   3.082   0.858  14.977 -0.1537  1.1314 -1.6950
 9232SOL    HW239159   2.984   0.950  15.043  0.0807  0.3049 -0.4946
 9233SOL     OW39160   4.453   0.864   3.872  0.0396 -0.2980  0.0816
 9233SOL    HW139161   4.397   0.914   3.932  2.0014 -0.4061  2.0101
 9233SOL    HW239162   4.492   0.924   3.809 -0.2987  1.5955  1.6683
 9234SOL     OW39163   0.581   4.127   3.340  0.0497  0.1769  0.4601
 9234SOL    HW139164   0.500   4.104   3.386  0.0549 -0.0171  0.3697
 9234SOL    HW239165   0.646   4.063   3.369  0.2885 -0.1027 -0.6996
 9235SOL     OW39166   4.436   2.240   6.192  0.1380  0.4477 -0.4854
 9235SOL    HW139167   4.460   2.255   6.284  1.7267 -2.2039 -0.4769
 9235SOL    HW239168   4.468   2.318   6.147  1.0861  0.3378  0.0024
 9236SOL     OW39169   2.459   1.596   0.077  0.1680 -0.9297 -0.2785
 9236SOL    HW139170   2.534   1.619   0.023  1.1681 -0.7211  1.2130
 9236SOL    HW239171   2.480   1.654   0.150 -2.3716 -1.0897  0.5827
 9237SOL     OW39172   2.174   1.359  13.436 -0.6268  0.1590  0.4277
 9237SOL    HW139173   2.259   1.345  13.477  0.6601  1.8591 -1.6723
 9237SOL    HW239174   2.115   1.341  13.509  0.2573  2.1794  1.6406
 9238SOL     OW39175   2.315   2.881  10.995 -0.0420  0.1829  0.2276
 9238SOL    HW139176   2.395   2.933  10.983  0.3545  0.3772  3.6541
 9238SOL    HW239177   2.347   2.792  10.977 -2.3703 -0.6706  0.2889
 9239SOL     OW39178   2.153   2.089   2.033 -0.0145 -0.0031  0.0875
 9239SOL    HW139179   2.171   2.065   1.942 -1.8241 -2.4983  0.3954
 9239SOL    HW239180   2.070   2.135   2.019  0.3047  0.6768  0.4430
 9240SOL     OW39181   3.814   0.628  12.974 -0.5179 -0.1890  0.0549
 9240SOL    HW139182   3.797   0.537  12.950 -0.0782  0.2236 -1.8397
 9240SOL    HW239183   3.744   0.648  13.036 -0.7586 -1.2447  0.1326
 9241SOL     OW39184   3.322   4.530   7.870  0.1695  0.0903 -0.3830
 9241SOL    HW139185   3.247   4.521   7.928  0.7914 -0.0105  0.4109
 9241SOL    HW239186   3.370   4.452   7.896 -1.8866 -1.4641 -1.2798
 9242SOL     OW39187   1.533   2.589   1.763  0.7649  0.6234 -0.0493
 9242SOL    HW139188   1.551   2.683   1.776 -1.5393  1.1906 -0.9858
 9242SOL    HW239189   1.611   2.556   1.807  1.7925  2.1447 -0.7287
 9243SOL     OW39190   0.806   0.749   4.253 -0.2296 -0.1251 -0.8384
 9243SOL    HW139191   0.849   0.774   4.335  1.3978 -0.5031 -1.5765
 9243SOL    HW239192   0.859   0.678   4.215 -1.2519 -1.2384 -0.1936
 9244SOL     OW39193   3.839   0.114   4.803 -0.3751 -0.2241 -0.3915
 9244SOL    HW139194   3.759   0.166   4.794  0.3335  1.3639  2.6606
 9244SOL    HW239195   3.871   0.145   4.887 -0.3107  0.2738 -0.6024
 9245SOL     OW39196   4.345   0.758   1.944 -0.5178  0.3375 -0.3837
 9245SOL    HW139197   4.428   0.791   1.979 -1.5442  1.7377  0.7600
 9245SOL    HW239198   4.357   0.791   1.855 -1.5208 -3.2289 -1.8270
 9246SOL     OW39199   4.178   1.438   7.706  0.0797 -0.2995 -0.4717
 9246SOL    HW139200   4.092   1.467   7.736  0.2763  0.1166 -0.3111
 9246SOL    HW239201   4.175   1.470   7.615 -0.3137  2.6447  0.5836
 9247SOL     OW39202   0.227   1.400   2.054 -0.0584 -0.9798  0.1760
 9247SOL    HW139203   0.155   1.411   2.116  0.1713 -1.6981  0.5716
 9247SOL    HW239204   0.306   1.408   2.107 -0.7806 -0.2654  1.1458
 9248SOL     OW39205   3.349   1.455   7.783 -0.4828 -0.2510  0.8100
 9248SOL    HW139206   3.311   1.422   7.865  0.1248 -1.9570  0.4018
 9248SOL    HW239207   3.305   1.541   7.783  2.2350  1.1299  0.9862
 9249SOL     OW39208   1.138   3.155   1.537  0.6850  0.0819 -0.5876
 9249SOL    HW139209   1.196   3.179   1.610 -0.5486  1.3620 -0.0276
 9249SOL    HW239210   1.092   3.239   1.527 -1.8623 -1.1347  0.8413
 9250SOL     OW39211   3.583   3.180   2.306  0.2044  0.0040  0.3898
 9250SOL    HW139212   3.619   3.267   2.285  0.9689 -0.4057 -0.0148
 9250SOL    HW239213   3.515   3.183   2.239  1.0367 -0.6113 -0.4889
 9251SOL     OW39214   0.007   2.319   9.448  0.3103  0.5154 -0.4651
 9251SOL    HW139215   0.007   2.271   9.531 -3.1485 -0.3553 -0.9870
 9251SOL    HW239216   0.101   2.318   9.429 -0.2900  0.2235 -3.4168
 9252SOL     OW39217   2.685   0.492  17.408 -0.0676  0.6083  0.0095
 9252SOL    HW139218   2.726   0.474  17.323 -1.5479  0.0298 -0.5869
 9252SOL    HW239219   2.725   0.577  17.425  4.3076 -1.1482 -1.2582
 9253SOL     OW39220   1.327   4.622   0.196  0.2722 -0.5606 -0.0738
 9253SOL    HW139221   1.399   4.583   0.147 -0.7128 -1.5178 -0.7691
 9253SOL    HW239222   1.353   4.595   0.283 -0.4992 -0.0070  0.3328
 9254SOL     OW39223   3.318   3.863   7.886 -0.3001 -0.1350  0.5792
 9254SOL    HW139224   3.396   3.808   7.877 -1.5743 -2.2863  2.8944
 9254SOL    HW239225   3.356   3.951   7.888 -3.2429  1.1238  1.1578
 9255SOL     OW39226   3.379   1.731   2.519 -0.3180 -0.2755 -0.3376
 9255SOL    HW139227   3.310   1.792   2.495  0.9774  1.0153 -0.7650
 9255SOL    HW239228   3.331   1.650   2.537 -0.1647 -0.0737  0.9843
 9256SOL     OW39229   3.116   2.259   3.104 -0.0964 -0.0888  0.2201
 9256SOL    HW139230   3.032   2.305   3.099 -0.8060 -1.2160  1.9478
 9256SOL    HW239231   3.128   2.209   3.023  1.2544  0.4265  0.1012
 9257SOL     OW39232   0.457   2.378   1.511  0.2376 -0.2056  0.0700
 9257SOL    HW139233   0.532   2.322   1.492  1.0562  0.5439  1.1824
 9257SOL    HW239234   0.495   2.463   1.533 -1.3423  0.3813  0.5683
 9258SOL     OW39235   0.065   1.872   5.834  0.1431 -0.1950  0.0044
 9258SOL    HW139236   0.139   1.872   5.894 -1.5568 -0.2873  2.1173
 9258SOL    HW239237   0.090   1.800   5.776  1.7901  1.5059 -1.3908
 9259SOL     OW39238   3.555   2.287  11.625  0.5114  0.0319 -0.7333
 9259SOL    HW139239   3.623   2.292  11.692  0.0172 -0.1242 -0.2198
 9259SOL    HW239240   3.605   2.330  11.556 -1.1777 -1.6127 -2.9567
 9260SOL     OW39241   1.098   0.036  15.592  0.0409 -0.5980 -0.0094
 9260SOL    HW139242   1.124   4.694  15.657 -0.5708  2.5900  3.4626
 9260SOL    HW239243   1.150   0.107  15.631 -0.1469  0.1401 -1.0776
 9261SOL     OW39244   0.184   4.513   4.171 -0.0365 -0.1301 -0.0728
 9261SOL    HW139245   0.242   4.440   4.148  1.1615  0.8298 -0.0886
 9261SOL    HW239246   0.166   4.482   4.260  1.0693 -2.2049 -0.5850
 9262SOL     OW39247   2.678   4.455   3.359  0.0899 -0.1074  0.1422
 9262SOL    HW139248   2.756   4.407   3.332 -0.2103 -0.6347  0.1863
 9262SOL    HW239249   2.704   4.470   3.450  2.0098 -2.4652 -0.0012
 9263SOL     OW39250   1.736   1.469  16.940  0.5688 -0.2165  0.3881
 9263SOL    HW139251   1.757   1.376  16.937  0.1416 -0.3082  0.2622
 9263SOL    HW239252   1.803   1.495  17.003  0.2656  2.7846 -0.5154
 9264SOL     OW39253   0.994   2.316   2.675 -0.7711 -0.1978 -0.6685
 9264SOL    HW139254   0.924   2.261   2.640 -0.1347 -2.0222  0.9314
 9264SOL    HW239255   1.062   2.280   2.618  0.4508 -0.0686  0.7032
 9265SOL     OW39256   3.553   3.171  14.667 -0.3364 -0.3760 -0.5233
 9265SOL    HW139257   3.618   3.204  14.605  0.4742 -0.1571  0.4554
 9265SOL    HW239258   3.606   3.175  14.746 -0.7006  1.1592 -0.3551
 9266SOL     OW39259   0.504   3.475   2.656 -0.1925  0.4533  0.2222
 9266SOL    HW139260   0.529   3.390   2.691 -0.9742  0.4330  0.7399
 9266SOL    HW239261   0.594   3.498   2.633  0.7122 -2.8142  0.5341
 9267SOL     OW39262   2.292   4.303   8.068 -0.6224 -0.1137  0.2479
 9267SOL    HW139263   2.386   4.315   8.081 -0.5133 -1.7194  0.8980
 9267SOL    HW239264   2.294   4.264   7.980  0.1500 -1.4986  0.8745
 9268SOL     OW39265   2.230   1.469   2.892  0.2265  0.7591  0.0885
 9268SOL    HW139266   2.159   1.442   2.834 -0.7934  1.6582  0.9167
 9268SOL    HW239267   2.280   1.524   2.832 -0.0074 -2.8203 -3.3386
 9269SOL     OW39268   0.256   0.929   9.114  0.5984  1.0028 -0.3958
 9269SOL    HW139269   0.273   0.968   9.028 -0.3606 -0.4576 -1.2608
 9269SOL    HW239270   0.162   0.949   9.116  0.1511 -0.9918 -0.9807
 9270SOL     OW39271   2.485   3.588   7.583  0.0567  0.1423  0.4256
 9270SOL    HW139272   2.474   3.620   7.672 -0.8149  0.2365  0.2759
 9270SOL    HW239273   2.571   3.630   7.573 -1.0961  2.2777 -0.3971
 9271SOL     OW39274   2.028   3.060   3.786 -0.2632  0.0252 -0.2723
 9271SOL    HW139275   2.093   3.066   3.856 -0.7982 -0.9025  0.2884
 9271SOL    HW239276   1.968   2.995   3.821 -1.7006  0.6176 -1.6205
 9272SOL     OW39277   1.838   3.056   7.473  0.1132  0.2671  0.2375
 9272SOL    HW139278   1.788   3.010   7.540  0.9281  1.9318  1.9552
 9272SOL    HW239279   1.921   3.009   7.465 -0.8079 -1.3491  0.2354
 9273SOL     OW39280   0.832   0.595  14.763 -0.3191  0.2808  0.2466
 9273SOL    HW139281   0.760   0.641  14.806  1.0997  0.8336  2.0279
 9273SOL    HW239282   0.858   0.551  14.844 -0.8224 -1.9270 -0.7904
 9274SOL     OW39283   0.346   4.637   0.519 -0.3017  0.6479 -0.0047
 9274SOL    HW139284   0.385   4.650   0.606 -0.7501  0.1650  0.2651
 9274SOL    HW239285   0.326   0.000   0.482 -2.7951  0.1022  0.1314
 9275SOL     OW39286   4.460   3.945   7.783  0.4342  0.0668  0.4647
 9275SOL    HW139287   4.507   4.024   7.809  0.0500  1.2018 -2.3489
 9275SOL    HW239288   4.522   3.879   7.815 -0.6499 -0.7281  0.9240
 9276SOL     OW39289   0.263   4.573  11.411 -0.2880  0.6956 -0.2220
 9276SOL    HW139290   0.203   4.521  11.465  1.6312 -0.2853  0.9764
 9276SOL    HW239291   0.206   4.585  11.335 -0.8689  1.7169  0.3723
 9277SOL     OW39292   1.012   0.732   6.547  0.0688  0.1694 -0.3686
 9277SOL    HW139293   1.026   0.670   6.619 -0.0906 -0.5221 -0.9253
 9277SOL    HW239294   0.928   0.697   6.517  1.2279 -1.8443 -1.3107
 9278SOL     OW39295   3.302   2.680   4.572 -0.1316 -0.1035 -0.1507
 9278SOL    HW139296   3.359   2.609   4.605 -1.2394  0.6388  3.3029
 9278SOL    HW239297   3.358   2.710   4.501 -2.4070 -1.0923 -2.3353
 9279SOL     OW39298   1.468   1.802   5.640 -0.5239  0.7560  0.5504
 9279SOL    HW139299   1.445   1.800   5.547  0.1078  2.7343  0.3527
 9279SOL    HW239300   1.410   1.871   5.673  1.1348  1.5379  1.8630
 9280SOL     OW39301   2.663   0.408   3.584  0.2781  0.2033 -0.0575
 9280SOL    HW139302   2.609   0.487   3.596 -2.5724 -1.9362  1.2093
 9280SOL    HW239303   2.651   0.373   3.672 -3.7887  0.7917 -0.3397
 9281SOL     OW39304   0.029   0.670   3.401  0.0232  0.6003 -0.0236
 9281SOL    HW139305   0.061   0.584   3.372 -0.1210  0.2097  0.9847
 9281SOL    HW239306   0.041   0.674   3.495  0.1840  2.6281 -0.1212
 9282SOL     OW39307   4.579   1.131   2.117 -0.3840  0.6275 -0.0012
 9282SOL    HW139308   4.549   1.106   2.029 -0.0384  3.5442 -0.9581
 9282SOL    HW239309   4.559   1.046   2.155  0.2209  0.5101  0.0634
 9283SOL     OW39310   0.580   3.178   6.052 -0.5298  0.2449 -0.1974
 9283SOL    HW139311   0.495   3.218   6.072 -0.6092  0.7432 -1.5159
 9283SOL    HW239312   0.601   3.146   6.140 -0.6409 -0.3861 -0.3995
 9284SOL     OW39313   2.582   0.445   9.178  0.2329  0.0942 -0.0687
 9284SOL    HW139314   2.594   0.352   9.161 -0.2397 -0.1771  1.1145
 9284SOL    HW239315   2.626   0.475   9.098 -1.8606  0.0656 -1.2416
 9285SOL     OW39316   3.172   4.473  16.744 -0.1056  0.0431 -0.1017
 9285SOL    HW139317   3.165   4.382  16.773  1.8370 -0.2624 -0.5998
 9285SOL    HW239318   3.102   4.488  16.681  0.1285  0.5116 -0.2507
 9286SOL     OW39319   2.601   3.389   6.057 -0.2357  0.0214  0.1138
 9286SOL    HW139320   2.693   3.407   6.038 -0.5081  0.8114 -0.4277
 9286SOL    HW239321   2.581   3.300   6.026 -1.9063  0.5476 -0.2957
 9287SOL     OW39322   4.134   0.951  14.473  0.2547 -0.5730  0.4890
 9287SOL    HW139323   4.044   0.943  14.505  0.0097  0.1637 -0.0219
 9287SOL    HW239324   4.121   0.967  14.380 -0.9170 -1.6499  0.4734
 9288SOL     OW39325   3.958   0.755   7.681  0.3476 -0.0028  0.0536
 9288SOL    HW139326   3.954   0.816   7.607 -0.9106 -1.1481 -0.8242
 9288SOL    HW239327   4.028   0.698   7.649  0.6676  0.5276 -0.1920
 9289SOL     OW39328   4.188   4.005   8.761 -0.2295  0.3505  0.1116
 9289SOL    HW139329   4.279   3.988   8.736 -0.3879  0.6747 -0.7113
 9289SOL    HW239330   4.137   3.978   8.684 -0.8041  1.0749  0.2260
 9290SOL     OW39331   3.319   1.241  16.596 -0.3163 -0.1390 -0.6269
 9290SOL    HW139332   3.283   1.191  16.669 -1.9915 -2.4320 -3.0421
 9290SOL    HW239333   3.403   1.266  16.634 -0.6732  1.4114 -0.8382
 9291SOL     OW39334   2.724   0.581   5.491 -0.5255 -0.7055  0.0866
 9291SOL    HW139335   2.794   0.527   5.527  0.3456  0.8452  0.6838
 9291SOL    HW239336   2.704   0.541   5.407  0.2996 -0.6981 -0.1131
 9292SOL     OW39337   4.704   4.573   5.836 -0.6731  0.0036 -0.1382
 9292SOL    HW139338   4.702   4.620   5.752  1.5997  1.5350  0.6385
 9292SOL    HW239339   4.615   4.586   5.867 -0.8814  0.1219 -0.7788
 9293SOL     OW39340   4.519   0.987  11.286  0.3675  0.3586  0.1854
 9293SOL    HW139341   4.556   0.899  11.290 -3.7217 -1.4814 -1.6667
 9293SOL    HW239342   4.583   1.024  11.226 -0.5537  0.4596 -0.7400
 9294SOL     OW39343   0.893   3.959  15.935 -0.2969 -0.1740  0.0172
 9294SOL    HW139344   0.986   3.944  15.921 -0.1922  0.0907  0.4247
 9294SOL    HW239345   0.898   4.048  15.970 -2.0357 -0.2130  0.3839
 9295SOL     OW39346   2.809   3.130  17.659 -0.9006 -0.0327  0.2745
 9295SOL    HW139347   2.806   3.053   0.023  1.7730 -0.5601 -0.3141
 9295SOL    HW239348   2.835   3.199   0.027  0.2348 -0.2103 -0.0132
 9296SOL     OW39349   2.724   3.180   6.360 -0.1601 -0.9819  0.1546
 9296SOL    HW139350   2.722   3.275   6.374 -2.0827 -0.9669 -0.3385
 9296SOL    HW239351   2.629   3.175   6.360 -0.1843 -0.5199 -2.3102
 9297SOL     OW39352   3.100   2.059   7.956  0.1307  0.3412 -0.1873
 9297SOL    HW139353   3.155   2.134   7.934 -0.2408  0.6181 -0.1670
 9297SOL    HW239354   3.138   2.025   8.037  0.1722  0.6164 -0.0911
 9298SOL     OW39355   0.311   1.913   9.385  0.3042  0.0302  0.8519
 9298SOL    HW139356   0.323   1.906   9.291 -1.9405 -1.9652  0.7080
 9298SOL    HW239357   0.287   1.825   9.413 -1.3625  0.8136  1.9142
 9299SOL     OW39358   4.193   0.159  17.060  0.0953  0.6608 -0.0895
 9299SOL    HW139359   4.141   0.082  17.082  0.2797  0.4770 -0.3080
 9299SOL    HW239360   4.208   0.151  16.966 -1.4943 -0.1432 -0.2888
 9300SOL     OW39361   2.220   4.066   3.593 -0.0592 -0.2909  0.2903
 9300SOL    HW139362   2.273   4.117   3.531 -0.8029 -1.3502 -1.1963
 9300SOL    HW239363   2.210   3.991   3.535 -1.9917  0.1616  0.0531
 9301SOL     OW39364   0.040   4.478   1.008  0.3762  0.6193 -0.0857
 9301SOL    HW139365   0.009   4.566   0.988  0.0748  0.6828  0.6418
 9301SOL    HW239366   0.052   4.452   0.917 -0.4743 -0.6956  0.1804
 9302SOL     OW39367   1.185   2.459   5.048 -0.1873  0.6820 -0.4867
 9302SOL    HW139368   1.111   2.479   4.991 -0.3440 -1.1825 -0.9307
 9302SOL    HW239369   1.171   2.366   5.066 -1.8127  0.6010 -2.1606
 9303SOL     OW39370   3.984   1.449   8.967  0.1719 -0.0252  0.1998
 9303SOL    HW139371   3.959   1.541   8.963 -2.2185 -0.7099 -0.7342
 9303SOL    HW239372   4.067   1.460   9.013  0.4085 -0.3279 -0.1534
 9304SOL     OW39373   1.484   3.481  14.650 -0.0946  0.3426  0.7551
 9304SOL    HW139374   1.403   3.529  14.669 -1.4115 -1.7783  0.4896
 9304SOL    HW239375   1.474   3.477  14.555 -0.0714 -1.4744  0.8337
 9305SOL     OW39376   0.691   3.617   6.248 -0.2452 -0.0341 -0.2658
 9305SOL    HW139377   0.618   3.557   6.262 -0.7138  0.6533  0.2807
 9305SOL    HW239378   0.755   3.559   6.208  0.0859 -0.4156  0.8126
 9306SOL     OW39379   1.257   2.915   2.157 -0.2338  0.0689  0.8470
 9306SOL    HW139380   1.287   2.969   2.230  3.0984 -0.0383 -0.3930
 9306SOL    HW239381   1.276   2.829   2.195 -1.8080  1.2122  4.2161
 9307SOL     OW39382   1.977   1.477   5.375 -0.3542 -1.0864 -0.2594
 9307SOL    HW139383   1.882   1.475   5.361 -0.3634 -0.1050 -0.2760
 9307SOL    HW239384   1.995   1.389   5.342 -0.9296 -1.7901  1.2984
 9308SOL     OW39385   1.738   0.947   7.365  0.3025  0.4122  0.3562
 9308SOL    HW139386   1.684   0.869   7.348 -0.5984  0.8527  1.1861
 9308SOL    HW239387   1.824   0.906   7.355 -0.8379 -2.3101  1.5793
 9309SOL     OW39388   3.413   1.413   1.736  0.0038 -0.2527  0.4362
 9309SOL    HW139389   3.423   1.324   1.769  2.9270  0.3541  1.1238
 9309SOL    HW239390   3.483   1.460   1.781 -0.9603 -0.0573  1.7347
 9310SOL     OW39391   0.512   3.539   4.396 -0.6261  0.3502  0.8598
 9310SOL    HW139392   0.457   3.461   4.397 -0.6039  0.2995 -1.4391
 9310SOL    HW239393   0.496   3.575   4.483  1.9019  0.7371  1.1500
 9311SOL     OW39394   1.543   3.234  16.602  0.7520 -0.0666 -0.0963
 9311SOL    HW139395   1.582   3.147  16.594  1.4219  0.1873  0.4179
 9311SOL    HW239396   1.581   3.283  16.529 -0.0983  0.5635 -0.1227
 9312SOL     OW39397   2.589   3.462   2.767  0.0997  0.6770 -0.3142
 9312SOL    HW139398   2.573   3.495   2.856 -1.1063 -0.4517 -0.1168
 9312SOL    HW239399   2.685   3.459   2.763  0.0662 -0.7222  0.0235
 9313SOL     OW39400   3.263   1.196   7.029  0.0262 -0.1247  0.1913
 9313SOL    HW139401   3.298   1.281   7.052 -0.3303 -0.0371  0.4191
 9313SOL    HW239402   3.184   1.185   7.082 -0.3590  1.2026 -0.1138
 9314SOL     OW39403   2.132   2.217   5.276 -0.4990 -0.8454  0.2077
 9314SOL    HW139404   2.173   2.288   5.325 -2.7106 -0.3336  1.2868
 9314SOL    HW239405   2.107   2.163   5.351 -1.2780 -1.3558 -0.4180
 9315SOL     OW39406   1.179   4.290   2.782  0.0902  1.0244 -0.1852
 9315SOL    HW139407   1.249   4.312   2.844  0.0211 -2.9743  1.3071
 9315SOL    HW239408   1.229   4.232   2.724 -2.1530 -1.3682  0.2726
 9316SOL     OW39409   1.867   1.556   9.764 -0.7236  0.2377  0.1917
 9316SOL    HW139410   1.775   1.582   9.770 -0.6524 -0.0010  2.4553
 9316SOL    HW239411   1.877   1.540   9.670 -2.1593  1.7967 -0.2248
 9317SOL     OW39412   0.102   0.716   4.294 -0.1068  0.3135 -0.2524
 9317SOL    HW139413   0.167   0.704   4.225 -1.9234 -0.6802 -1.7961
 9317SOL    HW239414   0.140   0.683   4.375 -1.3524 -0.1816  0.1280
 9318SOL     OW39415   3.730   3.055   8.661  0.1909  0.4867 -0.1571
 9318SOL    HW139416   3.751   3.123   8.597 -1.8347  1.2083 -0.0519
 9318SOL    HW239417   3.724   3.095   8.748 -1.1714 -0.3177  0.1064
 9319SOL     OW39418   1.764   4.650  11.207 -0.1149  0.0027  0.4510
 9319SOL    HW139419   1.689   4.671  11.263  0.2286  1.2211  0.4585
 9319SOL    HW239420   1.757   4.717  11.139 -0.4891  0.8204  1.2900
 9320SOL     OW39421   0.624   3.412   1.617 -0.1836  0.0502  0.2191
 9320SOL    HW139422   0.644   3.326   1.581  2.0982  1.3919 -1.7114
 9320SOL    HW239423   0.588   3.457   1.541 -1.1694 -1.1358 -0.0165
 9321SOL     OW39424   4.611   1.194  10.774  0.1073  0.1806  0.7111
 9321SOL    HW139425   4.631   1.280  10.810 -0.6788 -0.3444  2.3986
 9321SOL    HW239426   4.584   1.217  10.685 -1.2788 -1.0506  0.8140
 9322SOL     OW39427   0.864   1.483   5.530 -0.2944  0.0890  0.1342
 9322SOL    HW139428   0.832   1.573   5.543 -2.2796 -0.5139 -0.6303
 9322SOL    HW239429   0.941   1.492   5.474 -0.0416  2.1339  0.7929
 9323SOL     OW39430   4.360   1.755   6.830  0.3670 -0.7501 -0.0612
 9323SOL    HW139431   4.311   1.836   6.816  2.1743  0.4677  0.6582
 9323SOL    HW239432   4.445   1.799   6.829  0.1607 -0.3484  0.1128
 9324SOL     OW39433   2.592   1.460   7.748  0.5558  0.6377 -0.0157
 9324SOL    HW139434   2.671   1.514   7.739  0.5675  0.4668 -0.9481
 9324SOL    HW239435   2.586   1.448   7.842  0.1160  2.1239  0.1476
 9325SOL     OW39436   2.578   2.989   9.179 -0.3676  0.0895 -0.1868
 9325SOL    HW139437   2.618   2.915   9.133  0.7258 -0.4656  1.6575
 9325SOL    HW239438   2.601   3.061   9.121  0.5783 -0.0439  0.0116
 9326SOL     OW39439   1.990   2.653   5.832  0.4455 -0.5841 -0.2272
 9326SOL    HW139440   1.995   2.587   5.901  2.3489  0.3414  0.5336
 9326SOL    HW239441   2.000   2.732   5.885 -1.2141  0.3092 -1.2482
 9327SOL     OW39442   0.394   3.101   1.446 -0.0868  0.6847 -0.3725
 9327SOL    HW139443   0.381   3.196   1.447  0.9502  0.7832  1.9045
 9327SOL    HW239444   0.312   3.069   1.407 -0.3427  0.7925  0.0746
 9328SOL     OW39445   1.468   0.617   8.026  0.0675  0.2006 -0.3954
 9328SOL    HW139446   1.465   0.608   7.931 -0.6567  1.1898 -0.4647
 9328SOL    HW239447   1.375   0.600   8.039  0.1871 -0.6319 -0.6216
 9329SOL     OW39448   2.084   0.253  11.727 -0.0178 -0.1671 -0.1858
 9329SOL    HW139449   2.092   0.216  11.639 -0.7095 -3.2803  1.0517
 9329SOL    HW239450   2.028   0.328  11.707  0.2287  0.1538  0.3321
 9330SOL     OW39451   0.848   1.557   6.586  0.6830  0.4876  0.4551
 9330SOL    HW139452   0.832   1.464   6.572 -3.7598  1.3956 -0.4893
 9330SOL    HW239453   0.782   1.583   6.650  0.0033 -0.1631  0.0231
 9331SOL     OW39454   4.576   3.914   2.080  0.0898 -0.2322  0.4197
 9331SOL    HW139455   4.539   3.864   2.007 -1.4576  1.5390  0.0097
 9331SOL    HW239456   4.626   3.843   2.121 -0.3803  0.2216  1.7621
 9332SOL     OW39457   2.118   0.228   8.135 -0.5247  0.6742  0.0640
 9332SOL    HW139458   2.200   0.210   8.088  0.9862 -1.4740  3.4954
 9332SOL    HW239459   2.089   0.302   8.082  1.8086 -0.0453 -2.2069
 9333SOL     OW39460   2.682   2.491   0.666  1.0834  0.3615  0.1672
 9333SOL    HW139461   2.661   2.401   0.690 -0.3464  0.9029  0.9771
 9333SOL    HW239462   2.722   2.511   0.751 -0.1767 -0.5131  0.9597
 9334SOL     OW39463   4.421   1.476   4.159 -0.0296 -0.3767 -0.0134
 9334SOL    HW139464   4.387   1.566   4.164 -1.0676 -0.8144  0.9051
 9334SOL    HW239465   4.340   1.427   4.143 -0.1403 -0.1569 -0.1275
 9335SOL     OW39466   0.059   2.846   7.350 -0.3341 -0.3951 -0.2847
 9335SOL    HW139467   0.081   2.754   7.334  1.0503 -0.2078  0.5059
 9335SOL    HW239468   4.699   2.835   7.399 -1.0012 -2.2593 -1.8501
 9336SOL     OW39469   2.830   4.427   1.820 -0.6359 -0.3716 -0.3841
 9336SOL    HW139470   2.762   4.381   1.869  0.3038  1.1749  2.4128
 9336SOL    HW239471   2.845   4.494   1.886  1.0462 -1.5365  0.4411
 9337SOL     OW39472   2.569   2.199  13.330 -0.2344 -0.5086  0.2822
 9337SOL    HW139473   2.501   2.158  13.276  2.3734 -2.0723 -1.7873
 9337SOL    HW239474   2.623   2.122  13.350  1.5156  0.1998 -1.8148
 9338SOL     OW39475   4.300   3.753   4.087 -0.0357 -0.6556  0.0073
 9338SOL    HW139476   4.340   3.669   4.062  1.9984  0.9369 -2.0656
 9338SOL    HW239477   4.216   3.744   4.043 -0.0400 -0.2298 -0.0615
 9339SOL     OW39478   1.168   3.900   2.992  0.3132  0.4130  0.7428
 9339SOL    HW139479   1.260   3.924   3.007  0.6054  1.4733 -2.5758
 9339SOL    HW239480   1.180   3.848   2.912  2.1131  1.8806  0.0631
 9340SOL     OW39481   1.201   0.449  12.813  0.1352 -0.3477 -0.4798
 9340SOL    HW139482   1.243   0.440  12.727  2.3012 -0.3031  0.5819
 9340SOL    HW239483   1.198   0.545  12.814 -0.0471 -0.3720  0.8158
 9341SOL     OW39484   1.930   1.513   3.781 -0.4090  0.1012  0.1579
 9341SOL    HW139485   1.880   1.437   3.811  1.5919  0.0001  3.2753
 9341SOL    HW239486   1.987   1.539   3.854 -0.4791 -0.1329  0.2942
 9342SOL     OW39487   1.791   1.341   7.186 -1.1338 -0.2334 -0.3292
 9342SOL    HW139488   1.820   1.385   7.266  0.1185  1.4249 -1.6912
 9342SOL    HW239489   1.865   1.349   7.125 -0.0223 -1.1175  0.9049
 9343SOL     OW39490   1.960   1.759   7.309  0.0896  0.6377 -0.0857
 9343SOL    HW139491   1.947   1.836   7.254 -0.5562  0.3568 -0.3338
 9343SOL    HW239492   2.000   1.690   7.256 -0.3001  1.4408 -1.4330
 9344SOL     OW39493   1.062   1.631   6.754 -0.1240 -0.0804  0.8655
 9344SOL    HW139494   0.984   1.604   6.705  0.8685 -1.6790  0.2018
 9344SOL    HW239495   1.113   1.551   6.746 -0.5330 -0.2302 -0.2936
 9345SOL     OW39496   2.356   2.985   0.604  0.0993 -0.4587  0.7047
 9345SOL    HW139497   2.327   2.904   0.647  0.5877  0.1506  2.1527
 9345SOL    HW239498   2.272   3.030   0.596  0.7911  0.5999 -0.5518
 9346SOL     OW39499   2.008   3.391   3.282  0.5497  0.4066  0.1739
 9346SOL    HW139500   1.939   3.334   3.315  1.0513  0.4758  1.3598
 9346SOL    HW239501   2.001   3.380   3.188  0.6988 -3.4026  0.6348
 9347SOL     OW39502   0.553   0.188   4.373 -0.0117 -0.2016 -0.2577
 9347SOL    HW139503   0.528   0.169   4.283 -0.1392  2.8034 -0.8495
 9347SOL    HW239504   0.597   0.272   4.364 -0.7811  0.7217  4.2355
 9348SOL     OW39505   2.765   1.645   9.220  0.1380  0.1002  1.0624
 9348SOL    HW139506   2.822   1.717   9.247  0.5395  0.2767 -0.2475
 9348SOL    HW239507   2.754   1.608   9.307  0.6970 -2.0709  0.2159
 9349SOL     OW39508   1.653   4.128   5.248  0.3176 -0.0177 -0.0080
 9349SOL    HW139509   1.745   4.131   5.274  0.2375  1.1639  0.1453
 9349SOL    HW239510   1.620   4.038   5.247 -0.9569  0.4645 -2.5101
 9350SOL     OW39511   0.079   3.494   1.339  0.0601  0.1395 -0.0991
 9350SOL    HW139512   0.161   3.464   1.376 -1.6762  0.4843  4.0213
 9350SOL    HW239513   0.101   3.587   1.347 -0.9492  0.4749 -1.0396
 9351SOL     OW39514   0.456   0.306   6.196 -0.3740  0.1207  0.0369
 9351SOL    HW139515   0.450   0.267   6.108  0.1694  0.6745 -0.2437
 9351SOL    HW239516   0.370   0.292   6.237 -0.4123  1.3530  0.3701
 9352SOL     OW39517   2.497   1.737  14.624 -0.1855  0.2106 -0.9277
 9352SOL    HW139518   2.451   1.656  14.647 -0.9621  0.9848  0.2599
 9352SOL    HW239519   2.423   1.797  14.618 -1.3956 -1.2383 -0.3529
 9353SOL     OW39520   1.821   2.130   7.627  0.3123  0.0660  0.2471
 9353SOL    HW139521   1.795   2.038   7.634  0.1508  0.0551 -0.4247
 9353SOL    HW239522   1.783   2.164   7.707  0.2796  1.2224 -0.2652
 9354SOL     OW39523   4.313   0.793   4.369  0.2586  0.7246 -0.4610
 9354SOL    HW139524   4.350   0.881   4.380  0.9103  0.4987 -0.7912
 9354SOL    HW239525   4.390   0.749   4.332  0.4033  1.0406 -0.5340
 9355SOL     OW39526   0.724   0.317   1.862 -0.0000  0.6926  0.1557
 9355SOL    HW139527   0.643   0.321   1.811 -0.4116 -1.3371  0.6352
 9355SOL    HW239528   0.728   0.223   1.881 -0.9557  0.2357 -1.8080
 9356SOL     OW39529   3.293   0.352   1.087  0.3112  0.4639  0.0819
 9356SOL    HW139530   3.297   0.446   1.099  0.7984  0.2785  1.3405
 9356SOL    HW239531   3.200   0.331   1.093  0.4010  0.3439  1.0226
 9357SOL     OW39532   0.025   1.092  15.630  0.6309 -0.1236 -0.0152
 9357SOL    HW139533   0.043   1.008  15.674 -3.4776  0.1043  2.1929
 9357SOL    HW239534   4.710   1.066  15.546  0.4627 -2.2317  0.7066
 9358SOL     OW39535   4.117   1.475   1.615  0.5111 -0.1975  0.3214
 9358SOL    HW139536   4.150   1.564   1.603  0.2446 -0.2667 -0.9330
 9358SOL    HW239537   4.039   1.502   1.663 -1.3738 -3.8349 -0.7383
 9359SOL     OW39538   0.387   2.895  10.899  0.3542 -0.0737 -0.1602
 9359SOL    HW139539   0.429   2.842  10.831 -2.2894 -0.7307 -1.2643
 9359SOL    HW239540   0.388   2.839  10.976 -0.1165  0.3365  0.1471
 9360SOL     OW39541   1.528   1.439   7.811  0.5751 -0.2729 -0.4377
 9360SOL    HW139542   1.601   1.501   7.821 -0.6479  1.1354 -0.2712
 9360SOL    HW239543   1.457   1.479   7.860  1.6221  1.4945 -0.3365
 9361SOL     OW39544   3.966   1.063   7.027 -0.3826 -0.8380  0.1245
 9361SOL    HW139545   3.910   1.114   7.086  0.5223  2.1421 -1.5714
 9361SOL    HW239546   3.916   0.982   7.020 -0.3714 -1.0965  3.1447
 9362SOL     OW39547   2.559   4.716  17.217  0.1478  0.4375 -0.1547
 9362SOL    HW139548   2.607   4.662  17.155 -0.4480 -0.5516  0.2545
 9362SOL    HW239549   2.516   4.643  17.261 -2.5366  2.1574  0.0846
 9363SOL     OW39550   3.904   3.799  11.833 -0.0271 -0.3560 -0.5061
 9363SOL    HW139551   3.934   3.815  11.743 -0.5399  1.4285 -0.3581
 9363SOL    HW239552   3.942   3.713  11.852  2.2344  0.4647 -1.2985
 9364SOL     OW39553   4.260   2.935   6.328  0.2535  0.2872  0.0801
 9364SOL    HW139554   4.218   3.020   6.343  0.2574 -0.2381  2.9611
 9364SOL    HW239555   4.341   2.954   6.375  1.0179  1.3633 -1.6548
 9365SOL     OW39556   2.312   0.168   3.299 -0.1338 -0.1493 -0.2367
 9365SOL    HW139557   2.311   0.129   3.212 -0.1989 -0.7836  0.0538
 9365SOL    HW239558   2.377   0.239   3.305  1.8550 -1.8681 -1.5598
 9366SOL     OW39559   2.874   2.496   2.677 -0.3321 -0.3494  0.5450
 9366SOL    HW139560   2.956   2.531   2.642  0.3913 -3.4876 -0.9121
 9366SOL    HW239561   2.804   2.552   2.644 -0.8439 -0.3567  1.6192
 9367SOL     OW39562   4.429   2.742   6.084 -0.2081  0.4922  0.6305
 9367SOL    HW139563   4.460   2.683   6.153 -0.7744 -2.5685 -1.7559
 9367SOL    HW239564   4.417   2.828   6.125 -0.9543  0.5502  0.2777
 9368SOL     OW39565   3.952   0.655   4.046  0.1921 -0.4359 -0.5384
 9368SOL    HW139566   3.858   0.634   4.053  0.1403  0.7024  2.0669
 9368SOL    HW239567   3.967   0.707   4.125 -0.2011  1.6277 -1.8252
 9369SOL     OW39568   2.280   2.488  16.613 -0.2807 -0.3769  0.0847
 9369SOL    HW139569   2.356   2.537  16.645  2.0063 -2.4243 -2.1833
 9369SOL    HW239570   2.304   2.481  16.520 -2.2884 -2.6145 -0.2609
 9370SOL     OW39571   0.008   1.718   9.356  0.3463  0.0524  0.2552
 9370SOL    HW139572   0.064   1.673   9.294  0.0712 -1.5779  1.1949
 9370SOL    HW239573   4.664   1.651   9.372  0.7343  0.1995  2.5511
 9371SOL     OW39574   4.201   1.214  15.539 -0.4586 -0.0705 -0.3448
 9371SOL    HW139575   4.254   1.227  15.461  1.4027  1.1913  1.1187
 9371SOL    HW239576   4.271   1.195  15.601 -1.1805  0.7819  0.7295
 9372SOL     OW39577   3.041   1.152   8.813  0.1471 -0.1343 -0.2097
 9372SOL    HW139578   3.022   1.154   8.906 -1.2454 -1.7800 -0.4575
 9372SOL    HW239579   3.055   1.061   8.788  0.9489  0.5893 -2.4707
 9373SOL     OW39580   2.120   2.492   3.099  0.3256  0.2279 -0.4740
 9373SOL    HW139581   2.170   2.515   3.021 -1.3446 -1.3164 -1.9888
 9373SOL    HW239582   2.068   2.414   3.080  1.2679 -0.5334  0.0218
 9374SOL     OW39583   0.274   2.856   4.600 -0.0499  0.1021  0.6036
 9374SOL    HW139584   0.327   2.882   4.676 -0.7401 -1.1608  1.5080
 9374SOL    HW239585   0.258   2.764   4.621 -1.7047  0.7486  2.1272
 9375SOL     OW39586   4.184   0.215   7.934  0.3288 -0.3577 -0.2066
 9375SOL    HW139587   4.280   0.218   7.930  0.3339  0.0817  0.2389
 9375SOL    HW239588   4.170   0.156   8.008 -3.1220  0.6758 -0.0287
 9376SOL     OW39589   2.948   4.068   7.287  0.3272  0.2651 -0.0410
 9376SOL    HW139590   2.892   4.025   7.352 -0.4881  2.2380  0.5619
 9376SOL    HW239591   2.884   4.068   7.216 -0.1323 -1.9354  0.3659
 9377SOL     OW39592   0.362   1.045   5.743 -0.6403  0.1874  0.3345
 9377SOL    HW139593   0.450   1.039   5.706 -0.6568  0.5762  0.2239
 9377SOL    HW239594   0.317   1.106   5.684 -0.8805 -1.7242 -1.4662
 9378SOL     OW39595   0.939   1.208   3.265 -0.5143 -0.0093 -0.1788
 9378SOL    HW139596   0.875   1.264   3.221  0.5625  1.6777  0.4151
 9378SOL    HW239597   1.022   1.241   3.229 -0.4716  0.8172  0.6894
 9379SOL     OW39598   1.965   2.145   6.612  0.2338  0.0702 -0.0997
 9379SOL    HW139599   1.943   2.052   6.622  0.3827  0.2266  1.5875
 9379SOL    HW239600   1.901   2.192   6.665 -0.8245 -2.3993  0.8098
 9380SOL     OW39601   0.256   2.580   9.029  0.1472  0.3046  0.1965
 9380SOL    HW139602   0.325   2.569   9.094 -0.0773  1.2648  0.5918
 9380SOL    HW239603   0.191   2.518   9.059  1.3524 -1.3650 -0.6530
 9381SOL     OW39604   3.676   3.925   4.630 -0.3724 -0.2954  0.5835
 9381SOL    HW139605   3.648   3.835   4.650  0.1529 -0.9508 -1.5627
 9381SOL    HW239606   3.591   3.964   4.613 -1.2851 -2.3829  0.4004
 9382SOL     OW39607   3.653   0.023   3.903 -0.0438 -0.0285 -0.5756
 9382SOL    HW139608   3.659   4.652   3.883  3.2639  0.0184  0.3140
 9382SOL    HW239609   3.719   0.062   3.846  2.0736  0.0451  1.9278
 9383SOL     OW39610   3.357   3.450  15.460  0.3418  0.0784 -0.0026
 9383SOL    HW139611   3.277   3.497  15.481 -0.6316 -1.0482 -1.1901
 9383SOL    HW239612   3.388   3.405  15.538 -0.7040  3.2547  2.2371
 9384SOL     OW39613   1.146   3.609   5.711 -0.5257 -0.4490  0.1646
 9384SOL    HW139614   1.075   3.652   5.757 -0.8873 -0.8852  0.0122
 9384SOL    HW239615   1.224   3.627   5.764  0.5550 -0.0753 -1.5617
 9385SOL     OW39616   1.751   3.316   5.617  0.3794  0.2916  0.4812
 9385SOL    HW139617   1.828   3.345   5.667  0.8956 -0.8724  0.3612
 9385SOL    HW239618   1.758   3.221   5.621  1.2351  0.3279 -0.0362
 9386SOL     OW39619   1.941   2.130   1.724  0.1783 -0.0911  0.3101
 9386SOL    HW139620   1.904   2.108   1.810 -0.9783 -0.5964 -0.3069
 9386SOL    HW239621   2.030   2.102   1.742  0.2732 -0.4182 -0.6652
 9387SOL     OW39622   3.877   0.829  12.748  0.3840  0.0523  0.1380
 9387SOL    HW139623   3.802   0.889  12.742 -0.2262 -0.4307  2.9844
 9387SOL    HW239624   3.854   0.777  12.825  2.3697  0.7715  1.2077
 9388SOL     OW39625   0.319   2.472  11.310  0.0990  0.4313 -0.0399
 9388SOL    HW139626   0.313   2.567  11.322  1.8938  0.6113 -0.6534
 9388SOL    HW239627   0.309   2.448  11.402 -2.2715 -1.9619 -0.9122
 9389SOL     OW39628   0.907   1.433   4.907  0.1417 -0.0842 -0.0112
 9389SOL    HW139629   0.903   1.478   4.991 -1.3577  2.1209 -1.2535
 9389SOL    HW239630   0.963   1.359   4.927  0.0489 -0.3068 -0.5889
 9390SOL     OW39631   1.404   2.120   3.256 -0.1841  0.1959 -0.1182
 9390SOL    HW139632   1.433   2.037   3.217  1.3004  0.1943  0.9901
 9390SOL    HW239633   1.480   2.178   3.254 -2.0632  2.6094 -1.1289
 9391SOL     OW39634   1.951   1.839   7.587 -0.0301 -0.7546  0.0996
 9391SOL    HW139635   2.047   1.833   7.581 -0.1626 -2.0999 -0.6481
 9391SOL    HW239636   1.939   1.810   7.497 -2.8600  2.4873 -0.5702
 9392SOL     OW39637   2.507   4.557   0.210 -0.6432  0.2378 -0.5479
 9392SOL    HW139638   2.541   4.477   0.169  0.3153 -0.0272  0.7720
 9392SOL    HW239639   2.446   4.524   0.276  0.1495  0.0338  0.0839
 9393SOL     OW39640   1.699   1.534   6.761  0.2417 -0.4527 -0.1325
 9393SOL    HW139641   1.782   1.549   6.805 -0.6160  1.2204  0.9173
 9393SOL    HW239642   1.657   1.482   6.829  1.0982 -0.0550  0.6975
 9394SOL     OW39643   0.640   2.297  11.535  0.0009  0.0471 -0.2343
 9394SOL    HW139644   0.576   2.228  11.521  0.8251 -1.1010  1.6196
 9394SOL    HW239645   0.721   2.246  11.543 -0.8610 -0.9763  1.7890
 9395SOL     OW39646   3.855   1.813   6.088  0.0561  0.4548 -0.1079
 9395SOL    HW139647   3.868   1.896   6.041  2.8099 -0.2383 -0.5042
 9395SOL    HW239648   3.926   1.828   6.150  0.2444 -1.2722  0.0903
 9396SOL     OW39649   1.689   1.288   2.164  0.0041  0.3426 -0.7819
 9396SOL    HW139650   1.613   1.299   2.108 -1.5871 -1.2056  1.0785
 9396SOL    HW239651   1.744   1.230   2.111 -2.7771  0.5932 -3.9329
 9397SOL     OW39652   3.413   3.935   5.512  0.7432 -0.0894 -0.6423
 9397SOL    HW139653   3.469   3.997   5.558 -0.5383  1.3193 -1.0104
 9397SOL    HW239654   3.477   3.864   5.498 -0.1554 -1.2044  0.8011
 9398SOL     OW39655   3.350   3.154  15.953 -0.8762  0.6543 -0.3833
 9398SOL    HW139656   3.404   3.229  15.977  1.0599 -0.8406 -0.1044
 9398SOL    HW239657   3.264   3.196  15.947 -0.0229  2.0651 -2.6673
 9399SOL     OW39658   3.251   2.305   4.607  0.7079  0.0391 -0.2057
 9399SOL    HW139659   3.203   2.241   4.555  0.0359  0.7028 -0.4129
 9399SOL    HW239660   3.232   2.270   4.694  0.5325 -1.8842 -1.0325
 9400SOL     OW39661   1.805   2.947  11.348  0.0723  0.5762 -0.1460
 9400SOL    HW139662   1.891   2.908  11.331  0.1189  1.8010 -2.6598
 9400SOL    HW239663   1.838   3.031  11.380 -0.8102 -0.0048  2.3176
 9401SOL     OW39664   4.248   1.861  14.754 -0.2124 -0.8686  0.2166
 9401SOL    HW139665   4.242   1.953  14.777  1.6185 -0.8733  0.6985
 9401SOL    HW239666   4.266   1.815  14.836 -1.9370 -1.0576  0.5095
 9402SOL     OW39667   4.449   0.345   5.474 -0.5354  0.1327 -0.1033
 9402SOL    HW139668   4.506   0.282   5.429 -0.5020  1.7920 -2.3942
 9402SOL    HW239669   4.485   0.428   5.443  1.4963 -0.0825  1.7145
 9403SOL     OW39670   0.789   2.316   6.119  0.5315 -0.7055 -0.5088
 9403SOL    HW139671   0.841   2.290   6.195  1.3581 -0.9309 -1.1526
 9403SOL    HW239672   0.858   2.340   6.058  0.0178  0.6141 -0.5759
 9404SOL     OW39673   3.336   4.677   1.447  0.4420 -0.1336  0.4003
 9404SOL    HW139674   3.266   4.677   1.382  0.4240  1.6596  0.4138
 9404SOL    HW239675   3.415   4.666   1.393 -0.4426  0.3797 -1.0037
 9405SOL     OW39676   1.068   4.008   0.770  0.4697  0.1721 -0.3658
 9405SOL    HW139677   1.092   3.945   0.839 -1.2099  0.7577  0.7695
 9405SOL    HW239678   0.990   4.042   0.815 -0.7351 -1.4037 -1.2634
 9406SOL     OW39679   0.429   2.988   3.404 -0.0222 -0.3394  0.4504
 9406SOL    HW139680   0.418   3.025   3.492  2.7613 -2.4768  1.7349
 9406SOL    HW239681   0.517   2.951   3.402 -0.8719 -2.3660  1.0998
 9407SOL     OW39682   2.608   0.290   2.545 -0.4574 -0.1775 -0.7699
 9407SOL    HW139683   2.536   0.227   2.554 -0.2279 -0.5762 -1.6809
 9407SOL    HW239684   2.650   0.283   2.631 -1.3210  0.7412 -0.2773
 9408SOL     OW39685   3.907   3.110   2.499 -0.1178  0.2393 -0.0095
 9408SOL    HW139686   3.977   3.163   2.461 -2.9196  2.3615 -2.2686
 9408SOL    HW239687   3.941   3.103   2.588 -5.0941  0.1382  1.8827
 9409SOL     OW39688   2.713   3.612   0.291 -0.3290  0.3946 -0.0346
 9409SOL    HW139689   2.800   3.647   0.307 -0.3236  0.1156  0.5146
 9409SOL    HW239690   2.661   3.691   0.305 -1.4588  0.0345 -2.1141
 9410SOL     OW39691   4.595   1.717   7.146  0.3415 -0.6904 -0.0646
 9410SOL    HW139692   4.558   1.657   7.081 -0.6920  0.2039 -0.3067
 9410SOL    HW239693   4.687   1.690   7.140  0.5213 -0.0684 -0.0532
 9411SOL     OW39694   4.647   0.567   8.805 -0.2515 -0.2262  0.4116
 9411SOL    HW139695   0.018   0.546   8.807 -0.1756 -0.1640 -2.3888
 9411SOL    HW239696   4.646   0.663   8.811  0.4757 -0.1443 -0.7301
 9412SOL     OW39697   3.979   3.549  10.645 -0.7000 -0.4089  0.6238
 9412SOL    HW139698   3.988   3.534  10.551 -0.4457 -1.6586  0.8549
 9412SOL    HW239699   3.887   3.576  10.648 -0.5710 -0.0084  1.1707
 9413SOL     OW39700   0.020   0.943  10.690 -0.0740 -0.0127 -0.2665
 9413SOL    HW139701   0.107   0.923  10.722  0.9911  0.2542 -3.0259
 9413SOL    HW239702   4.717   1.026  10.731 -0.4937  0.7230 -2.0067
 9414SOL     OW39703   1.704   0.030   3.124 -0.2397 -0.1199  0.0449
 9414SOL    HW139704   1.708   0.064   3.213  1.8119  1.1507 -0.5364
 9414SOL    HW239705   1.764   0.090   3.079  1.7887 -3.2305 -1.3795
 9415SOL     OW39706   3.804   4.554   7.619  0.0038 -0.0379  0.1113
 9415SOL    HW139707   3.873   4.577   7.558 -0.4472 -0.3371 -0.5133
 9415SOL    HW239708   3.732   4.543   7.557 -0.4581  0.0934  0.6255
 9416SOL     OW39709   2.201   0.773   6.410 -0.8304 -0.5531 -0.4816
 9416SOL    HW139710   2.150   0.727   6.477 -2.2947  1.9708  0.1453
 9416SOL    HW239711   2.136   0.790   6.342 -2.0045 -1.6073  0.3682
 9417SOL     OW39712   4.141   2.546   9.943 -0.4299  0.5071 -0.2141
 9417SOL    HW139713   4.139   2.469   9.886 -0.3916  1.1812 -1.1268
 9417SOL    HW239714   4.232   2.572   9.930 -0.2241  0.0585  0.3699
 9418SOL     OW39715   1.101   2.929   6.388  0.0752 -0.5152 -0.6638
 9418SOL    HW139716   1.191   2.920   6.416  0.2829  1.5431 -0.6740
 9418SOL    HW239717   1.064   2.907   6.473 -0.3925 -0.0239 -0.7378
 9419SOL     OW39718   1.508   4.009   5.809  0.3575 -0.2503  0.5604
 9419SOL    HW139719   1.449   4.041   5.877 -1.6442  0.7970 -1.6998
 9419SOL    HW239720   1.527   3.916   5.822 -0.8646 -0.4809  0.6479
 9420SOL     OW39721   2.813   2.702   8.545  0.2140  0.6307 -0.4699
 9420SOL    HW139722   2.904   2.698   8.573  0.1077  1.4432 -0.0122
 9420SOL    HW239723   2.800   2.792   8.574 -3.0966 -1.2380  3.9442
 9421SOL     OW39724   2.555   2.412   5.433  0.0077  0.1449 -0.1601
 9421SOL    HW139725   2.630   2.441   5.486 -0.2397  1.6937 -0.6625
 9421SOL    HW239726   2.507   2.494   5.429  0.1640  0.4005  3.1077
 9422SOL     OW39727   0.344   0.541  12.195 -0.5159  0.4558 -0.2006
 9422SOL    HW139728   0.395   0.505  12.267 -0.3379 -0.4813 -0.8022
 9422SOL    HW239729   0.257   0.524  12.231 -0.5032 -0.3562 -0.5669
 9423SOL     OW39730   4.225   1.331   6.210 -0.1154  0.7127  0.4018
 9423SOL    HW139731   4.260   1.319   6.122  1.6643 -1.0039  1.3573
 9423SOL    HW239732   4.189   1.420   6.200  2.1969  1.5701 -0.3621
 9424SOL     OW39733   1.134   3.618   0.174 -0.2415  0.2925  0.1526
 9424SOL    HW139734   1.161   3.699   0.218 -2.6206  0.8867  0.4934
 9424SOL    HW239735   1.175   3.616   0.088 -1.6863 -1.3746 -0.4744
 9425SOL     OW39736   1.361   1.821   3.506 -0.2663  0.5602  0.1617
 9425SOL    HW139737   1.295   1.881   3.472  0.4921  1.1601 -0.2383
 9425SOL    HW239738   1.348   1.765   3.429 -0.0709  0.1019  0.4627
 9426SOL     OW39739   3.875   2.999   3.280 -0.5670  0.2033 -0.0585
 9426SOL    HW139740   3.841   2.997   3.369  0.0026 -0.9880  0.1416
 9426SOL    HW239741   3.844   2.910   3.261  1.3061 -0.8927  2.1283
 9427SOL     OW39742   2.946   4.715  11.973  0.1721  0.5653 -0.1988
 9427SOL    HW139743   3.017   4.653  11.957 -0.5457 -0.5878  1.0316
 9427SOL    HW239744   2.929   0.012  11.881  0.2768  0.1768 -0.3004
 9428SOL     OW39745   2.839   1.084  15.987 -0.0107  0.4752 -0.3981
 9428SOL    HW139746   2.828   1.007  15.931  0.4046 -0.5393  0.8770
 9428SOL    HW239747   2.834   1.036  16.070 -0.6766  0.2407 -0.5781
 9429SOL     OW39748   3.099   2.236   2.774  0.0210 -0.1059 -0.4126
 9429SOL    HW139749   3.178   2.289   2.766  0.0238  0.0696  0.7604
 9429SOL    HW239750   3.098   2.175   2.700 -1.2160 -1.8038  0.9986
 9430SOL     OW39751   2.695   4.015  13.791 -0.2897  0.5294  0.0136
 9430SOL    HW139752   2.705   4.099  13.747 -1.3657  0.7648  0.2332
 9430SOL    HW239753   2.770   3.994  13.847  0.9078  2.4376 -0.8997
 9431SOL     OW39754   4.242   0.267   9.322 -0.2164 -0.2690  0.1301
 9431SOL    HW139755   4.232   0.193   9.262 -3.1643 -2.5142  3.3749
 9431SOL    HW239756   4.334   0.259   9.348 -0.0655 -0.6250 -0.5116
 9432SOL     OW39757   3.985   0.671   6.341  0.0988  0.5288  0.1998
 9432SOL    HW139758   4.059   0.711   6.388  0.7702 -0.7256  0.1971
 9432SOL    HW239759   3.936   0.619   6.405 -0.7876  2.1187  0.8283
 9433SOL     OW39760   4.353   1.781   5.859 -0.1337  0.2094  0.0931
 9433SOL    HW139761   4.374   1.727   5.935  0.8062 -0.3754 -0.5829
 9433SOL    HW239762   4.330   1.857   5.912  0.1670 -1.1023  2.1004
 9434SOL     OW39763   2.447   0.857   1.882 -0.4390  1.1565  0.5104
 9434SOL    HW139764   2.438   0.941   1.838  3.3816  1.5908  0.5133
 9434SOL    HW239765   2.538   0.864   1.911 -0.0001 -1.5399 -0.2135
 9435SOL     OW39766   3.684   3.270  12.011 -0.1189  0.5446  0.5737
 9435SOL    HW139767   3.596   3.255  12.045  0.3326  0.4822  1.7019
 9435SOL    HW239768   3.691   3.358  12.049  1.7766  0.0888  1.2617
 9436SOL     OW39769   3.629   3.795   8.641  0.2384  0.6470  0.8159
 9436SOL    HW139770   3.584   3.763   8.719 -0.5497 -1.0580 -0.3379
 9436SOL    HW239771   3.707   3.740   8.649  0.2315  0.4388 -0.4467
 9437SOL     OW39772   4.592   4.691   8.342  0.0519 -0.2267 -0.6461
 9437SOL    HW139773   4.638   4.681   8.425 -0.6693 -1.2169 -0.3584
 9437SOL    HW239774   4.512   4.644   8.366 -0.0320  0.7728  1.0156
 9438SOL     OW39775   3.907   4.315   6.388 -0.5575 -0.0597  0.1931
 9438SOL    HW139776   3.836   4.379   6.384  0.7142  1.3718  0.4250
 9438SOL    HW239777   3.918   4.286   6.478 -2.7167 -0.5986  0.2756
 9439SOL     OW39778   1.168   1.873   9.657 -0.2208  0.2332 -0.3554
 9439SOL    HW139779   1.132   1.908   9.738  0.3692 -0.0122  0.0114
 9439SOL    HW239780   1.262   1.877   9.674 -0.3509 -1.3146  0.7730
 9440SOL     OW39781   4.618   1.665   4.897  0.3870  0.5050 -0.3886
 9440SOL    HW139782   4.556   1.719   4.849  0.5600  1.1751  0.1416
 9440SOL    HW239783   4.698   1.683   4.849  1.6002 -0.2767  1.3457
 9441SOL     OW39784   0.892   3.266   3.623  0.0186 -0.0479  0.3332
 9441SOL    HW139785   0.925   3.341   3.573 -0.2987 -0.5999 -0.6954
 9441SOL    HW239786   0.973   3.232   3.661 -0.3682 -0.6332  0.6338
 9442SOL     OW39787   3.474   4.196   1.295  0.0508  0.3122 -0.0845
 9442SOL    HW139788   3.496   4.251   1.219 -1.3199 -0.6434 -1.1913
 9442SOL    HW239789   3.383   4.224   1.304 -0.3687 -0.4816 -1.6754
 9443SOL     OW39790   0.618   0.392   7.974 -0.5669 -0.2238 -0.2520
 9443SOL    HW139791   0.595   0.354   8.059  0.1997 -0.5675 -0.1978
 9443SOL    HW239792   0.695   0.437   8.008 -0.8088 -0.1808  0.2334
 9444SOL     OW39793   3.814   4.442   7.086  0.1969 -0.4587  0.4825
 9444SOL    HW139794   3.903   4.475   7.076 -0.4078  0.4372 -1.7318
 9444SOL    HW239795   3.792   4.427   6.995 -1.2301 -1.2826  0.9633
 9445SOL     OW39796   1.970   0.790   7.417  0.2415  0.5003  0.1444
 9445SOL    HW139797   2.023   0.757   7.490  1.4478  1.9738 -0.0574
 9445SOL    HW239798   2.031   0.784   7.343  0.3719 -2.8355  0.5334
 9446SOL     OW39799   2.489   0.577   4.704 -0.1978  0.2754 -0.5537
 9446SOL    HW139800   2.518   0.498   4.750  0.8388  0.4881 -0.8395
 9446SOL    HW239801   2.560   0.638   4.723 -1.5541  1.3585  0.9924
 9447SOL     OW39802   4.085   1.739  17.367 -0.2059 -0.2704 -0.5173
 9447SOL    HW139803   4.143   1.669  17.399 -1.4455 -1.1598 -0.2036
 9447SOL    HW239804   4.116   1.819  17.408  1.5403 -2.0243  1.6054
 9448SOL     OW39805   0.011   0.001   0.630 -0.1416 -0.2953  0.0451
 9448SOL    HW139806   4.697   4.677   0.555 -1.2643  1.1839 -0.3462
 9448SOL    HW239807   0.086   0.043   0.588  0.2113 -0.1352  0.8379
 9449SOL     OW39808   1.165   2.409   7.220 -0.0434 -0.4921 -0.0715
 9449SOL    HW139809   1.112   2.344   7.175  0.4252 -1.0246  0.1531
 9449SOL    HW239810   1.156   2.380   7.311  0.5930 -0.4487  0.0066
 9450SOL     OW39811   3.942   2.684  10.604  0.1216  0.2833  0.1667
 9450SOL    HW139812   3.918   2.708  10.694 -0.7606 -1.1186  0.3146
 9450SOL    HW239813   3.982   2.600  10.628  2.0958  0.8812 -1.0305
 9451SOL     OW39814   1.720   1.133   7.711 -0.1766 -0.2918  0.0364
 9451SOL    HW139815   1.776   1.057   7.725  1.0978  0.6409  0.0299
 9451SOL    HW239816   1.712   1.146   7.616  0.7309  1.2101  0.1629
 9452SOL     OW39817   1.426   1.119   2.683  0.2498 -0.3721 -0.0485
 9452SOL    HW139818   1.370   1.108   2.606  0.1077 -1.4742  0.2203
 9452SOL    HW239819   1.508   1.158   2.652 -0.0726  0.0687 -0.3419
 9453SOL     OW39820   3.357   0.230  10.834  0.6772 -0.4382 -0.1328
 9453SOL    HW139821   3.304   0.177  10.774  0.6951 -1.0036  0.3576
 9453SOL    HW239822   3.438   0.184  10.854  0.7145 -0.2762  0.0867
 9454SOL     OW39823   2.897   1.394   6.709  0.0484  0.1278  0.2597
 9454SOL    HW139824   2.903   1.468   6.769  0.0667 -0.6824  1.2578
 9454SOL    HW239825   2.908   1.445   6.629 -1.4220  0.0773  0.0187
 9455SOL     OW39826   4.166   2.893   5.887 -0.5110  0.4669 -0.3581
 9455SOL    HW139827   4.192   2.979   5.920 -0.2325 -0.0535  0.7857
 9455SOL    HW239828   4.110   2.860   5.958 -0.2199 -0.4174 -0.5316
 9456SOL     OW39829   0.294   1.140  15.993 -0.9500 -0.5497 -0.4353
 9456SOL    HW139830   0.218   1.097  16.034 -1.0014  0.6516  0.7447
 9456SOL    HW239831   0.365   1.093  16.038 -0.1438  0.3033 -0.8284
 9457SOL     OW39832   1.806   0.247   7.836 -0.4257 -0.0197 -0.4841
 9457SOL    HW139833   1.805   0.340   7.856  0.9347 -0.1624  0.2511
 9457SOL    HW239834   1.755   0.219   7.913 -1.3838  1.7016 -0.4952
 9458SOL     OW39835   1.603   3.068   2.023  0.3633  0.2643  0.0667
 9458SOL    HW139836   1.653   3.116   2.089 -0.6464 -0.8438  1.6247
 9458SOL    HW239837   1.670   3.040   1.960 -1.5865 -5.2642  0.4651
 9459SOL     OW39838   2.030   2.739   3.182 -0.0916 -0.2072 -0.0353
 9459SOL    HW139839   2.010   2.764   3.092 -2.3672  1.0760  0.8204
 9459SOL    HW239840   2.079   2.659   3.159  2.0034  0.5170  1.9049
 9460SOL     OW39841   2.335   4.282  10.952  0.2712 -0.1092  0.0314
 9460SOL    HW139842   2.378   4.203  10.922  2.1893  1.1096 -0.4156
 9460SOL    HW239843   2.275   4.255  11.022  0.7269 -0.4507  0.2844
 9461SOL     OW39844   2.930   0.917   1.466  0.5808  0.3927  0.3465
 9461SOL    HW139845   2.846   0.886   1.433  0.0453  3.4864 -1.1345
 9461SOL    HW239846   2.988   0.841   1.472 -0.8840 -0.9361 -2.4410
 9462SOL     OW39847   2.955   3.246   0.566  0.2095 -0.7215  0.6042
 9462SOL    HW139848   2.868   3.253   0.605  0.2543 -0.9530  0.7461
 9462SOL    HW239849   3.003   3.311   0.617 -0.1802  0.9399 -1.1384
 9463SOL     OW39850   4.020   3.237   4.403 -0.0338 -0.1592  0.4373
 9463SOL    HW139851   4.003   3.278   4.487 -0.6772 -1.0270  0.7309
 9463SOL    HW239852   4.064   3.155   4.426  0.8963  0.7107  1.7301
 9464SOL     OW39853   2.974   1.445   4.926 -0.3967 -0.3173  0.0824
 9464SOL    HW139854   2.980   1.402   5.011 -0.0543  1.5553  0.9888
 9464SOL    HW239855   2.968   1.367   4.871 -0.3426 -0.9305  0.9462
 9465SOL     OW39856   0.806   3.690  16.548 -0.2463 -0.4585  0.2700
 9465SOL    HW139857   0.870   3.628  16.513  0.6592  0.7275 -0.1405
 9465SOL    HW239858   0.732   3.632  16.564  0.4157 -1.4647 -0.3330
 9466SOL     OW39859   1.416   0.742   5.616  0.0736  0.3980 -0.1728
 9466SOL    HW139860   1.507   0.768   5.597 -0.0979 -0.3608 -2.0003
 9466SOL    HW239861   1.419   0.690   5.695 -1.5637  0.7661  0.1306
 9467SOL     OW39862   4.277   0.894   2.451  0.3165 -0.4346  0.0801
 9467SOL    HW139863   4.260   0.845   2.370  0.0117 -0.0157 -0.1118
 9467SOL    HW239864   4.357   0.845   2.470  0.4948 -0.7378 -1.4547
 9468SOL     OW39865   2.380   3.259   4.408  0.2079  0.2629 -0.2520
 9468SOL    HW139866   2.358   3.166   4.414 -0.1622  0.3168 -0.6972
 9468SOL    HW239867   2.297   3.291   4.372  0.9167  1.3950 -0.8708
 9469SOL     OW39868   2.146   3.401  14.842  0.5814  0.2393  0.0634
 9469SOL    HW139869   2.081   3.331  14.836 -1.4139  2.1597 -1.0095
 9469SOL    HW239870   2.184   3.415  14.755  2.2259 -1.5175  0.4916
 9470SOL     OW39871   2.897   2.835   0.352  0.6682 -0.5989 -0.2214
 9470SOL    HW139872   2.962   2.765   0.360  0.4342 -0.7233  0.5197
 9470SOL    HW239873   2.842   2.828   0.430 -2.1905  1.6749 -2.0231
 9471SOL     OW39874   3.038   1.099   3.304 -0.1746  0.1061 -0.1356
 9471SOL    HW139875   3.040   1.036   3.377 -1.2498  3.0076  2.3935
 9471SOL    HW239876   3.126   1.137   3.310  0.6687 -1.7203 -0.9436
 9472SOL     OW39877   1.576   0.180   5.288 -0.4273  0.1550 -0.4420
 9472SOL    HW139878   1.561   0.120   5.215  0.6005 -0.2343 -0.3443
 9472SOL    HW239879   1.514   0.248   5.265 -0.8679  0.0975  0.5795
 9473SOL     OW39880   3.680   4.630   0.899  0.1417 -0.1217  0.1795
 9473SOL    HW139881   3.711   4.563   0.838  0.0444 -3.6777  4.0120
 9473SOL    HW239882   3.614   4.576   0.942 -0.0110 -0.7988 -0.8984
 9474SOL     OW39883   2.476   1.195  15.413 -0.4088  0.3197 -0.6054
 9474SOL    HW139884   2.534   1.138  15.363  0.9375  1.0096  0.1773
 9474SOL    HW239885   2.533   1.264  15.447  0.3155 -1.2780  1.4323
 9475SOL     OW39886   1.505   4.700  10.902  0.0395 -0.1910 -0.3519
 9475SOL    HW139887   1.556   4.626  10.935  2.3296  0.3900 -2.5767
 9475SOL    HW239888   1.511   0.028  10.983  1.6369  1.5820 -1.5842
 9476SOL     OW39889   2.294   4.250   6.387 -0.7404  0.2242 -0.3246
 9476SOL    HW139890   2.264   4.320   6.329 -0.4657 -0.4361 -1.2528
 9476SOL    HW239891   2.242   4.258   6.467 -0.9828  1.2829 -0.5891
 9477SOL     OW39892   2.393   3.967   5.508  0.2095  0.1860 -0.3424
 9477SOL    HW139893   2.472   4.006   5.470  0.7646  0.2642  0.8876
 9477SOL    HW239894   2.373   3.909   5.434  1.2483 -1.6634  0.8215
 9478SOL     OW39895   1.188   0.591   3.546  0.4115 -0.2889 -0.1961
 9478SOL    HW139896   1.262   0.627   3.497  0.3556 -0.3139 -0.2986
 9478SOL    HW239897   1.219   0.505   3.573 -2.2906 -1.4072 -0.7141
 9479SOL     OW39898   1.268   1.973   5.708 -0.0088  0.0775 -0.2444
 9479SOL    HW139899   1.213   1.896   5.721  1.3844 -0.9693 -0.5711
 9479SOL    HW239900   1.215   2.034   5.759 -0.1843 -0.4501  0.1965
 9480SOL     OW39901   0.849   2.199   6.884  0.1315  0.7823 -0.1523
 9480SOL    HW139902   0.898   2.227   6.807  0.6968 -2.7922 -1.0633
 9480SOL    HW239903   0.825   2.111   6.854  1.2552 -0.5086  2.7356
 9481SOL     OW39904   0.904   1.493  16.418  0.3208  0.2797  0.1479
 9481SOL    HW139905   0.978   1.501  16.478  0.6322  0.9871 -0.3320
 9481SOL    HW239906   0.943   1.447  16.344  0.3178 -2.0783  1.6086
 9482SOL     OW39907   3.833   3.057  10.608  0.1897 -0.3776 -0.2355
 9482SOL    HW139908   3.859   2.993  10.675  3.2317  0.7423 -0.3385
 9482SOL    HW239909   3.888   3.134  10.623 -0.2709  0.0144 -0.5607
 9483SOL     OW39910   0.277   1.788   7.825  0.1953  0.1751 -0.3269
 9483SOL    HW139911   0.245   1.708   7.867  0.0749 -0.0403 -0.8211
 9483SOL    HW239912   0.203   1.801   7.765 -3.2804  1.0418  4.1574
 9484SOL     OW39913   2.015   2.731   2.911  0.0714  0.3747  0.0599
 9484SOL    HW139914   1.953   2.670   2.870 -1.3001  1.1694  0.9672
 9484SOL    HW239915   2.009   2.809   2.857  2.4518 -0.0070 -0.7338
 9485SOL     OW39916   0.577   3.780   6.544 -0.2127  0.1301  0.1065
 9485SOL    HW139917   0.533   3.756   6.625  0.5043  0.6783  0.6619
 9485SOL    HW239918   0.621   3.699   6.517 -1.4505 -0.3021 -0.5764
 9486SOL     OW39919   2.093   1.607   7.842 -0.4094 -1.2515  0.0129
 9486SOL    HW139920   2.175   1.653   7.856 -1.9342  0.9332  1.8561
 9486SOL    HW239921   2.041   1.674   7.797  1.8235  0.9349  0.7339
 9487SOL     OW39922   2.140   3.071   5.698  0.7631 -0.0266 -0.0605
 9487SOL    HW139923   2.061   3.096   5.650  2.2298  1.5054 -1.7222
 9487SOL    HW239924   2.132   3.128   5.774 -1.2976  0.4229 -0.6117
 9488SOL     OW39925   0.058   2.619   8.505 -0.2952 -0.2146 -0.0923
 9488SOL    HW139926   0.109   2.588   8.579 -0.2008 -1.3640 -0.6471
 9488SOL    HW239927   0.073   2.550   8.440 -0.8547 -0.3293 -0.1021
 9489SOL     OW39928   2.186   0.944   6.026  0.5029  0.0096  0.4021
 9489SOL    HW139929   2.274   0.971   6.055  0.0153  1.1730  0.7903
 9489SOL    HW239930   2.161   1.009   5.961  1.6316  2.1067  2.0649
 9490SOL     OW39931   2.431   4.590   2.404  0.1968 -0.3116 -0.0763
 9490SOL    HW139932   2.372   4.515   2.412 -0.0483  0.0676  1.6118
 9490SOL    HW239933   2.483   4.592   2.485 -0.7448  1.2750  0.4807
 9491SOL     OW39934   2.840   0.343   0.626 -0.4859  0.7831 -1.2505
 9491SOL    HW139935   2.775   0.383   0.568 -0.5778  0.7892 -1.1428
 9491SOL    HW239936   2.923   0.359   0.580 -1.0344  1.0934 -2.1360
 9492SOL     OW39937   1.227   2.097   8.337 -0.1493  0.1290 -0.2840
 9492SOL    HW139938   1.184   2.014   8.321 -1.7759  0.8886  0.1823
 9492SOL    HW239939   1.159   2.158   8.309 -1.0216 -0.4278  0.6166
 9493SOL     OW39940   2.562   1.965   4.753 -0.4121  0.4439 -0.0725
 9493SOL    HW139941   2.547   2.055   4.781  2.9315  0.9383  0.1308
 9493SOL    HW239942   2.590   1.978   4.662 -2.2385  0.5477 -0.6219
 9494SOL     OW39943   0.694   4.054   9.463  0.2281  0.1154  0.0102
 9494SOL    HW139944   0.687   3.962   9.435 -0.8478  0.7640 -1.8602
 9494SOL    HW239945   0.763   4.095   9.412 -0.1277  1.9059  0.9569
 9495SOL     OW39946   2.792   4.358   8.618 -0.0056  0.0979  0.2207
 9495SOL    HW139947   2.781   4.297   8.544 -1.5603  3.8309 -2.6158
 9495SOL    HW239948   2.758   4.309   8.693  1.5726  0.0205  0.8859
 9496SOL     OW39949   1.981   2.730   8.832  0.3068  0.1209  0.1730
 9496SOL    HW139950   2.052   2.784   8.867  0.3718  1.4967 -2.1038
 9496SOL    HW239951   1.938   2.694   8.910  0.1432  3.0388  1.4236
 9497SOL     OW39952   4.048   1.526   6.962 -0.3329 -0.3249 -0.3659
 9497SOL    HW139953   3.962   1.523   7.002 -0.7058  1.3942 -1.0339
 9497SOL    HW239954   4.067   1.620   6.963  0.2291 -0.4362 -0.2480
 9498SOL     OW39955   1.273   3.201   3.008  0.0217 -0.0971 -0.6440
 9498SOL    HW139956   1.303   3.273   3.064  1.0071  0.9051 -2.4285
 9498SOL    HW239957   1.188   3.184   3.048  0.4195  0.6778  0.5439
 9499SOL     OW39958   0.416   3.454   3.155 -0.1462  0.1000  0.0994
 9499SOL    HW139959   0.345   3.437   3.094 -0.5510  0.5509  0.4473
 9499SOL    HW239960   0.466   3.514   3.101  0.5865 -0.1812  0.4635
 9500SOL     OW39961   1.101   4.508   0.461 -0.1126 -0.0104  0.1214
 9500SOL    HW139962   1.166   4.518   0.531 -0.5080  0.7596  0.3822
 9500SOL    HW239963   1.150   4.459   0.395 -1.9183 -1.7356  0.0760
 9501SOL     OW39964   4.605   4.557   5.136 -0.2037  0.4497 -0.2849
 9501SOL    HW139965   4.532   4.619   5.148 -1.1491 -0.5572 -0.8357
 9501SOL    HW239966   4.555   4.477   5.154  1.6068 -0.5271  0.2829
 9502SOL     OW39967   3.063   2.503  11.192  0.1037 -0.6192  0.0402
 9502SOL    HW139968   3.001   2.431  11.201  1.6865 -2.0724 -0.4760
 9502SOL    HW239969   3.101   2.474  11.109 -0.0698  1.0376 -0.6115
 9503SOL     OW39970   2.922   2.462   5.864  1.2671 -0.1573  0.6176
 9503SOL    HW139971   2.884   2.405   5.931  1.1176 -0.4352  0.2938
 9503SOL    HW239972   2.945   2.540   5.915  0.4942 -0.1878  1.0202
 9504SOL     OW39973   3.132   3.736   3.772 -0.3556  0.3230 -0.1385
 9504SOL    HW139974   3.148   3.818   3.724 -1.9630 -0.6630 -2.3147
 9504SOL    HW239975   3.075   3.682   3.717 -1.8272  0.4126  1.3093
 9505SOL     OW39976   3.404   3.347   5.604  0.1589  0.0039 -0.3519
 9505SOL    HW139977   3.477   3.360   5.664 -0.3130  1.8445 -0.1630
 9505SOL    HW239978   3.374   3.262   5.637  2.9000 -0.8461 -0.0871
 9506SOL     OW39979   4.526   0.839   2.556 -0.2247  0.0525 -0.4455
 9506SOL    HW139980   4.537   0.761   2.503  1.6556  0.5609 -0.8204
 9506SOL    HW239981   4.617   0.840   2.587 -0.5125  1.7796  0.3764
 9507SOL     OW39982   2.105   0.689   7.644 -0.2313  0.8273  0.6327
 9507SOL    HW139983   2.122   0.603   7.683 -1.7917  0.7672  1.1673
 9507SOL    HW239984   2.183   0.742   7.658  0.1707  0.4119  0.0174
 9508SOL     OW39985   2.816   4.389   4.850  0.3141 -0.0918  0.2328
 9508SOL    HW139986   2.802   4.378   4.944 -0.2561  1.0575  0.2828
 9508SOL    HW239987   2.806   4.298   4.823  0.9983  0.0511 -0.5136
 9509SOL     OW39988   0.507   4.625   7.761 -0.4191  0.6645  0.2198
 9509SOL    HW139989   0.432   4.577   7.795 -0.3748  1.1267  0.9705
 9509SOL    HW239990   0.470   4.713   7.773  0.4301  0.8133  1.7146
 9510SOL     OW39991   4.058   2.005   1.119 -0.4364 -0.2418  0.0804
 9510SOL    HW139992   3.966   2.016   1.094 -0.9431 -0.7730  1.6802
 9510SOL    HW239993   4.056   1.920   1.162  2.6031 -0.9581 -1.2260
 9511SOL     OW39994   2.050   1.457   7.427  0.4006  0.0894  0.6939
 9511SOL    HW139995   2.105   1.534   7.415 -0.4053  0.5570 -0.0274
 9511SOL    HW239996   2.102   1.407   7.489 -0.5720 -0.1101  1.3412
 9512SOL     OW39997   0.605   2.825   6.769 -0.7766  0.3719 -0.2784
 9512SOL    HW139998   0.598   2.791   6.680 -2.6366 -0.2511  0.1155
 9512SOL    HW239999   0.563   2.748   6.807  0.6458 -1.4674 -2.4306
 9513SOL     OW40000   0.722   0.748   6.002 -0.7511 -0.2716  0.0828
 9513SOL    HW140001   0.706   0.659   6.033 -2.3648  0.1831  0.5518
 9513SOL    HW240002   0.715   0.738   5.907 -2.2907 -1.9277  0.3778
 9514SOL     OW40003   4.299   4.693  15.630 -0.3801 -1.1637  0.1574
 9514SOL    HW140004   4.222   4.667  15.579 -0.3939  0.7430 -0.7996
 9514SOL    HW240005   4.372   4.689  15.567 -1.2862 -1.1551 -0.8920
 9515SOL     OW40006   0.662   1.497   2.895  0.3459  0.5395 -0.1130
 9515SOL    HW140007   0.654   1.408   2.861  0.1245 -0.0411  1.4465
 9515SOL    HW240008   0.638   1.558   2.826  0.2721  0.1868 -0.4018
 9516SOL     OW40009   2.288   1.918   2.422  0.1687  0.3224 -0.0533
 9516SOL    HW140010   2.199   1.905   2.388  0.3906 -1.7456  0.1519
 9516SOL    HW240011   2.330   1.910   2.336 -1.1403 -0.3477 -0.6395
 9517SOL     OW40012   2.629   3.956   8.609  0.2804 -0.0550  0.2496
 9517SOL    HW140013   2.654   3.895   8.679  0.7156 -0.1251  0.0382
 9517SOL    HW240014   2.546   3.915   8.584 -0.3294  3.2147 -3.0419
 9518SOL     OW40015   3.771   1.261   7.181 -0.1604  0.2765 -0.1470
 9518SOL    HW140016   3.687   1.308   7.177  0.4349  1.0224 -3.7280
 9518SOL    HW240017   3.735   1.174   7.196  2.2139 -0.3977  1.6273
 9519SOL     OW40018   3.932   2.070  17.566  0.5292 -0.5264  0.4711
 9519SOL    HW140019   3.898   2.064  17.655 -0.3304 -1.1944  0.0910
 9519SOL    HW240020   3.995   2.141  17.580  2.6003 -2.0840 -0.9120
 9520SOL     OW40021   2.907   0.569   9.301 -0.3781  0.0634 -0.7698
 9520SOL    HW140022   2.993   0.551   9.339 -0.5443 -0.8278 -0.8287
 9520SOL    HW240023   2.867   0.482   9.305 -2.7451  1.0823 -2.4093
 9521SOL     OW40024   4.558   3.567   0.037  1.0782  0.2694  0.2295
 9521SOL    HW140025   4.601   3.636  17.680  0.4169  0.3696 -0.2040
 9521SOL    HW240026   4.594   3.582   0.125 -1.6860 -3.0322  1.9135
 9522SOL     OW40027   0.158   0.944   4.489  0.6254  0.1806 -0.1372
 9522SOL    HW140028   0.174   0.850   4.480 -1.9562 -0.0679 -2.3660
 9522SOL    HW240029   0.239   0.969   4.445 -0.9244  1.5783 -2.1891
 9523SOL     OW40030   2.922   3.041   9.035  0.0354  0.1440  0.4688
 9523SOL    HW140031   2.937   3.118   8.980  1.1146 -0.1610  0.3199
 9523SOL    HW240032   2.989   3.041   9.103 -1.3255 -0.4944  1.7910
 9524SOL     OW40033   0.172   1.970   5.311 -0.0405 -0.6201  0.1500
 9524SOL    HW140034   0.080   1.993   5.310  0.5318  1.7850  2.1880
 9524SOL    HW240035   0.180   1.912   5.236  1.8928  0.7579 -0.7313
 9525SOL     OW40036   0.732   3.561   5.827 -0.3377 -0.3218  0.6317
 9525SOL    HW140037   0.710   3.654   5.838  0.2161 -0.0707 -0.4021
 9525SOL    HW240038   0.650   3.518   5.852 -0.0490  0.7477  3.4442
 9526SOL     OW40039   2.668   2.061   4.265  0.0894  0.4245 -0.5665
 9526SOL    HW140040   2.661   2.088   4.173 -0.0237  0.5896 -0.5094
 9526SOL    HW240041   2.610   1.986   4.271  0.7948 -0.1656 -1.0886
 9527SOL     OW40042   3.412   1.261   5.952  0.2200 -0.0248  0.1119
 9527SOL    HW140043   3.458   1.217   5.881  2.4322  1.7131  0.4658
 9527SOL    HW240044   3.323   1.260   5.916  0.6269  0.4570 -0.9078
 9528SOL     OW40045   2.356   2.558   5.826  0.2228 -0.6380 -0.0803
 9528SOL    HW140046   2.306   2.506   5.762 -1.3054 -0.1928  0.7560
 9528SOL    HW240047   2.297   2.634   5.830  0.7855 -0.3474  2.2158
 9529SOL     OW40048   0.439   3.850   6.314 -0.5325  0.5636  0.5006
 9529SOL    HW140049   0.488   3.847   6.396  0.5966  0.7247 -0.1707
 9529SOL    HW240050   0.457   3.940   6.288  2.5367 -0.0994  0.2926
 9530SOL     OW40051   0.500   1.215   4.649 -0.2141  0.0906  0.9978
 9530SOL    HW140052   0.514   1.243   4.559 -0.4003 -0.5113  0.7869
 9530SOL    HW240053   0.587   1.237   4.682  0.0653  0.7501 -0.1986
 9531SOL     OW40054   0.164   2.632   1.445  0.1765 -0.4083 -0.3692
 9531SOL    HW140055   0.159   2.545   1.405 -1.8061 -0.1206 -0.7516
 9531SOL    HW240056   0.137   2.686   1.371  1.8106 -0.1064 -0.7439
 9532SOL     OW40057   3.426   3.204   2.973  0.3230 -0.1555 -0.4027
 9532SOL    HW140058   3.461   3.210   2.884 -2.2155 -2.5013 -1.5866
 9532SOL    HW240059   3.361   3.135   2.957  0.9988 -1.2306  1.5510
 9533SOL     OW40060   2.510   2.390  12.971 -0.1416  0.3983  0.4766
 9533SOL    HW140061   2.426   2.430  12.994  0.1925  0.8703  0.8897
 9533SOL    HW240062   2.541   2.356  13.056  0.1404 -4.1875 -1.4712
 9534SOL     OW40063   1.117   0.858   8.480 -0.1672  0.5823 -0.1686
 9534SOL    HW140064   1.065   0.905   8.546 -1.2117 -1.2005  0.2802
 9534SOL    HW240065   1.052   0.839   8.412  2.1332  1.0337 -2.5167
 9535SOL     OW40066   4.361   2.831   3.744  0.2535 -0.0541  0.1013
 9535SOL    HW140067   4.346   2.874   3.828 -2.7319 -3.0026  1.0624
 9535SOL    HW240068   4.278   2.857   3.706 -0.5597 -1.3352  1.0081
 9536SOL     OW40069   1.535   4.094  17.634  0.2057 -0.2630 -0.4793
 9536SOL    HW140070   1.515   4.128   0.028 -0.0886 -2.7823  0.4573
 9536SOL    HW240071   1.459   4.038  17.619  0.2614 -1.4013  3.5891
 9537SOL     OW40072   3.591   2.953   4.760 -0.3757 -0.0014 -0.1298
 9537SOL    HW140073   3.615   2.926   4.671  0.4193 -0.2046  0.1419
 9537SOL    HW240074   3.638   3.036   4.766  0.9182 -0.7614  0.2289
 9538SOL     OW40075   3.717   1.793   1.730 -0.0224  0.4038 -0.0106
 9538SOL    HW140076   3.781   1.846   1.778  0.0235  1.7576 -1.5727
 9538SOL    HW240077   3.659   1.768   1.803 -1.1118  3.5730  0.2167
 9539SOL     OW40078   0.100   0.545   1.919 -0.2093 -0.4635  0.0277
 9539SOL    HW140079   0.121   0.494   1.840  1.2002  0.0193  0.0797
 9539SOL    HW240080   0.169   0.610   1.903  0.8317 -0.9682  2.4643
 9540SOL     OW40081   0.445   4.057  13.364  0.1350 -0.4510 -1.3559
 9540SOL    HW140082   0.385   3.982  13.362  1.1257 -1.2793  0.4700
 9540SOL    HW240083   0.417   4.094  13.447  1.1072  1.1364 -1.7295
 9541SOL     OW40084   2.130   0.334   2.877  0.8520 -0.0016 -0.2293
 9541SOL    HW140085   2.127   0.330   2.782  1.0708  0.0325 -0.2389
 9541SOL    HW240086   2.086   0.253   2.902  0.2004  0.3357 -0.2949
 9542SOL     OW40087   4.256   0.185   1.290 -0.1848  0.4148 -0.5539
 9542SOL    HW140088   4.161   0.177   1.275  0.2084 -2.0415 -1.7281
 9542SOL    HW240089   4.284   0.143   1.209 -0.5427 -2.1456  0.6289
 9543SOL     OW40090   3.069   4.589  10.748 -0.4242  0.6217 -1.0054
 9543SOL    HW140091   3.090   4.547  10.831  1.3446  0.4991 -1.5023
 9543SOL    HW240092   2.991   4.639  10.771 -1.9681 -0.7463 -3.2318
 9544SOL     OW40093   0.581   0.409   7.675  0.4505 -0.0646  0.0220
 9544SOL    HW140094   0.487   0.399   7.665  0.1664  1.5832  0.9832
 9544SOL    HW240095   0.596   0.391   7.768  3.3871 -0.4660 -0.5194
 9545SOL     OW40096   2.700   2.660   3.638  0.2501 -0.2796  0.1281
 9545SOL    HW140097   2.724   2.568   3.625  0.5704 -0.1552 -0.1625
 9545SOL    HW240098   2.759   2.699   3.703 -0.7718 -0.2212  1.0123
 9546SOL     OW40099   0.225   4.212   1.634  0.1320 -0.0860 -0.1677
 9546SOL    HW140100   0.243   4.296   1.591  1.6469 -1.5566 -2.4044
 9546SOL    HW240101   0.175   4.236   1.712  0.6638  1.0906 -0.1754
 9547SOL     OW40102   2.676   1.065   6.334  0.3386  0.9098  0.1547
 9547SOL    HW140103   2.730   1.051   6.257 -0.7210  0.0194 -0.4182
 9547SOL    HW240104   2.658   1.158   6.346 -1.7723  0.8518 -2.5685
 9548SOL     OW40105   4.494   0.106   6.562  0.2827 -0.1259  0.3387
 9548SOL    HW140106   4.502   0.201   6.553  1.3317 -0.4695 -2.4454
 9548SOL    HW240107   4.585   0.091   6.584 -0.6473 -1.3762  3.2637
 9549SOL     OW40108   2.246   4.583   1.189 -0.1469  0.5440 -0.0264
 9549SOL    HW140109   2.328   4.537   1.206 -0.4630 -0.3635 -0.9865
 9549SOL    HW240110   2.173   4.535   1.229  2.2830 -1.8710  1.4699
 9550SOL     OW40111   3.794   2.101   0.119 -0.0754  0.1044  0.3923
 9550SOL    HW140112   3.709   2.114   0.160 -0.2203 -0.1930  0.1836
 9550SOL    HW240113   3.850   2.061   0.187  0.3834  0.4007  0.1911
 9551SOL     OW40114   0.203   3.968  14.951 -0.3981  0.3152 -0.0648
 9551SOL    HW140115   0.136   4.025  14.989 -1.4733 -0.6910 -0.4574
 9551SOL    HW240116   0.160   3.951  14.867  2.3275 -1.2828 -1.1046
 9552SOL     OW40117   0.124   2.536   4.369 -0.2788  0.3716  0.6441
 9552SOL    HW140118   0.066   2.532   4.293  1.6521  1.0402 -0.8934
 9552SOL    HW240119   0.144   2.630   4.370  0.2536  0.2537  1.1126
 9553SOL     OW40120   3.635   0.079   8.936 -0.1868 -0.1700 -0.0866
 9553SOL    HW140121   3.641   0.157   8.992 -1.3775  0.1370 -0.3738
 9553SOL    HW240122   3.713   0.097   8.884  1.9848 -1.7762  2.5805
 9554SOL     OW40123   4.142   1.799   4.635  0.7141 -0.6719  0.4181
 9554SOL    HW140124   4.207   1.793   4.564  0.3823  2.6183 -0.1550
 9554SOL    HW240125   4.112   1.889   4.630  0.5514 -0.6251  2.1551
 9555SOL     OW40126   2.575   4.266   6.344 -0.0147  0.5132 -0.4690
 9555SOL    HW140127   2.581   4.356   6.314 -0.9601  0.9716  0.7118
 9555SOL    HW240128   2.483   4.260   6.369  0.0904  2.1575  0.3493
 9556SOL     OW40129   1.259   1.276   4.223  0.5183  0.4393  0.0825
 9556SOL    HW140130   1.206   1.197   4.227  0.3863  0.6136  1.9153
 9556SOL    HW240131   1.310   1.268   4.143  1.0845 -2.0386  0.6937
 9557SOL     OW40132   0.014   0.170   7.804 -0.0139 -0.0980  0.5989
 9557SOL    HW140133   0.024   0.263   7.782  0.4936 -0.3130 -0.0509
 9557SOL    HW240134   0.075   0.172   7.877  2.3102 -0.2349 -1.3571
 9558SOL     OW40135   4.292   3.745   7.091  0.4595 -0.2826  0.4769
 9558SOL    HW140136   4.315   3.780   7.177  0.4172  0.7892  0.0528
 9558SOL    HW240137   4.349   3.669   7.088  0.0224 -0.6558  1.4148
 9559SOL     OW40138   4.105   2.610   3.707  0.1728  0.4257  0.3590
 9559SOL    HW140139   4.123   2.525   3.668  1.3817  1.0827 -0.5084
 9559SOL    HW240140   4.146   2.598   3.793  1.5871 -2.4726 -0.7519
 9560SOL     OW40141   4.306   2.962  12.947  0.1162  0.1293 -0.2449
 9560SOL    HW140142   4.252   2.916  13.011  0.7584 -0.0575  0.1590
 9560SOL    HW240143   4.239   3.001  12.891  0.3556  1.2394  0.2492
 9561SOL     OW40144   2.321   1.549   5.583 -0.3166  0.3738 -0.4684
 9561SOL    HW140145   2.309   1.638   5.553 -0.5510  0.1384 -1.0667
 9561SOL    HW240146   2.314   1.501   5.501  2.6699 -2.1416  0.7246
 9562SOL     OW40147   3.539   2.300   1.353  0.6281 -0.0014 -0.1716
 9562SOL    HW140148   3.579   2.335   1.274  1.7278  0.0944  0.4364
 9562SOL    HW240149   3.511   2.212   1.325 -0.0134  0.5908 -1.4123
 9563SOL     OW40150   2.427   3.324   0.272  0.6744 -0.5555 -0.3062
 9563SOL    HW140151   2.414   3.388   0.201  0.2185  2.5550  2.5584
 9563SOL    HW240152   2.513   3.340   0.312  0.2224  1.4467 -0.1153
 9564SOL     OW40153   3.693   2.946   2.697 -0.8163  0.1358 -0.3363
 9564SOL    HW140154   3.699   2.920   2.605  0.6620 -0.3345 -0.1129
 9564SOL    HW240155   3.677   3.040   2.693 -0.8400  0.1774  0.7852
 9565SOL     OW40156   2.478   1.839  10.787  0.0425  0.0258 -0.1217
 9565SOL    HW140157   2.482   1.764  10.846 -0.3832 -1.8227 -2.4387
 9565SOL    HW240158   2.431   1.802  10.712  0.5760  0.0541 -0.4704
 9566SOL     OW40159   3.623   3.347   5.364  0.0136  0.1277 -0.0714
 9566SOL    HW140160   3.598   3.274   5.307 -0.3376 -0.6409  1.0718
 9566SOL    HW240161   3.642   3.302   5.446  2.2686  0.5949 -0.3268
 9567SOL     OW40162   0.679   3.204  16.454  0.3431  0.5253  0.6671
 9567SOL    HW140163   0.684   3.114  16.487  1.8857 -1.0079 -3.7890
 9567SOL    HW240164   0.767   3.230  16.429  1.4780 -2.5364  1.5085
 9568SOL     OW40165   3.543   2.828   6.423 -0.2714  0.6446  0.1520
 9568SOL    HW140166   3.546   2.919   6.393  0.4321  1.1839  1.9115
 9568SOL    HW240167   3.487   2.794   6.353 -0.2003 -0.5973  0.6910
   4.72262   4.72262  17.69251
