Membrane in water
40167
    1TCq1    O1    1   1.557   1.956  11.045 -0.0024 -0.0364 -0.0997
    1TCq1    C1    2   1.517   1.848  11.122 -0.3058  0.3814 -0.6943
    1TCq1    O2    3   1.403   1.810  11.139  0.7733 -0.4011 -0.1859
    1TCq1    C2    4   1.614   1.833  11.234 -0.6081 -0.6146 -0.0755
    1TCq1    C3    5   1.694   1.941  11.269  0.2605  0.2383  0.1702
    1TCq1    C4    6   1.764   1.924  11.384 -0.6705  0.7984 -0.3781
    1TCq1    C5    7   1.749   1.814  11.462  0.1145  0.1544 -0.2847
    1TCq1    C6    8   1.652   1.721  11.433  1.0037 -0.5690 -0.0229
    1TCq1    C7    9   1.577   1.731  11.318  0.1807 -1.1839  0.1306
    1TCq1    C8   10   1.634   1.610  11.523  0.1624  0.1629 -0.2155
    1TCq1    O4   11   1.708   1.604  11.625 -0.3006  0.3959  0.2616
    1TCq1    C9   12   1.864   2.019  11.416 -0.1246 -0.5132 -1.2485
    1TCq1    O5   13   1.958   1.976  11.486  0.4331 -0.1277 -0.2189
    1TCq1    O6   14   1.870   2.126  11.343  0.3005 -0.2440 -0.4849
    1TCq1    H1   15   1.654   1.961  11.034  0.0715 -1.2206 -0.0005
    1TCq1    H2   16   1.725   2.022  11.203  2.4859  1.6273  2.9319
    1TCq1    H3   17   1.807   1.801  11.553  0.7013  0.2597 -0.6422
    1TCq1    H4   18   1.507   1.658  11.280 -1.7199  1.5793 -1.6666
    2MPD2     C   19   1.331   1.243  11.721 -0.5064 -0.0011 -0.0815
    2MPD2    C1   20   1.409   1.339  11.781  0.4214 -0.3689  0.1978
    2MPD2    C2   21   1.489   1.419  11.698  0.1023  0.0923 -1.2702
    2MPD2    C3   22   1.486   1.415  11.557 -0.0798 -0.3101  0.0629
    2MPD2    C4   23   1.410   1.313  11.499  0.4858 -0.2304  0.3502
    2MPD2    C5   24   1.339   1.235  11.586  0.5712 -0.0301 -0.5085
    2MPD2     H   25   1.536   1.506  11.743  0.2674  0.6316 -2.4792
    2MPD2    H1   26   1.402   1.300  11.392  0.8395  1.3204  0.1367
    2MPD2    H2   27   1.267   1.172  11.772 -2.2087 -0.2113 -2.5025
    2MPD2    H3   28   1.278   1.155  11.546  1.6586 -0.7438 -0.7454
    2MPD2     N   29   1.560   1.507  11.473 -0.6229  0.0439 -0.3963
    2MPD2    H5   30   1.545   1.498  11.373 -1.3461 -2.5876 -0.0395
    2MPD2    N1   31   1.388   1.369  11.920 -0.0701 -0.0155 -0.0736
    2MPD2    H7   32   1.412   1.463  11.951  0.4876 -0.3882  0.6342
    3TCq1    O1   33   1.271   2.973   9.859 -0.6053  0.3316 -0.1471
    3TCq1    C1   34   1.159   2.915   9.816  0.1339 -0.1038 -0.3935
    3TCq1    O2   35   1.148   2.799   9.787 -0.1398 -0.0585 -0.6669
    3TCq1    C2   36   1.051   3.004   9.852 -0.6925  0.4657  0.3650
    3TCq1    C3   37   1.065   3.138   9.851  0.4350  0.7031  0.3319
    3TCq1    C4   38   0.973   3.210   9.913  0.1978  0.7696 -0.1000
    3TCq1    C5   39   0.855   3.159   9.960  0.0419  0.2846 -0.7097
    3TCq1    C6   40   0.837   3.026   9.943  0.1276  1.3015  0.5950
    3TCq1    C7   41   0.932   2.945   9.883 -0.8774  0.6087  0.7678
    3TCq1    C8   42   0.746   2.959  10.034  0.3015 -0.1560 -0.4636
    3TCq1    O4   43   0.764   2.842  10.074  0.6122  0.2755  0.4684
    3TCq1    C9   44   0.996   3.352   9.931  0.6226 -0.5711  0.2356
    3TCq1    O5   45   1.117   3.383   9.922  0.1060  0.0781 -0.5102
    3TCq1    O6   46   0.901   3.422   9.969 -0.3564 -0.2673  0.1029
    3TCq1    H1   47   1.240   3.054   9.905 -1.7898  0.4500 -1.1421
    3TCq1    H2   48   1.152   3.190   9.812  2.0082 -1.1136  1.3854
    3TCq1    H3   49   0.794   3.222  10.023  1.0754 -0.5697  1.1333
    3TCq1    H4   50   0.918   2.840   9.906 -0.2312  0.1347 -1.0248
    4MPD2     C   51   0.357   2.956  10.377 -0.3205 -0.6055  0.4720
    4MPD2    C1   52   0.381   3.089  10.346 -0.3548  1.1232  0.0005
    4MPD2    C2   53   0.472   3.112  10.246  0.2156  0.0542 -0.4717
    4MPD2    C3   54   0.551   3.016  10.189  0.6642  0.3163  0.1790
    4MPD2    C4   55   0.529   2.885  10.229  0.1058 -0.1802  0.0633
    4MPD2    C5   56   0.432   2.860  10.319 -0.0843 -0.2492 -0.2801
    4MPD2     H   57   0.482   3.217  10.221 -1.7075  0.4547  0.4641
    4MPD2    H1   58   0.590   2.801  10.198 -0.3104 -1.0106  1.4806
    4MPD2    H2   59   0.281   2.926  10.449 -1.5172  2.0197  0.2864
    4MPD2    H3   60   0.420   2.756  10.346 -1.0000 -0.1613 -0.3453
    4MPD2     N   61   0.646   3.045  10.087  0.7950  0.3225  0.5848
    4MPD2    H5   62   0.650   3.142  10.058  1.4418  0.2920  0.5656
    4MPD2    N1   63   0.331   3.199  10.417  1.2898 -0.3819  0.4817
    4MPD2    H7   64   0.351   3.293  10.384  1.0207 -0.5559 -0.1751
    5TCq1    O1   65   1.735   4.184  11.726  0.0336 -0.3747  0.1129
    5TCq1    C1   66   1.734   4.167  11.596 -0.2886 -0.3426  0.3504
    5TCq1    O2   67   1.817   4.097  11.545 -0.3100 -0.0826 -0.3690
    5TCq1    C2   68   1.630   4.238  11.531 -0.1265 -0.2835  0.4036
    5TCq1    C3   69   1.570   4.339  11.597 -0.2394  0.2272 -0.3373
    5TCq1    C4   70   1.444   4.370  11.554 -0.2748  0.1257 -0.6882
    5TCq1    C5   71   1.381   4.303  11.453 -0.4595 -0.2755 -0.6763
    5TCq1    C6   72   1.441   4.198  11.396  0.1526 -1.1451 -0.2696
    5TCq1    C7   73   1.570   4.167  11.432  0.8358  0.2170 -0.8301
    5TCq1    C8   74   1.371   4.110  11.300  0.1216  0.0620  0.4178
    5TCq1    O4   75   1.431   4.011  11.257  0.3137 -0.2478 -0.2430
    5TCq1    C9   76   1.381   4.490  11.602 -0.3275  0.2455 -0.7690
    5TCq1    O5   77   1.272   4.510  11.547  0.0091 -0.8302 -0.1893
    5TCq1    O6   78   1.443   4.563  11.680 -0.2584  0.0595  0.0974
    5TCq1    H1   79   1.645   4.201  11.760  0.8698 -2.9301  3.6550
    5TCq1    H2   80   1.625   4.398  11.670 -0.2203  0.4732 -0.5519
    5TCq1    H3   81   1.276   4.324  11.435 -0.9106 -0.5745  1.6348
    5TCq1    H4   82   1.613   4.077  11.389 -2.4473 -1.6249 -0.2581
    6MPD2     C   83   1.012   4.148  11.192  0.2089  0.1585 -0.8237
    6MPD2    C1   84   1.133   4.084  11.207 -0.1472  0.2464 -0.5058
    6MPD2    C2   85   1.152   3.952  11.171 -0.2211  0.1464  0.7155
    6MPD2    C3   86   1.049   3.882  11.113  0.0489  0.0869  0.2544
    6MPD2    C4   87   0.932   3.949  11.076  0.6253 -0.0472  0.7079
    6MPD2    C5   88   0.918   4.082  11.121  0.4296  0.2520  0.5560
    6MPD2     H   89   1.247   3.901  11.184 -0.1019 -0.3567 -2.0575
    6MPD2    H1   90   0.852   3.910  11.014 -1.2649  2.5337  1.5263
    6MPD2    H2   91   1.002   4.254  11.213 -0.3583 -0.1781  0.6302
    6MPD2    H3   92   0.842   4.146  11.079  1.4056  0.3733 -1.0310
    6MPD2     N   93   1.072   3.752  11.051  0.2814 -0.3170  0.1853
    6MPD2    H5   94   1.169   3.722  11.046  1.5200  3.4661  1.1187
    6MPD2    N1   95   1.242   4.151  11.279 -0.1338 -0.6443 -0.3592
    6MPD2    H7   96   1.217   4.246  11.306 -1.5448 -0.7174 -1.4143
    7TCq1    O1   97   2.717   3.654  13.271 -0.5421  0.1264 -0.8073
    7TCq1    C1   98   2.647   3.558  13.340  0.4904 -0.3754  0.5817
    7TCq1    O2   99   2.538   3.508  13.308  0.4433 -0.3557 -0.0682
    7TCq1    C2  100   2.707   3.550  13.468 -0.1653 -0.1804 -0.1303
    7TCq1    C3  101   2.613   3.505  13.566 -0.0849 -0.1615  0.2872
    7TCq1    C4  102   2.662   3.444  13.683 -0.9208  0.3475 -0.4584
    7TCq1    C5  103   2.796   3.417  13.694 -0.2316 -0.6195 -0.1871
    7TCq1    C6  104   2.878   3.461  13.594 -0.1637 -0.6502  0.4144
    7TCq1    C7  105   2.839   3.530  13.482 -0.1373  0.4891 -0.1368
    7TCq1    C8  106   3.015   3.418  13.600 -0.0706  0.2759 -0.1333
    7TCq1    O4  107   3.044   3.319  13.664  0.1435  0.1051  0.3248
    7TCq1    C9  108   2.576   3.393  13.786  0.0638  0.0725 -0.1794
    7TCq1    O5  109   2.627   3.313  13.868  0.1506  0.0346 -0.2908
    7TCq1    O6  110   2.457   3.382  13.744  0.9440 -0.3198  0.3280
    7TCq1    H1  111   2.776   3.701  13.334  0.8447 -0.5782 -1.5803
    7TCq1    H2  112   2.506   3.515  13.551 -0.1830 -1.2993  0.2391
    7TCq1    H3  113   2.837   3.367  13.780 -2.8006  0.8858  1.9135
    7TCq1    H4  114   2.900   3.541  13.393  0.6491  0.5075  0.4101
    8MPD2     C  115   3.522   3.480  13.521 -0.1119 -0.2042 -0.4106
    8MPD2    C1  116   3.446   3.367  13.536  0.5305 -0.0649 -0.1266
    8MPD2    C2  117   3.307   3.386  13.560  0.0007  0.2449  0.6013
    8MPD2    C3  118   3.242   3.507  13.561  0.5098 -0.3741  0.2537
    8MPD2    C4  119   3.323   3.618  13.533  0.6983 -0.1876 -0.0692
    8MPD2    C5  120   3.460   3.601  13.523 -0.2600 -0.2571  0.2581
    8MPD2     H  121   3.244   3.298  13.573  2.6060 -1.6538  0.3080
    8MPD2    H1  122   3.285   3.720  13.532 -2.9920 -1.5540  1.7752
    8MPD2    H2  123   3.630   3.476  13.523 -0.1267 -0.9090 -0.6672
    8MPD2    H3  124   3.528   3.685  13.530 -0.4799 -0.0064 -0.6985
    8MPD2     N  125   3.101   3.515  13.558  0.0879 -0.0477  0.0203
    8MPD2    H5  126   3.067   3.605  13.526 -0.9494 -0.1596  0.8311
    8MPD2    N1  127   3.510   3.241  13.524  0.3130  0.5325 -0.4954
    8MPD2    H7  128   3.610   3.241  13.504  0.8745  1.3125  2.3292
    9TCq1    O1  129   0.424   1.916  10.324  0.7019 -0.1143 -0.0006
    9TCq1    C1  130   0.555   1.940  10.346  0.5854 -0.2779 -0.1134
    9TCq1    O2  131   0.591   2.054  10.364 -0.4084 -0.2389 -0.4696
    9TCq1    C2  132   0.633   1.819  10.335 -0.2940  0.4873  0.3457
    9TCq1    C3  133   0.602   1.724  10.236  0.1707 -0.3452  0.7340
    9TCq1    C4  134   0.712   1.665  10.173  0.1895 -0.1125 -0.7240
    9TCq1    C5  135   0.840   1.688  10.217 -0.0432 -0.0385  0.4704
    9TCq1    C6  136   0.861   1.787  10.309 -0.1787 -0.2601 -0.4592
    9TCq1    C7  137   0.760   1.851  10.369 -0.2262 -0.0030 -0.6314
    9TCq1    C8  138   0.992   1.816  10.360  0.4174  0.4063  0.4783
    9TCq1    O4  139   1.084   1.770  10.299 -0.1306 -0.2590  0.1851
    9TCq1    C9  140   0.679   1.564  10.069 -0.1461 -0.4061  0.4571
    9TCq1    O5  141   0.774   1.528   9.997  0.0162 -0.0310 -0.2959
    9TCq1    O6  142   0.567   1.506  10.071 -0.0914  0.2824 -0.2780
    9TCq1    H1  143   0.405   1.822  10.348  0.6145  0.4630  2.1578
    9TCq1    H2  144   0.500   1.690  10.222 -0.2502  0.5634  1.6343
    9TCq1    H3  145   0.919   1.633  10.166 -0.8596 -0.6374 -0.1490
    9TCq1    H4  146   0.767   1.930  10.443 -0.7100 -1.9560  1.4871
   10MPD2     C  147   1.234   1.832  10.539  0.8483 -0.2610  0.2590
   10MPD2    C1  148   1.104   1.846  10.586  0.2417 -0.5596  0.2053
   10MPD2    C2  149   1.083   1.869  10.720 -0.0403 -0.3532  0.4098
   10MPD2    C3  150   1.186   1.879  10.811 -0.0019  0.6763  0.4677
   10MPD2    C4  151   1.318   1.863  10.763  0.9662 -0.1729 -0.9464
   10MPD2    C5  152   1.340   1.854  10.624  0.6915  0.2181 -0.1950
   10MPD2     H  153   0.981   1.876  10.755 -0.1180  0.4984  0.0243
   10MPD2    H1  154   1.406   1.852  10.824 -0.6001 -1.7507  1.0360
   10MPD2    H2  155   1.261   1.807  10.437  1.1105  2.1924 -0.2638
   10MPD2    H3  156   1.440   1.836  10.586  0.7725 -2.0578  1.0979
   10MPD2     N  157   1.168   1.895  10.950  0.3521 -0.6905  0.4089
   10MPD2    H5  158   1.252   1.911  11.004 -1.0214 -2.9149  3.2239
   10MPD2    N1  159   0.993   1.840  10.499 -0.1415 -0.3372  0.0119
   10MPD2    H7  160   0.909   1.857  10.554  0.1047 -0.2364  0.3613
   11TCq1    O1  161   2.200   2.599  13.759 -0.0244  1.0375 -0.3940
   11TCq1    C1  162   2.181   2.468  13.725  0.6385  0.6147 -0.3199
   11TCq1    O2  163   2.127   2.433  13.623 -0.2136  0.1853 -0.0456
   11TCq1    C2  164   2.140   2.413  13.852 -0.2999 -0.0788 -0.1373
   11TCq1    C3  165   2.207   2.459  13.965  0.0435  0.0811 -0.5296
   11TCq1    C4  166   2.142   2.434  14.087 -0.0465 -0.6591 -0.1017
   11TCq1    C5  167   2.015   2.381  14.083 -0.8128  0.0215 -0.6467
   11TCq1    C6  168   1.947   2.356  13.968  0.2380 -0.0536  0.0985
   11TCq1    C7  169   2.011   2.353  13.848  0.1878 -0.6157 -0.4173
   11TCq1    C8  170   1.806   2.326  13.968 -0.5657 -0.0111 -0.1563
   11TCq1    O4  171   1.731   2.375  14.054  0.2451  0.1374 -0.2996
   11TCq1    C9  172   2.211   2.466  14.206  0.9432 -0.2860  0.3956
   11TCq1    O5  173   2.143   2.443  14.311  0.6556  0.4032  0.3368
   11TCq1    O6  174   2.319   2.533  14.198  0.0281  0.3372 -0.5495
   11TCq1    H1  175   2.276   2.612  13.818 -0.5032 -1.5101  0.7617
   11TCq1    H2  176   2.306   2.500  13.952 -0.1801  0.9041  0.3548
   11TCq1    H3  177   1.964   2.370  14.178  1.1122  1.2148  0.5584
   11TCq1    H4  178   1.954   2.349  13.756  0.5911 -0.5519 -0.6714
   12MPD2     C  179   1.551   2.189  13.935 -0.2649  0.1814 -0.4423
   12MPD2    C1  180   1.665   2.140  13.882 -0.1457 -0.7303  0.1847
   12MPD2    C2  181   1.667   2.020  13.820  0.3056  0.4084  0.5989
   12MPD2    C3  182   1.547   1.948  13.794  0.1055  0.9039 -0.1940
   12MPD2    C4  183   1.435   1.991  13.849 -0.1948  0.0792 -0.1122
   12MPD2    C5  184   1.441   2.108  13.928  0.0081 -0.2693  0.8521
   12MPD2     H  185   1.757   1.989  13.769  1.8033  1.4691  2.6039
   12MPD2    H1  186   1.342   1.940  13.827  0.9987 -2.7465  1.2994
   12MPD2    H2  187   1.541   2.284  13.986 -2.8750 -0.0906 -0.4752
   12MPD2    H3  188   1.349   2.147  13.971  1.1280  0.2514  2.7777
   12MPD2     N  189   1.547   1.834  13.707 -0.3281  0.4581  0.0822
   12MPD2    H5  190   1.635   1.805  13.666  0.8172  1.5147  1.7687
   12MPD2    N1  191   1.792   2.215  13.888  0.6030  0.2604  0.6852
   12MPD2    H7  192   1.878   2.184  13.843 -0.7004 -2.3185 -0.0069
   13TCq1    O1  193   1.176   1.398  10.289  0.2876 -0.0980 -0.5392
   13TCq1    C1  194   1.189   1.405  10.418 -0.1327 -0.2884  0.0456
   13TCq1    O2  195   1.290   1.443  10.477  0.1476 -0.3699  0.5284
   13TCq1    C2  196   1.049   1.429  10.468 -0.1694  0.0421 -0.3081
   13TCq1    C3  197   0.941   1.361  10.403 -0.8013  0.2170  0.5277
   13TCq1    C4  198   0.820   1.364  10.471 -0.1691 -0.4425  0.3826
   13TCq1    C5  199   0.812   1.435  10.584  0.6437  0.1166  0.3939
   13TCq1    C6  200   0.914   1.494  10.644 -0.0666  0.2255  0.2888
   13TCq1    C7  201   1.042   1.488  10.594  0.0712  0.3963 -0.2529
   13TCq1    C8  202   0.896   1.514  10.783  0.4912 -0.7150 -0.0632
   13TCq1    O4  203   0.784   1.550  10.816 -0.5067  0.4186 -0.3115
   13TCq1    C9  204   0.708   1.289  10.428  0.4661  0.1095  0.5061
   13TCq1    O5  205   0.599   1.302  10.489  0.6029  0.1590  0.1172
   13TCq1    O6  206   0.732   1.208  10.335  0.7255  0.1958 -0.5017
   13TCq1    H1  207   1.085   1.389  10.252  0.0342 -1.3502  0.4042
   13TCq1    H2  208   0.948   1.309  10.308  0.4159  1.7310 -0.2101
   13TCq1    H3  209   0.720   1.435  10.642  0.1395  0.1952 -0.4096
   13TCq1    H4  210   1.127   1.534  10.642 -0.4104 -0.3423  1.3207
   14MPD2     C  211   1.097   1.373  11.053  0.2357 -0.1822 -0.0238
   14MPD2    C1  212   1.007   1.460  10.998 -0.1783  0.5516 -0.3536
   14MPD2    C2  213   0.906   1.520  11.075  0.5143  0.9104 -0.0931
   14MPD2    C3  214   0.897   1.478  11.210  0.6901  0.3327  0.3377
   14MPD2    C4  215   0.989   1.387  11.259 -0.1768  0.4036 -0.2362
   14MPD2    C5  216   1.092   1.336  11.186  0.1840  0.0002 -0.4914
   14MPD2     H  217   0.834   1.587  11.029  0.9587 -1.6556 -4.5160
   14MPD2    H1  218   0.993   1.354  11.362 -1.4635 -1.1572 -0.6959
   14MPD2    H2  219   1.172   1.326  10.991  0.9668  0.6158  0.2542
   14MPD2    H3  220   1.166   1.267  11.225  0.1454  0.6321  0.6934
   14MPD2     N  221   0.789   1.530  11.290  0.0518  0.0721 -0.4083
   14MPD2    H5  222   0.726   1.600  11.252  0.3655  0.7027  0.2170
   14MPD2    N1  223   1.004   1.473  10.861 -0.1531 -0.1434 -0.7121
   14MPD2    H7  224   1.078   1.424  10.812  0.0137 -1.0859  0.4662
   15TCq1    O1  225   1.932   1.297   2.064  0.0006  0.1234 -0.1511
   15TCq1    C1  226   1.888   1.189   2.124  0.3648  0.4734 -0.4528
   15TCq1    O2  227   1.791   1.192   2.202  0.3837 -0.0772  0.9020
   15TCq1    C2  228   1.989   1.083   2.130  0.3948 -0.0222  0.0463
   15TCq1    C3  229   1.991   0.997   2.234  0.2079 -0.1096  0.3082
   15TCq1    C4  230   2.079   0.889   2.233  0.3813 -0.4479 -0.2038
   15TCq1    C5  231   2.146   0.860   2.119  0.3271 -0.0848  0.5238
   15TCq1    C6  232   2.147   0.951   2.016  0.0868  0.7913  0.0830
   15TCq1    C7  233   2.077   1.066   2.022 -0.4582 -0.5027 -0.2673
   15TCq1    C8  234   2.206   0.917   1.887  0.2917 -0.5505  0.1849
   15TCq1    O4  235   2.279   0.817   1.892 -0.4346 -0.5299  0.3495
   15TCq1    C9  236   2.085   0.787   2.340 -0.4187 -0.3106  0.1182
   15TCq1    O5  237   2.184   0.707   2.334 -0.3185 -0.8477  0.0529
   15TCq1    O6  238   2.023   0.812   2.446 -0.1588 -0.1101 -0.2650
   15TCq1    H1  239   2.028   1.293   2.046  0.2764 -0.7815  1.4777
   15TCq1    H2  240   1.921   1.013   2.315 -1.1867 -1.5994 -0.6202
   15TCq1    H3  241   2.203   0.768   2.119  1.2276  0.4737 -0.6307
   15TCq1    H4  242   2.083   1.141   1.944 -1.1796 -0.9245 -0.7347
   16MPD2     C  243   2.101   1.017   1.548  0.4001 -0.2031  0.0104
   16MPD2    C1  244   2.186   0.970   1.649 -0.0170 -0.1242 -0.4603
   16MPD2    C2  245   2.305   0.919   1.612  0.2189  0.5440 -0.5897
   16MPD2    C3  246   2.340   0.922   1.478 -0.0883 -0.3759 -0.7816
   16MPD2    C4  247   2.262   0.981   1.379  0.4510 -0.1465  0.1607
   16MPD2    C5  248   2.141   1.022   1.418 -0.2336  0.3939  0.3075
   16MPD2     H  249   2.364   0.866   1.686  0.3876  1.0852 -0.3352
   16MPD2    H1  250   2.294   0.978   1.275  0.6477 -2.2280  0.2809
   16MPD2    H2  251   2.001   1.048   1.576  1.3206  0.9609  1.9955
   16MPD2    H3  252   2.072   1.057   1.342 -1.9073 -2.2750  0.6249
   16MPD2     N  253   2.459   0.851   1.452  0.3426 -1.0104  0.5888
   16MPD2    H5  254   2.518   0.839   1.534 -0.2586 -1.6938  0.9220
   16MPD2    N1  255   2.143   0.976   1.783 -0.2328  0.2094 -0.3575
   16MPD2    H7  256   2.068   1.042   1.801  1.4405  1.8365  0.5705
   17TCq1    O1  257   0.697   0.520   9.174 -0.4513 -0.1996 -0.6529
   17TCq1    C1  258   0.742   0.458   9.290  0.7094 -0.2054  0.3012
   17TCq1    O2  259   0.680   0.373   9.352  0.9492 -0.0838 -0.3725
   17TCq1    C2  260   0.866   0.527   9.331  0.2716  0.2881  0.5138
   17TCq1    C3  261   0.944   0.605   9.244  0.2875 -0.2883  0.3428
   17TCq1    C4  262   1.060   0.657   9.293  0.3101 -0.6724  0.0660
   17TCq1    C5  263   1.089   0.654   9.431  0.3621 -0.0211 -0.3481
   17TCq1    C6  264   1.011   0.573   9.516  0.0998  0.2698 -0.4415
   17TCq1    C7  265   0.903   0.513   9.463  0.2600 -0.1217 -0.3589
   17TCq1    C8  266   1.021   0.577   9.664 -0.1719  0.0367 -0.4285
   17TCq1    O4  267   0.969   0.483   9.727  0.3999 -0.0570 -1.2994
   17TCq1    C9  268   1.133   0.750   9.206  0.7204  0.0503  0.2038
   17TCq1    O5  269   1.161   0.702   9.095 -0.4366  0.2972  0.1259
   17TCq1    O6  270   1.191   0.848   9.258  0.0970  0.2143 -0.0400
   17TCq1    H1  271   0.757   0.595   9.156  1.3888 -1.0531  1.8677
   17TCq1    H2  272   0.933   0.605   9.137  1.9357  1.3721  0.1834
   17TCq1    H3  273   1.169   0.720   9.462 -0.7954  1.6606 -0.9392
   17TCq1    H4  274   0.839   0.459   9.532  0.1791  1.4354  0.7838
   18MPD2     C  275   1.083   0.633   9.946 -0.2752  0.4699  0.7261
   18MPD2    C1  276   1.115   0.713   9.840  0.0450  0.3736  0.1962
   18MPD2    C2  277   1.172   0.834   9.879  0.3578 -0.1727 -0.5297
   18MPD2    C3  278   1.197   0.865  10.023 -0.5036  0.1444 -0.3253
   18MPD2    C4  279   1.165   0.777  10.118  0.6994 -0.0568  0.0306
   18MPD2    C5  280   1.108   0.662  10.075 -0.0212  0.4769 -0.2470
   18MPD2     H  281   1.204   0.906   9.805  0.2299  0.1010 -0.3192
   18MPD2    H1  282   1.184   0.808  10.220 -2.0815  3.5074 -0.5193
   18MPD2    H2  283   1.036   0.536   9.928 -3.0431  1.7908  0.8843
   18MPD2    H3  284   1.077   0.585  10.145  0.4670  0.4412 -0.0725
   18MPD2     N  285   1.259   0.981  10.072 -0.2436 -0.1909  0.1533
   18MPD2    H5  286   1.269   0.987  10.173 -0.3564 -0.5854  0.1881
   18MPD2    N1  287   1.095   0.683   9.705 -0.1319  0.1961 -0.3274
   18MPD2    H7  288   1.121   0.747   9.631 -2.3023  1.4492 -0.0087
   19TMC2    C1  289   2.390   1.947  13.646  0.0095 -0.0833 -0.2325
   19TMC2    C2  290   2.285   1.963  13.559  0.4515  0.1145  0.1337
   19TMC2    C3  291   2.196   1.855  13.547  0.3934 -0.2737 -0.0422
   19TMC2    C4  292   2.409   1.833  13.718  0.4634 -0.7032  0.0501
   19TMC2    C5  293   2.312   1.735  13.713 -0.4258  0.4402 -0.4308
   19TMC2    C6  294   2.203   1.747  13.634 -0.0705  0.2058  0.0991
   19TMC2     C  295   2.490   2.057  13.660  0.0955 -0.2610 -0.9705
   19TMC2     O  296   2.490   2.139  13.567  0.5854  0.4896  0.4097
   19TMC2     H  297   2.264   2.062  13.520 -0.1351  0.1801  0.6013
   19TMC2    H1  298   2.495   1.823  13.782  1.2236 -1.7831 -1.1420
   19TMC2    H2  299   2.119   1.678  13.636  2.6677 -3.0411  3.4642
   19TMC2    C7  300   2.321   1.606  13.785 -0.4382 -0.1026 -1.1851
   19TMC2    C8  301   2.086   1.856  13.450  0.1159  0.0862  0.0238
   19TMC2    O1  302   2.229   1.525  13.778  0.1630 -0.4558 -0.3223
   19TMC2    O2  303   2.008   1.761  13.445 -0.1401  0.4133 -0.2167
   19TMC2    O5  304   2.117   1.946  13.352 -0.4097  0.4389  0.1917
   19TMC2    H5  305   2.194   2.007  13.349 -0.8830  1.0844  1.3440
   20MPD2     C  306   2.724   2.239  13.701  0.1747  0.3615  0.4619
   20MPD2    C1  307   2.679   2.146  13.793 -1.0465  0.4920 -0.4237
   20MPD2    C2  308   2.754   2.136  13.913 -0.5589  0.0890  0.2174
   20MPD2    C3  309   2.861   2.219  13.941 -0.3510  0.4289 -0.0713
   20MPD2    C4  310   2.905   2.315  13.848 -0.1801  1.3024  0.1757
   20MPD2    C5  311   2.838   2.318  13.726  0.6576  0.3537  0.1923
   20MPD2     H  312   2.730   2.055  13.981  0.2892 -1.1641 -0.9751
   20MPD2    H1  313   2.978   2.391  13.875 -1.4859  1.8382  2.2237
   20MPD2    H2  314   2.685   2.245  13.600  0.2128  1.0579  0.4842
   20MPD2    H3  315   2.869   2.390  13.651 -1.0020 -0.0602 -0.8761
   20MPD2     N  316   2.932   2.222  14.068  0.5494 -0.3536 -0.4825
   20MPD2    H5  317   3.014   2.281  14.062 -1.5153  2.4150 -1.6724
   20MPD2    N1  318   2.578   2.054  13.769  0.3810 -0.0302  0.1048
   20MPD2    H7  319   2.564   1.981  13.838  0.4632 -1.5565 -1.4878
   21MPD2     C  320   0.917   2.738  14.703  0.0921  0.6466  0.5988
   21MPD2    C1  321   0.961   2.629  14.632 -0.4170 -0.1925 -0.2935
   21MPD2    C2  322   0.860   2.554  14.571  0.0128 -0.5701  0.4903
   21MPD2    C3  323   0.728   2.569  14.587 -0.4024 -0.3644  0.2138
   21MPD2    C4  324   0.690   2.685  14.648  0.8727  0.6772  0.5463
   21MPD2    C5  325   0.782   2.765  14.706 -0.1047  0.0234  0.1729
   21MPD2     H  326   0.893   2.471  14.509  0.9516 -1.3056  1.9724
   21MPD2    H1  327   0.587   2.718  14.652  0.8228  0.2350  3.5749
   21MPD2    H2  328   0.981   2.807  14.756  1.3920  1.4360 -2.0283
   21MPD2    H3  329   0.739   2.858  14.741  1.2532  0.4757  0.6268
   21MPD2     N  330   0.623   2.477  14.544  0.4823  0.4300  0.0667
   21MPD2    H5  331   0.526   2.508  14.540  1.1087  2.2338 -1.0375
   21MPD2    N1  332   1.098   2.596  14.624  0.7333 -0.4838 -0.1031
   21MPD2    H7  333   1.119   2.528  14.551 -0.2729  0.1965 -1.0254
   22TCq2    C1  334   0.639   2.341  14.521 -0.1216  0.4725  0.4104
   22TCq2    O2  335   0.741   2.280  14.544 -0.6520  0.3957 -0.9750
   22TCq2    C2  336   0.524   2.272  14.466  1.0483 -0.5020 -0.8036
   22TCq2    C3  337   0.560   2.151  14.415 -0.1090  0.6620 -0.1854
   22TCq2    C4  338   0.458   2.063  14.383  0.2790  0.0672 -0.1326
   22TCq2    C5  339   0.326   2.102  14.399  0.2155 -0.2600 -0.7615
   22TCq2    C6  340   0.300   2.228  14.449 -0.0825 -0.5129 -0.3367
   22TCq2    C7  341   0.396   2.316  14.485  0.4654  0.0576  0.1096
   22TCq2    C8  342   0.168   2.260  14.476  0.8681  0.3924  0.5373
   22TCq2    O4  343   0.099   2.168  14.520 -0.4773 -0.3342  0.2388
   22TCq2    C9  344   0.494   1.929  14.344 -0.1505 -0.7588  0.2226
   22TCq2    O5  345   0.614   1.897  14.336 -0.2042 -0.0904  0.4058
   22TCq2    O6  346   0.399   1.859  14.303  0.1204  0.1698  0.6330
   22TCq2    H2  347   0.662   2.116  14.420 -0.3082 -0.1302 -1.7030
   22TCq2    H3  348   0.236   2.047  14.374 -0.2256 -0.6255  1.5650
   22TCq2    H4  349   0.384   2.412  14.533 -0.8847 -0.6481  1.1622
   23MPD2     C  350   2.224   3.597  14.668 -0.2772 -0.9371  0.3215
   23MPD2    C1  351   2.130   3.497  14.694 -0.5145 -0.2419  0.8234
   23MPD2    C2  352   2.048   3.446  14.591 -0.1956  0.8359 -0.3629
   23MPD2    C3  353   2.075   3.490  14.462 -0.6772  0.1702  0.2047
   23MPD2    C4  354   2.174   3.577  14.441 -0.6048 -0.7384 -0.1089
   23MPD2    C5  355   2.245   3.638  14.542  0.3432 -0.9088 -0.4106
   23MPD2     H  356   1.973   3.371  14.614 -0.8018  1.9637  1.3064
   23MPD2    H1  357   2.203   3.608  14.342 -0.0093  0.1718  0.3552
   23MPD2    H2  358   2.279   3.648  14.746 -0.1211 -0.6228  0.0080
   23MPD2    H3  359   2.310   3.720  14.514  1.2752 -1.2508  0.7410
   23MPD2     N  360   2.006   3.451  14.347  0.3064  0.0443 -0.3089
   23MPD2    H5  361   2.059   3.474  14.263 -1.3107  1.4345 -0.9433
   23MPD2    N1  362   2.104   3.448  14.827  0.0735  0.9032  0.2692
   23MPD2    H7  363   2.033   3.377  14.840  2.1480 -1.0526  0.9431
   24TCq2    C1  364   1.906   3.362  14.345 -0.2607 -0.1127 -0.7819
   24TCq2    O2  365   1.831   3.337  14.439 -0.1509 -0.0931 -0.4828
   24TCq2    C2  366   1.855   3.334  14.217  0.1865 -0.0392 -0.1253
   24TCq2    C3  367   1.862   3.435  14.127 -0.2889  0.2478  0.5047
   24TCq2    C4  368   1.768   3.454  14.031 -0.5620 -0.5840 -0.2528
   24TCq2    C5  369   1.659   3.367  14.013 -0.0349 -0.0683 -0.5384
   24TCq2    C6  370   1.653   3.268  14.109 -0.3801 -0.2120  0.1573
   24TCq2    C7  371   1.746   3.251  14.209 -0.0371 -0.0156  0.2058
   24TCq2    C8  372   1.525   3.214  14.137  0.1360 -1.0508 -0.0698
   24TCq2    O4  373   1.522   3.141  14.233  0.1863 -0.0068 -0.0060
   24TCq2    C9  374   1.776   3.565  13.939  0.0786 -0.4167  0.0246
   24TCq2    O5  375   1.884   3.631  13.946 -0.0173 -0.4902  0.1354
   24TCq2    O6  376   1.691   3.567  13.846 -0.2611 -0.6983 -0.5458
   24TCq2    H2  377   1.932   3.518  14.124 -0.5614  0.5590  2.3311
   24TCq2    H3  378   1.594   3.380  13.927 -0.5979 -1.1481 -0.2777
   24TCq2    H4  379   1.737   3.177  14.287 -1.5176  0.7848  0.7916
   25TMC2    C1  380   0.429   0.434  11.789  0.2381  0.0374  0.3364
   25TMC2    C2  381   0.429   0.525  11.688  0.6592  0.3052 -0.2988
   25TMC2    C3  382   0.372   0.646  11.716  0.0689  0.4049  0.4525
   25TMC2    C4  383   0.379   0.465  11.915 -0.2057  0.5181 -0.8252
   25TMC2    C5  384   0.313   0.580  11.932 -0.1226  0.1051 -0.3656
   25TMC2    C6  385   0.317   0.679  11.837 -1.1957  0.5335  0.2311
   25TMC2     C  386   0.476   0.295  11.763  0.5636 -0.9920  0.7211
   25TMC2     O  387   0.501   0.234  11.864 -0.6193  0.3986  0.0524
   25TMC2     H  388   0.480   0.511  11.593 -0.4558  0.9975 -1.0064
   25TMC2    H1  389   0.373   0.394  11.997  1.4332  0.0415 -1.1080
   25TMC2    H2  390   0.261   0.771  11.848  0.4068  1.4984  0.2283
   25TMC2    C7  391   0.301   0.626  12.070 -0.3456  0.3223  0.8918
   25TMC2    C8  392   0.327   0.723  11.595  0.5283 -0.4042 -0.0271
   25TMC2    O1  393   0.293   0.542  12.162  0.1489 -0.2209  0.1314
   25TMC2    O2  394   0.291   0.674  11.488  0.0421  0.2144 -0.3400
   25TMC2    O5  395   0.385   0.842  11.601  0.2265 -0.0469  0.2731
   25TMC2    H5  396   0.415   0.860  11.693 -0.6777 -0.2120  0.6047
   26MPD2     C  397   0.621   4.591  11.515  0.4091  0.3320  0.3669
   26MPD2    C1  398   0.566   4.673  11.425  0.9713 -0.2663 -0.0273
   26MPD2    C2  399   0.527   0.081  11.462  0.0966 -0.6202  0.4509
   26MPD2    C3  400   0.540   0.126  11.593  0.5992 -0.9641 -0.4255
   26MPD2    C4  401   0.606   0.037  11.681  0.4065  0.6607 -0.5952
   26MPD2    C5  402   0.641   4.630  11.642  0.0801  0.3592 -0.1385
   26MPD2     H  403   0.479   0.143  11.386 -0.5492 -0.4149  1.0335
   26MPD2    H1  404   0.632   0.061  11.783 -0.2895  0.3398 -0.3392
   26MPD2    H2  405   0.675   4.503  11.483  0.5272  0.0672  1.2933
   26MPD2    H3  406   0.691   4.566  11.714  0.4964  0.7356 -0.0934
   26MPD2     N  407   0.494   0.254  11.630 -0.0494 -0.0291  0.2734
   26MPD2    H5  408   0.445   0.311  11.562  0.8932  1.4054  0.7834
   26MPD2    N1  409   0.553   4.619  11.296 -0.8249 -0.2228  0.2617
   26MPD2    H7  410   0.568   4.519  11.299  1.8408  0.1504 -0.0503
   27TMC2    C1  411   4.224   2.798  12.015  0.0405 -0.3948 -0.4136
   27TMC2    C2  412   4.338   2.811  11.941 -0.2058 -0.0968 -0.0509
   27TMC2    C3  413   4.364   2.934  11.884 -0.6253  0.8066 -0.0711
   27TMC2    C4  414   4.134   2.895  12.022  0.3604 -0.0198 -0.2382
   27TMC2    C5  415   4.154   3.015  11.952  0.4628  0.0829  0.6403
   27TMC2    C6  416   4.274   3.040  11.888  0.2150 -0.1840  0.6615
   27TMC2     C  417   4.212   2.667  12.080 -0.5423  0.7615 -0.3542
   27TMC2     O  418   4.304   2.589  12.084  0.5223  0.0768  0.2231
   27TMC2     H  419   4.418   2.737  11.944  0.4361  0.6627  1.7200
   27TMC2    H1  420   4.043   2.884  12.079 -0.4370 -0.7040 -1.6326
   27TMC2    H2  421   4.277   3.130  11.828 -0.8019 -0.5153  0.1098
   27TMC2    C7  422   4.105   3.123  12.035  0.7223 -0.2890  0.4761
   27TMC2    C8  423   4.476   2.942  11.799 -0.2133 -0.0729  0.6295
   27TMC2    O1  424   4.057   3.219  11.979  0.8417 -0.6296 -0.3529
   27TMC2    O2  425   4.543   2.844  11.768 -0.6396  0.1172 -0.1215
   27TMC2    O5  426   4.528   3.062  11.802 -0.1407  0.0156  0.3653
   27TMC2    H5  427   4.484   3.138  11.846 -1.3866  0.1960 -1.2222
   28MPD2     C  428   3.978   2.383  12.438  1.0843 -0.0375  0.2504
   28MPD2    C1  429   3.915   2.504  12.441  0.2994 -0.4821  0.0270
   28MPD2    C2  430   3.957   2.601  12.356  0.4235 -0.0135 -0.1591
   28MPD2    C3  431   4.059   2.578  12.262  0.4580 -0.2028  0.4698
   28MPD2    C4  432   4.118   2.457  12.265 -0.6324 -0.4440 -1.0001
   28MPD2    C5  433   4.078   2.358  12.346 -0.4705 -0.5526 -0.2630
   28MPD2     H  434   3.909   2.698  12.356 -0.9185 -0.6766 -1.9028
   28MPD2    H1  435   4.203   2.434  12.201 -0.0301 -0.6693 -0.1248
   28MPD2    H2  436   3.947   2.301  12.501 -0.5284 -0.1380 -0.6895
   28MPD2    H3  437   4.118   2.258  12.346 -1.0811 -0.7942 -1.8224
   28MPD2     N  438   4.101   2.672  12.164 -0.1553 -0.7684 -0.0987
   28MPD2    H5  439   4.045   2.756  12.154 -0.3361 -0.6006  2.3357
   28MPD2    N1  440   3.811   2.529  12.539 -0.4492 -0.4635 -0.0845
   28MPD2    H7  441   3.798   2.453  12.605  0.0733 -1.1444 -0.7619
   29MPD2     C  442   3.699   0.375  14.688 -0.6875  0.6553  0.0421
   29MPD2    C1  443   3.823   0.374  14.623 -0.0489 -0.0326 -0.3297
   29MPD2    C2  444   3.902   0.491  14.614  0.0459  0.0556 -0.1372
   29MPD2    C3  445   3.854   0.598  14.687 -0.3201 -0.2756 -0.1784
   29MPD2    C4  446   3.738   0.600  14.750 -0.0983  0.0590  0.1153
   29MPD2    C5  447   3.662   0.489  14.755 -0.7083 -0.1494 -0.0858
   29MPD2     H  448   3.990   0.496  14.551 -0.4700 -0.4298 -0.8894
   29MPD2    H1  449   3.710   0.686  14.810  2.0167  1.5688 -1.0388
   29MPD2    H2  450   3.635   0.289  14.699 -0.5703  0.7491  1.4735
   29MPD2    H3  451   3.574   0.480  14.818  0.1961  0.0566  1.2197
   29MPD2     N  452   3.925   0.723  14.687  0.3747 -0.0517  0.2551
   29MPD2    H5  453   3.883   0.798  14.741 -2.9275 -0.6157 -1.5222
   29MPD2    N1  454   3.872   0.263  14.549  0.0248  0.3328  0.3920
   29MPD2    H7  455   3.961   0.273  14.501  0.5679  2.1905  1.7789
   30TCq2    C1  456   4.033   0.763  14.617  0.5705 -0.7056 -0.5688
   30TCq2    O2  457   4.118   0.696  14.557 -0.1746 -0.0616  0.9419
   30TCq2    C2  458   4.043   0.911  14.634 -0.8951 -0.2344  0.5390
   30TCq2    C3  459   3.935   0.983  14.685  0.6222  0.1272  0.2962
   30TCq2    C4  460   3.959   1.103  14.755 -0.5690  0.2879  0.3077
   30TCq2    C5  461   4.083   1.141  14.791 -0.4998 -0.4625 -0.0339
   30TCq2    C6  462   4.183   1.082  14.727 -0.2863 -0.0226  0.2305
   30TCq2    C7  463   4.168   0.966  14.654 -0.4347 -0.6971  0.3472
   30TCq2    C8  464   4.312   1.147  14.712 -0.3970  0.4414  0.4645
   30TCq2    O4  465   4.398   1.082  14.658  0.1296 -0.6693 -0.3467
   30TCq2    C9  466   3.844   1.189  14.791 -0.4022 -0.3317  1.1681
   30TCq2    O5  467   3.727   1.144  14.767  0.3099 -0.0574  0.4168
   30TCq2    O6  468   3.875   1.283  14.870  0.0769  0.2442  0.5164
   30TCq2    H2  469   3.832   0.955  14.669  1.9694 -3.1813 -2.5130
   30TCq2    H3  470   4.101   1.226  14.855 -0.6457 -1.7216  1.6902
   30TCq2    H4  471   4.256   0.911  14.621 -1.3367 -2.2953  0.5902
   31MPD2     C  472   1.901   4.260  14.763 -0.3906 -0.2681  0.6075
   31MPD2    C1  473   1.809   4.198  14.683 -0.8484  0.1138  0.4381
   31MPD2    C2  474   1.772   4.067  14.712 -1.0219  0.6079  0.5958
   31MPD2    C3  475   1.808   3.999  14.827 -0.0227  0.2528 -0.1845
   31MPD2    C4  476   1.893   4.074  14.912  0.7297  0.2595 -0.9185
   31MPD2    C5  477   1.940   4.197  14.878  0.5630  0.0245  0.1089
   31MPD2     H  478   1.714   4.013  14.638 -1.9320  1.1326  0.9119
   31MPD2    H1  479   1.921   4.044  15.012  0.8204 -1.8979 -1.6030
   31MPD2    H2  480   1.925   4.363  14.739 -1.1749  0.1932  1.7629
   31MPD2    H3  481   2.011   4.239  14.948 -0.4242 -0.7128  1.5622
   31MPD2     N  482   1.769   3.870  14.875 -0.4889  0.5293 -0.7390
   31MPD2    H5  483   1.789   3.849  14.972 -0.1350  1.2105 -0.6644
   31MPD2    N1  484   1.767   4.263  14.561 -0.1920  0.1535 -0.4639
   31MPD2    H7  485   1.817   4.346  14.531 -0.9208 -0.0531 -2.2716
   32TCq2    C1  486   1.705   3.775  14.803 -0.3340 -0.2057  0.7477
   32TCq2    O2  487   1.705   3.769  14.677 -0.1203  0.3541  0.4598
   32TCq2    C2  488   1.687   3.656  14.878  0.0953  0.4285  0.3787
   32TCq2    C3  489   1.741   3.539  14.820  0.2715  0.3015  0.2233
   32TCq2    C4  490   1.746   3.425  14.891 -1.0756  0.3641  0.1424
   32TCq2    C5  491   1.717   3.417  15.021  0.1852 -0.0888  1.2219
   32TCq2    C6  492   1.677   3.531  15.086 -0.1316 -0.0804 -0.0898
   32TCq2    C7  493   1.664   3.654  15.011  0.1454 -0.4607 -0.3767
   32TCq2    C8  494   1.692   3.534  15.232  0.0394  0.1948 -0.2864
   32TCq2    O4  495   1.758   3.443  15.285  0.0899 -0.3668  0.4645
   32TCq2    C9  496   1.770   3.303  14.822 -0.0098 -0.7202  0.2241
   32TCq2    O5  497   1.874   3.241  14.862 -0.0945  0.0940  0.1588
   32TCq2    O6  498   1.693   3.278  14.729 -0.4572 -0.2357  0.2301
   32TCq2    H2  499   1.762   3.539  14.714 -0.9364 -1.0170 -0.0093
   32TCq2    H3  500   1.724   3.323  15.074  2.2324 -1.2218 -1.0711
   32TCq2    H4  501   1.648   3.749  15.062 -0.7984 -1.2236  0.7433
   33MPD2     C  502   1.895   1.659  10.000  0.4656  0.2371  0.1401
   33MPD2    C1  503   1.780   1.619   9.937 -0.1485 -0.4815 -0.4116
   33MPD2    C2  504   1.751   1.670   9.812 -0.6589  0.0014  0.8528
   33MPD2    C3  505   1.849   1.743   9.750 -0.4349  0.0846 -0.3011
   33MPD2    C4  506   1.973   1.760   9.804 -0.3494 -0.6729  0.2742
   33MPD2    C5  507   2.000   1.716   9.934 -0.1630  0.3345  1.0743
   33MPD2     H  508   1.661   1.640   9.758 -0.1687  0.9283 -0.4771
   33MPD2    H1  509   2.054   1.803   9.747 -0.3172  2.1875  2.5192
   33MPD2    H2  510   1.916   1.625  10.100 -0.9861  0.9267  0.6714
   33MPD2    H3  511   2.094   1.752   9.972  0.4525 -0.3697  0.2273
   33MPD2     N  512   1.830   1.806   9.622  0.0549 -0.2494 -0.1478
   33MPD2    H5  513   1.917   1.840   9.583 -0.2622  0.4671 -0.2145
   33MPD2    N1  514   1.692   1.531  10.009  0.6399 -0.0214 -0.2506
   33MPD2    H7  515   1.721   1.498  10.101  1.7372 -2.9788 -1.6757
   34TCq2    C1  516   1.713   1.801   9.546  0.0795 -0.5224  0.4869
   34TCq2    O2  517   1.604   1.751   9.572 -0.2967 -0.8515 -0.1061
   34TCq2    C2  518   1.726   1.885   9.431  0.3482 -0.2958 -0.5042
   34TCq2    C3  519   1.613   1.891   9.358 -0.0524 -0.1314  0.1926
   34TCq2    C4  520   1.605   1.977   9.255  0.2903  0.1794  0.2014
   34TCq2    C5  521   1.715   2.051   9.217  0.6567 -0.2437 -0.0658
   34TCq2    C6  522   1.831   2.041   9.295 -0.2159  0.2378 -0.1943
   34TCq2    C7  523   1.844   1.954   9.402  0.4884 -0.5260 -0.0878
   34TCq2    C8  524   1.950   2.120   9.261 -0.1167 -0.9489 -0.1756
   34TCq2    O4  525   2.059   2.085   9.308  0.5338 -0.6404  0.2055
   34TCq2    C9  526   1.477   1.985   9.180 -0.4813 -0.2713 -0.4761
   34TCq2    O5  527   1.464   2.075   9.098  0.2989 -0.3013  0.2557
   34TCq2    O6  528   1.391   1.897   9.216  0.1312 -0.1094 -0.4617
   34TCq2    H2  529   1.518   1.850   9.389  0.9292 -1.6453  1.1685
   34TCq2    H3  530   1.707   2.098   9.120 -1.6841 -0.0376  0.2223
   34TCq2    H4  531   1.936   1.924   9.451  0.4777 -0.4003  0.0097
   35MPD2     C  532   3.701   3.079  11.883 -0.7091  0.4179 -0.1837
   35MPD2    C1  533   3.625   2.968  11.862  0.0758 -0.9463  0.5634
   35MPD2    C2  534   3.519   2.977  11.771 -0.9003  0.2663  0.3743
   35MPD2    C3  535   3.508   3.085  11.688 -0.5943 -0.1319  0.2791
   35MPD2    C4  536   3.607   3.184  11.691  0.0284  0.1445 -0.2366
   35MPD2    C5  537   3.700   3.185  11.790  0.1314 -0.3280  0.2286
   35MPD2     H  538   3.438   2.905  11.769 -0.8052  0.1891 -0.9852
   35MPD2    H1  539   3.628   3.256  11.612 -0.6958  0.0242 -0.5432
   35MPD2    H2  540   3.772   3.082  11.965 -1.3946  2.5540  0.3311
   35MPD2    H3  541   3.779   3.259  11.789 -0.2817  0.1149  0.2187
   35MPD2     N  542   3.401   3.084  11.598  0.5897  0.5287  1.2133
   35MPD2    H5  543   3.341   3.002  11.605 -0.0266  0.9177  0.4716
   35MPD2    N1  544   3.610   2.859  11.949  0.0590 -0.0219 -0.5403
   35MPD2    H7  545   3.538   2.795  11.918 -1.4516  2.1039 -1.4388
   36TCq2    C1  546   3.342   3.188  11.538  0.0478  0.2382 -0.3972
   36TCq2    O2  547   3.367   3.306  11.554 -0.3722  0.2435  0.5257
   36TCq2    C2  548   3.237   3.148  11.447  0.5017 -0.0491  0.3087
   36TCq2    C3  549   3.173   3.251  11.386 -1.0211  0.5407  0.6053
   36TCq2    C4  550   3.058   3.229  11.318  0.9684 -0.7686  0.1370
   36TCq2    C5  551   3.000   3.108  11.313 -0.2420 -0.4936  0.5091
   36TCq2    C6  552   3.057   3.009  11.392 -0.2516  0.8311  0.6777
   36TCq2    C7  553   3.171   3.028  11.465 -0.1856 -0.1028 -0.5398
   36TCq2    C8  554   2.987   2.881  11.400  0.3264  0.9616  0.4090
   36TCq2    O4  555   3.034   2.795  11.476  0.2617  0.2769  0.2429
   36TCq2    C9  556   2.998   3.337  11.249  0.4922 -0.5326  0.0468
   36TCq2    O5  557   2.894   3.319  11.178 -0.0167  0.0404 -0.0494
   36TCq2    O6  558   3.065   3.445  11.245 -0.2114 -0.2213  0.1951
   36TCq2    H2  559   3.220   3.348  11.377  0.5947 -0.2287  0.7307
   36TCq2    H3  560   2.917   3.088  11.245 -1.0308 -2.7950  2.1600
   36TCq2    H4  561   3.219   2.944  11.514 -1.5230 -0.5077  0.0737
   37TMC2    C1  562   0.470   3.519  11.181  0.5787 -0.0010  0.1015
   37TMC2    C2  563   0.442   3.425  11.090  0.2903 -0.2176  0.3418
   37TMC2    C3  564   0.551   3.348  11.054  0.6641 -0.0462  0.0864
   37TMC2    C4  565   0.588   3.532  11.246  0.5837 -0.1988 -0.3330
   37TMC2    C5  566   0.690   3.450  11.224  0.1942  0.1368 -0.4778
   37TMC2    C6  567   0.674   3.361  11.121 -0.5212 -0.4308  0.3449
   37TMC2     C  568   0.349   3.575  11.245  0.4152  0.1596 -0.3119
   37TMC2     O  569   0.253   3.601  11.179  0.3874 -0.1269 -0.2396
   37TMC2     H  570   0.339   3.401  11.065 -0.0223  1.1134  0.3172
   37TMC2    H1  571   0.595   3.615  11.316  2.2539  1.0556 -2.0114
   37TMC2    H2  572   0.761   3.298  11.111  0.0968  0.8039 -1.8936
   37TMC2    C7  573   0.813   3.470  11.300  0.1670  0.3320 -0.1887
   37TMC2    C8  574   0.520   3.222  10.986  0.0014 -0.2116 -0.2556
   37TMC2    O1  575   0.805   3.558  11.387  0.5891  0.3428 -0.1322
   37TMC2    O2  576   0.555   3.114  11.025 -0.0730 -0.3395  0.1300
   37TMC2    O5  577   0.410   3.254  10.907  0.7773  0.1758  0.2309
   37TMC2    H5  578   0.435   3.335  10.857 -0.0544  0.5026  0.3415
   38MPD2     C  579   0.062   3.575  11.666 -0.9223 -1.0204 -0.1721
   38MPD2    C1  580   0.175   3.500  11.693 -0.3599  0.0861  0.5721
   38MPD2    C2  581   0.270   3.496  11.593 -0.3520  0.4623  0.4546
   38MPD2    C3  582   0.251   3.557  11.471 -0.6408 -0.1115  0.6571
   38MPD2    C4  583   0.142   3.633  11.446 -0.4825  0.3544  0.1965
   38MPD2    C5  584   0.048   3.637  11.543  0.7745 -0.0162 -0.4715
   38MPD2     H  585   0.363   3.446  11.613 -0.2581  0.8563  1.0118
   38MPD2    H1  586   0.114   3.672  11.349  1.2189  0.6758 -0.1659
   38MPD2    H2  587   4.701   3.589  11.737  1.2927  0.0227  2.1165
   38MPD2    H3  588   4.680   3.699  11.526 -0.3845 -1.9373 -1.5744
   38MPD2     N  589   0.350   3.529  11.375 -0.6426  0.2340 -0.3860
   38MPD2    H5  590   0.431   3.480  11.414 -0.3011 -0.0848 -1.4889
   38MPD2    N1  591   0.204   3.456  11.820 -0.5233 -0.2008  0.0442
   38MPD2    H7  592   0.298   3.421  11.833  0.0627  1.0210 -0.8239
   39MPD2     C  593   2.997   0.247   1.609 -0.5700  0.0097 -0.2218
   39MPD2    C1  594   2.951   0.343   1.687  1.2612 -1.1072  0.1278
   39MPD2    C2  595   2.822   0.397   1.680 -0.3503  0.7655 -0.3862
   39MPD2    C3  596   2.722   0.341   1.598  0.2300  0.2773  0.3466
   39MPD2    C4  597   2.778   0.245   1.519 -0.2716  1.1383 -0.6425
   39MPD2    C5  598   2.903   0.195   1.527 -0.1725  0.1231  0.0217
   39MPD2     H  599   2.794   0.485   1.737 -2.6286 -1.3556  1.8049
   39MPD2    H1  600   2.718   0.186   1.451  1.5594 -1.8826  0.3379
   39MPD2    H2  601   3.100   0.212   1.605 -0.1443  1.6293 -2.7551
   39MPD2    H3  602   2.931   0.121   1.453 -0.5531 -0.3029  0.3089
   39MPD2     N  603   2.590   0.375   1.580  0.1392  0.3889 -0.2839
   39MPD2    H5  604   2.545   0.315   1.511  0.4773  1.0841 -1.1150
   39MPD2    N1  605   3.053   0.379   1.777 -0.2719  0.2763  0.4064
   39MPD2    H7  606   3.142   0.330   1.767 -0.9936 -0.6685 -1.3310
   40TCq2    C1  607   3.039   0.472   1.876  0.4502 -0.4051  0.0028
   40TCq2    O2  608   2.940   0.534   1.909 -0.1785  0.3062 -0.1904
   40TCq2    C2  609   3.161   0.483   1.963  0.2814 -0.8119  0.3329
   40TCq2    C3  610   3.137   0.551   2.082 -0.1849 -0.2319 -0.4703
   40TCq2    C4  611   3.248   0.597   2.146  0.0628  0.2125 -0.2064
   40TCq2    C5  612   3.374   0.570   2.105  0.4150  0.1911  0.3517
   40TCq2    C6  613   3.390   0.508   1.984 -0.0624 -0.2619 -0.0497
   40TCq2    C7  614   3.287   0.460   1.908  0.6687 -0.2524  0.1231
   40TCq2    C8  615   3.523   0.478   1.932  0.3280  0.6308  0.3296
   40TCq2    O4  616   3.530   0.393   1.845 -0.4054  0.5544  0.3518
   40TCq2    C9  617   3.229   0.685   2.253 -0.1609  0.1768  0.1376
   40TCq2    O5  618   3.116   0.737   2.264 -0.7652  0.0755  0.1319
   40TCq2    O6  619   3.321   0.712   2.333  0.1773 -0.4776 -0.2396
   40TCq2    H2  620   3.042   0.600   2.101 -0.6724 -1.1689 -0.4477
   40TCq2    H3  621   3.461   0.604   2.161 -0.3398  1.9861  0.4393
   40TCq2    H4  622   3.299   0.417   1.810 -1.0935 -0.3749 -0.0344
   41TMC2    C1  623   2.227   3.232  13.600 -0.5841 -0.3126  0.2820
   41TMC2    C2  624   2.171   3.324  13.516 -0.5566 -0.1700 -0.3507
   41TMC2    C3  625   2.226   3.335  13.389 -0.2819 -0.6550  0.3595
   41TMC2    C4  626   2.318   3.139  13.562  0.1865 -0.0618 -0.3202
   41TMC2    C5  627   2.373   3.147  13.431  0.6066 -0.0303  0.2634
   41TMC2    C6  628   2.321   3.241  13.350 -0.1021  0.0517  0.0564
   41TMC2     C  629   2.165   3.200  13.725  0.4928 -0.0381  0.0120
   41TMC2     O  630   2.046   3.213  13.734  0.6903 -0.0911  0.5113
   41TMC2     H  631   2.096   3.394  13.552 -0.4294 -0.4702  0.5080
   41TMC2    H1  632   2.360   3.065  13.629 -1.6096 -0.2575  0.5680
   41TMC2    H2  633   2.349   3.248  13.245  0.8606 -0.0762  0.3127
   41TMC2    C7  634   2.491   3.062  13.396  0.7880 -0.7008 -0.2969
   41TMC2    C8  635   2.182   3.450  13.308 -0.2029  0.4523  0.5402
   41TMC2    O1  636   2.547   3.003  13.487 -0.3780  1.1566 -0.5299
   41TMC2    O2  637   2.064   3.483  13.293 -0.0593 -0.2524  0.0124
   41TMC2    O5  638   2.280   3.481  13.217  0.2305  0.5489  0.3936
   41TMC2    H5  639   2.374   3.469  13.242  0.3455 -1.1831 -0.8093
   42MPD2     C  640   2.119   3.135  14.010 -0.2009 -0.3998  0.3339
   42MPD2    C1  641   2.234   3.199  13.966  0.1379  0.0078 -0.1762
   42MPD2    C2  642   2.329   3.243  14.055 -0.3821  0.1550  0.6423
   42MPD2    C3  643   2.311   3.236  14.187  0.5375  0.0690  0.0975
   42MPD2    C4  644   2.195   3.171  14.233 -0.0341 -0.5830 -0.2862
   42MPD2    C5  645   2.104   3.117  14.149  0.2223 -0.9568 -0.2486
   42MPD2     H  646   2.418   3.294  14.019  1.4780 -0.8260  3.8720
   42MPD2    H1  647   2.180   3.164  14.340 -3.2667 -0.6825 -0.7704
   42MPD2    H2  648   2.046   3.094  13.941  0.4234 -0.6601 -0.1785
   42MPD2    H3  649   2.021   3.062  14.192 -1.6285  1.1968 -1.0831
   42MPD2     N  650   2.395   3.299  14.277 -0.0183  0.0276  0.1005
   42MPD2    H5  651   2.359   3.293  14.372 -1.3095  0.6917 -0.3457
   42MPD2    N1  652   2.261   3.216  13.823 -0.6193 -0.0807 -0.3442
   42MPD2    H7  653   2.340   3.271  13.788 -0.8757 -1.4643 -3.0616
   43MPD2     C  654   3.459   1.652   0.620  0.4545  0.4784  0.0842
   43MPD2    C1  655   3.548   1.676   0.725 -0.4492 -0.1376  0.2550
   43MPD2    C2  656   3.521   1.787   0.804 -0.0221 -0.5579  0.4115
   43MPD2    C3  657   3.410   1.868   0.782  0.0716 -0.3884  0.3595
   43MPD2    C4  658   3.318   1.834   0.684 -0.1373  1.0487 -0.7856
   43MPD2    C5  659   3.346   1.727   0.601  0.3766  0.4290  0.0325
   43MPD2     H  660   3.575   1.784   0.897 -0.4118 -1.1397  0.6240
   43MPD2    H1  661   3.232   1.897   0.667 -0.8636  0.6190  1.3398
   43MPD2    H2  662   3.465   1.564   0.557  1.1286  1.1149 -0.7363
   43MPD2    H3  663   3.271   1.692   0.531 -1.8649 -0.7304  3.0449
   43MPD2     N  664   3.384   1.992   0.859 -0.3448  0.5840 -0.3210
   43MPD2    H5  665   3.318   2.058   0.818 -0.2672  0.8319 -0.0457
   43MPD2    N1  666   3.662   1.595   0.755  0.3003  0.2177 -0.1526
   43MPD2    H7  667   3.721   1.626   0.832  0.5578 -1.7401  0.4416
   44TCq2    C1  668   3.489   2.398   1.266 -0.0093 -0.6527 -0.2819
   44TCq2    O2  669   3.500   2.303   1.341  0.3816 -0.0422  0.3702
   44TCq2    C2  670   3.480   2.352   1.123  0.0977 -0.4625  0.0006
   44TCq2    C3  671   3.465   2.449   1.025 -1.4823  0.1681  0.1030
   44TCq2    C4  672   3.448   2.408   0.891 -0.1449  0.2019  0.4791
   44TCq2    C5  673   3.443   2.272   0.864  0.8334 -0.6232 -0.2270
   44TCq2    C6  674   3.456   2.184   0.966 -0.2683 -0.1684  0.1690
   44TCq2    C7  675   3.469   2.223   1.099 -0.7802 -0.0414 -0.5128
   44TCq2    C8  676   3.467   2.043   0.949 -0.2899  0.2398 -0.2228
   44TCq2    O4  677   3.533   1.988   1.038 -0.2000 -0.1930  0.1227
   44TCq2    C9  678   3.447   2.503   0.782 -0.0900  0.7557 -0.1761
   44TCq2    O5  679   3.469   2.623   0.816 -0.2618 -0.3110  0.0564
   44TCq2    O6  680   3.441   2.465   0.656  0.3463 -0.3789 -1.4137
   44TCq2    H2  681   3.460   2.555   1.050  0.9174 -0.1914  2.0547
   44TCq2    H3  682   3.433   2.235   0.763  0.6821  1.2455 -0.8946
   44TCq2    H4  683   3.470   2.146   1.175  2.7509  2.1757  1.6650
   45TMC2    C1  684   0.352   2.965   9.220  0.8242 -0.7088  0.6654
   45TMC2    C2  685   0.476   2.926   9.191  0.1409 -0.5799  0.5831
   45TMC2    C3  686   0.579   2.999   9.245  0.1628  0.3892 -0.2321
   45TMC2    C4  687   0.326   3.071   9.305 -0.4117 -0.0187 -0.3014
   45TMC2    C5  688   0.435   3.137   9.351 -0.1649  0.7031 -0.7822
   45TMC2    C6  689   0.562   3.111   9.307 -0.1953 -0.2087  0.1139
   45TMC2     C  690   0.243   2.918   9.128  0.4942  0.2071 -0.0337
   45TMC2     O  691   0.283   2.859   9.027 -0.3579 -0.0288  0.0519
   45TMC2     H  692   0.488   2.844   9.120 -2.6019  0.8107 -1.4956
   45TMC2    H1  693   0.227   3.106   9.330 -0.0626 -0.1598  1.3064
   45TMC2    H2  694   0.647   3.159   9.355 -0.7929  1.9644 -1.0088
   45TMC2    C7  695   0.419   3.261   9.425  0.1297  0.3774  0.0902
   45TMC2    C8  696   0.708   2.955   9.191  0.0247  0.7360 -1.3193
   45TMC2    O1  697   0.310   3.270   9.483 -0.1250 -0.4545  0.1915
   45TMC2    O2  698   0.728   2.835   9.175 -0.0986 -0.4202 -0.0970
   45TMC2    O5  699   0.798   3.056   9.172 -0.4717 -0.2713  0.2399
   45TMC2    H5  700   0.751   3.142   9.174 -1.3683 -0.7795  0.9393
   46MPD2     C  701   4.711   2.827   8.998  0.2796  0.0647  0.6178
   46MPD2    C1  702   4.717   2.918   9.102  0.5988 -0.3820  0.7635
   46MPD2    C2  703   4.604   2.986   9.137 -0.0674 -0.1094 -0.2583
   46MPD2    C3  704   4.482   2.954   9.083  0.1004 -0.0230 -0.1468
   46MPD2    C4  705   4.491   2.880   8.969  0.2776 -0.1508 -0.5059
   46MPD2    C5  706   4.600   2.810   8.928 -0.0308  0.4883 -0.3030
   46MPD2     H  707   4.612   3.062   9.214  1.5324 -0.8238  0.2734
   46MPD2    H1  708   4.403   2.865   8.907 -1.6833 -0.2693  2.3242
   46MPD2    H2  709   0.073   2.761   8.969  0.2070 -0.1643  0.9453
   46MPD2    H3  710   4.603   2.745   8.842 -1.8938  1.2083 -0.9304
   46MPD2     N  711   4.370   3.024   9.120  1.1263 -0.3119  0.3147
   46MPD2    H5  712   4.381   3.070   9.210 -3.3365 -0.2007  0.8350
   46MPD2    N1  713   0.117   2.948   9.169 -0.0817  0.0019 -0.0533
   46MPD2    H7  714   0.108   3.013   9.246  0.9919 -2.0901  1.8561
   47TMC2    C1  715   2.454   3.065   9.283  0.1996 -0.6318 -0.2347
   47TMC2    C2  716   2.575   2.999   9.264  0.1874  0.3589  0.5275
   47TMC2    C3  717   2.606   2.968   9.133 -0.3810 -0.2374 -0.3999
   47TMC2    C4  718   2.368   3.095   9.172 -0.3250  0.5397 -0.4299
   47TMC2    C5  719   2.408   3.063   9.044  0.4544 -0.9405 -0.4947
   47TMC2    C6  720   2.529   2.992   9.021  0.1089 -0.6305 -0.2451
   47TMC2     C  721   2.415   3.108   9.415 -0.0986 -0.0067  0.5235
   47TMC2     O  722   2.331   3.190   9.422 -0.2761 -0.1193 -0.1811
   47TMC2     H  723   2.649   2.977   9.339  2.9895 -1.6504 -2.8083
   47TMC2    H1  724   2.270   3.138   9.193 -0.4974 -0.9095  1.7531
   47TMC2    H2  725   2.575   2.988   8.923 -1.8691 -1.2448 -1.1604
   47TMC2    C7  726   2.334   3.109   8.934  0.3820 -0.0936 -0.2046
   47TMC2    C8  727   2.735   2.915   9.110 -0.0996 -0.0950  0.4864
   47TMC2    O1  728   2.397   3.107   8.828  0.1955 -0.6978  0.2071
   47TMC2    O2  729   2.834   2.927   9.184 -0.2239 -0.2144  0.3599
   47TMC2    O5  730   2.721   2.830   9.003 -0.1081  0.0939 -0.0866
   47TMC2    H5  731   2.631   2.813   8.967 -0.1129  0.6915 -0.3562
   48MPD2     C  732   2.412   3.161   9.703 -0.1281 -0.7235 -0.2672
   48MPD2    C1  733   2.478   3.054   9.646  0.1703  0.0035  0.2260
   48MPD2    C2  734   2.533   2.959   9.727  0.1614  0.8261  0.4402
   48MPD2    C3  735   2.543   2.976   9.865 -0.3243 -0.4337  0.8631
   48MPD2    C4  736   2.484   3.087   9.920 -0.3697 -0.0218 -0.0158
   48MPD2    C5  737   2.419   3.175   9.840  0.0067  0.6279 -0.3029
   48MPD2     H  738   2.577   2.872   9.679 -2.3141  1.3740 -2.7883
   48MPD2    H1  739   2.477   3.106  10.026 -2.8231  3.5502 -0.8044
   48MPD2    H2  740   2.361   3.241   9.650 -1.9565 -1.3421  0.5762
   48MPD2    H3  741   2.364   3.263   9.874  0.6628  1.4895 -1.4922
   48MPD2     N  742   2.611   2.882   9.943  0.1547  0.2560  0.7571
   48MPD2    H5  743   2.661   2.809   9.892 -0.6385  0.5153 -0.4032
   48MPD2    N1  744   2.484   3.039   9.508  0.0456 -0.2387 -0.3958
   48MPD2    H7  745   2.531   2.953   9.483  1.2109  0.1840  0.3493
   49MPD2     C  746   4.193   0.871  10.113  0.2468  0.0413  0.4883
   49MPD2    C1  747   4.239   0.764  10.185 -0.7884 -0.1627 -1.0367
   49MPD2    C2  748   4.345   0.780  10.277  0.0206  0.5562 -0.3805
   49MPD2    C3  749   4.407   0.904  10.286 -0.4477 -0.3213  0.2496
   49MPD2    C4  750   4.364   1.010  10.210 -0.6364 -0.4258 -0.5431
   49MPD2    C5  751   4.254   0.992  10.131 -0.0493 -0.1449  0.9828
   49MPD2     H  752   4.379   0.700  10.342  1.1448  0.8664 -0.5729
   49MPD2    H1  753   4.415   1.105  10.220 -0.3733 -0.3348 -2.7303
   49MPD2    H2  754   4.113   0.864  10.041 -1.2859 -0.5763  2.2425
   49MPD2    H3  755   4.208   1.076  10.080 -1.2477 -2.1760 -1.2702
   49MPD2     N  756   4.507   0.927  10.381  0.3835  0.4714 -0.0385
   49MPD2    H5  757   4.555   1.017  10.380  0.0411  0.6672  1.6276
   49MPD2    N1  758   4.193   0.631  10.170  0.1248 -0.3336  0.2498
   49MPD2    H7  759   4.236   0.558  10.227  0.5434 -0.5099 -0.2836
   50TCq2    C1  760   4.098   0.596  10.078 -0.3164 -0.1836 -0.3236
   50TCq2    O2  761   4.055   0.660   9.985 -0.4283  0.2506 -0.1489
   50TCq2    C2  762   4.074   0.452  10.090 -0.1066  0.1219 -0.1361
   50TCq2    C3  763   4.007   0.400   9.986 -0.2810  0.0590 -0.6884
   50TCq2    C4  764   3.994   0.273   9.968 -0.6892 -0.5324  0.4575
   50TCq2    C5  765   4.046   0.190  10.056 -0.3278 -0.1637  0.1443
   50TCq2    C6  766   4.112   0.235  10.164  0.0816 -0.5458 -0.4139
   50TCq2    C7  767   4.130   0.373  10.187 -0.4454  0.7431  0.0288
   50TCq2    C8  768   4.183   0.132  10.242 -0.9503 -0.3163 -0.3554
   50TCq2    O4  769   4.144   0.017  10.241 -0.0835  0.0096  0.2652
   50TCq2    C9  770   3.932   0.228   9.847 -0.0400 -0.2059  0.3629
   50TCq2    O5  771   3.881   0.311   9.770 -0.4647  0.4282 -0.9764
   50TCq2    O6  772   3.954   0.107   9.814 -0.2951 -0.3270  0.2037
   50TCq2    H2  773   3.961   0.468   9.916 -2.5032  0.1285  0.8490
   50TCq2    H3  774   4.037   0.083  10.047  2.3007 -0.4704  1.1808
   50TCq2    H4  775   4.161   0.417  10.282 -0.3883  1.2761 -0.2360
   51MPD2     C  776   0.680   4.403   1.186 -0.7375  0.1558 -0.4502
   51MPD2    C1  777   0.768   4.340   1.271  0.2518  0.7715 -0.8741
   51MPD2    C2  778   0.735   4.346   1.406 -0.1276  0.1239  0.7089
   51MPD2    C3  779   0.628   4.420   1.456 -0.6961 -0.5602 -0.6478
   51MPD2    C4  780   0.541   4.478   1.369 -0.0641  0.6926  0.6103
   51MPD2    C5  781   0.566   4.457   1.232 -0.1065  0.4407  0.3089
   51MPD2     H  782   0.813   4.308   1.471 -0.0865  2.3596  1.9863
   51MPD2    H1  783   0.447   4.527   1.393 -1.2171 -1.2235 -0.0346
   51MPD2    H2  784   0.673   4.384   1.079 -0.6553 -0.2814 -0.3792
   51MPD2    H3  785   0.495   4.495   1.159  0.2810  0.9873  0.2137
   51MPD2     N  786   0.593   4.434   1.593 -0.2259  0.3624  0.7700
   51MPD2    H5  787   0.511   4.490   1.616  0.4970  1.0331  1.7380
   51MPD2    N1  788   0.874   4.264   1.218 -0.2745 -0.0184 -0.2301
   51MPD2    H7  789   0.933   4.207   1.278  2.0930  1.1021 -1.4425
   52TCq2    C1  790   0.647   4.365   1.691  0.4027 -0.7570  0.4331
   52TCq2    O2  791   0.734   4.278   1.686  0.1122 -0.4159  0.0601
   52TCq2    C2  792   0.590   4.401   1.820  0.0236  0.3004  0.2636
   52TCq2    C3  793   0.596   4.308   1.919  0.6978 -0.2441 -0.1649
   52TCq2    C4  794   0.565   4.349   2.053  0.2507 -0.2292  0.8160
   52TCq2    C5  795   0.522   4.480   2.077  0.5352 -0.0567  0.3973
   52TCq2    C6  796   0.528   4.569   1.973  0.1674 -0.3882 -0.1797
   52TCq2    C7  797   0.568   4.534   1.846 -0.6102 -0.2571  0.3592
   52TCq2    C8  798   0.515   4.709   2.002 -0.4854  0.5751 -0.3638
   52TCq2    O4  799   0.525   0.019   2.118 -0.1964 -0.3288 -0.4470
   52TCq2    C9  800   0.551   4.241   2.150 -0.4390 -0.5917 -0.1344
   52TCq2    O5  801   0.557   4.118   2.114 -0.3038 -0.2025 -0.9007
   52TCq2    O6  802   0.523   4.272   2.267  0.0300 -0.3861 -0.1468
   52TCq2    H2  803   0.627   4.208   1.892  1.1702 -0.2766  0.4913
   52TCq2    H3  804   0.496   4.510   2.177  1.0588 -1.3598  0.9387
   52TCq2    H4  805   0.585   4.606   1.767 -2.0358 -1.4166 -1.0024
   53TMC2    C1  806   1.313   3.605  11.817  0.5741 -0.0089  0.0582
   53TMC2    C2  807   1.418   3.642  11.893 -0.6764 -0.6635 -0.2410
   53TMC2    C3  808   1.390   3.692  12.016 -0.1905 -0.2980 -0.6129
   53TMC2    C4  809   1.182   3.623  11.858 -0.7090  0.5102  0.0126
   53TMC2    C5  810   1.165   3.665  11.986 -0.3562 -0.2502 -0.2059
   53TMC2    C6  811   1.266   3.708  12.070  0.4456 -0.0369  0.0461
   53TMC2     C  812   1.341   3.540  11.688 -0.6685 -0.1831  0.6165
   53TMC2     O  813   1.454   3.538  11.648 -0.3216 -0.1842  0.4018
   53TMC2     H  814   1.522   3.637  11.863 -1.3907 -0.6393 -2.7044
   53TMC2    H1  815   1.092   3.618  11.799  0.5199  1.3426 -1.9351
   53TMC2    H2  816   1.253   3.763  12.162 -3.3419 -1.0148  0.1341
   53TMC2    C7  817   1.032   3.678  12.040  0.5349 -0.3425 -0.2756
   53TMC2    C8  818   1.496   3.747  12.091  0.1171 -0.9628 -0.2607
   53TMC2    O1  819   0.946   3.687  11.953 -0.2982  1.0406 -0.2137
   53TMC2    O2  820   1.504   3.745  12.212 -0.4020  0.8018 -0.2924
   53TMC2    O5  821   1.575   3.813  12.003 -0.8850 -0.4816  0.7972
   53TMC2    H5  822   1.542   3.818  11.911  0.0204 -0.6812  0.4635
   54MPD2     C  823   1.312   3.454  11.399  0.1147 -0.2249 -0.8449
   54MPD2    C1  824   1.205   3.480  11.483  0.9045  0.3438  0.3531
   54MPD2    C2  825   1.079   3.468  11.436 -0.3789  0.2390 -0.3288
   54MPD2    C3  826   1.050   3.420  11.312 -0.2674 -0.8377  0.0165
   54MPD2    C4  827   1.156   3.383  11.231  0.2335  0.2188 -0.0503
   54MPD2    C5  828   1.287   3.400  11.274 -0.4521 -0.4354  0.0513
   54MPD2     H  829   0.998   3.489  11.506  0.9341  1.1119  0.9317
   54MPD2    H1  830   1.148   3.352  11.127  1.3170  3.7264 -1.2061
   54MPD2    H2  831   1.416   3.458  11.429 -0.5584  0.5390  1.3933
   54MPD2    H3  832   1.366   3.368  11.206 -1.0654  0.6299 -1.1605
   54MPD2     N  833   0.923   3.402  11.258 -0.3184 -0.8133 -0.2909
   54MPD2    H5  834   0.906   3.335  11.183  1.2744 -0.1801 -1.2174
   54MPD2    N1  835   1.224   3.508  11.622  0.0893  0.2459 -0.2039
   54MPD2    H7  836   1.132   3.507  11.663 -0.3995  1.0128 -1.2756
   55MPD2     C  837   1.545   1.185  17.446 -0.6350  0.3372  0.1786
   55MPD2    C1  838   1.619   1.185  17.565  0.1398  0.4765  0.1636
   55MPD2    C2  839   1.626   1.304  17.630 -0.0304 -0.1482  0.8332
   55MPD2    C3  840   1.556   1.412  17.582  0.8524  0.1719  0.9357
   55MPD2    C4  841   1.483   1.412  17.467  0.0092  0.5269 -0.1503
   55MPD2    C5  842   1.478   1.293  17.399 -0.1955 -0.2802  0.0873
   55MPD2     H  843   1.698   1.314   0.030  2.4723  2.1263 -1.6629
   55MPD2    H1  844   1.431   1.497  17.425  1.3211  1.4424  0.0706
   55MPD2    H2  845   1.533   1.089  17.395  0.1522 -0.0540  0.7305
   55MPD2    H3  846   1.419   1.286  17.308  1.1270 -1.0842 -0.7129
   55MPD2     N  847   1.566   1.524  17.662  0.2132 -0.3132 -0.0128
   55MPD2    H5  848   1.641   1.535   0.048 -0.1797  0.3541  0.3149
   55MPD2    N1  849   1.682   1.072  17.612  0.5066 -0.2899  0.5929
   55MPD2    H7  850   1.661   0.986  17.562 -0.8547  0.9376 -0.9846
   56TCq2    C1  851   1.736   1.053   0.056  0.6481 -0.4638  0.8994
   56TCq2    O2  852   1.746   1.129   0.153  0.1580  0.3451 -0.5105
   56TCq2    C2  853   1.804   0.930   0.064 -0.0791  0.4870  0.3354
   56TCq2    C3  854   1.838   0.856  17.636  0.6557 -0.3286 -0.0960
   56TCq2    C4  855   1.852   0.719  17.655  0.6046 -1.0863 -0.5793
   56TCq2    C5  856   1.835   0.655   0.094 -0.0046  0.1422 -0.5747
   56TCq2    C6  857   1.809   0.739   0.202  0.5172 -0.1305 -0.9270
   56TCq2    C7  858   1.789   0.874   0.192  0.4314  0.4097 -0.5680
   56TCq2    C8  859   1.817   0.677   0.332  0.1464  0.1466  0.3551
   56TCq2    O4  860   1.839   0.554   0.330 -0.2037  0.0488  0.1333
   56TCq2    C9  861   1.888   0.635  17.544  0.1806 -0.0523 -0.9261
   56TCq2    O5  862   1.907   0.692  17.435  0.0224 -0.4238  0.1139
   56TCq2    O6  863   1.921   0.517  17.566 -0.4190 -0.3454  0.1572
   56TCq2    H2  864   1.839   0.897  17.535 -1.8797 -0.4165 -0.1604
   56TCq2    H3  865   1.856   0.549   0.101 -0.5447 -0.0328 -1.7813
   56TCq2    H4  866   1.761   0.938   0.275  1.9035 -2.3477  2.0936
   57TMC2    C1  867   1.348   2.116  13.470 -0.2664  0.3433 -0.7710
   57TMC2    C2  868   1.472   2.118  13.523  0.4655  0.4370  0.0697
   57TMC2    C3  869   1.580   2.105  13.438  0.0490  0.3633  1.2413
   57TMC2    C4  870   1.329   2.074  13.346  0.1323  0.3734  0.6748
   57TMC2    C5  871   1.436   2.045  13.271 -1.1694  0.7505 -0.1919
   57TMC2    C6  872   1.562   2.064  13.312  0.1691 -0.4109  0.0362
   57TMC2     C  873   1.227   2.172  13.533  0.2709  0.0756  0.0559
   57TMC2     O  874   1.125   2.188  13.463  0.2385  0.1568  0.0579
   57TMC2     H  875   1.489   2.143  13.627  1.0837 -3.0720  0.8284
   57TMC2    H1  876   1.228   2.057  13.311 -0.1126 -0.6223  1.8817
   57TMC2    H2  877   1.647   2.059  13.244  0.1132  1.0617 -0.1289
   57TMC2    C7  878   1.403   1.993  13.140  0.0941  0.4541  0.3741
   57TMC2    C8  879   1.712   2.123  13.482  0.7750  0.5966 -0.1015
   57TMC2    O1  880   1.285   1.992  13.108  0.2306  0.2138  0.4263
   57TMC2    O2  881   1.805   2.050  13.458 -0.3229  0.1340  0.2815
   57TMC2    O5  882   1.724   2.240  13.548 -0.2724 -0.2384 -0.3689
   57TMC2    H5  883   1.647   2.300  13.539  0.9400  1.3907  0.2692
   58MPD2     C  884   0.988   2.420  13.926 -0.2700 -0.0279 -0.2861
   58MPD2    C1  885   0.937   2.369  13.805  0.0808 -0.1651 -0.0883
   58MPD2    C2  886   1.027   2.297  13.727 -0.5656 -0.5187 -0.0020
   58MPD2    C3  887   1.159   2.285  13.753  0.5096  0.5213 -0.5934
   58MPD2    C4  888   1.203   2.351  13.864  0.0925 -0.2032 -0.0532
   58MPD2    C5  889   1.117   2.406  13.952 -0.1985 -0.2847 -0.1391
   58MPD2     H  890   0.983   2.256  13.637 -2.7383  2.3514 -0.2594
   58MPD2    H1  891   1.307   2.371  13.886  1.2820 -1.6592 -4.2642
   58MPD2    H2  892   0.931   2.472  14.003 -0.8327  0.9172 -1.3531
   58MPD2    H3  893   1.162   2.446  14.041  0.5551 -0.0489 -0.6283
   58MPD2     N  894   1.257   2.227  13.662  0.0571  0.1339  0.3246
   58MPD2    H5  895   1.355   2.242  13.687  0.4486  0.4003 -1.3477
   58MPD2    N1  896   0.808   2.378  13.757  0.7935  0.2351  0.1512
   58MPD2    H7  897   0.786   2.322  13.675  1.0201  2.4635 -1.4420
   59MPD2     C  898   3.582   2.289  13.432  0.0594  0.3535  0.1726
   59MPD2    C1  899   3.654   2.256  13.320  0.2174  0.0361  0.2721
   59MPD2    C2  900   3.774   2.321  13.290 -0.1092  0.4398 -0.7352
   59MPD2    C3  901   3.827   2.409  13.384 -0.3142 -0.1946 -0.3324
   59MPD2    C4  902   3.753   2.439  13.493  0.4634  0.6186  0.0501
   59MPD2    C5  903   3.634   2.382  13.514  0.6164 -0.2205  0.0326
   59MPD2     H  904   3.817   2.321  13.191 -4.2242  0.5718 -2.4861
   59MPD2    H1  905   3.790   2.511  13.565  0.4883  1.8904 -1.2301
   59MPD2    H2  906   3.492   2.238  13.466 -0.0565  1.3601  1.3573
   59MPD2    H3  907   3.577   2.401  13.604  1.6991  0.8619  0.4853
   59MPD2     N  908   3.946   2.485  13.362 -0.3404 -0.2103  0.4723
   59MPD2    H5  909   3.971   2.560  13.427 -0.6655  1.0600 -0.8686
   59MPD2    N1  910   3.593   2.182  13.210 -0.5048  0.1247 -0.0615
   59MPD2    H7  911   3.649   2.180  13.125  0.3799 -1.4287  0.5653
   60TCq2    C1  912   3.470   2.122  13.215  0.1987  0.3926 -0.0224
   60TCq2    O2  913   3.389   2.104  13.305  0.5050  0.5220 -0.3915
   60TCq2    C2  914   3.439   2.047  13.098  0.2030 -0.1277  0.3963
   60TCq2    C3  915   3.304   2.042  13.067  0.3355 -0.5535 -0.2093
   60TCq2    C4  916   3.264   2.013  12.937 -0.4488  0.8608  0.9454
   60TCq2    C5  917   3.356   1.988  12.838  0.2906  0.4261  0.3900
   60TCq2    C6  918   3.490   1.982  12.881 -0.1891 -0.2401 -0.0904
   60TCq2    C7  919   3.528   2.013  13.003  0.3109  0.8528  0.2000
   60TCq2    C8  920   3.585   1.962  12.776  0.3412  0.6058  0.3773
   60TCq2    O4  921   3.683   1.887  12.784  0.4998  0.0088  0.2331
   60TCq2    C9  922   3.124   2.023  12.910  0.7182  0.4739  0.4654
   60TCq2    O5  923   3.048   2.059  13.007 -0.4918  0.1998 -0.0746
   60TCq2    O6  924   3.082   1.968  12.807 -0.2481 -0.4569  0.4049
   60TCq2    H2  925   3.232   2.074  13.141 -0.7392 -3.5265  0.0302
   60TCq2    H3  926   3.321   1.972  12.737 -2.4194 -1.6675  1.6548
   60TCq2    H4  927   3.636   2.015  13.018  0.4655 -1.3020 -0.6284
   61MPD2     C  928   3.084   3.672  15.142 -0.0500  0.9193  0.1826
   61MPD2    C1  929   3.125   3.804  15.165 -0.1760 -0.3123  0.2393
   61MPD2    C2  930   3.210   3.863  15.078 -0.0503  0.2961 -0.3326
   61MPD2    C3  931   3.252   3.799  14.965 -0.3673 -0.1590 -0.5179
   61MPD2    C4  932   3.195   3.676  14.934 -0.9068  0.4970 -0.7000
   61MPD2    C5  933   3.117   3.604  15.026  0.6285 -0.2041  0.4658
   61MPD2     H  934   3.234   3.967  15.096 -0.2215 -0.0723  1.9723
   61MPD2    H1  935   3.217   3.627  14.840  1.6220  0.5401 -0.1205
   61MPD2    H2  936   3.010   3.628  15.207 -0.6753  1.3064 -0.2697
   61MPD2    H3  937   3.062   3.512  15.008  0.2244 -0.0775  1.0306
   61MPD2     N  938   3.328   3.860  14.864 -0.3726  0.6356  0.1150
   61MPD2    H5  939   3.330   3.803  14.780  2.4528  0.3892  0.3361
   61MPD2    N1  940   3.070   3.881  15.273  0.8128 -0.3239 -0.5543
   61MPD2    H7  941   3.086   3.980  15.284 -2.4658 -0.0823  2.1734
   62TCq2    C1  942   3.003   3.823  15.380  0.5518  0.1678 -0.0001
   62TCq2    O2  943   2.995   3.706  15.418 -0.4084  0.0000  0.2520
   62TCq2    C2  944   2.932   3.920  15.454 -0.3571  0.2090  0.6930
   62TCq2    C3  945   2.869   3.868  15.570 -0.0366 -0.4992 -0.0720
   62TCq2    C4  946   2.792   3.948  15.651  0.4959  0.2657 -0.6824
   62TCq2    C5  947   2.770   4.078  15.617 -0.3620  0.4143  0.3651
   62TCq2    C6  948   2.822   4.123  15.495  0.6875 -0.0076  0.2919
   62TCq2    C7  949   2.909   4.049  15.419 -0.6976 -0.4364  0.1402
   62TCq2    C8  950   2.779   4.256  15.448  0.9403 -0.3491 -0.2673
   62TCq2    O4  951   2.846   4.316  15.366 -0.2576  0.4563 -0.4651
   62TCq2    C9  952   2.723   3.894  15.772  0.2424  0.2576 -0.0635
   62TCq2    O5  953   2.692   3.769  15.782  0.2676  0.2202  0.0434
   62TCq2    O6  954   2.678   3.984  15.847 -0.0083  0.6800 -0.0608
   62TCq2    H2  955   2.877   3.762  15.592 -1.9514 -0.5110  0.5602
   62TCq2    H3  956   2.716   4.151  15.676  0.9823  2.1300 -0.5280
   62TCq2    H4  957   2.932   4.089  15.321 -3.7865 -0.1672 -0.4822
   63TMC2    C1  958   1.888   2.936   9.686  0.0442  0.2276 -0.5176
   63TMC2    C2  959   1.989   2.866   9.626  0.3685  0.1504 -0.6524
   63TMC2    C3  960   2.073   2.937   9.545 -0.4222 -0.3181 -0.7222
   63TMC2    C4  961   1.863   3.067   9.660 -0.2783  0.4887  0.9836
   63TMC2    C5  962   1.949   3.134   9.574 -0.5915  0.8520  0.1184
   63TMC2    C6  963   2.057   3.070   9.521  0.3525  0.4405  0.8182
   63TMC2     C  964   1.890   2.908   9.834  0.2724 -0.1462 -0.2683
   63TMC2     O  965   1.974   2.818   9.862 -0.1898  0.2663 -0.4199
   63TMC2     H  966   2.007   2.759   9.632 -2.4422 -0.2988 -0.3427
   63TMC2    H1  967   1.782   3.126   9.701 -1.6013 -1.1174  0.6631
   63TMC2    H2  968   2.113   3.119   9.442 -0.9822 -0.3717 -0.6347
   63TMC2    C7  969   1.976   3.276   9.618  0.7780 -0.3235 -0.4687
   63TMC2    C8  970   2.162   2.868   9.451 -0.2021 -0.1089  0.6956
   63TMC2    O1  971   1.900   3.313   9.704 -0.5083  0.2871 -0.5333
   63TMC2    O2  972   2.183   2.907   9.337  0.2580 -0.1703 -0.1035
   63TMC2    O5  973   2.250   2.796   9.520 -0.3466  0.6677 -0.0754
   63TMC2    H5  974   2.237   2.782   9.616 -1.3403 -2.3349 -0.6464
   64MPD2     C  975   1.736   3.000  10.311 -0.3044 -0.1499 -0.6379
   64MPD2    C1  976   1.828   2.913  10.263  0.2427  0.5417  0.0063
   64MPD2    C2  977   1.843   2.891  10.131  0.3259  1.2170  0.0106
   64MPD2    C3  978   1.765   2.964  10.039  0.4843 -0.2266  0.1820
   64MPD2    C4  979   1.672   3.049  10.092  0.5332 -0.5948  0.2361
   64MPD2    C5  980   1.654   3.071  10.226  0.0136 -0.7075 -1.6069
   64MPD2     H  981   1.909   2.813  10.098 -1.9581 -1.4889  1.8436
   64MPD2    H1  982   1.612   3.115  10.031  0.7126 -0.2235  0.4629
   64MPD2    H2  983   1.728   3.020  10.417  0.6556 -3.4661  0.0418
   64MPD2    H3  984   1.574   3.136  10.259 -0.1309 -2.1364  0.7866
   64MPD2     N  985   1.788   2.970   9.901 -0.1354 -0.0251 -0.1783
   64MPD2    H5  986   1.736   3.042   9.851 -0.7748  0.1322  0.7233
   64MPD2    N1  987   1.910   2.836  10.351  0.2116 -0.1906  0.1519
   64MPD2    H7  988   1.966   2.761  10.311  0.2353  0.3075 -0.7598
   65MPD2     C  989   3.263   3.389  15.849  0.3157  0.5959 -0.0752
   65MPD2    C1  990   3.247   3.434  15.713  0.1695 -0.0870  0.1259
   65MPD2    C2  991   3.239   3.341  15.616 -0.2802 -0.0150 -0.5136
   65MPD2    C3  992   3.225   3.207  15.649  0.5310  0.1192 -0.3478
   65MPD2    C4  993   3.237   3.161  15.778  0.9864  0.4784 -0.0270
   65MPD2    C5  994   3.259   3.254  15.876  0.6036  0.3643  0.0171
   65MPD2     H  995   3.215   3.374  15.515 -0.0742  0.9118 -0.2578
   65MPD2    H1  996   3.228   3.059  15.816  0.3364 -0.4955 -2.8179
   65MPD2    H2  997   3.266   3.467  15.924  3.7175  0.0803  0.3047
   65MPD2    H3  998   3.260   3.225  15.980  4.0630 -0.7755 -0.3488
   65MPD2     N  999   3.200   3.095  15.556  0.0969  0.8454  0.4307
   65MPD2    H5 1000   3.189   3.001  15.592  0.9744 -0.0101 -1.5547
   65MPD2    N1 1001   3.260   3.571  15.679  0.3695 -0.1272 -0.0251
   65MPD2    H7 1002   3.268   3.589  15.579  2.1898  1.7787  0.4811
   66TCq2    C1 1003   3.244   3.681  15.765  0.6820  0.4484 -0.1222
   66TCq2    O2 1004   3.205   3.699  15.882 -0.2737 -0.2925  0.0118
   66TCq2    C2 1005   3.248   3.807  15.680  0.2470 -0.2162  0.5952
   66TCq2    C3 1006   3.327   3.808  15.568 -0.2031  0.4612 -0.0912
   66TCq2    C4 1007   3.360   3.929  15.512 -0.6947 -0.1581  0.4076
   66TCq2    C5 1008   3.290   4.047  15.550  0.1398 -0.2446  0.4123
   66TCq2    C6 1009   3.212   4.035  15.662 -0.3732 -0.3101  0.2987
   66TCq2    C7 1010   3.182   3.919  15.727  0.6671  0.1167  0.0136
   66TCq2    C8 1011   3.149   4.156  15.721 -0.0917  0.0595 -0.2497
   66TCq2    O4 1012   3.075   4.139  15.813 -0.5904 -0.0105  0.2263
   66TCq2    C9 1013   3.434   3.931  15.388  0.3027 -0.4773  0.7760
   66TCq2    O5 1014   3.475   4.041  15.341 -0.2054 -0.1495 -0.2329
   66TCq2    O6 1015   3.465   3.820  15.342  0.3102  0.3726 -0.3967
   66TCq2    H2 1016   3.389   3.728  15.531 -0.2837  0.4972 -0.3019
   66TCq2    H3 1017   3.310   4.140  15.498 -1.0049 -0.1712  0.1110
   66TCq2    H4 1018   3.126   3.904  15.818 -0.0203 -0.0720 -0.4388
   67MPD2     C 1019   3.627   2.776  13.790 -0.1631 -0.7370 -0.3441
   67MPD2    C1 1020   3.549   2.858  13.864 -0.1017  0.0478 -0.0263
   67MPD2    C2 1021   3.414   2.865  13.841 -0.1831 -0.1339 -0.4971
   67MPD2    C3 1022   3.354   2.765  13.762  0.1441 -0.7755 -0.1241
   67MPD2    C4 1023   3.434   2.685  13.686 -0.2632  0.0190  0.5848
   67MPD2    C5 1024   3.568   2.693  13.700  0.2690  0.0375 -0.2442
   67MPD2     H 1025   3.350   2.927  13.902  2.1185  1.0699  0.7008
   67MPD2    H1 1026   3.402   2.603  13.623  1.1984  0.2038 -0.4057
   67MPD2    H2 1027   3.735   2.776  13.796 -0.2808  2.6909  1.6148
   67MPD2    H3 1028   3.629   2.637  13.630  0.8805  1.0805 -0.5520
   67MPD2     N 1029   3.213   2.755  13.746 -0.1691 -0.3045  0.6497
   67MPD2    H5 1030   3.178   2.706  13.664  0.8261  0.4652 -0.2426
   67MPD2    N1 1031   3.607   2.941  13.968  0.7065 -0.0429  0.1173
   67MPD2    H7 1032   3.551   3.010  14.016  0.0982 -0.6657  0.2965
   68TCq2    C1 1033   3.736   2.929  14.017 -0.5153  0.0995  0.0666
   68TCq2    O2 1034   3.815   2.838  14.006 -0.3030  0.4337 -0.3371
   68TCq2    C2 1035   3.765   3.035  14.109  0.2608  0.2080 -0.8046
   68TCq2    C3 1036   3.678   3.139  14.128 -0.4253 -0.2824 -0.3440
   68TCq2    C4 1037   3.692   3.229  14.236 -0.2817  0.3641  0.8476
   68TCq2    C5 1038   3.795   3.206  14.326  0.2613 -0.0974  0.0089
   68TCq2    C6 1039   3.888   3.102  14.299 -0.2726  0.0816 -0.0422
   68TCq2    C7 1040   3.878   3.022  14.190 -0.7904  0.2291 -0.1602
   68TCq2    C8 1041   3.961   3.035  14.405  0.6510 -0.1311  0.7730
   68TCq2    O4 1042   4.050   2.957  14.371 -0.1236  0.0399 -0.6010
   68TCq2    C9 1043   3.622   3.356  14.248 -0.7794 -0.0645 -0.4298
   68TCq2    O5 1044   3.604   3.403  14.362 -0.3834  0.6442 -0.0573
   68TCq2    O6 1045   3.563   3.391  14.142  0.4193 -0.1360 -0.4388
   68TCq2    H2 1046   3.606   3.174  14.055 -2.2172  0.0148  1.5618
   68TCq2    H3 1047   3.821   3.279  14.402 -0.5699  2.1473 -1.8634
   68TCq2    H4 1048   3.945   2.937  14.182 -1.9020 -0.4465 -2.2759
   69TMC2    C1 1049   1.138   4.012  12.343 -0.0099  0.2103 -0.7009
   69TMC2    C2 1050   1.014   4.056  12.361 -0.1377  0.0577  0.3565
   69TMC2    C3 1051   0.941   4.071  12.247  0.5116  0.0657  0.1342
   69TMC2    C4 1052   1.203   4.000  12.225 -0.7639  0.2153  0.0226
   69TMC2    C5 1053   1.132   4.042  12.114 -0.1155  0.2311 -0.2198
   69TMC2    C6 1054   1.001   4.067  12.121 -0.2517 -0.7579  0.5439
   69TMC2     C 1055   1.195   3.943  12.460  0.1493 -0.3350  0.2101
   69TMC2     O 1056   1.126   3.899  12.553  0.5645  0.1790  0.6516
   69TMC2     H 1057   0.965   4.054  12.458  2.3054 -0.9377  1.5590
   69TMC2    H1 1058   1.300   3.953  12.216 -1.5995 -1.1352 -1.9030
   69TMC2    H2 1059   0.941   4.090  12.033 -1.0039  2.4413  1.9038
   69TMC2    C7 1060   1.199   4.018  11.983 -0.8149  0.2958  0.3041
   69TMC2    C8 1061   0.796   4.073  12.254 -0.4340 -0.1393  0.5951
   69TMC2    O1 1062   1.321   4.027  11.996  0.2416  0.3049 -0.0442
   69TMC2    O2 1063   0.735   4.028  12.159 -0.3456 -0.4064 -0.1934
   69TMC2    O5 1064   0.745   4.105  12.375 -0.0973  0.0106 -0.0661
   69TMC2    H5 1065   0.794   4.182  12.412 -1.6691  0.0740  1.8830
   70MPD2     C 1066   1.553   3.889  12.518 -0.3274 -0.1367  0.3986
   70MPD2    C1 1067   1.421   3.854  12.530 -0.4155 -0.4559  0.0389
   70MPD2    C2 1068   1.386   3.742  12.599 -0.4381  0.3679  0.6198
   70MPD2    C3 1069   1.482   3.659  12.667  0.3186  0.7529 -0.5815
   70MPD2    C4 1070   1.614   3.700  12.659  0.3722 -0.0529  0.2370
   70MPD2    C5 1071   1.649   3.813  12.584 -0.2709 -0.0902  0.8603
   70MPD2     H 1072   1.282   3.721  12.624  0.3415 -2.5239  1.4159
   70MPD2    H1 1073   1.689   3.649  12.718  0.1907 -2.2765 -1.4514
   70MPD2    H2 1074   1.588   3.981  12.473  1.0774 -1.3124 -0.8908
   70MPD2    H3 1075   1.751   3.847  12.569 -1.0219  0.8483 -2.2359
   70MPD2     N 1076   1.456   3.529  12.726 -0.9772 -0.3359 -0.0522
   70MPD2    H5 1077   1.527   3.487  12.786 -1.0013  0.5788  0.6077
   70MPD2    N1 1078   1.333   3.934  12.452  0.2766  0.0979  0.3310
   70MPD2    H7 1079   1.380   4.000  12.390 -0.0367 -1.2140 -1.2869
   71TMC2    C1 1080   1.965   3.855   1.268  0.0844  0.5389 -0.7151
   71TMC2    C2 1081   2.006   3.727   1.300 -0.0120  0.4086  0.6439
   71TMC2    C3 1082   1.910   3.648   1.359  0.2286 -0.6675  0.9073
   71TMC2    C4 1083   1.845   3.911   1.301  0.1328  0.9279 -0.1134
   71TMC2    C5 1084   1.755   3.823   1.357 -0.3853 -0.1124  0.7328
   71TMC2    C6 1085   1.784   3.692   1.383  0.4493  0.1069  0.0906
   71TMC2     C 1086   2.045   3.936   1.177 -1.0879 -0.7205 -0.2113
   71TMC2     O 1087   2.161   3.897   1.166  0.0801  0.2006 -0.2904
   71TMC2     H 1088   2.100   3.689   1.262 -1.5354 -1.5193 -1.2413
   71TMC2    H1 1089   1.835   4.019   1.292  1.1403  1.1841  1.9426
   71TMC2    H2 1090   1.717   3.638   1.449 -0.0797 -0.9731 -1.3411
   71TMC2    C7 1091   1.622   3.863   1.370 -0.1682  0.4665  0.2651
   71TMC2    C8 1092   1.950   3.512   1.392  0.4124  0.0865 -0.5143
   71TMC2    O1 1093   1.552   3.817   1.460  0.3827 -0.0749 -0.2439
   71TMC2    O2 1094   2.068   3.481   1.407  0.6324 -0.8339 -0.1622
   71TMC2    O5 1095   1.844   3.439   1.351 -0.1529 -0.3176  0.1923
   71TMC2    H5 1096   1.773   3.493   1.311 -0.6366  0.9813  2.7610
   72MPD2     C 1097   2.104   4.292   0.807  0.0453 -0.8833 -0.0072
   72MPD2    C1 1098   2.201   4.223   0.881  0.5178  0.4662 -0.8099
   72MPD2    C2 1099   2.158   4.120   0.971  0.2509  0.8146  0.1000
   72MPD2    C3 1100   2.021   4.090   0.989 -0.5890  0.4868  0.1813
   72MPD2    C4 1101   1.929   4.156   0.911  0.2107 -0.2427  0.4015
   72MPD2    C5 1102   1.973   4.255   0.819  0.1057 -0.7360  0.0453
   72MPD2     H 1103   2.232   4.068   1.031  0.2410  1.0343  0.3020
   72MPD2    H1 1104   1.822   4.139   0.913 -0.0808  1.3115 -1.3308
   72MPD2    H2 1105   2.125   4.376   0.742  2.1487 -1.2087  0.2488
   72MPD2    H3 1106   1.905   4.318   0.763  1.7956  0.3490 -0.8105
   72MPD2     N 1107   1.971   3.999   1.083 -0.1786  0.7372 -0.3178
   72MPD2    H5 1108   1.871   3.982   1.087 -0.1037 -0.3282 -3.3927
   72MPD2    N1 1109   2.337   4.265   0.879 -0.0614  0.3312  0.0108
   72MPD2    H7 1110   2.398   4.198   0.924  0.2366  1.2911  1.0346
   73TMC2    C1 1111   2.360   1.266  13.495  0.0121  0.8973 -0.5673
   73TMC2    C2 1112   2.239   1.292  13.555 -0.1237 -0.6486 -0.0277
   73TMC2    C3 1113   2.209   1.230  13.668 -0.5857  0.4966 -0.3187
   73TMC2    C4 1114   2.438   1.164  13.546 -0.0712  0.3830  0.4603
   73TMC2    C5 1115   2.418   1.107  13.665 -0.0771  0.8916 -0.6671
   73TMC2    C6 1116   2.295   1.136  13.722 -0.0635 -0.3362 -0.3296
   73TMC2     C 1117   2.438   1.376  13.457  0.0178  0.7575 -0.2149
   73TMC2     O 1118   2.558   1.373  13.489 -0.4919 -0.0940  0.4097
   73TMC2     H 1119   2.171   1.359  13.504 -0.5197 -1.9786 -1.2610
   73TMC2    H1 1120   2.536   1.140  13.506 -0.0291 -0.3442  0.9987
   73TMC2    H2 1121   2.262   1.085  13.812 -0.7982  1.6315  0.5141
   73TMC2    C7 1122   2.534   1.106  13.754 -0.3967 -0.4698  0.0562
   73TMC2    C8 1123   2.069   1.186  13.681  0.1897  0.5651 -0.4207
   73TMC2    O1 1124   2.531   1.031  13.852  0.1452 -0.1618  0.7941
   73TMC2    O2 1125   2.035   1.145  13.792  0.6386  0.3454 -0.1105
   73TMC2    O5 1126   2.034   1.135  13.562 -0.0207 -0.1537 -0.2597
   73TMC2    H5 1127   2.090   1.155  13.484  1.9937 -1.2787  0.9066
   74MPD2     C 1128   2.536   1.859  13.295  0.2169  0.6434  0.2224
   74MPD2    C1 1129   2.594   1.777  13.394  0.2968 -1.1715 -0.2859
   74MPD2    C2 1130   2.532   1.656  13.428  0.1743 -0.3418  0.0291
   74MPD2    C3 1131   2.426   1.603  13.357  0.4193 -0.1664 -0.0437
   74MPD2    C4 1132   2.363   1.689  13.273  0.1425 -0.3753 -0.2910
   74MPD2    C5 1133   2.416   1.814  13.244 -0.5955  0.1357 -0.4285
   74MPD2     H 1134   2.575   1.595  13.507 -1.1836 -2.0094 -0.5200
   74MPD2    H1 1135   2.271   1.665  13.221  0.6119  1.0107 -1.7438
   74MPD2    H2 1136   2.563   1.959  13.265 -0.3311  1.0219  0.9936
   74MPD2    H3 1137   2.375   1.889  13.177  0.1818  1.3908  0.4895
   74MPD2     N 1138   2.371   1.477  13.395  0.1441 -0.6426  0.1785
   74MPD2    H5 1139   2.274   1.455  13.376  0.2905  0.6693 -2.0497
   74MPD2    N1 1140   2.701   1.837  13.467  0.0692  0.1853  0.6153
   74MPD2    H7 1141   2.742   1.918  13.421 -1.7567  0.6288 -0.2197
   75TCq2    C1 1142   3.120   2.802  13.837  1.0901  0.5857  1.2427
   75TCq2    O2 1143   3.137   2.851  13.949 -0.0108 -0.7138 -0.1469
   75TCq2    C2 1144   2.982   2.755  13.805 -0.3855  0.4887 -0.3694
   75TCq2    C3 1145   2.902   2.726  13.916 -0.1385 -0.2730 -0.3962
   75TCq2    C4 1146   2.778   2.672  13.896 -0.5209  0.0101  0.1005
   75TCq2    C5 1147   2.732   2.652  13.770 -0.1860 -0.0831 -0.6795
   75TCq2    C6 1148   2.814   2.666  13.664 -0.5288 -0.0044  0.3473
   75TCq2    C7 1149   2.944   2.718  13.671  0.1015 -0.7479 -0.3720
   75TCq2    C8 1150   2.768   2.631  13.531  0.1260  0.2099 -0.2279
   75TCq2    O4 1151   2.843   2.645  13.434  0.2658 -0.1692  0.1256
   75TCq2    C9 1152   2.697   2.625  14.005  0.1400  0.5757  0.0013
   75TCq2    O5 1153   2.722   2.653  14.127 -0.0086  0.0170 -0.5970
   75TCq2    O6 1154   2.585   2.567  13.978  0.2663 -0.1163  0.4670
   75TCq2    H2 1155   2.940   2.744  14.016 -0.2569  0.4284 -0.4810
   75TCq2    H3 1156   2.633   2.608  13.772 -0.4577  0.4796 -1.5494
   75TCq2    H4 1157   2.997   2.758  13.585 -1.3837  0.7270 -0.6004
   76MPD2     C 1158   2.113   3.371  11.819  0.0532 -0.2085  0.1203
   76MPD2    C1 1159   2.056   3.334  11.699  0.9850  0.0310  0.5642
   76MPD2    C2 1160   2.071   3.198  11.654 -0.1923  0.0856  0.2524
   76MPD2    C3 1161   2.151   3.110  11.729  0.6829  0.9268  0.2316
   76MPD2    C4 1162   2.211   3.161  11.842  0.4588  0.4705  0.3045
   76MPD2    C5 1163   2.188   3.283  11.886  0.3192 -0.7067  0.1990
   76MPD2     H 1164   2.008   3.160  11.574 -0.7212  1.0350  0.2092
   76MPD2    H1 1165   2.262   3.100  11.916  0.2544  1.1885  1.0344
   76MPD2    H2 1166   2.104   3.467  11.867  2.0799 -0.1369  0.3726
   76MPD2    H3 1167   2.225   3.325  11.979  1.4761  3.7828 -2.3078
   76MPD2     N 1168   2.170   2.975  11.690 -0.1657  0.3474  0.0387
   76MPD2    H5 1169   2.219   2.920  11.760  2.7830 -0.8573 -3.0229
   76MPD2    N1 1170   1.986   3.433  11.632 -0.3888  0.3732 -0.2249
   76MPD2    H7 1171   1.948   3.409  11.541 -1.7584 -1.4185  0.8268
   77TCq2    C1 1172   2.109   2.910  11.586  0.3241 -0.1776  0.0129
   77TCq2    O2 1173   2.034   2.947  11.499  0.0347 -0.6941 -0.6182
   77TCq2    C2 1174   2.140   2.763  11.582 -0.1083  1.3250 -0.1792
   77TCq2    C3 1175   2.058   2.681  11.514 -0.1541  0.2479 -0.1536
   77TCq2    C4 1176   2.082   2.552  11.513  0.3592 -0.3933 -0.0118
   77TCq2    C5 1177   2.179   2.491  11.595  0.3678 -0.5749 -0.1200
   77TCq2    C6 1178   2.243   2.578  11.681 -0.4587  0.4019  0.3031
   77TCq2    C7 1179   2.230   2.713  11.673  0.6477 -0.2483  0.4118
   77TCq2    C8 1180   2.370   2.528  11.728 -0.3332 -0.2011  0.2402
   77TCq2    O4 1181   2.408   2.425  11.672  0.1181 -0.1197 -0.0612
   77TCq2    C9 1182   2.018   2.466  11.419 -0.3880  0.0093  0.8789
   77TCq2    O5 1183   1.955   2.528  11.330  0.6283  0.0387 -0.4210
   77TCq2    O6 1184   2.063   2.349  11.407 -0.1144 -0.1327 -0.1391
   77TCq2    H2 1185   1.981   2.721  11.450 -0.7521 -1.2968 -0.4152
   77TCq2    H3 1186   2.198   2.385  11.597 -1.8129 -0.9543  1.2759
   77TCq2    H4 1187   2.286   2.777  11.740  3.0160  1.5322 -3.2889
   78MPD1     C 1188   3.369   0.364   1.397  0.2474  0.8241  0.8274
   78MPD1    C1 1189   3.459   0.434   1.325  0.2009  0.2754 -0.1295
   78MPD1    C2 1190   3.578   0.365   1.296  0.1700 -0.1879 -0.1316
   78MPD1    C3 1191   3.588   0.230   1.303 -0.4526  0.2147  0.1781
   78MPD1    C4 1192   3.482   0.161   1.350  0.1582  0.1575 -0.1122
   78MPD1    C5 1193   3.377   0.231   1.402 -0.1526  0.1130  0.0544
   78MPD1     H 1194   3.657   0.418   1.244  1.1658 -1.1466  0.4136
   78MPD1    H1 1195   3.482   0.055   1.372  2.0222  0.0689 -0.5587
   78MPD1    H2 1196   3.271   0.405   1.421 -0.9080 -0.6003 -1.3893
   78MPD1    H3 1197   3.295   0.184   1.456 -0.1473  1.0302  0.8493
   78MPD1     N 1198   3.693   0.154   1.254 -0.2894  0.1056  0.3344
   78MPD1    H5 1199   3.702   0.057   1.281 -0.7400 -0.5702 -1.9608
   78MPD1    N1 1200   3.465   0.577   1.335  0.1318  0.2431 -0.4262
   78MPD1    H6 1201   3.376   0.625   1.335  0.0409  0.0554 -2.1091
   78MPD1    H7 1202   3.514   0.616   1.254 -1.9961  2.8668 -0.4419
   79TCq2    C1 1203   3.796   0.195   1.176 -0.2649 -0.5218  0.1408
   79TCq2    O2 1204   3.815   0.305   1.124  0.0510  0.4579  0.3770
   79TCq2    C2 1205   3.904   0.099   1.174 -0.4539  0.3468 -0.4768
   79TCq2    C3 1206   3.906   4.718   1.269  0.2375 -0.2175 -0.1194
   79TCq2    C4 1207   4.007   4.620   1.261 -0.0162 -0.2330 -0.3618
   79TCq2    C5 1208   4.105   4.633   1.165 -0.4715  0.1253  0.2664
   79TCq2    C6 1209   4.104   0.015   1.080 -0.8001  0.0535 -0.0827
   79TCq2    C7 1210   4.006   0.113   1.081 -0.4964  0.5126 -0.5153
   79TCq2    C8 1211   4.223   0.025   0.998 -0.4650  0.2969  0.0020
   79TCq2    O4 1212   4.296   4.646   0.994  0.0426  0.0047  0.3166
   79TCq2    C9 1213   4.009   4.509   1.351 -0.1629  0.4688 -0.0872
   79TCq2    O5 1214   3.920   4.498   1.436 -0.3395 -0.2603 -0.2790
   79TCq2    O6 1215   4.088   4.418   1.324 -0.5187 -0.1133 -0.0887
   79TCq2    H2 1216   3.838   4.717   1.354  0.3067 -1.7636 -0.0973
   79TCq2    H3 1217   4.186   4.561   1.158 -1.3089 -0.8131  0.2776
   79TCq2    H4 1218   4.000   0.195   1.011  3.3988 -0.4215 -1.9572
   80MPD2     C 1219   0.963   3.354  12.438  0.1502 -0.1595  0.6571
   80MPD2    C1 1220   0.932   3.346  12.301  0.4594 -0.6210  0.4877
   80MPD2    C2 1221   0.804   3.345  12.257 -0.0381  0.0021  0.1907
   80MPD2    C3 1222   0.700   3.355  12.343  0.1184 -0.0827 -0.3256
   80MPD2    C4 1223   0.728   3.359  12.480 -0.0720 -0.0428  0.1698
   80MPD2    C5 1224   0.853   3.358  12.526  0.3637 -0.1887 -0.4019
   80MPD2     H 1225   0.776   3.328  12.153  0.7487 -2.0407  0.3058
   80MPD2    H1 1226   0.649   3.349  12.554  0.2742  0.5911  0.6211
   80MPD2    H2 1227   1.063   3.365  12.477  0.7083 -1.3552 -0.4137
   80MPD2    H3 1228   0.872   3.376  12.632  2.8460 -2.6493 -0.4315
   80MPD2     N 1229   0.565   3.351  12.303  0.4933 -0.0685 -0.3459
   80MPD2    H5 1230   0.503   3.351  12.384  0.0344 -1.9440 -0.6976
   80MPD2    N1 1231   1.030   3.331  12.200 -0.1795 -0.1169 -0.7223
   80MPD2    H7 1232   0.989   3.332  12.107 -0.3339 -1.0258 -0.6634
   81TCq2    C1 1233   1.161   3.312  12.219  0.0468 -0.9348 -0.1919
   81TCq2    O2 1234   1.215   3.281  12.325  0.4245 -0.2783 -0.2970
   81TCq2    C2 1235   1.242   3.318  12.094  0.1408 -0.4166 -0.4863
   81TCq2    C3 1236   1.377   3.332  12.119  0.0494  0.1773 -0.3823
   81TCq2    C4 1237   1.462   3.328  12.012 -0.1331  0.5141 -0.1580
   81TCq2    C5 1238   1.410   3.276  11.890 -0.4625 -0.6284 -0.0068
   81TCq2    C6 1239   1.274   3.266  11.874 -0.3366 -0.4011 -0.1960
   81TCq2    C7 1240   1.188   3.293  11.972  0.7139  0.2409  0.7175
   81TCq2    C8 1241   1.228   3.195  11.758 -0.2468  0.3544 -0.0513
   81TCq2    O4 1242   1.328   3.161  11.692  0.2511 -0.6068  0.6791
   81TCq2    C9 1243   1.601   3.361  12.034 -0.0649 -0.9645 -0.1204
   81TCq2    O5 1244   1.627   3.432  12.134  0.0833 -0.6058  0.3861
   81TCq2    O6 1245   1.682   3.339  11.944  0.2097  0.2322 -0.6318
   81TCq2    H2 1246   1.413   3.367  12.215  0.4761 -1.2588 -0.0333
   81TCq2    H3 1247   1.484   3.261  11.812  1.4966  0.3132  1.6809
   81TCq2    H4 1248   1.082   3.271  11.959  0.7238  0.7739 -0.1900
   82MPD2     C 1249   4.241   2.320  10.978  0.8077  0.0301  0.2176
   82MPD2    C1 1250   4.176   2.212  10.922 -0.3106 -0.6943  1.6850
   82MPD2    C2 1251   4.203   2.080  10.967 -0.2523  0.4499  0.1605
   82MPD2    C3 1252   4.293   2.061  11.068 -0.2472 -0.6776  0.6013
   82MPD2    C4 1253   4.361   2.173  11.116  0.6656 -0.1087 -0.2736
   82MPD2    C5 1254   4.332   2.298  11.066  0.4188 -0.0589 -0.7562
   82MPD2     H 1255   4.158   1.994  10.919  2.6945 -0.8478 -0.2258
   82MPD2    H1 1256   4.436   2.160  11.194  0.5681 -0.3479 -0.2201
   82MPD2    H2 1257   4.216   2.421  10.949 -2.0915 -0.3827  1.2583
   82MPD2    H3 1258   4.356   2.385  11.125 -0.3552 -0.9663  0.8904
   82MPD2     N 1259   4.328   1.934  11.122 -0.0052 -0.4703  0.7906
   82MPD2    H5 1260   4.378   1.941  11.210  2.9942 -0.7820 -0.9002
   82MPD2    N1 1261   4.077   2.239  10.828  0.5088  0.1426  0.0019
   82MPD2    H7 1262   4.064   2.335  10.797 -0.8955 -0.4474 -1.2665
   83TCq2    C1 1263   4.314   1.812  11.060  0.5358 -0.1904  0.3672
   83TCq2    O2 1264   4.242   1.777  10.966  0.0349  0.1211 -0.0505
   83TCq2    C2 1265   4.361   1.698  11.136 -0.1484  0.4376 -0.1552
   83TCq2    C3 1266   4.461   1.728  11.227  0.4141 -0.4039  0.6690
   83TCq2    C4 1267   4.472   1.651  11.334 -0.1768  0.3896 -0.5713
   83TCq2    C5 1268   4.375   1.559  11.361  0.5477 -0.6714 -0.0282
   83TCq2    C6 1269   4.273   1.539  11.273  0.5341  0.2419 -0.5834
   83TCq2    C7 1270   4.261   1.606  11.155 -0.7214  0.2463 -0.1594
   83TCq2    C8 1271   4.184   1.431  11.299  0.1239 -0.2281  0.1139
   83TCq2    O4 1272   4.169   1.402  11.417  0.2030 -0.3222  0.4644
   83TCq2    C9 1273   4.584   1.659  11.418  0.4777  0.7124  0.1403
   83TCq2    O5 1274   4.597   1.581  11.521  0.0410 -0.4630  0.2680
   83TCq2    O6 1275   4.657   1.758  11.394  0.1918  0.0035 -0.3318
   83TCq2    H2 1276   4.536   1.805  11.211  1.5821 -1.3688  1.4991
   83TCq2    H3 1277   4.381   1.499  11.452 -0.3727  1.2424  1.2955
   83TCq2    H4 1278   4.186   1.589  11.078 -0.8874  1.5175 -0.2771
   84TCq2    C1 1279   4.540   0.846  10.489 -0.3493  0.3754 -0.0958
   84TCq2    O2 1280   4.487   0.744  10.528 -0.0523  0.0736  0.1542
   84TCq2    C2 1281   4.641   0.902  10.574  0.4340 -0.0085 -0.4754
   84TCq2    C3 1282   4.719   0.997  10.521  0.0010  0.2648 -0.2386
   84TCq2    C4 1283   0.091   1.058  10.599  0.1752 -0.7480  0.7282
   84TCq2    C5 1284   0.101   1.031  10.733 -0.1686 -0.1376  0.4796
   84TCq2    C6 1285   0.024   0.930  10.792 -0.3709  0.2608 -1.0366
   84TCq2    C7 1286   4.657   0.860  10.706  0.0121  0.9406  0.5463
   84TCq2    C8 1287   0.011   0.924  10.937 -0.5120 -0.1462 -0.3908
   84TCq2    O4 1288   0.083   1.006  10.989  0.1213 -0.2920  0.1481
   84TCq2    C9 1289   0.185   1.148  10.543 -0.4847  0.0082 -0.4302
   84TCq2    O5 1290   0.282   1.173  10.620 -0.4036 -0.2754 -0.1173
   84TCq2    O6 1291   0.191   1.164  10.418 -0.2548  0.3016  0.1991
   84TCq2    H2 1292   0.004   1.013  10.414  2.8245 -1.5677 -0.3956
   84TCq2    H3 1293   0.166   1.090  10.797 -0.5398 -0.3786  1.0803
   84TCq2    H4 1294   4.601   0.774  10.742 -1.8993  2.1478  0.4713
   85MPD2     C 1295   0.493   4.477  15.989  0.0364 -0.2519  0.5379
   85MPD2    C1 1296   0.607   4.405  15.963 -0.4684  0.3449 -0.2166
   85MPD2    C2 1297   0.718   4.469  15.918 -0.1508 -0.4243  0.2477
   85MPD2    C3 1298   0.717   4.598  15.882 -0.0583 -0.0197 -0.4003
   85MPD2    C4 1299   0.588   4.660  15.883 -0.0184 -0.2952  0.4355
   85MPD2    C5 1300   0.476   4.606  15.946 -0.6383 -0.2455 -0.5974
   85MPD2     H 1301   0.803   4.404  15.895  0.8353  0.8347  0.3522
   85MPD2    H1 1302   0.578   0.044  15.852 -2.4147 -0.6411 -0.0094
   85MPD2    H2 1303   0.406   4.423  16.025 -2.5677  1.9564 -2.3495
   85MPD2    H3 1304   0.380   4.656  15.954 -1.3782 -1.9895  1.2791
   85MPD2     N 1305   0.834   4.661  15.825 -0.6441 -0.2423 -0.4005
   85MPD2    H5 1306   0.918   4.625  15.870 -1.5100 -2.3124 -0.4206
   85MPD2    N1 1307   0.617   4.267  16.001 -0.1801 -0.1289  0.0562
   85MPD2    H7 1308   0.695   4.214  15.965 -1.1103 -1.5739  0.1511
   86TCq2    C1 1309   0.839   0.058  15.756  0.3048  0.0732  0.1240
   86TCq2    O2 1310   0.746   0.128  15.721  0.5440 -0.1167  0.1407
   86TCq2    C2 1311   0.976   0.118  15.744  0.2655 -0.6158 -0.0534
   86TCq2    C3 1312   0.985   0.254  15.720 -0.4793  0.2295 -0.5913
   86TCq2    C4 1313   1.099   0.319  15.736  0.4134 -0.1404 -0.0773
   86TCq2    C5 1314   1.210   0.253  15.767  0.4358 -0.1322 -0.4240
   86TCq2    C6 1315   1.204   0.119  15.789  0.0108  0.3729 -0.1228
   86TCq2    C7 1316   1.089   0.051  15.777 -0.0598 -0.0152 -0.6417
   86TCq2    C8 1317   1.326   0.036  15.780 -0.1508  0.5870  0.2926
   86TCq2    O4 1318   1.332   4.648  15.837  0.0182  0.0088  0.0426
   86TCq2    C9 1319   1.103   0.462  15.696 -0.0033 -0.4730 -0.2057
   86TCq2    O5 1320   1.218   0.515  15.660 -0.3143 -0.1094 -0.2068
   86TCq2    O6 1321   0.990   0.524  15.706  0.5366  0.6508  0.1348
   86TCq2    H2 1322   0.904   0.311  15.676 -1.9594 -0.6282  0.9997
   86TCq2    H3 1323   1.306   0.304  15.766  0.6676 -0.5676 -0.3268
   86TCq2    H4 1324   1.090   4.663  15.791  0.5826 -0.1275 -1.5349
   87MPD2     C 1325   4.134   2.898   0.993 -0.3601 -0.2755  0.2166
   87MPD2    C1 1326   4.115   3.036   1.009 -0.5183  0.0815  0.1515
   87MPD2    C2 1327   3.999   3.090   0.955  0.3214 -0.2022  0.0496
   87MPD2    C3 1328   3.902   3.004   0.898 -0.3430 -0.4751 -0.2534
   87MPD2    C4 1329   3.927   2.872   0.894 -0.4931  0.5201 -0.5360
   87MPD2    C5 1330   4.039   2.814   0.946 -0.5102  0.1004  0.5493
   87MPD2     H 1331   3.983   3.197   0.957  1.6385  0.0598 -2.7823
   87MPD2    H1 1332   3.864   2.802   0.841 -0.1384 -0.3663  0.2253
   87MPD2    H2 1333   4.212   2.845   1.047 -1.2505 -0.5255  1.2597
   87MPD2    H3 1334   4.066   2.710   0.941  0.2273  0.2109  2.4701
   87MPD2     N 1335   3.782   3.052   0.838 -0.5176 -0.0447 -0.2366
   87MPD2    H5 1336   3.722   2.982   0.795 -0.2509  0.1861 -0.9873
   87MPD2    N1 1337   4.214   3.114   1.070 -0.0836 -0.5575  0.1003
   87MPD2    H7 1338   4.296   3.064   1.102  0.3635 -0.9670 -1.7114
   88TCq2    C1 1339   4.199   3.242   1.118 -0.2923 -0.0914  0.9307
   88TCq2    O2 1340   4.094   3.308   1.119 -0.1402 -0.1032  0.3721
   88TCq2    C2 1341   4.306   3.277   1.205  0.4896  0.0594  0.1460
   88TCq2    C3 1342   4.269   3.349   1.310  0.0137  0.4757 -0.3991
   88TCq2    C4 1343   4.351   3.355   1.420  0.3518  0.4566  0.1189
   88TCq2    C5 1344   4.474   3.289   1.415 -0.1111  0.6015  0.0894
   88TCq2    C6 1345   4.512   3.225   1.297 -0.1005 -0.1211 -0.6398
   88TCq2    C7 1346   4.424   3.207   1.194 -0.3904  0.4944 -0.0930
   88TCq2    C8 1347   4.649   3.173   1.283 -0.6028 -0.8734  0.2902
   88TCq2    O4 1348   4.696   3.109   1.376 -0.5498 -0.5448 -0.2339
   88TCq2    C9 1349   4.325   3.446   1.532  0.4782  0.0965  0.1951
   88TCq2    O5 1350   4.203   3.461   1.565  0.6247  0.4614 -0.0398
   88TCq2    O6 1351   4.423   3.520   1.564  0.6446 -0.5748  0.0300
   88TCq2    H2 1352   4.172   3.397   1.321  0.6890  2.0728 -1.5071
   88TCq2    H3 1353   4.552   3.303   1.489 -0.5703 -0.8331  0.8527
   88TCq2    H4 1354   4.456   3.166   1.099  1.7143 -0.0209  0.8521
   89MPD2     C 1355   3.817   0.475   1.855  0.1294 -0.7273 -0.1081
   89MPD2    C1 1356   3.755   0.573   1.922  0.2468 -0.5369  0.3378
   89MPD2    C2 1357   3.801   0.697   1.924  0.0113 -0.4520 -0.0750
   89MPD2    C3 1358   3.928   0.729   1.865 -0.2197 -0.4777 -0.3080
   89MPD2    C4 1359   4.001   0.626   1.804  0.0804 -0.1655 -0.3257
   89MPD2    C5 1360   3.946   0.500   1.802  1.4180  0.5338 -0.0746
   89MPD2     H 1361   3.736   0.772   1.966  1.1207  1.3480 -1.5514
   89MPD2    H1 1362   4.090   0.642   1.745 -0.3314 -0.8613 -1.1389
   89MPD2    H2 1363   3.777   0.374   1.857 -1.0800 -0.1744  2.1493
   89MPD2    H3 1364   3.979   0.414   1.745  2.0662  0.3815  0.5206
   89MPD2     N 1365   3.978   0.859   1.844 -0.5483 -0.0801  0.5174
   89MPD2    H5 1366   3.916   0.939   1.856 -1.0789 -0.1546 -1.8699
   89MPD2    N1 1367   3.618   0.567   1.966  0.2854  0.6087 -0.3224
   89MPD2    H7 1368   3.579   0.645   2.020  0.7873  0.1965  0.6358
   90TCq2    C1 1369   4.104   0.898   1.814  0.7144 -0.0445 -1.0158
   90TCq2    O2 1370   4.212   0.840   1.816  0.3566  0.0611 -0.4412
   90TCq2    C2 1371   4.105   1.040   1.769  0.1031  0.1795  0.9041
   90TCq2    C3 1372   4.226   1.099   1.769 -1.2093 -0.6846  0.2163
   90TCq2    C4 1373   4.234   1.226   1.714 -0.3809  0.9153  0.1687
   90TCq2    C5 1374   4.131   1.295   1.664 -0.5965  0.0404  0.1330
   90TCq2    C6 1375   4.017   1.216   1.643 -0.0831  0.3894 -0.4534
   90TCq2    C7 1376   3.994   1.094   1.706 -0.2990 -0.0063 -0.1161
   90TCq2    C8 1377   3.901   1.279   1.578  0.4116 -0.1350  0.7167
   90TCq2    O4 1378   3.788   1.237   1.604  0.3855  0.3775 -0.4903
   90TCq2    C9 1379   4.354   1.301   1.721  0.2343 -0.1056  0.4475
   90TCq2    O5 1380   4.461   1.239   1.748 -0.0815 -0.2998  0.3435
   90TCq2    O6 1381   4.346   1.418   1.679 -0.5496  0.1350  0.3839
   90TCq2    H2 1382   4.310   1.066   1.828 -1.2466 -2.1862 -0.5844
   90TCq2    H3 1383   4.127   1.400   1.636 -1.3276  0.4153  1.6239
   90TCq2    H4 1384   3.909   1.039   1.668  0.8534 -1.5315 -0.4925
   91TMC2    C1 1385   1.088   0.527  16.349 -0.3688 -0.1210 -0.4215
   91TMC2    C2 1386   1.159   0.617  16.272  0.5346  0.2696  0.1278
   91TMC2    C3 1387   1.083   0.683  16.176 -0.6232 -0.4003  0.3409
   91TMC2    C4 1388   0.957   0.508  16.346 -0.4721  1.1588 -0.0601
   91TMC2    C5 1389   0.891   0.575  16.251 -0.0511  0.6227 -0.2505
   91TMC2    C6 1390   0.949   0.659  16.165  1.1910  0.2002  0.4864
   91TMC2     C 1391   1.156   0.433  16.442  0.1587  0.0984  0.2569
   91TMC2     O 1392   1.099   0.331  16.480 -0.4662 -0.3819 -0.0952
   91TMC2     H 1393   1.267   0.622  16.271  0.6813 -2.7363 -1.0151
   91TMC2    H1 1394   0.907   0.431  16.403  0.1123 -0.3096 -1.5279
   91TMC2    H2 1395   0.905   0.703  16.077 -0.5022  0.9257  1.6934
   91TMC2    C7 1396   0.750   0.603  16.275 -0.1703  0.4455  0.1537
   91TMC2    C8 1397   1.150   0.726  16.053  0.3354 -0.9997  0.4181
   91TMC2    O1 1398   0.700   0.593  16.387 -0.0879  0.6441 -0.1593
   91TMC2    O2 1399   1.113   0.685  15.944  0.5817 -0.0032 -0.0548
   91TMC2    O5 1400   1.190   0.851  16.078 -0.0466 -0.6180  0.2279
   91TMC2    H5 1401   1.233   0.864  16.165  1.2963  0.5648 -0.6197
   92MPD2     C 1402   1.351   0.275  16.611  0.0275  0.8658 -0.3174
   92MPD2    C1 1403   1.375   0.403  16.558  0.4939  0.4153  0.0946
   92MPD2    C2 1404   1.496   0.459  16.587  0.3041  0.1576  0.5146
   92MPD2    C3 1405   1.595   0.394  16.658  0.4349 -0.7107 -0.2431
   92MPD2    C4 1406   1.570   0.280  16.718 -0.5108  0.5280 -0.3920
   92MPD2    C5 1407   1.444   0.218  16.693 -0.9462  0.3534 -0.0961
   92MPD2     H 1408   1.522   0.560  16.554  0.1760 -0.7473 -2.3789
   92MPD2    H1 1409   1.638   0.225  16.782 -1.7586 -2.1344 -1.3757
   92MPD2    H2 1410   1.258   0.221  16.597  1.3579 -1.6811  0.7230
   92MPD2    H3 1411   1.415   0.119  16.724  1.3349  0.0377  1.0045
   92MPD2     N 1412   1.723   0.460  16.668 -0.7298  0.3729  0.5596
   92MPD2    H5 1413   1.729   0.555  16.632 -1.2210 -0.3291 -1.3641
   92MPD2    N1 1414   1.287   0.477  16.481  0.2551 -0.4186 -0.7901
   92MPD2    H7 1415   1.323   0.562  16.441 -0.5290  0.4997  0.4706
   93MPD2     C 1416   2.758   0.799  13.541 -0.4567  0.0382  0.3468
   93MPD2    C1 1417   2.670   0.806  13.649  0.6891 -0.2892 -0.5168
   93MPD2    C2 1418   2.530   0.799  13.629 -0.4683  0.8687 -0.0751
   93MPD2    C3 1419   2.483   0.807  13.491  0.0498 -0.5844  0.2444
   93MPD2    C4 1420   2.570   0.807  13.391 -0.4622 -0.1517 -0.2511
   93MPD2    C5 1421   2.705   0.789  13.416 -0.6547 -0.4348 -0.5537
   93MPD2     H 1422   2.470   0.803  13.720 -1.2109  0.2616 -0.5369
   93MPD2    H1 1423   2.548   0.805  13.285 -0.6151 -1.2812 -0.2016
   93MPD2    H2 1424   2.864   0.796  13.559 -0.6273 -1.9795  1.0654
   93MPD2    H3 1425   2.772   0.791  13.331 -1.0200  1.2450 -0.8166
   93MPD2     N 1426   2.347   0.829  13.458  0.8991  0.1843 -0.0531
   93MPD2    H5 1427   2.321   0.848  13.361 -0.5014 -0.8819  0.1052
   93MPD2    N1 1428   2.721   0.807  13.777  1.1225 -0.3818 -0.0233
   93MPD2    H7 1429   2.657   0.842  13.847  1.6360 -0.8996  0.6961
   94TCq2    C1 1430   2.850   0.806  13.818  0.4200  0.7104 -0.2601
   94TCq2    O2 1431   2.958   0.799  13.753  0.0578  0.1487  0.2503
   94TCq2    C2 1432   2.854   0.838  13.965  0.4470 -0.0006 -0.1777
   94TCq2    C3 1433   2.737   0.829  14.044  0.7760  0.6465  0.4728
   94TCq2    C4 1434   2.742   0.820  14.182 -0.0261 -0.0085 -0.7422
   94TCq2    C5 1435   2.863   0.799  14.240  0.2602 -0.2579  0.2082
   94TCq2    C6 1436   2.978   0.807  14.162  0.5018  0.3219  0.0235
   94TCq2    C7 1437   2.973   0.815  14.027 -0.3310  0.5834 -0.2298
   94TCq2    C8 1438   3.111   0.778  14.217  0.3458  0.4201  0.3422
   94TCq2    O4 1439   3.190   0.715  14.153 -0.4756 -0.5453 -0.6112
   94TCq2    C9 1440   2.627   0.835  14.260  0.0513 -0.3194  0.1744
   94TCq2    O5 1441   2.638   0.869  14.382 -0.2342 -0.2898 -0.1114
   94TCq2    O6 1442   2.528   0.815  14.185  0.3505 -0.4758 -0.1169
   94TCq2    H2 1443   2.644   0.846  13.990  0.9868 -0.0532 -0.1083
   94TCq2    H3 1444   2.875   0.779  14.346  1.7908  0.3569  0.1535
   94TCq2    H4 1445   3.064   0.808  13.970  0.7495 -2.3527  1.8229
   95TMC2    C1 1446   3.054   2.199  15.906  0.5759 -0.5608 -0.7268
   95TMC2    C2 1447   3.187   2.176  15.933  0.0084 -0.5264  0.4730
   95TMC2    C3 1448   3.216   2.133  16.057 -0.6382 -0.0658  0.7875
   95TMC2    C4 1449   2.961   2.193  16.007  0.3799  0.4349 -0.3873
   95TMC2    C5 1450   2.996   2.148  16.129 -0.5800 -0.5672 -0.0588
   95TMC2    C6 1451   3.123   2.112  16.158  0.4273 -0.3224  0.4261
   95TMC2     C 1452   3.031   2.279  15.788 -0.6494 -0.1476 -0.6873
   95TMC2     O 1453   3.117   2.354  15.749 -0.7712 -0.0205 -0.5508
   95TMC2     H 1454   3.260   2.193  15.855  1.0527 -1.3546  1.2613
   95TMC2    H1 1455   2.867   2.243  15.990  0.4473  1.0352  0.9807
   95TMC2    H2 1456   3.163   2.092  16.257  0.9203  2.2432  0.7371
   95TMC2    C7 1457   2.910   2.160  16.239  0.5660 -0.4921  0.7414
   95TMC2    C8 1458   3.352   2.132  16.107 -0.4897  0.3260 -0.6568
   95TMC2    O1 1459   2.962   2.144  16.350 -0.8238 -0.4281  0.5240
   95TMC2    O2 1460   3.381   2.142  16.228 -0.1214  0.5753 -0.2384
   95TMC2    O5 1461   3.432   2.095  16.003  0.0151 -0.6124 -0.2361
   95TMC2    H5 1462   3.381   2.055  15.929 -0.1534  0.4400 -0.6806
   96MPD2     C 1463   2.832   2.348  15.333 -0.5736  0.0938  0.0211
   96MPD2    C1 1464   2.893   2.434  15.418  0.1412  0.0188 -0.1844
   96MPD2    C2 1465   2.921   2.396  15.543  0.3320 -0.4237  0.0552
   96MPD2    C3 1466   2.885   2.277  15.595 -0.1919 -0.3578 -0.0045
   96MPD2    C4 1467   2.824   2.189  15.515  0.1969 -0.8903  0.2573
   96MPD2    C5 1468   2.808   2.222  15.383  0.5591 -0.2189  0.3795
   96MPD2     H 1469   2.980   2.466  15.601  0.7979  0.1741 -1.1226
   96MPD2    H1 1470   2.795   2.087  15.536 -1.7470 -0.1203  1.3928
   96MPD2    H2 1471   2.812   2.368  15.228  2.0002 -0.0454 -0.5113
   96MPD2    H3 1472   2.775   2.143  15.316  1.1056 -0.5334  0.4799
   96MPD2     N 1473   2.922   2.236  15.723 -0.9796 -0.4023 -0.3056
   96MPD2    H5 1474   2.878   2.151  15.757  0.9678 -0.5322  1.8615
   96MPD2    N1 1475   2.927   2.562  15.361  0.3066 -0.1749  0.6255
   96MPD2    H7 1476   2.919   2.577  15.261 -1.1062  1.9165  1.0630
   97MPD2     C 1477   0.377   0.034   0.964 -0.0169 -0.1742 -0.4922
   97MPD2    C1 1478   0.254   0.084   0.945  0.1378 -0.2957 -0.1566
   97MPD2    C2 1479   0.235   0.164   0.837 -0.0466  0.0694 -0.5708
   97MPD2    C3 1480   0.338   0.177   0.747 -0.2516 -0.4254  1.0099
   97MPD2    C4 1481   0.461   0.118   0.766 -0.2542 -0.7145  0.0788
   97MPD2    C5 1482   0.480   0.050   0.878  0.0738 -0.2027 -0.1443
   97MPD2     H 1483   0.140   0.208   0.811  0.0443  0.7450  0.2382
   97MPD2    H1 1484   0.541   0.133   0.694 -0.1869 -0.7913  0.1382
   97MPD2    H2 1485   0.399   4.692   1.051 -0.3335 -1.7044 -1.5013
   97MPD2    H3 1486   0.571   4.714   0.898  0.8169  1.0465 -0.0542
   97MPD2     N 1487   0.329   0.244   0.622 -0.5614  0.6005 -0.3793
   97MPD2    H5 1488   0.414   0.243   0.566 -0.5196  0.4777 -0.3139
   97MPD2    N1 1489   0.152   0.051   1.036  0.5576  0.6579 -0.3304
   97MPD2    H7 1490   0.171   4.700   1.107  0.6788  0.2311 -0.7775
   98TCq2    C1 1491   0.217   0.297   0.561  0.3137 -0.3094  0.2196
   98TCq2    O2 1492   0.101   0.270   0.588  0.1150 -0.8145 -0.3855
   98TCq2    C2 1493   0.242   0.372   0.447 -0.4583 -0.1128  0.1717
   98TCq2    C3 1494   0.149   0.368   0.346  0.2489 -0.0466 -0.3530
   98TCq2    C4 1495   0.148   0.473   0.252 -0.0638 -0.3672  0.0203
   98TCq2    C5 1496   0.239   0.577   0.254  0.5378  0.3526 -0.7993
   98TCq2    C6 1497   0.336   0.572   0.350 -0.3839 -0.4591  0.3100
   98TCq2    C7 1498   0.334   0.471   0.443  0.7504  0.4405 -0.2203
   98TCq2    C8 1499   0.399   0.698   0.396  0.9861  0.2082  0.3763
   98TCq2    O4 1500   0.481   0.686   0.488 -0.3058 -0.2048 -0.0015
   98TCq2    C9 1501   0.035   0.467   0.158  0.1105  0.1004  0.5484
   98TCq2    O5 1502   0.038   0.543   0.058  0.0505 -0.1123  0.3706
   98TCq2    O6 1503   4.666   0.373   0.177  0.5498  0.2377 -0.1177
   98TCq2    H2 1504   0.068   0.296   0.347  1.0110 -0.9127 -0.3943
   98TCq2    H3 1505   0.240   0.654   0.178 -1.3918  1.4547  0.2762
   98TCq2    H4 1506   0.403   0.479   0.526  0.1157 -3.4572  0.6929
   99MPD2     C 1507   3.602   2.741   1.629  0.6268 -0.3933  0.5133
   99MPD2    C1 1508   3.563   2.804   1.513 -0.3397 -0.2838 -0.5172
   99MPD2    C2 1509   3.521   2.732   1.404 -0.0380 -0.3352 -0.3859
   99MPD2    C3 1510   3.513   2.596   1.412 -0.4125  0.6173 -0.4266
   99MPD2    C4 1511   3.546   2.526   1.523 -0.0943  0.1908 -0.3196
   99MPD2    C5 1512   3.593   2.597   1.630 -0.1658  0.3316  0.7436
   99MPD2     H 1513   3.495   2.778   1.309  0.4912  0.0204 -0.3575
   99MPD2    H1 1514   3.548   2.418   1.526  1.2016  0.1881 -1.3432
   99MPD2    H2 1515   3.623   2.796   1.720  0.5699 -0.4613  0.5682
   99MPD2    H3 1516   3.612   2.551   1.726 -0.3242 -0.2142  0.5149
   99MPD2     N 1517   3.488   2.534   1.289  0.2855 -0.0388  0.3444
   99MPD2    H5 1518   3.478   2.597   1.210 -0.6188 -1.1305 -0.4153
   99MPD2    N1 1519   3.542   2.944   1.507  0.2295 -0.8665  0.3278
   99MPD2    H7 1520   3.485   2.988   1.436  0.0454  1.0006  1.6446
  100TCq2    C1 1521   3.606   3.038   1.589 -0.1267  0.7664  0.5117
  100TCq2    O2 1522   3.684   3.026   1.682  0.4702  0.6063 -0.0286
  100TCq2    C2 1523   3.568   3.172   1.557  0.6953  0.0241  0.6249
  100TCq2    C3 1524   3.655   3.272   1.568  0.6701  0.1071  0.3834
  100TCq2    C4 1525   3.610   3.403   1.553  0.4047  0.3703 -0.2515
  100TCq2    C5 1526   3.484   3.424   1.508 -0.2170  0.1343  0.2493
  100TCq2    C6 1527   3.397   3.323   1.498 -0.6197 -0.6879  0.8062
  100TCq2    C7 1528   3.436   3.196   1.532  0.2153 -0.6542  0.7481
  100TCq2    C8 1529   3.267   3.347   1.432  0.6806  0.1122 -0.0193
  100TCq2    O4 1530   3.254   3.450   1.362  1.0764 -0.0780  0.0004
  100TCq2    C9 1531   3.709   3.505   1.564  0.4798 -0.4055 -0.1392
  100TCq2    O5 1532   3.668   3.619   1.566  0.3095 -0.8288  0.1642
  100TCq2    O6 1533   3.837   3.473   1.568  0.6199  0.3564 -0.2343
  100TCq2    H2 1534   3.754   3.249   1.605  0.8129  0.0064 -0.0639
  100TCq2    H3 1535   3.458   3.527   1.486  0.2977  0.0274 -0.8801
  100TCq2    H4 1536   3.370   3.109   1.529  0.8542 -1.1404  0.6679
  101MPD2     C 1537   4.353   3.074  12.630  0.4632  0.2732 -0.0318
  101MPD2    C1 1538   4.267   3.130  12.722  0.1308  0.1939  0.3014
  101MPD2    C2 1539   4.242   3.059  12.840 -0.4075 -0.8238  0.6354
  101MPD2    C3 1540   4.301   2.938  12.855 -0.4590 -0.4406 -0.3162
  101MPD2    C4 1541   4.377   2.877  12.752  0.3753  0.0143  1.1448
  101MPD2    C5 1542   4.409   2.949  12.650  0.0044  0.0133  0.2891
  101MPD2     H 1543   4.180   3.108  12.915  2.8045  2.6399  1.0334
  101MPD2    H1 1544   4.434   2.785  12.762  0.3822 -0.1019  0.0324
  101MPD2    H2 1545   4.364   3.130  12.538  2.4767 -1.5984 -0.9108
  101MPD2    H3 1546   4.475   2.906  12.575 -1.5892 -0.3137 -0.9310
  101MPD2     N 1547   4.284   2.863  12.978 -0.2026  0.3493  0.2504
  101MPD2    H5 1548   4.229   2.910  13.049 -2.6401 -0.1559 -1.2928
  101MPD2    N1 1549   4.222   3.258  12.686 -0.3681 -0.0405  0.3009
  101MPD2    H7 1550   4.250   3.289  12.594 -1.5804  0.2946  0.0415
  102TCq2    C1 1551   4.216   3.619  12.397 -0.0976 -0.3515 -0.2133
  102TCq2    O2 1552   4.331   3.626  12.435 -0.3765 -0.4407 -0.1101
  102TCq2    C2 1553   4.121   3.566  12.490 -0.1037  0.6444 -0.5634
  102TCq2    C3 1554   3.997   3.621  12.504 -0.1024  0.5703  0.5575
  102TCq2    C4 1555   3.919   3.576  12.605  0.3944 -0.4369 -0.4445
  102TCq2    C5 1556   3.958   3.487  12.696  0.4140 -0.4871  0.1883
  102TCq2    C6 1557   4.085   3.445  12.678 -0.5028  0.4290 -0.5392
  102TCq2    C7 1558   4.170   3.490  12.584  0.2010 -0.7454  0.4315
  102TCq2    C8 1559   4.121   3.326  12.753  0.2805 -0.0677  0.5437
  102TCq2    O4 1560   4.050   3.291  12.850  0.2267 -0.1673 -0.7067
  102TCq2    C9 1561   3.792   3.621  12.618 -0.1489 -0.5637 -0.3130
  102TCq2    O5 1562   3.722   3.557  12.700  0.0930 -0.1062 -0.0974
  102TCq2    O6 1563   3.745   3.702  12.539 -0.1797  0.0761 -0.8386
  102TCq2    H2 1564   3.950   3.681  12.427  2.3371 -0.4201 -1.7123
  102TCq2    H3 1565   3.897   3.463  12.783 -0.2706  1.2268  0.1956
  102TCq2    H4 1566   4.278   3.478  12.592  0.1546 -0.6171  1.2546
  103TMC2    C1 1567   2.730   2.840  12.387  0.2386  0.0976 -0.0584
  103TMC2    C2 1568   2.862   2.829  12.372  0.7569  0.5715 -0.4550
  103TMC2    C3 1569   2.940   2.854  12.476  0.8109  0.0532 -0.5132
  103TMC2    C4 1570   2.671   2.865  12.509 -0.3174 -0.1822 -0.5317
  103TMC2    C5 1571   2.750   2.895  12.619 -0.0674  0.3107 -0.8883
  103TMC2    C6 1572   2.884   2.884  12.603 -0.4804 -0.1126 -0.4513
  103TMC2     C 1573   2.645   2.779  12.287 -0.9386 -0.0881 -0.0614
  103TMC2     O 1574   2.527   2.799  12.297 -0.3101  0.1431  0.3261
  103TMC2     H 1575   2.913   2.838  12.277 -0.0797  0.6925 -0.8874
  103TMC2    H1 1576   2.563   2.871  12.508 -0.2804  0.6626  1.5550
  103TMC2    H2 1577   2.951   2.901  12.687 -1.6650 -2.1716  0.9079
  103TMC2    C7 1578   2.689   2.918  12.748 -0.0696 -0.2625  0.2736
  103TMC2    C8 1579   3.080   2.869  12.459 -0.0621 -0.7675  0.1624
  103TMC2    O1 1580   2.563   2.928  12.748  0.7540  0.2481 -0.1593
  103TMC2    O2 1581   3.150   2.913  12.549  0.3939 -0.2621  0.5400
  103TMC2    O5 1582   3.111   2.745  12.403 -0.0587  0.1276 -0.1674
  103TMC2    H5 1583   3.033   2.692  12.375  0.8733 -0.8104 -0.9734
  104MPD2     C 1584   2.767   2.548  12.040 -0.2447  0.2444 -0.2035
  104MPD2    C1 1585   2.675   2.635  12.087 -0.3132 -0.2419  0.3834
  104MPD2    C2 1586   2.557   2.648  12.019 -0.0417 -0.2754 -0.4914
  104MPD2    C3 1587   2.542   2.580  11.897  0.0878 -0.6802 -0.1665
  104MPD2    C4 1588   2.639   2.499  11.842  0.0260 -0.4742 -0.2097
  104MPD2    C5 1589   2.757   2.485  11.916 -0.3486 -0.2165 -0.4959
  104MPD2     H 1590   2.472   2.703  12.058  0.0431 -0.0798 -0.5849
  104MPD2    H1 1591   2.628   2.460  11.741  0.3053 -0.0520 -0.4031
  104MPD2    H2 1592   2.857   2.526  12.096 -0.8142 -1.6060 -0.0058
  104MPD2    H3 1593   2.840   2.424  11.883 -0.6191  0.4565 -2.3809
  104MPD2     N 1594   2.413   2.587  11.843 -0.0351  0.0033 -0.7351
  104MPD2    H5 1595   2.342   2.641  11.891  0.3717  1.5151 -1.8584
  104MPD2    N1 1596   2.710   2.690  12.210 -0.2909  0.6924  0.2169
  104MPD2    H7 1597   2.795   2.657  12.255 -0.2519  0.5572  0.0482
  105MPD2     C 1598   4.652   2.523   0.002  0.2196 -0.3527  0.4701
  105MPD2    C1 1599   4.576   2.636   0.007 -0.1013  0.0900 -0.3342
  105MPD2    C2 1600   4.623   2.743   0.088  0.5456 -0.6020 -0.6629
  105MPD2    C3 1601   0.027   2.738   0.158 -0.7037  0.0538 -0.5986
  105MPD2    C4 1602   0.105   2.630   0.133  0.0417  0.0985 -0.1428
  105MPD2    C5 1603   0.063   2.531   0.057 -0.1186  0.1489  0.5940
  105MPD2     H 1604   4.557   2.826   0.111 -0.8318 -1.5042 -1.3784
  105MPD2    H1 1605   0.209   2.623   0.164 -0.4238  1.5505  1.7261
  105MPD2    H2 1606   4.627   2.425  17.642  0.4006 -1.1668  2.3465
  105MPD2    H3 1607   0.120   2.440   0.047 -0.3340 -0.0541  1.2088
  105MPD2     N 1608   0.068   2.848   0.241 -0.6762  0.1010 -0.2706
  105MPD2    H5 1609   0.011   2.932   0.237  1.3633  1.4285 -1.0597
  105MPD2    N1 1610   4.446   2.644  17.633 -0.0790  0.3478 -0.2706
  105MPD2    H7 1611   4.391   2.727  17.654 -1.3945 -0.4471 -0.5544
  106TCq2    C1 1612   0.191   2.867   0.294  0.2662 -0.1171 -0.2594
  106TCq2    O2 1613   0.291   2.796   0.300  0.0871  0.1538  0.7562
  106TCq2    C2 1614   0.218   3.002   0.349 -0.2983 -1.1254 -1.2257
  106TCq2    C3 1615   0.125   3.103   0.326  0.2720 -0.1626  0.6277
  106TCq2    C4 1616   0.115   3.207   0.414  0.5004 -0.3924 -0.0582
  106TCq2    C5 1617   0.200   3.218   0.518  0.1933 -0.2938  0.2301
  106TCq2    C6 1618   0.288   3.116   0.535 -0.1065  0.4671  0.1408
  106TCq2    C7 1619   0.310   3.009   0.450  0.3287 -0.2394  0.7814
  106TCq2    C8 1620   0.315   3.070   0.672  0.7476 -0.1825 -0.0920
  106TCq2    O4 1621   0.398   2.982   0.693  0.1152  0.2812 -0.0238
  106TCq2    C9 1622   0.024   3.308   0.390 -0.2036 -0.3526  0.3584
  106TCq2    O5 1623   4.711   3.387   0.483  0.5326 -0.2324 -0.5263
  106TCq2    O6 1624   4.696   3.310   0.271 -0.1670  0.0081 -0.1351
  106TCq2    H2 1625   0.060   3.087   0.242  1.0751  1.3401 -0.2856
  106TCq2    H3 1626   0.199   3.303   0.585 -1.6132  1.2173 -1.7157
  106TCq2    H4 1627   0.385   2.931   0.458  0.4461 -0.1578  0.4801
  107TMC2    C1 1628   4.578   1.335  11.744  0.0283  0.3320 -0.1579
  107TMC2    C2 1629   4.690   1.401  11.709 -0.2728 -0.3564  1.1085
  107TMC2    C3 1630   0.066   1.335  11.634 -0.3858 -0.0271  0.0898
  107TMC2    C4 1631   4.551   1.207  11.707 -0.1920  0.4321  0.0787
  107TMC2    C5 1632   4.640   1.155  11.620 -0.7518  0.9107  0.7172
  107TMC2    C6 1633   0.038   1.214  11.579  0.7624  0.2236 -0.2802
  107TMC2     C 1634   4.476   1.412  11.811  0.0969  0.2129  0.1622
  107TMC2     O 1635   4.384   1.363  11.875  0.2621 -0.0128  0.1666
  107TMC2     H 1636   4.713   1.487  11.771  1.5051 -0.2823  0.3618
  107TMC2    H1 1637   4.465   1.159  11.752  0.1579 -1.6178 -1.4332
  107TMC2    H2 1638   0.119   1.171  11.520  1.1832 -2.2789  2.1160
  107TMC2    C7 1639   4.603   1.021  11.574  0.1671 -0.7734 -0.0182
  107TMC2    C8 1640   0.174   1.408  11.580  0.3471 -0.4703 -0.0722
  107TMC2    O1 1641   4.533   0.948  11.646 -0.3161  0.4874 -0.5049
  107TMC2    O2 1642   0.284   1.362  11.547 -0.3547 -0.5233  0.7957
  107TMC2    O5 1643   0.120   1.514  11.523  0.0693 -0.1659  0.3827
  107TMC2    H5 1644   0.026   1.530  11.547 -0.4621 -1.2098 -1.0380
  108MPD2     C 1645   4.412   1.775  11.754  0.6452 -0.0795 -0.2644
  108MPD2    C1 1646   4.395   1.653  11.817 -0.2009  0.4882 -0.2543
  108MPD2    C2 1647   4.306   1.641  11.926 -0.2661  0.1001 -0.3829
  108MPD2    C3 1648   4.244   1.760  11.968 -0.2861  0.0669  0.4872
  108MPD2    C4 1649   4.259   1.880  11.897  0.0218 -0.0493  0.5451
  108MPD2    C5 1650   4.345   1.895  11.793 -0.8940  0.3946  0.6546
  108MPD2     H 1651   4.283   1.550  11.981  0.1749 -0.4468 -1.0989
  108MPD2    H1 1652   4.219   1.972  11.938 -0.4276 -0.4875  1.0895
  108MPD2    H2 1653   4.471   1.782  11.664 -1.1199 -2.0191 -1.5583
  108MPD2    H3 1654   4.367   1.990  11.746  1.5559 -1.3086 -1.6101
  108MPD2     N 1655   4.167   1.758  12.092 -0.5032 -0.0097 -0.4597
  108MPD2    H5 1656   4.114   1.844  12.105 -0.9081 -0.3260 -0.0334
  108MPD2    N1 1657   4.468   1.541  11.764 -0.2495 -0.3169 -0.4133
  108MPD2    H7 1658   4.523   1.560  11.681 -3.3224  1.4586 -2.0659
  109MPD2     C 1659   0.636   4.164   0.692  0.1323 -0.1215  0.2968
  109MPD2    C1 1660   0.541   4.222   0.780 -0.3398 -0.0206 -0.0070
  109MPD2    C2 1661   0.528   4.178   0.908  0.2311 -0.4463 -0.4320
  109MPD2    C3 1662   0.618   4.090   0.954  0.7475 -0.2288  0.1134
  109MPD2    C4 1663   0.703   4.024   0.872  0.2926  0.2623  0.6976
  109MPD2    C5 1664   0.715   4.066   0.741 -0.3658  1.1645  0.4541
  109MPD2     H 1665   0.484   4.239   0.986 -0.4519 -1.1544 -0.2524
  109MPD2    H1 1666   0.770   3.946   0.906  0.9687  0.1141 -0.9645
  109MPD2    H2 1667   0.640   4.193   0.588  0.5617 -1.7722 -0.1579
  109MPD2    H3 1668   0.788   4.018   0.678 -1.4422 -0.4761  0.4579
  109MPD2     N 1669   0.611   4.068   1.091  0.7193 -0.3292 -0.3604
  109MPD2    H5 1670   0.540   4.121   1.141  1.1952 -1.1727  1.2071
  109MPD2    N1 1671   0.464   4.330   0.721  0.3083 -0.9382 -0.0600
  109MPD2    H7 1672   0.475   4.340   0.620 -0.7340  0.9176  0.0171
  110TCq2    C1 1673   0.691   3.989   1.173 -0.0167 -0.0516 -0.4900
  110TCq2    O2 1674   0.787   3.911   1.148 -0.0750  1.1672  0.0565
  110TCq2    C2 1675   0.644   4.003   1.308 -0.0957 -0.0984  0.2185
  110TCq2    C3 1676   0.719   3.942   1.404 -0.6112  0.6912 -0.3583
  110TCq2    C4 1677   0.678   3.960   1.539  0.7296 -0.2557  0.2442
  110TCq2    C5 1678   0.564   4.029   1.578 -0.4966 -0.1979  0.5390
  110TCq2    C6 1679   0.497   4.093   1.476 -0.5810  0.4539 -0.0670
  110TCq2    C7 1680   0.533   4.088   1.343  0.3755  0.0144 -0.2987
  110TCq2    C8 1681   0.371   4.166   1.493  0.3173  0.5258  0.4290
  110TCq2    O4 1682   0.308   4.192   1.394 -0.1461  0.1989 -0.1477
  110TCq2    C9 1683   0.730   3.876   1.642  0.2540  0.6760 -0.3298
  110TCq2    O5 1684   0.690   3.880   1.762 -0.1141  0.0216  0.2277
  110TCq2    O6 1685   0.827   3.798   1.608 -0.2157 -0.1956  0.3741
  110TCq2    H2 1686   0.799   3.873   1.379 -0.9915 -0.1069  0.6655
  110TCq2    H3 1687   0.530   4.016   1.680 -0.7145 -1.4619  0.2982
  110TCq2    H4 1688   0.470   4.139   1.271 -0.0547  0.3926  0.3451
  111TMC2    C1 1689   0.064   3.896  10.944 -0.5632 -0.0025  0.7027
  111TMC2    C2 1690   0.149   3.942  10.845 -0.4178 -1.0371  0.3558
  111TMC2    C3 1691   0.276   3.988  10.879 -0.5434  0.1157  0.5506
  111TMC2    C4 1692   0.103   3.889  11.072 -0.0656  0.2246  0.6217
  111TMC2    C5 1693   0.230   3.931  11.102 -0.1782 -0.0605  0.3356
  111TMC2    C6 1694   0.316   3.989  11.011 -0.4334  0.3882  0.6256
  111TMC2     C 1695   4.652   3.846  10.894  0.4718  0.6613 -0.3040
  111TMC2     O 1696   4.644   3.844  10.771  0.3434 -0.4652 -0.3973
  111TMC2     H 1697   0.115   3.953  10.743 -0.3557  0.1218  0.4618
  111TMC2    H1 1698   0.050   3.854  11.160  0.4775  0.2696  0.9639
  111TMC2    H2 1699   0.405   4.045  11.038 -0.2178  0.1039  0.5002
  111TMC2    C7 1700   0.268   3.938  11.244 -0.2662  0.8886 -0.1321
  111TMC2    C8 1701   0.356   4.062  10.783 -0.4184  0.1957 -0.4843
  111TMC2    O1 1702   0.179   3.948  11.327  0.1564  0.2869 -0.1369
  111TMC2    O2 1703   0.411   4.164  10.807 -0.3599 -0.0744 -0.2559
  111TMC2    O5 1704   0.322   4.027  10.656  0.5110  0.0096  0.5416
  111TMC2    H5 1705   0.288   3.935  10.652 -0.6301  0.4560 -0.2520
  112MPD2     C 1706   4.166   3.678  10.919 -0.3596 -0.2234 -0.0588
  112MPD2    C1 1707   4.267   3.666  10.818  0.4915 -0.4012 -0.8274
  112MPD2    C2 1708   4.386   3.722  10.839  0.3274  0.8715 -0.4871
  112MPD2    C3 1709   4.416   3.789  10.956 -0.3469  0.0976  0.8033
  112MPD2    C4 1710   4.318   3.808  11.054 -0.7838  0.4806  0.3410
  112MPD2    C5 1711   4.190   3.758  11.029  0.0352  0.4961 -0.5699
  112MPD2     H 1712   4.461   3.712  10.762  1.0975 -0.9473  0.4832
  112MPD2    H1 1713   4.336   3.868  11.142  1.1726  1.5483 -0.7830
  112MPD2    H2 1714   4.076   3.622  10.897  0.4050 -0.8950 -1.5034
  112MPD2    H3 1715   4.112   3.770  11.103  0.5708  0.4431  0.0104
  112MPD2     N 1716   4.548   3.834  10.988 -0.4254  0.3739  0.5170
  112MPD2    H5 1717   4.572   3.852  11.085  0.6629 -1.7125  0.6387
  112MPD2    N1 1718   4.243   3.612  10.688 -0.6347 -0.4875 -0.6144
  112MPD2    H7 1719   4.315   3.631  10.619 -0.0334 -0.8840 -0.1016
  113MPD2     C 1720   2.902   2.194   1.499 -0.1577  0.1660 -0.2044
  113MPD2    C1 1721   2.796   2.209   1.406 -0.2319  0.2832  0.1781
  113MPD2    C2 1722   2.698   2.113   1.392 -0.1774 -0.0797  0.2819
  113MPD2    C3 1723   2.689   2.004   1.476  0.0355 -0.3112 -0.1881
  113MPD2    C4 1724   2.778   2.001   1.580  0.2944 -0.1262  0.9304
  113MPD2    C5 1725   2.882   2.094   1.592 -0.1904 -0.6886 -0.1974
  113MPD2     H 1726   2.619   2.123   1.318  1.3023  1.2873 -1.0926
  113MPD2    H1 1727   2.778   1.914   1.645 -2.0022  0.6200  1.9166
  113MPD2    H2 1728   2.986   2.260   1.517 -0.7664  0.8006  0.2875
  113MPD2    H3 1729   2.959   2.094   1.669 -1.4205 -1.2094  1.0481
  113MPD2     N 1730   2.584   1.906   1.464  0.3377  0.4977 -0.1480
  113MPD2    H5 1731   2.573   1.844   1.543  0.4125  0.2972 -0.2924
  113MPD2    N1 1732   2.784   2.315   1.317  0.0304  0.4056  0.4443
  113MPD2    H7 1733   2.705   2.301   1.254 -0.7297  1.4098  1.1730
  114TCq2    C1 1734   2.485   1.897   1.365 -0.5033 -0.0130  0.0131
  114TCq2    O2 1735   2.473   1.952   1.259 -0.2219  0.0308 -0.0428
  114TCq2    C2 1736   2.386   1.802   1.405  0.1769 -0.1966  0.3305
  114TCq2    C3 1737   2.322   1.733   1.303  0.8020  0.3605 -0.3525
  114TCq2    C4 1738   2.219   1.655   1.342 -0.0128  0.6880 -0.1152
  114TCq2    C5 1739   2.168   1.658   1.469  0.1889 -0.5504 -0.2565
  114TCq2    C6 1740   2.231   1.731   1.561 -0.0705  0.0511  1.0185
  114TCq2    C7 1741   2.346   1.806   1.534  0.0828  0.4659  0.0489
  114TCq2    C8 1742   2.189   1.743   1.698 -0.8334  0.0824 -0.2207
  114TCq2    O4 1743   2.247   1.810   1.783 -0.1807  0.1951  0.2223
  114TCq2    C9 1744   2.147   1.575   1.242 -0.7733  0.6462 -0.2957
  114TCq2    O5 1745   2.073   1.480   1.281  0.5124  0.1516  0.4598
  114TCq2    O6 1746   2.154   1.612   1.124 -0.2927  0.3160  0.0993
  114TCq2    H2 1747   2.346   1.746   1.198 -1.5880  0.4759 -0.8863
  114TCq2    H3 1748   2.071   1.610   1.484 -0.9009  2.4667  2.4009
  114TCq2    H4 1749   2.391   1.865   1.613 -0.6606 -0.7294  1.3815
  115TMC2    C1 1750   3.462   4.711   0.104  0.0730 -0.5681  0.2713
  115TMC2    C2 1751   3.590   4.666   0.113 -0.3210 -0.0425  0.0653
  115TMC2    C3 1752   3.692   0.034   0.073 -0.5447  0.1458 -0.2053
  115TMC2    C4 1753   3.431   0.121   0.078  0.2915  0.0776  0.5770
  115TMC2    C5 1754   3.532   0.207   0.050  0.3308  0.2357 -0.5829
  115TMC2    C6 1755   3.665   0.164   0.048  0.5740 -0.1632  0.1470
  115TMC2     C 1756   3.357   4.610   0.097  0.2245  0.7664 -0.4530
  115TMC2     O 1757   3.397   4.500   0.060 -0.0562 -0.5784 -0.0801
  115TMC2     H 1758   3.608   4.566   0.151  1.2202 -0.9005 -2.8802
  115TMC2    H1 1759   3.330   0.146   0.049  0.8448  0.4053 -1.0825
  115TMC2    H2 1760   3.750   0.232   0.049  0.1971  0.2807  2.1749
  115TMC2    C7 1761   3.497   0.343   0.030 -0.7478  0.1674  0.5340
  115TMC2    C8 1762   3.825   0.003   0.112 -0.2701  0.1090  0.0016
  115TMC2    O1 1763   3.387   0.377   0.067  0.3628 -0.1082  0.7227
  115TMC2    O2 1764   3.922   0.057   0.071 -0.0562  0.5016  0.4395
  115TMC2    O5 1765   3.828   4.619   0.200 -0.0386  0.1487  0.2622
  115TMC2    H5 1766   3.759   4.626   0.270  0.2208  1.7724  0.3566
  116MPD2     C 1767   2.857   4.503   0.113 -0.3441  0.2460  0.0107
  116MPD2    C1 1768   2.963   4.428   0.056 -0.3519  0.2509  0.5763
  116MPD2    C2 1769   3.089   4.482   0.069 -0.5339 -0.5841 -0.1296
  116MPD2    C3 1770   3.114   4.592   0.154 -0.0494 -0.1344 -0.4648
  116MPD2    C4 1771   3.014   4.658   0.221  0.0060  0.2816 -0.2675
  116MPD2    C5 1772   2.886   4.609   0.194 -0.0727  0.0930 -0.0466
  116MPD2     H 1773   3.165   4.438   0.005  0.5214  0.2885  0.5289
  116MPD2    H1 1774   3.032   0.030   0.277  2.7447 -0.9316  0.8663
  116MPD2    H2 1775   2.753   4.475   0.110 -0.1125 -0.2959 -3.1484
  116MPD2    H3 1776   2.803   4.651   0.249 -1.0293 -2.1830  0.2526
  116MPD2     N 1777   3.239   4.657   0.152  0.3756  0.4339  0.0557
  116MPD2    H5 1778   3.251   0.022   0.206  2.4968  0.2577 -0.1445
  116MPD2    N1 1779   2.929   4.319  17.654 -0.3057 -0.2862 -0.3992
  116MPD2    H7 1780   2.830   4.307  17.635 -0.8216  2.4808  0.5883
  117TMC2    C1 1781   2.016   0.863  13.985 -0.1336 -0.2034 -0.4862
  117TMC2    C2 1782   2.101   0.755  13.984 -0.0296 -0.5515  0.3476
  117TMC2    C3 1783   2.234   0.774  14.000 -0.0758  0.0429 -0.3164
  117TMC2    C4 1784   2.055   0.987  14.026 -0.3048 -0.2555 -0.0160
  117TMC2    C5 1785   2.188   1.001  14.057  0.3237 -0.0221  0.0415
  117TMC2    C6 1786   2.279   0.899  14.030  0.5255 -0.9282  0.4864
  117TMC2     C 1787   1.893   0.835  13.917 -0.1696  0.5560  0.8071
  117TMC2     O 1788   1.842   0.726  13.943  0.2012 -0.9230 -0.3727
  117TMC2     H 1789   2.060   0.666  13.938 -2.0713  0.4105  0.2696
  117TMC2    H1 1790   1.981   1.060  14.059  1.5650  1.1248  1.1600
  117TMC2    H2 1791   2.386   0.911  14.044  0.2236  2.0508  0.1176
  117TMC2    C7 1792   2.234   1.141  14.066  0.2022 -0.2703  0.2526
  117TMC2    C8 1793   2.320   0.674  13.942 -0.2273  0.7654  0.4598
  117TMC2    O1 1794   2.152   1.229  14.045 -0.0614 -0.5743 -0.1145
  117TMC2    O2 1795   2.286   0.584  13.862  0.0583  0.3013 -0.4863
  117TMC2    O5 1796   2.446   0.691  13.990 -0.3664 -0.1508  0.0338
  117TMC2    H5 1797   2.456   0.742  14.073 -3.6061 -2.1724  1.6899
  118MPD2     C 1798   2.551   1.291  14.124 -0.8096 -0.4531  0.1744
  118MPD2    C1 1799   2.435   1.273  14.058  0.1506 -1.4944 -0.3184
  118MPD2    C2 1800   2.384   1.373  13.971  0.2198  0.1377 -0.0387
  118MPD2    C3 1801   2.458   1.486  13.943 -0.2658 -0.2944  0.1801
  118MPD2    C4 1802   2.581   1.498  14.011 -0.1941 -0.2330  0.3732
  118MPD2    C5 1803   2.631   1.397  14.095 -0.4594  0.9192  0.5513
  118MPD2     H 1804   2.289   1.359  13.920  0.0995 -2.1426  0.7856
  118MPD2    H1 1805   2.635   1.590  13.993 -0.9396 -0.6408 -3.9204
  118MPD2    H2 1806   2.592   1.216  14.191 -0.1135 -0.6347 -0.4413
  118MPD2    H3 1807   2.728   1.405  14.143 -0.8424  1.2555  1.2587
  118MPD2     N 1808   2.433   1.593  13.859  0.6693 -0.3145  0.3602
  118MPD2    H5 1809   2.509   1.659  13.845 -0.6110  1.1164  0.1713
  118MPD2    N1 1810   2.366   1.151  14.072  0.5040 -0.4335  1.2442
  118MPD2    H7 1811   2.420   1.068  14.093 -1.2088 -1.8616 -0.0651
  119MPD2     C 1812   0.768   2.460  13.136 -0.5754  0.0267  0.0219
  119MPD2    C1 1813   0.649   2.482  13.191 -0.5632  0.2442  0.4040
  119MPD2    C2 1814   0.552   2.543  13.122  0.0290  0.6067 -0.6826
  119MPD2    C3 1815   0.573   2.579  12.986  0.1235 -0.3732  0.0929
  119MPD2    C4 1816   0.707   2.573  12.937 -0.1137  0.0595  0.1785
  119MPD2    C5 1817   0.803   2.509  13.009  0.0041 -0.2298  0.4615
  119MPD2     H 1818   0.457   2.567  13.168 -1.0912 -2.1009 -1.6505
  119MPD2    H1 1819   0.724   2.617  12.840 -0.0466  0.2210  0.2641
  119MPD2    H2 1820   0.849   2.406  13.185 -2.4814 -1.7082  1.2550
  119MPD2    H3 1821   0.905   2.494  12.975  0.5393 -1.0479  2.4259
  119MPD2     N 1822   0.477   2.629  12.898 -0.0767  0.2090  0.5858
  119MPD2    H5 1823   0.496   2.644  12.799  0.9281 -0.0514  0.7378
  119MPD2    N1 1824   0.630   2.419  13.315 -0.0291 -0.4197 -0.4238
  119MPD2    H7 1825   0.707   2.376  13.365 -0.5846 -0.0949  0.7175
  120TCq2    C1 1826   0.348   2.645  12.930  0.3415  0.2053  0.0157
  120TCq2    O2 1827   0.295   2.653  13.037 -0.1715  0.0707  0.4746
  120TCq2    C2 1828   0.262   2.600  12.818  0.4636 -0.9251 -0.5121
  120TCq2    C3 1829   0.321   2.524  12.721 -0.4792 -0.5492  0.6592
  120TCq2    C4 1830   0.240   2.440  12.647 -0.5584 -0.4452  0.1705
  120TCq2    C5 1831   0.104   2.433  12.661 -0.5189  0.8057  0.3871
  120TCq2    C6 1832   0.047   2.502  12.759  0.5105  0.6222  0.1747
  120TCq2    C7 1833   0.121   2.584  12.842 -0.1380 -0.0547 -0.6764
  120TCq2    C8 1834   4.640   2.452  12.811  0.4306 -0.7916  0.6507
  120TCq2    O4 1835   4.556   2.406  12.731  0.5906  0.8039  0.2017
  120TCq2    C9 1836   0.305   2.359  12.545  0.3485 -0.3426 -0.1363
  120TCq2    O5 1837   0.234   2.259  12.508 -0.0125 -0.0535 -0.3627
  120TCq2    O6 1838   0.426   2.388  12.525 -0.5810  0.7030  0.3183
  120TCq2    H2 1839   0.428   2.513  12.710 -0.3835  0.4562  0.5441
  120TCq2    H3 1840   0.045   2.364  12.602  1.5007  1.1434 -1.9982
  120TCq2    H4 1841   0.070   2.654  12.908 -2.0866 -1.5235 -0.6337
  121TMC2    C1 1842   1.940   4.109  14.178 -0.2754  0.2620 -0.2236
  121TMC2    C2 1843   1.897   4.000  14.250 -0.3196  0.0633  0.6595
  121TMC2    C3 1844   1.778   3.942  14.212  0.1821 -0.8678  0.7162
  121TMC2    C4 1845   1.866   4.170  14.077 -0.1147 -0.7477 -0.0371
  121TMC2    C5 1846   1.750   4.105  14.046  0.3540  0.2641  0.2046
  121TMC2    C6 1847   1.701   3.994  14.111 -0.2652 -0.0842  0.2320
  121TMC2     C 1848   2.063   4.180  14.199 -0.0125 -0.4103  0.2537
  121TMC2     O 1849   2.097   4.211  14.315 -0.0040  0.0128 -0.2811
  121TMC2     H 1850   1.950   3.977  14.342 -0.3428  0.4921  0.7767
  121TMC2    H1 1851   1.896   4.260  14.024 -0.3836  1.3331  3.3789
  121TMC2    H2 1852   1.608   3.943  14.089  0.1981 -0.3530 -1.1389
  121TMC2    C7 1853   1.690   4.150  13.916  0.0656  0.5270 -0.1806
  121TMC2    C8 1854   1.725   3.837  14.301 -0.5224 -0.3883 -0.5049
  121TMC2    O1 1855   1.729   4.261  13.874 -0.9017  0.4375 -0.4835
  121TMC2    O2 1856   1.604   3.814  14.297  0.2064 -0.1046 -0.0019
  121TMC2    O5 1857   1.818   3.740  14.300  0.0065 -0.3138  0.5002
  121TMC2    H5 1858   1.892   3.769  14.242  0.1302  3.6192  2.6057
  122MPD2     C 1859   2.253   4.400  14.126 -0.1628  0.0710  0.0759
  122MPD2    C1 1860   2.197   4.314  14.037  0.0108 -0.0568 -0.5013
  122MPD2    C2 1861   2.210   4.329  13.905  0.4428  0.6959  0.4719
  122MPD2    C3 1862   2.294   4.418  13.854 -0.2777 -0.1079  0.4906
  122MPD2    C4 1863   2.351   4.504  13.942 -0.2986  0.8607  0.7097
  122MPD2    C5 1864   2.321   4.504  14.073  0.3500 -0.1181 -0.4853
  122MPD2     H 1865   2.174   4.262  13.828  0.7461  0.2240  0.7432
  122MPD2    H1 1866   2.403   4.588  13.897 -0.3109  0.6671  0.3247
  122MPD2    H2 1867   2.243   4.393  14.234 -0.4488  0.7340  0.0922
  122MPD2    H3 1868   2.344   4.587  14.138  0.9552 -0.7053  0.0457
  122MPD2     N 1869   2.313   4.442  13.711 -0.0619  0.5754  0.1486
  122MPD2    H5 1870   2.369   4.523  13.685  0.9434  0.2378  1.2477
  122MPD2    N1 1871   2.113   4.206  14.072  0.4712  0.0452 -0.7635
  122MPD2    H7 1872   2.089   4.150  13.991 -1.0325 -0.4934  0.0421
  123MPD2     C 1873   4.520   1.681   8.801 -0.9125  0.0823 -0.0262
  123MPD2    C1 1874   4.485   1.758   8.910 -0.2645  0.5885 -1.0396
  123MPD2    C2 1875   4.585   1.798   8.999 -0.4063  0.6630  0.4803
  123MPD2    C3 1876   4.716   1.765   8.974 -0.2357  0.3111 -0.0194
  123MPD2    C4 1877   0.026   1.678   8.875 -0.3119 -0.5360 -0.0395
  123MPD2    C5 1878   4.648   1.637   8.788 -0.0071  0.2093  1.0614
  123MPD2     H 1879   4.556   1.873   9.072  0.7828  1.9799 -0.3927
  123MPD2    H1 1880   0.128   1.643   8.868  0.3064  1.2943 -0.0833
  123MPD2    H2 1881   4.445   1.641   8.734 -2.7063  1.4296  1.1842
  123MPD2    H3 1882   4.671   1.561   8.714 -1.7570  2.0524 -1.4060
  123MPD2     N 1883   0.093   1.825   9.063 -0.0474 -0.1160  0.3249
  123MPD2    H5 1884   0.054   1.876   9.141  2.1776 -0.4895  1.6894
  123MPD2    N1 1885   4.347   1.788   8.923  0.5963 -0.1634  0.3094
  123MPD2    H7 1886   4.286   1.739   8.858  1.3021 -0.6250 -0.0049
  124TCq2    C1 1887   0.226   1.786   9.066  0.4316  0.2975 -0.7865
  124TCq2    O2 1888   0.296   1.745   8.978 -0.1052 -0.3214 -0.4071
  124TCq2    C2 1889   0.291   1.824   9.190 -0.3434  0.9729  0.6052
  124TCq2    C3 1890   0.429   1.837   9.193 -0.6453 -0.0242  0.2128
  124TCq2    C4 1891   0.483   1.845   9.316 -0.0674  0.3736 -0.9614
  124TCq2    C5 1892   0.411   1.851   9.434 -0.1461 -0.9728 -0.5747
  124TCq2    C6 1893   0.275   1.856   9.422 -0.4390  0.7897 -0.1786
  124TCq2    C7 1894   0.213   1.831   9.302  0.4113 -0.4606  0.1713
  124TCq2    C8 1895   0.199   1.847   9.549  0.0089 -0.0579  0.5040
  124TCq2    O4 1896   0.271   1.833   9.646  0.1808  0.1287 -0.2993
  124TCq2    C9 1897   0.626   1.830   9.314  0.2829 -0.1086  0.3561
  124TCq2    O5 1898   0.679   1.771   9.216 -0.1586  0.0020 -0.2645
  124TCq2    O6 1899   0.681   1.852   9.428  0.1000 -0.2303 -0.1386
  124TCq2    H2 1900   0.490   1.833   9.104  0.8995  1.6992  1.1762
  124TCq2    H3 1901   0.463   1.856   9.529 -0.8083 -0.0191 -0.2623
  124TCq2    H4 1902   0.107   1.811   9.310  0.7521 -1.7431  1.4892
  125TMC2    C1 1903   2.206   3.627   8.157  0.3608  0.1332  0.8444
  125TMC2    C2 1904   2.235   3.515   8.074  0.4825  0.2333 -0.0549
  125TMC2    C3 1905   2.203   3.393   8.123  0.7092 -0.2495  0.7192
  125TMC2    C4 1906   2.145   3.615   8.278 -0.2451  0.7599  0.3220
  125TMC2    C5 1907   2.122   3.489   8.326 -0.4370 -0.4954  0.8543
  125TMC2    C6 1908   2.150   3.380   8.250 -0.3819  0.2592  0.1680
  125TMC2     C 1909   2.249   3.756   8.114  0.2803 -0.4728 -0.4471
  125TMC2     O 1910   2.322   3.751   8.014  0.5426  0.5345 -0.9078
  125TMC2     H 1911   2.256   3.533   7.970 -0.6015 -1.4484 -0.5705
  125TMC2    H1 1912   2.126   3.702   8.340 -0.6169 -1.0856  2.7761
  125TMC2    H2 1913   2.115   3.282   8.281  0.7476  0.0681  0.8275
  125TMC2    C7 1914   2.072   3.477   8.458 -0.2183  0.4549 -0.3239
  125TMC2    C8 1915   2.189   3.278   8.035 -0.6831 -0.1323  0.2699
  125TMC2    O1 1916   1.997   3.569   8.494  0.2263 -0.9113  0.0106
  125TMC2    O2 1917   2.092   3.203   8.048  0.4334  0.2543 -0.7327
  125TMC2    O5 1918   2.303   3.278   7.959  0.2334  0.5656  0.1383
  125TMC2    H5 1919   2.357   3.356   7.984  0.5785  0.3997 -0.0818
  126MPD1     C 1920   2.211   4.264   8.094 -0.8583  0.1584 -0.2783
  126MPD1    C1 1921   2.136   4.218   8.199 -0.7542 -0.5061 -0.1296
  126MPD1    C2 1922   2.131   4.087   8.232 -0.4195  0.6446  0.0647
  126MPD1    C3 1923   2.200   3.999   8.155  0.3632 -0.1780  0.1356
  126MPD1    C4 1924   2.278   4.047   8.046 -0.3650 -0.0840 -0.5387
  126MPD1    C5 1925   2.284   4.184   8.023 -0.0017 -0.6715 -0.1141
  126MPD1     H 1926   2.087   4.046   8.323 -0.3624 -2.0367 -1.1273
  126MPD1    H1 1927   2.343   3.988   7.983  1.7505  1.4139  0.2535
  126MPD1    H2 1928   2.206   4.371   8.074  1.0862  0.1436 -0.7781
  126MPD1    H3 1929   2.339   4.216   7.935 -1.7125  0.8818 -0.6316
  126MPD1     N 1930   2.185   3.861   8.178 -0.3458 -0.1025 -0.0869
  126MPD1    H5 1931   2.102   3.833   8.230  1.1150 -1.1041  1.6963
  126MPD1    N1 1932   2.084   4.318   8.284  0.4811 -0.1172  0.4405
  126MPD1    H6 1933   2.063   4.409   8.242 -0.1730 -1.9608 -3.2038
  126MPD1    H7 1934   1.999   4.288   8.331  0.4792  0.0824  0.5663
  127MPD2     C 1935   3.102   2.402   9.536  0.5596 -0.2755 -0.5983
  127MPD2    C1 1936   2.971   2.441   9.528 -0.5067 -0.1164  0.5025
  127MPD2    C2 1937   2.906   2.491   9.639  0.2968 -0.0220 -0.7199
  127MPD2    C3 1938   2.970   2.484   9.764  0.1389 -0.2586  0.4261
  127MPD2    C4 1939   3.094   2.431   9.768  0.6311 -0.1529  0.3113
  127MPD2    C5 1940   3.164   2.392   9.657 -0.1535  1.9933 -0.4166
  127MPD2     H 1941   2.800   2.511   9.626  0.0112 -0.4696  0.9594
  127MPD2    H1 1942   3.138   2.405   9.864  0.6834 -0.3925  0.2226
  127MPD2    H2 1943   3.154   2.362   9.449  0.3117  0.0478 -0.8957
  127MPD2    H3 1944   3.249   2.326   9.662 -2.7155 -1.5161 -3.1469
  127MPD2     N 1945   2.905   2.538   9.876 -0.9664 -0.1546 -0.4720
  127MPD2    H5 1946   2.832   2.604   9.851 -1.4256 -0.2473  0.6073
  127MPD2    N1 1947   2.927   2.435   9.394  0.1154  0.0090 -0.3883
  127MPD2    H7 1948   2.981   2.388   9.322  0.9278  1.4075 -0.6816
  128TCq2    C1 1949   2.803   2.484   9.348  0.0622 -0.1582 -0.8643
  128TCq2    O2 1950   2.710   2.536   9.410 -0.7993 -0.1610  0.0747
  128TCq2    C2 1951   2.775   2.442   9.216  0.7528 -0.9446 -0.2003
  128TCq2    C3 1952   2.870   2.446   9.123  0.7786 -0.1707 -0.7820
  128TCq2    C4 1953   2.841   2.408   8.996 -0.2709  0.8797 -0.2399
  128TCq2    C5 1954   2.712   2.379   8.954 -0.5074  0.1770  0.2620
  128TCq2    C6 1955   2.616   2.396   9.054  0.6084 -0.4989 -0.4524
  128TCq2    C7 1956   2.643   2.425   9.183 -0.2520  0.4984  0.0927
  128TCq2    C8 1957   2.483   2.391   9.004  0.3177  0.3394  0.5056
  128TCq2    O4 1958   2.459   2.411   8.885 -0.4837 -0.5605 -0.3966
  128TCq2    C9 1959   2.948   2.395   8.903  0.3652  0.9006 -0.2727
  128TCq2    O5 1960   3.064   2.403   8.957  0.5959  0.1766  0.3384
  128TCq2    O6 1961   2.931   2.341   8.788  0.6663 -1.1133 -0.7643
  128TCq2    H2 1962   2.969   2.482   9.146  0.3761 -0.1915  0.9982
  128TCq2    H3 1963   2.690   2.346   8.853  0.8973  0.2375 -0.0647
  128TCq2    H4 1964   2.572   2.417   9.264  0.6179  0.7199  0.8717
  129MPD2     C 1965   1.005   3.428   1.363 -0.6584 -0.0504  0.1296
  129MPD2    C1 1966   0.894   3.495   1.328 -0.0083 -0.1107 -0.1961
  129MPD2    C2 1967   0.912   3.624   1.270  0.0389  0.1157  0.5756
  129MPD2    C3 1968   1.039   3.673   1.256 -0.3257 -0.6594  0.4447
  129MPD2    C4 1969   1.149   3.602   1.308  0.2386 -0.6206 -0.1266
  129MPD2    C5 1970   1.130   3.486   1.366 -0.4450 -0.2108 -0.2661
  129MPD2     H 1971   0.826   3.683   1.243 -0.3559 -0.3815  0.7347
  129MPD2    H1 1972   1.249   3.643   1.311 -0.8152  1.9002  0.2722
  129MPD2    H2 1973   0.997   3.331   1.411 -0.5217  0.2236  0.7120
  129MPD2    H3 1974   1.219   3.437   1.402 -0.5925 -0.4729 -0.2547
  129MPD2     N 1975   1.054   3.795   1.181 -0.4885 -0.6706 -1.0315
  129MPD2    H5 1976   0.961   3.836   1.176 -0.9811 -1.4353  1.5536
  129MPD2    N1 1977   0.768   3.431   1.336 -0.4604  0.3739  0.3528
  129MPD2    H7 1978   0.698   3.489   1.291  0.7336 -0.3231 -2.4022
  130TCq2    C1 1979   0.725   3.324   1.400 -0.7750  0.2228 -0.6259
  130TCq2    O2 1980   0.786   3.264   1.490  0.1057  0.1369 -0.6152
  130TCq2    C2 1981   0.593   3.288   1.372  0.0972 -0.2759 -0.4823
  130TCq2    C3 1982   0.535   3.208   1.464  0.0633 -0.0402 -0.0848
  130TCq2    C4 1983   0.399   3.203   1.480  0.0620 -0.5269  0.4562
  130TCq2    C5 1984   0.323   3.262   1.381  0.1111 -0.8364  0.5082
  130TCq2    C6 1985   0.382   3.348   1.293  0.2083  0.7246  0.0619
  130TCq2    C7 1986   0.516   3.369   1.288 -0.3897 -0.1431 -0.6062
  130TCq2    C8 1987   0.303   3.403   1.178 -0.8279  0.7557 -0.3766
  130TCq2    O4 1988   0.184   3.438   1.200 -0.2970  0.0159 -0.2465
  130TCq2    C9 1989   0.341   3.135   1.588  0.2263 -0.8248  0.2576
  130TCq2    O5 1990   0.402   3.025   1.621 -0.0227 -0.2931  0.5138
  130TCq2    O6 1991   0.240   3.187   1.636 -0.0387  0.5168  0.9572
  130TCq2    H2 1992   0.597   3.142   1.524 -0.8791 -0.9734 -0.1403
  130TCq2    H3 1993   0.215   3.254   1.388 -0.0222 -1.7639 -2.4504
  130TCq2    H4 1994   0.558   3.448   1.225 -2.3615 -0.6682 -2.5827
  131MPD2     C 1995   4.037   2.633   9.294  0.3450 -0.4170 -0.8392
  131MPD2    C1 1996   4.155   2.564   9.260 -0.0416 -0.7527 -0.7984
  131MPD2    C2 1997   4.151   2.438   9.208  0.4241 -0.8308  0.2308
  131MPD2    C3 1998   4.030   2.377   9.171 -0.0356  0.3640  0.7065
  131MPD2    C4 1999   3.918   2.453   9.197  0.0420 -0.2189  0.2666
  131MPD2    C5 2000   3.917   2.571   9.263 -0.4886 -0.1074 -0.3364
  131MPD2     H 2001   4.244   2.392   9.177  0.7263 -1.0151  1.4149
  131MPD2    H1 2002   3.822   2.407   9.179  0.9843 -1.9156 -0.4884
  131MPD2    H2 2003   4.037   2.735   9.329 -3.4713 -0.2419 -1.3454
  131MPD2    H3 2004   3.826   2.624   9.289  0.4425  0.4898  1.6662
  131MPD2     N 2005   4.035   2.252   9.113 -0.4683 -0.2283 -0.1030
  131MPD2    H5 2006   4.128   2.219   9.089 -1.3370 -2.0613 -0.9277
  131MPD2    N1 2007   4.278   2.628   9.294 -0.0327 -0.2306  0.4697
  131MPD2    H7 2008   4.266   2.711   9.350  1.3296  1.1019 -1.2196
  132TCq2    C1 2009   0.140   2.616   9.362  0.2259  0.5166 -0.1791
  132TCq2    O2 2010   0.157   2.512   9.299 -0.2667  0.6927  0.0475
  132TCq2    C2 2011   0.014   2.670   9.375 -0.9179 -0.0638  0.0119
  132TCq2    C3 2012   4.706   2.764   9.463 -0.4374  0.1014 -0.0382
  132TCq2    C4 2013   4.586   2.815   9.471 -0.4023  0.6821 -0.6889
  132TCq2    C5 2014   4.482   2.765   9.406 -0.2944  1.0426 -0.4902
  132TCq2    C6 2015   4.505   2.660   9.320  0.2073 -0.2677 -0.2780
  132TCq2    C7 2016   4.629   2.618   9.296 -0.9385  0.1820  0.4491
  132TCq2    C8 2017   4.399   2.591   9.245 -0.1486 -0.1571  0.5686
  132TCq2    O4 2018   4.440   2.490   9.190  0.2583  0.1665  0.0293
  132TCq2    C9 2019   4.558   2.898   9.589  0.0695  0.0875  0.2804
  132TCq2    O5 2020   4.453   2.965   9.581 -0.0299  0.2686  0.3583
  132TCq2    O6 2021   4.640   2.897   9.683  0.4790  0.1692 -0.3345
  132TCq2    H2 2022   0.056   2.788   9.544  1.2183 -0.9346 -1.1453
  132TCq2    H3 2023   4.383   2.806   9.425 -0.9793 -0.7279 -0.3029
  132TCq2    H4 2024   4.654   2.538   9.228 -1.3725 -0.2804  0.8253
  133MPD2     C 2025   3.916   3.771   9.637  0.8226  0.1495 -0.0933
  133MPD2    C1 2026   4.043   3.744   9.582 -0.1909  0.3390  0.4794
  133MPD2    C2 2027   4.062   3.627   9.515  0.0769  0.3689  0.5917
  133MPD2    C3 2028   3.964   3.530   9.521 -0.4587 -0.4511 -0.6349
  133MPD2    C4 2029   3.851   3.553   9.591  0.1125 -0.1310 -0.0752
  133MPD2    C5 2030   3.822   3.676   9.649 -0.0115 -0.5427  0.2152
  133MPD2     H 2031   4.155   3.608   9.463 -0.3731 -1.3755  0.4118
  133MPD2    H1 2032   3.777   3.474   9.604  0.0548 -0.1661 -0.5878
  133MPD2    H2 2033   3.902   3.866   9.687 -0.1124 -0.1201  0.1626
  133MPD2    H3 2034   3.737   3.694   9.713 -0.9199  1.1468 -1.4589
  133MPD2     N 2035   3.981   3.397   9.473  0.0182  0.6972  0.1640
  133MPD2    H5 2036   3.927   3.319   9.509  1.3966  0.0764  0.8804
  133MPD2    N1 2037   4.143   3.839   9.598 -0.8600  0.0258  0.1336
  133MPD2    H7 2038   4.116   3.932   9.628  0.3362  0.6633 -0.7556
  134TCq2    C1 2039   4.277   3.820   9.577 -0.3203  0.6013  1.1309
  134TCq2    O2 2040   4.340   3.726   9.534 -0.7594  0.1914  0.1651
  134TCq2    C2 2041   4.361   3.940   9.603 -0.6200 -0.3335 -0.4688
  134TCq2    C3 2042   4.311   4.051   9.660  0.3010 -0.3183  0.4534
  134TCq2    C4 2043   4.374   4.170   9.643  0.5011  0.1458  0.5362
  134TCq2    C5 2044   4.490   4.169   9.573  0.5527 -0.0035  0.6702
  134TCq2    C6 2045   4.543   4.058   9.521  0.4170  1.1426 -0.2492
  134TCq2    C7 2046   4.480   3.938   9.524  0.2701 -0.0017 -0.2979
  134TCq2    C8 2047   4.680   4.076   9.478 -0.3199  0.0860  0.2757
  134TCq2    O4 2048   0.021   4.174   9.521 -0.1506 -0.0652  0.3736
  134TCq2    C9 2049   4.325   4.294   9.693  0.8344 -0.0144 -0.6166
  134TCq2    O5 2050   4.403   4.396   9.696 -0.2964 -0.0677  0.2714
  134TCq2    O6 2051   4.216   4.291   9.753  0.0398  1.0459  0.1391
  134TCq2    H2 2052   4.229   4.048   9.731  0.2356  3.7294  0.5159
  134TCq2    H3 2053   4.547   4.261   9.560  0.3374 -0.1262 -1.1288
  134TCq2    H4 2054   4.508   3.848   9.470 -2.3642 -0.1222 -1.4656
  135MPD2     C 2055   1.507   3.846   8.857 -0.1688  0.4431  0.2953
  135MPD2    C1 2056   1.575   3.837   8.974  0.3397  0.1348 -0.0201
  135MPD2    C2 2057   1.711   3.807   8.963 -0.0906  0.3885 -0.2556
  135MPD2    C3 2058   1.774   3.768   8.847 -0.1890 -0.7125  0.4100
  135MPD2    C4 2059   1.711   3.791   8.730 -0.5193  0.0943 -0.9530
  135MPD2    C5 2060   1.571   3.814   8.737  0.5955  1.4732 -0.1191
  135MPD2     H 2061   1.771   3.801   9.053 -0.6976 -4.0455 -0.1336
  135MPD2    H1 2062   1.762   3.780   8.634 -0.7042 -1.0727 -0.9170
  135MPD2    H2 2063   1.408   3.888   8.845 -0.3383 -0.3074 -0.9214
  135MPD2    H3 2064   1.510   3.818   8.648 -0.7583 -0.8728  0.7164
  135MPD2     N 2065   1.908   3.735   8.825  0.2869 -0.3835  0.4353
  135MPD2    H5 2066   1.936   3.740   8.727 -0.3672  0.6348  0.2998
  135MPD2    N1 2067   1.516   3.840   9.105 -0.0019  0.1166  0.5565
  135MPD2    H7 2068   1.566   3.855   9.192  0.3948 -0.2983  0.3993
  136TCq2    C1 2069   1.386   3.801   9.123 -0.5211 -0.6799  0.3259
  136TCq2    O2 2070   1.308   3.750   9.044  0.1198 -0.3744 -0.5718
  136TCq2    C2 2071   1.339   3.784   9.259  0.4826 -0.3505  0.5288
  136TCq2    C3 2072   1.266   3.673   9.287  0.2472  0.3711 -0.0733
  136TCq2    C4 2073   1.246   3.645   9.418 -0.3561 -0.3022 -0.3555
  136TCq2    C5 2074   1.286   3.730   9.513  0.1745 -0.6564 -0.6922
  136TCq2    C6 2075   1.360   3.839   9.486  1.1348  0.6596 -0.4456
  136TCq2    C7 2076   1.384   3.873   9.352  0.4240 -0.1482  0.3358
  136TCq2    C8 2077   1.392   3.936   9.588  0.1223 -0.1251  0.3147
  136TCq2    O4 2078   1.453   4.035   9.552  0.0185 -0.3336 -0.1811
  136TCq2    C9 2079   1.191   3.514   9.455 -0.1771 -0.1692 -0.6463
  136TCq2    O5 2080   1.200   3.478   9.575  0.5326 -0.0679 -0.2775
  136TCq2    O6 2081   1.140   3.448   9.360  0.9257  0.2803  0.2774
  136TCq2    H2 2082   1.241   3.597   9.214  0.9393 -0.1869  0.2679
  136TCq2    H3 2083   1.280   3.683   9.610  0.8822  0.1415 -0.2650
  136TCq2    H4 2084   1.453   3.954   9.332 -0.3980  0.3790 -0.3725
  137MPD2     C 2085   1.737   2.384  10.114  0.9040  0.2159  0.6127
  137MPD2    C1 2086   1.702   2.501  10.050 -0.5706 -0.7513  0.4188
  137MPD2    C2 2087   1.635   2.600  10.124 -0.6075 -0.0848 -0.3565
  137MPD2    C3 2088   1.631   2.585  10.265 -0.1961  0.4919  0.2191
  137MPD2    C4 2089   1.687   2.479  10.326  0.9214  0.2690  0.0080
  137MPD2    C5 2090   1.737   2.377  10.252 -0.0701 -0.9968  0.3910
  137MPD2     H 2091   1.598   2.696  10.089  0.3233 -0.5356 -2.5344
  137MPD2    H1 2092   1.674   2.460  10.432 -2.1344  0.1643 -0.3823
  137MPD2    H2 2093   1.779   2.301  10.058 -0.2289 -1.7417  2.6761
  137MPD2    H3 2094   1.782   2.297  10.310  2.1727  0.4631  0.6624
  137MPD2     N 2095   1.577   2.700  10.339  0.2575  0.2668 -0.4596
  137MPD2    H5 2096   1.525   2.766  10.283  1.3283  0.4886 -1.1878
  137MPD2    N1 2097   1.711   2.502   9.910  0.1332 -0.5092 -0.0721
  137MPD2    H7 2098   1.756   2.418   9.873  2.3051  1.3191 -1.5469
  138TCq2    C1 2099   1.661   2.606   9.838 -0.4280  0.0627 -0.2018
  138TCq2    O2 2100   1.581   2.695   9.866  0.4361 -0.2454 -0.2277
  138TCq2    C2 2101   1.712   2.593   9.703  0.1953 -0.4076 -0.4403
  138TCq2    C3 2102   1.826   2.517   9.682 -0.4506  0.4980 -0.3910
  138TCq2    C4 2103   1.882   2.529   9.562  0.6000  1.0780  0.0279
  138TCq2    C5 2104   1.835   2.617   9.471  0.9611 -0.0373 -0.1524
  138TCq2    C6 2105   1.716   2.693   9.492  0.3081  0.2582 -0.4396
  138TCq2    C7 2106   1.658   2.682   9.612 -0.2315  0.4025  0.5002
  138TCq2    C8 2107   1.699   2.819   9.418  0.1226  0.3388 -0.7771
  138TCq2    O4 2108   1.792   2.844   9.341  0.1259 -0.1687 -0.0854
  138TCq2    C9 2109   2.001   2.459   9.527 -0.0845 -0.1221 -0.4948
  138TCq2    O5 2110   2.074   2.502   9.428 -0.0159 -0.2398  0.1451
  138TCq2    O6 2111   2.044   2.365   9.599  0.2649 -0.5022 -0.0975
  138TCq2    H2 2112   1.879   2.459   9.758 -0.4111  3.9878  2.2436
  138TCq2    H3 2113   1.885   2.621   9.375 -1.4782 -0.5286 -1.4320
  138TCq2    H4 2114   1.575   2.739   9.651 -0.4784  0.1303  0.3730
  139TMC2    C1 2115   1.670   1.996  12.482 -1.0651  0.1545  0.4591
  139TMC2    C2 2116   1.601   2.012  12.363  0.2899  0.4622 -0.6536
  139TMC2    C3 2117   1.493   2.098  12.367  0.3128 -0.6749 -0.6384
  139TMC2    C4 2118   1.629   2.063  12.596  0.8525  0.9749 -0.5526
  139TMC2    C5 2119   1.520   2.144  12.589 -0.0307 -0.4814 -0.0376
  139TMC2    C6 2120   1.454   2.173  12.476  0.4710  0.2285 -0.2391
  139TMC2     C 2121   1.751   1.877  12.506  0.1853 -0.9680 -0.2419
  139TMC2     O 2122   1.743   1.780  12.433 -0.3034  0.2597  0.1733
  139TMC2     H 2123   1.620   1.952  12.274 -4.0235 -1.4416 -0.2807
  139TMC2    H1 2124   1.672   2.036  12.692 -1.0891  1.2037  0.3711
  139TMC2    H2 2125   1.360   2.227  12.463  0.3799 -0.1457 -1.1275
  139TMC2    C7 2126   1.483   2.225  12.701 -0.3461  0.2702  0.1618
  139TMC2    C8 2127   1.409   2.117  12.252 -0.2104  0.0536 -0.2236
  139TMC2    O1 2128   1.380   2.288  12.701 -0.1132 -0.0870 -0.3347
  139TMC2    O2 2129   1.295   2.159  12.257  0.0882 -0.2320  0.1719
  139TMC2    O5 2130   1.460   2.066  12.142 -0.3148  0.2754 -0.1138
  139TMC2    H5 2131   1.558   2.064  12.143 -0.3417 -0.4562  0.9780
  140MPD2     C 2132   2.029   1.882  12.743  0.1851 -0.6013 -0.2743
  140MPD2    C1 2133   1.958   1.834  12.639  0.0856  0.1816 -0.4753
  140MPD2    C2 2134   2.003   1.711  12.579  0.9983 -1.2469  0.6560
  140MPD2    C3 2135   2.114   1.647  12.620  0.5009 -0.6678 -0.0506
  140MPD2    C4 2136   2.173   1.688  12.736  0.0421 -0.7067  0.3844
  140MPD2    C5 2137   2.135   1.807  12.794 -1.3835  0.0535  0.1763
  140MPD2     H 2138   1.933   1.669  12.507 -0.5964  1.5407  0.5642
  140MPD2    H1 2139   2.255   1.635  12.784 -1.1691 -2.0410  0.9551
  140MPD2    H2 2140   2.010   1.978  12.790 -1.1448  0.3925 -2.7847
  140MPD2    H3 2141   2.182   1.846  12.883  0.7700 -1.6750 -0.2118
  140MPD2     N 2142   2.161   1.535  12.544 -0.0575  0.3043  0.4163
  140MPD2    H5 2143   2.114   1.503  12.460 -0.0576  1.6302 -0.0927
  140MPD2    N1 2144   1.849   1.909  12.599 -0.1185  0.1362  0.9601
  140MPD2    H7 2145   1.836   2.004  12.631  0.4782  1.0245 -1.4582
  141TCq2    C1 2146   2.507   3.380  14.249  0.4126 -0.0773  0.1035
  141TCq2    O2 2147   2.562   3.408  14.144  0.0338 -0.0179  0.1284
  141TCq2    C2 2148   2.561   3.448  14.375  0.0831 -0.3331  0.4703
  141TCq2    C3 2149   2.514   3.415  14.497 -0.6429 -0.1003 -0.1365
  141TCq2    C4 2150   2.554   3.483  14.605  0.3534 -0.3182 -0.2892
  141TCq2    C5 2151   2.640   3.585  14.593  0.2100  0.6275 -0.2263
  141TCq2    C6 2152   2.672   3.627  14.466  0.5812 -0.4800 -0.2082
  141TCq2    C7 2153   2.646   3.551  14.354 -0.2312  0.3711  0.2724
  141TCq2    C8 2154   2.791   3.711  14.455  0.3171  0.3261  0.9506
  141TCq2    O4 2155   2.865   3.706  14.552  0.6687  0.0210  0.1605
  141TCq2    C9 2156   2.525   3.421  14.738  0.1963 -0.4571 -0.2051
  141TCq2    O5 2157   2.586   3.477  14.832 -0.4550 -0.3188 -0.2247
  141TCq2    O6 2158   2.478   3.306  14.732 -0.5109  0.4801  0.0597
  141TCq2    H2 2159   2.455   3.326  14.517  1.3943 -1.5386 -0.5606
  141TCq2    H3 2160   2.693   3.634  14.674  2.0468  1.1977 -1.7655
  141TCq2    H4 2161   2.679   3.576  14.254  0.9681 -0.6062  0.4217
  142MPD2     C 2162   4.305   1.119  10.670 -0.6317 -0.4156  0.0073
  142MPD2    C1 2163   4.270   1.172  10.548  0.6205  0.1213  0.1718
  142MPD2    C2 2164   4.360   1.239  10.474 -0.2410 -0.3626  0.1774
  142MPD2    C3 2165   4.484   1.259  10.523  0.1210 -0.1114  0.2899
  142MPD2    C4 2166   4.523   1.222  10.650  1.0862  0.3006 -0.4482
  142MPD2    C5 2167   4.429   1.147  10.722 -0.0701 -0.3470  0.8438
  142MPD2     H 2168   4.334   1.287  10.380 -1.8250  0.4535  1.0261
  142MPD2    H1 2169   4.618   1.237  10.700 -0.7360  1.4589  2.6610
  142MPD2    H2 2170   4.243   1.059  10.736 -0.8800  0.5664  0.6764
  142MPD2    H3 2171   4.451   1.117  10.824  0.6367 -1.3523  0.3886
  142MPD2     N 2172   4.581   1.341  10.458 -0.0429  0.3218  0.2114
  142MPD2    H5 2173   4.660   1.360  10.519  0.3227  0.0238 -0.1676
  142MPD2    N1 2174   4.138   1.152  10.502 -0.0320 -0.3934  0.6091
  142MPD2    H7 2175   4.074   1.095  10.557 -0.0646 -2.1100 -1.2255
  143TCq2    C1 2176   4.569   1.391  10.331 -0.1271  0.4173 -0.1028
  143TCq2    O2 2177   4.483   1.373  10.243 -0.1816  0.0240 -0.3909
  143TCq2    C2 2178   4.672   1.491  10.302 -0.2606  0.3216  0.3048
  143TCq2    C3 2179   0.077   1.477  10.369  0.2561  0.3339 -0.4990
  143TCq2    C4 2180   0.175   1.568  10.335 -0.3039  0.5454 -0.0597
  143TCq2    C5 2181   0.152   1.669  10.237 -0.6904  0.4064  0.5347
  143TCq2    C6 2182   0.037   1.666  10.170  0.3170  0.4076 -0.1099
  143TCq2    C7 2183   4.654   1.577  10.203 -0.0348 -0.0349  0.2843
  143TCq2    C8 2184   0.047   1.730  10.045  0.2657 -0.0698 -0.9574
  143TCq2    O4 2185   0.152   1.767   9.997 -0.7696 -0.2790 -0.0998
  143TCq2    C9 2186   0.285   1.579  10.418 -0.3898  0.5138  0.3961
  143TCq2    O5 2187   0.317   1.478  10.486  0.1122 -0.1580  0.4185
  143TCq2    O6 2188   0.351   1.685  10.414  0.7421 -0.1386  0.3100
  143TCq2    H2 2189   0.098   1.408  10.450  1.2223 -1.9353 -2.7130
  143TCq2    H3 2190   0.232   1.738  10.211 -0.5129  0.1812  0.4787
  143TCq2    H4 2191   4.558   1.576  10.153  1.5319  0.9693 -2.7092
  144MPD2     C 2192   2.347   1.342   1.404  0.1948  0.2588  0.3566
  144MPD2    C1 2193   2.462   1.416   1.388  0.3558 -0.1389  0.3256
  144MPD2    C2 2194   2.515   1.490   1.492 -0.5477 -0.3588  1.0625
  144MPD2    C3 2195   2.455   1.482   1.617 -0.2900  0.1695 -0.4783
  144MPD2    C4 2196   2.341   1.412   1.629  0.8940  0.2859 -0.0326
  144MPD2    C5 2197   2.289   1.337   1.528  0.2900  0.4917 -0.1036
  144MPD2     H 2198   2.603   1.552   1.477  0.1934 -1.1306  2.2244
  144MPD2    H1 2199   2.293   1.405   1.726  2.7874 -1.3373  0.7830
  144MPD2    H2 2200   2.302   1.287   1.322  1.7682  0.6114 -0.7494
  144MPD2    H3 2201   2.190   1.294   1.542  0.1029  0.6703 -0.8615
  144MPD2     N 2202   2.494   1.550   1.734 -0.0180  0.0570 -0.3833
  144MPD2    H5 2203   2.444   1.539   1.822  1.9294  1.3289  0.8971
  144MPD2    N1 2204   2.515   1.429   1.254 -0.2436  0.4386 -0.5582
  144MPD2    H7 2205   2.579   1.508   1.247 -1.9025  2.0202  2.2300
  145TCq2    C1 2206   2.601   1.639   1.742 -0.5804 -0.5964 -0.4100
  145TCq2    O2 2207   2.651   1.705   1.652 -0.6481 -1.0063  0.0928
  145TCq2    C2 2208   2.631   1.680   1.880  0.1148 -0.0713 -0.6307
  145TCq2    C3 2209   2.621   1.583   1.978  0.5553  0.1995  0.2822
  145TCq2    C4 2210   2.676   1.604   2.109 -0.0844 -0.4776 -0.4940
  145TCq2    C5 2211   2.745   1.727   2.129  0.4082 -0.3878  0.7549
  145TCq2    C6 2212   2.755   1.814   2.021  0.6313  0.5083 -0.0250
  145TCq2    C7 2213   2.699   1.793   1.897 -0.3049  0.5269  0.6185
  145TCq2    C8 2214   2.820   1.935   2.053 -0.1434 -0.4831  0.1855
  145TCq2    O4 2215   2.883   1.937   2.161 -0.0153 -0.1781 -0.3122
  145TCq2    C9 2216   2.655   1.505   2.214  0.7732 -0.3045 -0.6198
  145TCq2    O5 2217   2.679   1.546   2.331 -0.1858  0.2629  0.0999
  145TCq2    O6 2218   2.615   1.393   2.181 -0.5550 -0.0036 -0.2334
  145TCq2    H2 2219   2.570   1.489   1.964  1.0932  0.0595 -0.7665
  145TCq2    H3 2220   2.790   1.732   2.228 -0.5017  1.2110  1.0911
  145TCq2    H4 2221   2.712   1.867   1.819 -0.6438 -1.9489 -1.7563
  146TMC2    C1 2222   4.026   4.707  13.713  0.3026  0.0808  0.3692
  146TMC2    C2 2223   3.987   0.111  13.770  0.2270 -0.8723 -0.3904
  146TMC2    C3 2224   3.915   0.201  13.693 -0.1942 -0.5609 -0.3025
  146TMC2    C4 2225   3.965   4.675  13.591 -0.2957 -0.1496 -0.1611
  146TMC2    C5 2226   3.881   0.042  13.521 -0.5184 -0.6835 -0.7425
  146TMC2    C6 2227   3.859   0.171  13.573 -0.3072  0.0232 -0.4390
  146TMC2     C 2228   4.117   4.625  13.787 -0.7162  0.5349  0.3122
  146TMC2     O 2229   4.144   4.675  13.900 -0.1810 -0.1639 -0.0986
  146TMC2     H 2230   4.014   0.142  13.871 -2.7496 -0.6001  0.3104
  146TMC2    H1 2231   3.976   4.575  13.550 -0.5221  0.1726 -1.0137
  146TMC2    H2 2232   3.799   0.248  13.526  2.7380  1.6977 -1.6001
  146TMC2    C7 2233   3.835   0.016  13.386 -0.7132 -0.0417 -0.3986
  146TMC2    C8 2234   3.842   0.309  13.764 -0.4931 -0.0630 -0.3176
  146TMC2    O1 2235   3.747   0.096  13.359 -0.4655 -0.1942 -0.0660
  146TMC2    O2 2236   3.732   0.356  13.738 -0.1330 -0.1733 -0.0587
  146TMC2    O5 2237   3.923   0.374  13.849 -0.1555 -0.4306  0.0402
  146TMC2    H5 2238   4.016   0.344  13.851  0.2200  0.7226  0.2634
  147MPD2     C 2239   3.892   4.635  12.882 -0.1742 -0.0637  0.1686
  147MPD2    C1 2240   3.982   4.554  12.952  0.3342 -0.6544 -0.1619
  147MPD2    C2 2241   3.978   4.544  13.089  0.3577 -0.0394  0.2610
  147MPD2    C3 2242   3.892   4.629  13.163 -0.2553  0.0974 -0.2948
  147MPD2    C4 2243   3.815   4.716  13.087 -0.9680  0.3922  0.3820
  147MPD2    C5 2244   3.813   4.719  12.951 -0.2004  0.6877  0.4144
  147MPD2     H 2245   4.040   4.469  13.137 -0.4599 -0.5913  0.4525
  147MPD2    H1 2246   3.763   0.076  13.138  1.5454  1.2414  1.6104
  147MPD2    H2 2247   3.892   4.627  12.774 -1.0588 -2.8108  0.3784
  147MPD2    H3 2248   3.754   0.074  12.898 -1.2540 -1.4050 -1.3502
  147MPD2     N 2249   3.897   4.632  13.308  0.7185 -0.2468  0.9982
  147MPD2    H5 2250   3.977   4.588  13.352  1.2174 -1.6420 -1.3009
  147MPD2    N1 2251   4.065   4.478  12.869  0.3996 -0.5053  0.6372
  147MPD2    H7 2252   4.056   4.490  12.769  0.9038  0.0618  0.6573
  148MPD2     C 2253   4.479   3.233  10.025  0.0779 -0.5752  0.9979
  148MPD2    C1 2254   4.532   3.139   9.939  0.3573 -0.1104 -0.5487
  148MPD2    C2 2255   4.478   3.009   9.951  0.2207  0.2037  0.4847
  148MPD2    C3 2256   4.371   2.978  10.032 -0.0821  0.1824 -0.4531
  148MPD2    C4 2257   4.322   3.078  10.107 -0.0343 -0.2723 -0.2524
  148MPD2    C5 2258   4.376   3.205  10.107  0.0107  0.0121  0.2076
  148MPD2     H 2259   4.510   2.941   9.873 -0.9454  0.0059  0.1734
  148MPD2    H1 2260   4.240   3.060  10.176  1.0992 -1.3007  0.8233
  148MPD2    H2 2261   4.529   3.328  10.037  2.2970 -1.8329  1.7979
  148MPD2    H3 2262   4.336   3.279  10.175  2.8981  1.0427  0.7789
  148MPD2     N 2263   4.320   2.850  10.037 -0.1801 -0.8099  0.3083
  148MPD2    H5 2264   4.235   2.830  10.090 -0.3204 -0.2775  0.2854
  148MPD2    N1 2265   4.639   3.158   9.844  0.7914 -0.2428 -1.0492
  148MPD2    H7 2266   4.669   3.079   9.787  0.3124 -1.4449  0.3465
  149TCq2    C1 2267   4.715   3.269   9.845 -0.3989  1.3728 -0.6318
  149TCq2    O2 2268   4.703   3.363   9.922  0.0786  0.0347  1.0730
  149TCq2    C2 2269   0.124   3.252   9.779  0.3401  0.7913  0.4841
  149TCq2    C3 2270   0.227   3.327   9.829 -0.9179 -0.4036 -0.6436
  149TCq2    C4 2271   0.351   3.276   9.836 -0.0368 -0.3950 -0.3310
  149TCq2    C5 2272   0.369   3.146   9.823 -0.3254 -0.2312 -0.1781
  149TCq2    C6 2273   0.264   3.064   9.777  0.0253 -0.4411 -0.5128
  149TCq2    C7 2274   0.147   3.122   9.731  0.7422  0.5203  0.5046
  149TCq2    C8 2275   0.258   2.923   9.825  0.2555 -0.1415  0.1711
  149TCq2    O4 2276   0.151   2.878   9.866 -0.1170  0.4550 -0.4882
  149TCq2    C9 2277   0.451   3.339   9.910 -0.1811 -0.1861  0.5041
  149TCq2    O5 2278   0.445   3.461   9.940  0.1935 -0.1542 -0.1341
  149TCq2    O6 2279   0.552   3.277   9.944  0.6352  0.3784  0.4996
  149TCq2    H2 2280   0.198   3.414   9.887 -1.2801 -1.0845  0.1983
  149TCq2    H3 2281   0.458   3.098   9.862 -0.1484  0.9582  0.8793
  149TCq2    H4 2282   0.082   3.043   9.695  0.3070  1.6938 -1.2447
  150MPD2     C 2283   1.437   1.881  11.690  0.2586 -0.1047 -0.2226
  150MPD2    C1 2284   1.432   1.985  11.597 -0.0604  0.1083  0.2219
  150MPD2    C2 2285   1.525   2.088  11.613 -0.4655 -0.2084 -0.2976
  150MPD2    C3 2286   1.613   2.089  11.715  0.2276 -0.0459 -0.4871
  150MPD2    C4 2287   1.616   1.985  11.805  0.1124  0.2448  0.6532
  150MPD2    C5 2288   1.534   1.878  11.784  0.1553 -0.1357  0.3246
  150MPD2     H 2289   1.530   2.163  11.536  0.1412  1.0968  1.0268
  150MPD2    H1 2290   1.687   1.992  11.886  0.4124  1.7085  0.2677
  150MPD2    H2 2291   1.362   1.803  11.684 -0.5396  0.5131  1.5731
  150MPD2    H3 2292   1.530   1.786  11.841 -2.1119 -0.7504 -0.8062
  150MPD2     N 2293   1.708   2.192  11.707  0.2940  0.6900 -0.1226
  150MPD2    H5 2294   1.677   2.263  11.641  0.6406 -0.5703 -1.6515
  150MPD2    N1 2295   1.340   1.969  11.492  0.7942  0.6520 -0.0261
  150MPD2    H7 2296   1.281   1.887  11.494 -0.4558  1.5275 -0.6789
  151TCq2    C1 2297   1.830   2.194  11.766 -1.0302 -0.3156  0.7220
  151TCq2    O2 2298   1.891   2.103  11.817 -0.0464  0.3943 -0.4791
  151TCq2    C2 2299   1.882   2.327  11.770 -0.3470  0.7630 -0.0932
  151TCq2    C3 2300   1.799   2.430  11.720 -0.2002 -0.0209 -0.1041
  151TCq2    C4 2301   1.814   2.551  11.786  0.3484 -0.0328  0.5301
  151TCq2    C5 2302   1.917   2.574  11.868  0.7582 -0.7737  0.1326
  151TCq2    C6 2303   1.989   2.470  11.917  0.5907 -0.2853 -0.4848
  151TCq2    C7 2304   1.980   2.343  11.864  0.6990 -0.2481 -0.0952
  151TCq2    C8 2305   2.092   2.499  12.022 -0.4039 -0.2655 -0.4478
  151TCq2    O4 2306   2.154   2.602  12.003  0.0371  0.3114  0.2221
  151TCq2    C9 2307   1.729   2.665  11.766  0.3069 -0.2523 -0.3029
  151TCq2    O5 2308   1.768   2.778  11.813  0.4150 -0.5009  0.3349
  151TCq2    O6 2309   1.642   2.652  11.672 -0.8669 -0.5299  0.0506
  151TCq2    H2 2310   1.718   2.423  11.648 -0.9779 -2.0332  0.9835
  151TCq2    H3 2311   1.926   2.668  11.921 -0.0245 -1.5033  1.5645
  151TCq2    H4 2312   2.038   2.262  11.905  1.3112 -0.0503 -0.5583
  152MPD2     C 2313   1.212   2.112  11.909 -0.1008 -0.5609 -1.1380
  152MPD2    C1 2314   1.233   2.249  11.905  0.7012 -0.6533  0.0571
  152MPD2    C2 2315   1.132   2.327  11.862 -0.3756 -0.2696 -0.0658
  152MPD2    C3 2316   1.007   2.276  11.828 -0.7325  0.4880  0.0856
  152MPD2    C4 2317   0.995   2.137  11.830 -0.1986 -0.4156 -0.6335
  152MPD2    C5 2318   1.096   2.056  11.864  0.4747 -0.4776 -0.0851
  152MPD2     H 2319   1.143   2.435  11.873  1.7069 -0.3292 -1.6838
  152MPD2    H1 2320   0.902   2.094  11.795 -0.9768 -0.2056  1.1628
  152MPD2    H2 2321   1.287   2.054  11.962 -0.1217  0.1621 -0.3066
  152MPD2    H3 2322   1.077   1.950  11.874 -1.8175 -0.0595 -0.0750
  152MPD2     N 2323   0.906   2.368  11.791 -0.0385  0.5638 -0.5820
  152MPD2    H5 2324   0.923   2.468  11.796  1.2648  0.1536  2.9695
  152MPD2    N1 2325   1.355   2.296  11.957  0.0337  0.1805 -0.7023
  152MPD2    H7 2326   1.414   2.226  12.001 -0.9354  0.0205  0.3320
  153TCq2    C1 2327   1.402   2.421  11.962 -0.4718 -0.5367  0.1015
  153TCq2    O2 2328   1.347   2.528  11.934 -0.1934  0.1303 -0.4985
  153TCq2    C2 2329   1.537   2.427  12.014  0.6907 -0.2641 -0.4280
  153TCq2    C3 2330   1.611   2.308  12.018  0.1546 -0.0871  0.3827
  153TCq2    C4 2331   1.720   2.309  12.093  0.3930  0.0256 -0.1071
  153TCq2    C5 2332   1.762   2.419  12.157 -0.0194  0.2363  0.0786
  153TCq2    C6 2333   1.693   2.539  12.136  0.4089  0.8073 -0.6748
  153TCq2    C7 2334   1.574   2.543  12.066 -0.7877 -0.6122 -0.1726
  153TCq2    C8 2335   1.749   2.676  12.159  0.3374 -0.0956  0.6005
  153TCq2    O4 2336   1.713   2.773  12.097 -0.1741  0.2541  0.3331
  153TCq2    C9 2337   1.790   2.184  12.108 -0.1432  0.3091 -0.3336
  153TCq2    O5 2338   1.911   2.196  12.143  0.1734 -0.2523  0.5134
  153TCq2    O6 2339   1.722   2.080  12.097 -0.4303 -0.3269 -0.0631
  153TCq2    H2 2340   1.581   2.224  11.957  0.3849 -1.3228  1.9794
  153TCq2    H3 2341   1.853   2.419  12.216 -1.1118 -3.4086  1.7629
  153TCq2    H4 2342   1.531   2.640  12.045 -1.4122 -1.4548 -2.7360
  154MPD2     C 2343   3.157   2.682   0.247 -0.1114 -0.0539  1.0973
  154MPD2    C1 2344   3.153   2.815   0.283 -0.3724 -0.1363  0.4421
  154MPD2    C2 2345   3.030   2.883   0.282 -0.8646 -0.4676 -0.2771
  154MPD2    C3 2346   2.912   2.818   0.251 -0.2837 -0.1609  0.4143
  154MPD2    C4 2347   2.918   2.679   0.226 -0.0606 -0.2803  0.0493
  154MPD2    C5 2348   3.040   2.619   0.226 -0.1768  0.0249 -0.0725
  154MPD2     H 2349   3.022   2.990   0.301  0.0985 -0.0563 -2.1757
  154MPD2    H1 2350   2.836   2.619   0.190 -2.4472  2.6638  0.6074
  154MPD2    H2 2351   3.252   2.633   0.227 -0.5725  0.2628 -1.7766
  154MPD2    H3 2352   3.050   2.517   0.191 -0.1582 -0.5462  1.5983
  154MPD2     N 2353   2.801   2.897   0.223 -0.6205  0.0518  0.2779
  154MPD2    H5 2354   2.803   2.998   0.228  0.5069  0.1645 -2.1147
  154MPD2    N1 2355   3.279   2.884   0.309 -0.7456 -0.1636  0.7783
  154MPD2    H7 2356   3.359   2.823   0.320  0.3644  1.1923  0.2441
  155TCq2    C1 2357   3.288   3.016   0.338 -0.4088 -0.8163  0.2625
  155TCq2    O2 2358   3.205   3.103   0.307 -0.1384  0.0223 -0.1785
  155TCq2    C2 2359   3.425   3.051   0.354  0.4940  0.0798 -0.4974
  155TCq2    C3 2360   3.517   2.967   0.407 -0.1747 -0.0487  0.6044
  155TCq2    C4 2361   3.648   2.994   0.392 -0.1854  1.0603  0.5165
  155TCq2    C5 2362   3.689   3.123   0.380 -0.1824 -0.2991 -0.3865
  155TCq2    C6 2363   3.594   3.213   0.334 -0.6014 -0.4373  0.6085
  155TCq2    C7 2364   3.463   3.179   0.317  1.0371  0.3740 -0.0184
  155TCq2    C8 2365   3.636   3.353   0.306  0.5064 -0.0008 -0.1805
  155TCq2    O4 2366   3.745   3.374   0.354 -0.7419 -0.0660  0.4105
  155TCq2    C9 2367   3.743   2.893   0.430 -0.3321  0.5576 -0.2576
  155TCq2    O5 2368   3.858   2.943   0.460 -0.0431 -0.1627 -0.0017
  155TCq2    O6 2369   3.710   2.773   0.436  0.2756  0.3191 -0.1220
  155TCq2    H2 2370   3.491   2.869   0.446 -0.0736  0.0097  0.8166
  155TCq2    H3 2371   3.796   3.142   0.375  0.0471 -1.1473  1.4369
  155TCq2    H4 2372   3.400   3.251   0.267 -0.1235 -0.0149  0.9074
  156MPD2     C 2373   1.901   4.244  12.003  0.0583 -0.0556  0.1450
  156MPD2    C1 2374   1.839   4.357  11.970  0.5023  0.0270  0.0119
  156MPD2    C2 2375   1.713   4.384  12.035  0.6730 -0.2344 -0.0960
  156MPD2    C3 2376   1.662   4.291  12.127  0.3766  0.1115  0.1187
  156MPD2    C4 2377   1.729   4.171  12.157 -0.1603 -0.3794 -0.0996
  156MPD2    C5 2378   1.847   4.158  12.101 -0.9379  0.2470  0.4214
  156MPD2     H 2379   1.655   4.469  12.001  1.3719  0.7597  1.1918
  156MPD2    H1 2380   1.686   4.086  12.209 -0.8400 -0.2222 -0.4090
  156MPD2    H2 2381   1.988   4.217  11.944 -1.2002 -0.9238 -1.3328
  156MPD2    H3 2382   1.894   4.062  12.124  1.6634  1.2243 -0.7609
  156MPD2     N 2383   1.534   4.324  12.174  0.5925 -0.4970 -0.0610
  156MPD2    H5 2384   1.500   4.418  12.153  2.1735  0.3656  1.2766
  156MPD2    N1 2385   1.886   4.430  11.858 -0.2484  0.0955 -0.3907
  156MPD2    H7 2386   1.948   4.379  11.796 -0.0074 -1.2951  0.9930
  157TCq2    C1 2387   1.837   4.555  11.824  0.1407  0.0053  0.5619
  157TCq2    O2 2388   1.775   4.642  11.887  0.3669 -0.1771  0.6096
  157TCq2    C2 2389   1.826   4.577  11.677  0.2941 -0.2670 -0.9721
  157TCq2    C3 2390   1.902   4.497  11.589 -0.2400  0.4522 -0.0630
  157TCq2    C4 2391   1.883   4.508  11.454  0.0188 -0.1462 -0.2614
  157TCq2    C5 2392   1.784   4.592  11.408  0.0080 -0.2683  0.4532
  157TCq2    C6 2393   1.710   4.663  11.498  0.7361  0.5166 -0.7418
  157TCq2    C7 2394   1.724   4.659  11.632 -0.2149  0.6545  0.9270
  157TCq2    C8 2395   1.624   0.042  11.450 -0.2661 -0.1000  0.1919
  157TCq2    O4 2396   1.664   0.102  11.349 -0.0343  0.1974 -0.3402
  157TCq2    C9 2397   1.980   4.445  11.361  0.2288 -0.2819  0.0999
  157TCq2    O5 2398   1.932   4.401  11.255 -0.0796 -0.5705 -0.5687
  157TCq2    O6 2399   2.103   4.442  11.404 -0.0514 -0.4315 -0.3687
  157TCq2    H2 2400   1.986   4.434  11.617 -0.7703 -0.3693 -0.3120
  157TCq2    H3 2401   1.770   4.605  11.301 -0.7185 -2.1782  0.3278
  157TCq2    H4 2402   1.670   4.718  11.705 -4.1602 -0.5289 -1.0431
  158TMC2    C1 2403   1.937   3.228  13.058 -0.1274  0.0462 -0.1135
  158TMC2    C2 2404   1.982   3.281  12.939 -0.2913 -0.4883  0.0547
  158TMC2    C3 2405   1.902   3.373  12.876 -0.3137 -0.9415  0.9449
  158TMC2    C4 2406   1.814   3.256  13.107 -0.3114 -0.1608  0.7152
  158TMC2    C5 2407   1.736   3.348  13.034  0.1688  0.2947 -0.2269
  158TMC2    C6 2408   1.774   3.402  12.915  0.4694 -0.0039 -0.6231
  158TMC2     C 2409   2.040   3.159  13.138 -0.0308 -0.2216  0.1907
  158TMC2     O 2410   2.152   3.171  13.094 -0.6961 -0.0878  0.2031
  158TMC2     H 2411   2.080   3.252  12.903 -1.2725 -3.2575 -0.3727
  158TMC2    H1 2412   1.787   3.216  13.204  0.8487 -1.6728  0.4026
  158TMC2    H2 2413   1.701   3.446  12.848 -0.3705 -1.3815 -0.6101
  158TMC2    C7 2414   1.593   3.368  13.062 -0.6307  0.6727 -0.3438
  158TMC2    C8 2415   1.932   3.402  12.731 -0.5466 -0.1947  0.2903
  158TMC2    O1 2416   1.543   3.473  13.022  0.2495  0.0384  0.7724
  158TMC2    O2 2417   1.841   3.423  12.652  0.4057  0.3396 -0.5968
  158TMC2    O5 2418   2.066   3.422  12.717 -0.0973  0.4338 -0.7605
  158TMC2    H5 2419   2.114   3.431  12.802 -3.4322  1.2377  1.0816
  159MPD2     C 2420   2.178   2.767  13.434 -0.2972 -1.1547 -0.6478
  159MPD2    C1 2421   2.065   2.819  13.492  0.5257 -0.3723 -0.3245
  159MPD2    C2 2422   2.001   2.919  13.427 -0.5558 -0.0280  0.5520
  159MPD2    C3 2423   2.056   2.979  13.317 -0.1722  0.0701 -0.2809
  159MPD2    C4 2424   2.176   2.933  13.269 -0.3543 -0.3941 -0.0840
  159MPD2    C5 2425   2.228   2.820  13.322  0.7949  0.3369 -0.3342
  159MPD2     H 2426   1.910   2.957  13.473 -0.8081  1.4602 -1.1820
  159MPD2    H1 2427   2.235   2.975  13.188 -0.6995 -0.2357 -0.2539
  159MPD2    H2 2428   2.235   2.688  13.481  0.0768 -1.5892 -1.8368
  159MPD2    H3 2429   2.325   2.787  13.287 -0.3586  0.2452 -3.3954
  159MPD2     N 2430   1.991   3.085  13.246 -0.0833 -0.3321 -0.2611
  159MPD2    H5 2431   1.896   3.099  13.277 -0.3328 -0.5199 -0.9282
  159MPD2    N1 2432   2.021   2.767  13.617 -0.5671  0.3848 -0.4356
  159MPD2    H7 2433   2.087   2.712  13.670 -0.0199 -0.1762 -1.6962
  160TMC2    C1 2434   2.439   2.466   1.907 -0.0965 -0.1080  0.0640
  160TMC2    C2 2435   2.535   2.414   1.990  0.2084  0.1453 -0.0497
  160TMC2    C3 2436   2.500   2.299   2.047  0.0888 -0.2278  0.1388
  160TMC2    C4 2437   2.319   2.404   1.884 -0.7911  1.1056  1.0280
  160TMC2    C5 2438   2.288   2.288   1.949  0.0643 -0.3135  0.8499
  160TMC2    C6 2439   2.383   2.231   2.034  0.1219  0.3651 -0.1650
  160TMC2     C 2440   2.460   2.603   1.851  0.0061  0.0307  0.6356
  160TMC2     O 2441   2.564   2.653   1.886 -0.3824  0.1108 -0.2298
  160TMC2     H 2442   2.635   2.453   2.004  0.9443 -1.3631 -1.0405
  160TMC2    H1 2443   2.229   2.456   1.853 -1.3413 -0.1896  0.4163
  160TMC2    H2 2444   2.368   2.141   2.092  1.2511 -0.3893 -1.0603
  160TMC2    C7 2445   2.172   2.200   1.921 -0.3338 -0.0929  0.1333
  160TMC2    C8 2446   2.574   2.266   2.165  0.6372 -0.6805  0.4661
  160TMC2    O1 2447   2.159   2.110   2.000 -0.2439 -0.2571  0.4698
  160TMC2    O2 2448   2.583   2.160   2.232  0.1464 -0.5342  0.0656
  160TMC2    O5 2449   2.601   2.386   2.211  0.3175  0.4174  0.3015
  160TMC2    H5 2450   2.553   2.454   2.161  0.4609 -1.9435 -3.0659
  161MPD2     C 2451   2.433   2.884   1.715 -0.2722 -0.1401  0.0446
  161MPD2    C1 2452   2.347   2.776   1.703  0.1538  0.3188 -0.2621
  161MPD2    C2 2453   2.238   2.790   1.618  0.3148 -0.4906  0.2434
  161MPD2    C3 2454   2.212   2.909   1.542  0.4349  0.1590  0.1913
  161MPD2    C4 2455   2.308   3.012   1.559 -0.0462  0.1960 -0.3617
  161MPD2    C5 2456   2.418   2.996   1.636  0.1985 -0.6512 -0.3611
  161MPD2     H 2457   2.177   2.701   1.606 -1.9659  0.8899  1.7561
  161MPD2    H1 2458   2.292   3.105   1.506  0.3283  0.2823 -0.3192
  161MPD2    H2 2459   2.521   2.883   1.778 -0.2225  0.9958 -0.0074
  161MPD2    H3 2460   2.497   3.070   1.639  0.7401 -1.3002  2.0680
  161MPD2     N 2461   2.103   2.933   1.458 -0.4205  0.1395 -0.1263
  161MPD2    H5 2462   2.098   3.019   1.403 -1.1119  0.7644  0.9141
  161MPD2    N1 2463   2.359   2.649   1.769 -0.1939 -0.1849 -0.1775
  161MPD2    H7 2464   2.287   2.581   1.744 -2.2991  1.2886  1.7996
  162TMC2    C1 2465   0.126   4.495   0.140  1.2015 -0.6752  0.5731
  162TMC2    C2 2466   0.155   4.590   0.050  0.0723  0.6833 -0.4247
  162TMC2    C3 2467   0.085   4.708   0.063 -0.2415 -0.0219  0.5504
  162TMC2    C4 2468   0.021   4.502   0.230  0.1986 -0.1708  0.7179
  162TMC2    C5 2469   4.669   4.613   0.227 -0.6505  0.3754  0.1284
  162TMC2    C6 2470   4.701   4.718   0.145  0.5574  0.2772 -0.2432
  162TMC2     C 2471   0.208   4.385   0.150 -0.2213 -0.6745 -0.0416
  162TMC2     O 2472   0.150   4.290   0.199 -0.0014  0.8118 -0.3480
  162TMC2     H 2473   0.230   4.580  17.652  0.6257  0.1005  0.1739
  162TMC2    H1 2474   0.006   4.423   0.303 -0.8207  0.2432  0.9501
  162TMC2    H2 2475   4.635   0.084   0.154  1.4751  0.8571  1.0001
  162TMC2    C7 2476   4.556   4.628   0.316 -0.1521 -0.1964 -0.1570
  162TMC2    C8 2477   0.098   0.082  17.636 -0.0343  0.2763  0.3758
  162TMC2    O1 2478   4.508   0.016   0.347 -0.5344 -0.1725  0.3494
  162TMC2    O2 2479   0.142   0.043  17.528  0.5818  0.2450 -0.2203
  162TMC2    O5 2480   0.104   0.204   0.007 -0.2058 -0.5925  0.7694
  162TMC2    H5 2481   0.049   0.215   0.087  2.4554 -0.1373  2.5189
  163MPD2     C 2482   0.580   4.068   0.042 -0.1523  0.0302 -0.3038
  163MPD2    C1 2483   0.452   4.045   0.084 -0.2158  0.6915  1.1442
  163MPD2    C2 2484   0.361   4.150   0.075  0.0369  0.3339  0.5945
  163MPD2    C3 2485   0.409   4.275   0.057  0.4175 -0.6737  0.7421
  163MPD2    C4 2486   0.538   4.300   0.015 -0.4449  0.2727  0.0464
  163MPD2    C5 2487   0.622   4.197   0.014  0.4302  0.0034 -0.5906
  163MPD2     H 2488   0.255   4.127   0.076 -0.1887  1.3756 -0.5648
  163MPD2    H1 2489   0.587   4.396   0.001  1.7381 -0.9102 -0.4040
  163MPD2    H2 2490   0.647   3.984   0.032 -0.2325 -0.2017  1.0695
  163MPD2    H3 2491   0.728   4.218   0.002  0.3629  0.7891  0.2244
  163MPD2     N 2492   0.323   4.385   0.076 -0.0698 -0.5571  0.0937
  163MPD2    H5 2493   0.364   4.472   0.045 -0.2515 -0.4311  0.2161
  163MPD2    N1 2494   0.420   3.909   0.127  0.5507 -0.0229  0.8197
  163MPD2    H7 2495   0.486   3.832   0.130 -1.3299 -1.6398 -0.0761
  164TCq2    C1 2496   0.223   3.191  10.510 -0.4095  0.1846 -0.3784
  164TCq2    O2 2497   0.151   3.092  10.530 -0.2843 -0.0569  0.3296
  164TCq2    C2 2498   0.174   3.327  10.544 -0.0482  0.1255  0.1849
  164TCq2    C3 2499   0.254   3.442  10.533 -0.5916  0.2425  0.2807
  164TCq2    C4 2500   0.211   3.557  10.586  0.2672 -0.4575 -0.5562
  164TCq2    C5 2501   0.094   3.552  10.658 -0.3481 -0.2812  0.8162
  164TCq2    C6 2502   0.012   3.444  10.658 -0.8896  0.3729  0.0799
  164TCq2    C7 2503   0.050   3.329  10.598  0.0994 -0.1402  0.4726
  164TCq2    C8 2504   4.613   3.447  10.745  0.2744 -0.3321  0.1552
  164TCq2    O4 2505   4.506   3.397  10.708  0.2857  0.1473  0.0271
  164TCq2    C9 2506   0.299   3.671  10.592  0.0602  0.3548  0.9126
  164TCq2    O5 2507   0.246   3.780  10.621  0.5507  0.5064  0.6078
  164TCq2    O6 2508   0.422   3.653  10.579 -0.0718 -0.0023  0.1558
  164TCq2    H2 2509   0.355   3.446  10.494 -0.9959 -0.8182 -0.8916
  164TCq2    H3 2510   0.070   3.645  10.707 -0.4672  0.0387  0.1618
  164TCq2    H4 2511   4.715   3.236  10.602 -0.5105  0.1806 -0.4152
  165MPD2     C 2512   0.263   0.199   1.838 -0.9446  0.1706 -0.1465
  165MPD2    C1 2513   0.371   0.173   1.918  0.5001  0.0032 -1.5031
  165MPD2    C2 2514   0.422   0.270   2.001 -0.1676  0.2965 -0.0058
  165MPD2    C3 2515   0.371   0.398   2.001  0.1312  0.1441 -0.0436
  165MPD2    C4 2516   0.263   0.417   1.918  0.0312 -0.2791 -0.5089
  165MPD2    C5 2517   0.207   0.323   1.839  0.3482 -0.3055 -0.1412
  165MPD2     H 2518   0.503   0.242   2.067  0.2373 -1.7209 -1.3591
  165MPD2    H1 2519   0.222   0.518   1.914 -1.0694 -0.6191  1.7894
  165MPD2    H2 2520   0.227   0.123   1.770 -2.0776 -0.0527  0.6982
  165MPD2    H3 2521   0.131   0.353   1.769 -0.8728  0.3814  1.4738
  165MPD2     N 2522   0.405   0.512   2.079 -0.0522 -0.0224 -0.6346
  165MPD2    H5 2523   0.346   0.593   2.062  0.5527  0.6500  0.4972
  165MPD2    N1 2524   0.431   0.045   1.911  0.3735 -0.2919  0.0738
  165MPD2    H7 2525   0.401   4.698   1.840 -0.6064 -0.5571  0.7265
  166TCq2    C1 2526   0.527   0.539   2.137 -0.2466  0.6870 -1.1381
  166TCq2    O2 2527   0.634   0.477   2.134  0.2051  0.0343 -0.0471
  166TCq2    C2 2528   0.524   0.666   2.188 -0.2907  0.0891  0.3017
  166TCq2    C3 2529   0.408   0.706   2.237  0.0140  0.2141  0.1869
  166TCq2    C4 2530   0.410   0.822   2.318  0.0406 -0.4076 -0.1325
  166TCq2    C5 2531   0.531   0.886   2.351  0.7193  0.9232 -0.6920
  166TCq2    C6 2532   0.646   0.836   2.297  0.1151 -0.1452  0.6498
  166TCq2    C7 2533   0.641   0.723   2.218  0.2217  0.3419  0.4278
  166TCq2    C8 2534   0.770   0.914   2.283  0.0089  0.1622  0.1246
  166TCq2    O4 2535   0.849   0.869   2.201  0.3312  0.5339 -0.0629
  166TCq2    C9 2536   0.282   0.860   2.380  0.3467 -0.8126  0.2098
  166TCq2    O5 2537   0.179   0.795   2.348  0.3413 -0.1272 -0.4874
  166TCq2    O6 2538   0.275   0.960   2.456 -0.1072 -0.1290 -0.0978
  166TCq2    H2 2539   0.313   0.654   2.223 -0.3731  1.3734 -1.5647
  166TCq2    H3 2540   0.529   0.972   2.417 -2.8291  1.6515 -1.7494
  166TCq2    H4 2541   0.730   0.678   2.175 -0.3698  1.2065 -1.6537
  167TMC2    C1 2542   3.984   2.814  12.739  0.1911 -0.1316  0.5452
  167TMC2    C2 2543   3.924   2.882  12.841  0.3349  0.2495 -0.5322
  167TMC2    C3 2544   3.895   2.810  12.952 -0.2870 -0.3809  0.7123
  167TMC2    C4 2545   4.024   2.683  12.742  0.0567  0.7496 -0.3951
  167TMC2    C5 2546   3.983   2.615  12.857 -0.2765  0.1240 -0.2366
  167TMC2    C6 2547   3.907   2.675  12.959  0.3383 -0.1886  0.0975
  167TMC2     C 2548   4.020   2.889  12.619 -0.2544 -0.0637 -0.7316
  167TMC2     O 2549   4.077   2.826  12.529  0.1171  0.0296 -0.4144
  167TMC2     H 2550   3.921   2.991  12.838 -0.4551  0.2420  0.0539
  167TMC2    H1 2551   4.060   2.636  12.651  2.2244  1.0757  0.3001
  167TMC2    H2 2552   3.872   2.615  13.041  1.1033  0.3205  0.7992
  167TMC2    C7 2553   3.963   2.469  12.844 -0.1530 -0.1115  0.8049
  167TMC2    C8 2554   3.882   2.871  13.086 -0.3259 -0.1367 -0.7695
  167TMC2    O1 2555   3.844   2.426  12.844 -0.0765 -0.1760 -0.0224
  167TMC2    O2 2556   3.973   2.853  13.165 -0.0128  0.0298 -0.5760
  167TMC2    O5 2557   3.827   2.993  13.057  0.0729 -0.2884  0.1648
  167TMC2    H5 2558   3.757   2.985  12.990 -0.0998  0.7775  0.2321
  168MPD2     C 2559   3.907   3.229  12.489 -0.6649 -0.8523 -0.5000
  168MPD2    C1 2560   3.974   3.109  12.496 -0.3068  0.2652 -0.2950
  168MPD2    C2 2561   4.059   3.081  12.391  0.1032 -0.7055 -0.4357
  168MPD2    C3 2562   4.049   3.147  12.273 -0.2940  0.3462 -0.4280
  168MPD2    C4 2563   3.971   3.267  12.262  0.5132  0.4187 -0.5688
  168MPD2    C5 2564   3.905   3.303  12.378 -0.0885 -0.2453 -0.0418
  168MPD2     H 2565   4.131   3.001  12.391  2.0716  1.0476  2.4835
  168MPD2    H1 2566   3.964   3.322  12.168 -0.3676 -2.2496 -2.0608
  168MPD2    H2 2567   3.836   3.264  12.563 -0.3415 -2.8401  0.7481
  168MPD2    H3 2568   3.835   3.386  12.370 -1.7075 -1.4360  1.8271
  168MPD2     N 2569   4.118   3.092  12.167  0.1678 -0.6923  0.0139
  168MPD2    H5 2570   4.184   3.021  12.199  0.7475 -0.3102 -0.3311
  168MPD2    N1 2571   3.970   3.022  12.607 -0.0648 -0.1696  0.3129
  168MPD2    H7 2572   3.918   3.061  12.685  0.3878  1.5204 -0.2309
  169MPD1     C 2573   2.356   2.480   8.301  0.9134  0.3608  0.3156
  169MPD1    C1 2574   2.420   2.524   8.419 -0.0038  0.2076 -0.2844
  169MPD1    C2 2575   2.408   2.446   8.530  0.7011  0.3494 -0.6212
  169MPD1    C3 2576   2.326   2.333   8.538 -1.1095 -0.0599  0.4403
  169MPD1    C4 2577   2.267   2.289   8.418 -0.0227 -0.3333  0.3111
  169MPD1    C5 2578   2.282   2.366   8.309 -0.0597 -0.2237  0.5369
  169MPD1     H 2579   2.455   2.484   8.620  0.9172 -0.3828 -0.4236
  169MPD1    H1 2580   2.195   2.209   8.409  1.9655 -2.0176 -0.4997
  169MPD1    H2 2581   2.350   2.544   8.214 -3.2441 -0.7599 -0.2278
  169MPD1    H3 2582   2.226   2.339   8.220 -0.2505  1.9997 -0.0329
  169MPD1     N 2583   2.315   2.270   8.662  0.3295 -0.2217 -0.0105
  169MPD1    H5 2584   2.366   2.315   8.737  1.4714 -0.7791 -0.4466
  169MPD1    N1 2585   2.475   2.654   8.429  0.0691  0.1199  0.0465
  169MPD1    H6 2586   2.537   2.667   8.509  0.5401 -0.3882 -0.2353
  169MPD1    H7 2587   2.523   2.684   8.345  1.3200 -1.4780  0.1912
  170MPD1     C 2588   4.574   0.189  13.246  0.0071  0.4300 -0.0196
  170MPD1    C1 2589   4.700   0.130  13.269 -0.0769  1.0608  0.0383
  170MPD1    C2 2590   0.036   0.166  13.392  0.0498 -0.3234  0.1353
  170MPD1    C3 2591   4.686   0.243  13.493 -0.5346  0.0408 -0.1351
  170MPD1    C4 2592   4.565   0.300  13.457  0.3775 -0.3534  0.3047
  170MPD1    C5 2593   4.498   0.262  13.342 -0.1912 -0.3052 -0.0803
  170MPD1     H 2594   0.135   0.127  13.414 -1.8306 -4.4848  1.2996
  170MPD1    H1 2595   4.504   0.359  13.524  0.0877 -1.4585  1.0083
  170MPD1    H2 2596   4.529   0.177  13.148  0.0551 -2.5250  0.3222
  170MPD1    H3 2597   4.396   0.295  13.327 -0.3403 -1.0035 -0.5509
  170MPD1     N 2598   0.042   0.273  13.604 -0.0383  0.9096 -0.0563
  170MPD1    H5 2599   0.131   0.224  13.612 -0.0684  1.0829  1.3640
  170MPD1    N1 2600   0.051   0.078  13.161 -0.1510 -0.2962  0.7389
  170MPD1    H6 2601   4.717   0.036  13.085 -1.6249  0.7289  1.2040
  170MPD1    H7 2602   0.124   0.012  13.187  0.1210 -0.2862  0.0100
  171MPD1     C 2603   3.821   1.521  15.272 -0.0166 -0.2987 -0.2727
  171MPD1    C1 2604   3.748   1.554  15.385 -0.4223 -0.1671 -0.2458
  171MPD1    C2 2605   3.800   1.513  15.505 -0.3181  0.3791  0.4614
  171MPD1    C3 2606   3.926   1.458  15.517 -0.3459 -0.7490  0.3571
  171MPD1    C4 2607   4.003   1.440  15.408 -0.4824  0.4071  0.3899
  171MPD1    C5 2608   3.953   1.478  15.287 -0.2720 -0.2467 -0.0762
  171MPD1     H 2609   3.747   1.544  15.595 -1.0980 -1.0660  0.5005
  171MPD1    H1 2610   4.105   1.404  15.408  0.5534  3.4247  2.7059
  171MPD1    H2 2611   3.780   1.549  15.176 -1.8231 -0.7621  0.3747
  171MPD1    H3 2612   4.018   1.463  15.202 -0.2545  0.8515 -0.2556
  171MPD1     N 2613   3.982   1.414  15.637  0.0256  0.1577 -0.1530
  171MPD1    H5 2614   4.073   1.370  15.637 -0.9219 -1.8234  1.9037
  171MPD1    N1 2615   3.633   1.638  15.380  0.0543 -0.1120 -0.2677
  171MPD1    H6 2616   3.558   1.623  15.447  1.5726 -2.6731  0.8526
  171MPD1    H7 2617   3.602   1.645  15.284 -1.0457  0.0045  0.0913
  172MPD1     C 2618   3.296   2.306   1.932  0.4974  0.5889  0.2147
  172MPD1    C1 2619   3.248   2.187   1.896 -0.1873  0.5747 -0.5758
  172MPD1    C2 2620   3.226   2.155   1.763  0.8991  0.3807  0.3699
  172MPD1    C3 2621   3.255   2.243   1.659 -0.0450 -0.4512  0.0124
  172MPD1    C4 2622   3.285   2.368   1.696 -0.0648 -0.3699 -0.4487
  172MPD1    C5 2623   3.314   2.393   1.828 -0.7509  0.5639 -0.1635
  172MPD1     H 2624   3.183   2.059   1.736  0.2589  0.9075 -0.4784
  172MPD1    H1 2625   3.296   2.446   1.622 -0.1633 -0.9108 -1.0297
  172MPD1    H2 2626   3.323   2.323   2.036 -1.3413  1.4311  0.5476
  172MPD1    H3 2627   3.349   2.492   1.854 -1.3913  0.3369  1.6047
  172MPD1     N 2628   3.242   2.219   1.517  0.5323 -0.0634  0.0397
  172MPD1    H5 2629   3.247   2.295   1.451 -2.7895 -0.2187 -0.3798
  172MPD1    N1 2630   3.212   2.095   1.997 -0.1075 -0.0619  0.4270
  172MPD1    H6 2631   3.122   2.052   1.981 -1.4074  1.5776  3.3257
  172MPD1    H7 2632   3.230   2.129   2.091 -0.9967 -0.8048  0.8663
  173MPD1     C 2633   0.516   1.309  14.299 -0.1485  0.2847  0.2047
  173MPD1    C1 2634   0.577   1.260  14.415 -0.1427 -0.3795 -0.1101
  173MPD1    C2 2635   0.500   1.183  14.502  0.4116  0.0122 -0.1124
  173MPD1    C3 2636   0.364   1.178  14.486  0.6626 -0.2602 -0.7181
  173MPD1    C4 2637   0.301   1.251  14.388  0.3732 -0.0846  0.0730
  173MPD1    C5 2638   0.377   1.304  14.290  0.1565 -0.1903 -0.3133
  173MPD1     H 2639   0.537   1.120  14.581 -6.7020 -3.4602  0.4640
  173MPD1    H1 2640   0.193   1.259  14.374  0.2921 -1.7971 -0.2588
  173MPD1    H2 2641   0.567   1.359  14.218  1.3018  0.0691  0.9864
  173MPD1    H3 2642   0.326   1.358  14.212 -0.6639 -0.9797 -0.3390
  173MPD1     N 2643   0.298   1.088  14.569 -0.2077  0.0460 -0.4435
  173MPD1    H5 2644   0.362   1.021  14.612 -0.6743 -0.0296  0.1306
  173MPD1    N1 2645   0.711   1.257  14.424 -0.5057 -0.1408 -0.3865
  173MPD1    H6 2646   0.749   1.336  14.372  1.4357 -1.3703 -0.8460
  173MPD1    H7 2647   0.747   1.256  14.519  1.5330 -0.3511 -1.1520
  174MPD1     C 2648   0.525   0.305  14.677 -0.4596  0.3773 -0.3058
  174MPD1    C1 2649   0.403   0.291  14.720  0.9265  0.1895  0.9638
  174MPD1    C2 2650   0.320   0.398  14.712  0.3621  0.2056  0.5267
  174MPD1    C3 2651   0.367   0.521  14.672 -0.0560 -0.0289  0.5649
  174MPD1    C4 2652   0.493   0.531  14.620  0.0867  0.4056  0.1871
  174MPD1    C5 2653   0.573   0.415  14.626 -0.1406 -0.2318  0.8500
  174MPD1     H 2654   0.218   0.375  14.742 -0.6219  0.0999 -2.8088
  174MPD1    H1 2655   0.529   0.621  14.573 -1.2887 -0.8372 -3.1899
  174MPD1    H2 2656   0.581   0.213  14.664 -0.1978  0.1492  2.3527
  174MPD1    H3 2657   0.668   0.408  14.574 -0.0860 -0.3474  0.9664
  174MPD1     N 2658   0.278   0.623  14.662 -0.4417 -0.5866  0.5295
  174MPD1    H5 2659   0.317   0.711  14.631  2.9085 -2.1723  0.1709
  174MPD1    N1 2660   0.338   0.170  14.732 -0.1023  0.3161  0.2330
  174MPD1    H6 2661   0.407   0.102  14.764  1.8975  2.6245  0.8623
  174MPD1    H7 2662   0.267   0.181  14.804  1.6816  0.7574  1.9504
  175MPD1     C 2663   2.958   1.815  15.848  0.7331  0.1036 -0.1012
  175MPD1    C1 2664   2.838   1.881  15.878  0.6402  0.4440  0.2716
  175MPD1    C2 2665   2.785   1.871  16.007 -0.1207  0.0015  0.2570
  175MPD1    C3 2666   2.860   1.809  16.105 -0.8952  0.4026  0.4933
  175MPD1    C4 2667   2.978   1.754  16.078 -0.4441 -0.0372 -0.0339
  175MPD1    C5 2668   3.028   1.760  15.952 -0.0905  0.3877  0.3210
  175MPD1     H 2669   2.702   1.933  16.039 -0.9227 -1.0511  0.2279
  175MPD1    H1 2670   3.035   1.708  16.158 -2.1092 -0.5186  0.8781
  175MPD1    H2 2671   3.011   1.823  15.754 -0.3142  0.4464 -0.6651
  175MPD1    H3 2672   3.120   1.703  15.944 -0.7917 -0.9485  1.6717
  175MPD1     N 2673   2.823   1.809  16.242  0.5194  0.3135 -0.8509
  175MPD1    H5 2674   2.892   1.780  16.311 -0.7307 -0.9390 -0.1327
  175MPD1    N1 2675   2.781   1.966  15.779 -0.4256  0.0997  0.3043
  175MPD1    H6 2676   2.686   1.999  15.795 -0.8123 -0.4547 -0.8408
  175MPD1    H7 2677   2.790   1.916  15.690  1.9363 -1.0597  1.1748
  176MPD1     C 2678   3.995   3.876   0.768  0.2634  0.0699  0.6302
  176MPD1    C1 2679   3.973   4.002   0.807 -0.2846  0.7289  0.1332
  176MPD1    C2 2680   3.988   4.111   0.714  0.3834  0.3564  0.3368
  176MPD1    C3 2681   4.038   4.092   0.586 -0.3945 -0.0558  0.3043
  176MPD1    C4 2682   4.081   3.968   0.553  0.0221  0.2694 -0.2825
  176MPD1    C5 2683   4.055   3.864   0.647 -0.0355 -0.2114 -0.0236
  176MPD1     H 2684   3.950   4.209   0.740  1.3064  1.1773 -1.4046
  176MPD1    H1 2685   4.112   3.944   0.452  2.9191 -1.5339  1.0511
  176MPD1    H2 2686   3.969   3.786   0.822 -0.2386  0.5556  1.1880
  176MPD1    H3 2687   4.091   3.763   0.627  1.4120  0.6808 -1.9787
  176MPD1     N 2688   4.045   4.206   0.497 -0.1657 -0.7792  0.3482
  176MPD1    H5 2689   4.008   4.293   0.533 -0.2579  0.5375 -2.9898
  176MPD1    N1 2690   3.895   4.022   0.923  0.3197  0.1071 -0.2159
  176MPD1    H6 2691   3.891   3.943   0.987  0.4396  1.6554  1.6964
  176MPD1    H7 2692   3.934   4.105   0.968 -3.3621  1.1507  1.0456
  177MPD1     C 2693   3.195   2.673  10.833 -0.2062 -0.3068  0.1020
  177MPD1    C1 2694   3.212   2.559  10.747  0.2016 -0.2668 -0.2317
  177MPD1    C2 2695   3.147   2.560  10.631  0.3129  0.3628 -0.5347
  177MPD1    C3 2696   3.071   2.669  10.593 -0.5828  0.0884 -0.2770
  177MPD1    C4 2697   3.057   2.779  10.674  0.1437  0.3315  0.3855
  177MPD1    C5 2698   3.115   2.778  10.799  0.0496 -0.4707 -0.6292
  177MPD1     H 2699   3.158   2.470  10.572  0.4166  0.1011 -0.1131
  177MPD1    H1 2700   2.999   2.867  10.648  2.5455  2.1124  0.9640
  177MPD1    H2 2701   3.247   2.684  10.927 -1.3760 -0.7235  0.7988
  177MPD1    H3 2702   3.112   2.862  10.867  0.6494 -0.0192 -1.1670
  177MPD1     N 2703   2.983   2.652  10.487  0.4356  0.1603  0.1189
  177MPD1    H5 2704   2.966   2.556  10.457 -0.9734  1.7640 -4.3186
  177MPD1    N1 2705   3.309   2.457  10.776  0.3084  0.0551  0.5466
  177MPD1    H6 2706   3.295   2.440  10.876  0.3083 -0.6151  0.4354
  177MPD1    H7 2707   3.296   2.368  10.729 -1.3855  1.0040 -0.7514
  178MPD1     C 2708   4.394   4.158   0.072  0.0133 -0.4710  0.0524
  178MPD1    C1 2709   4.522   4.216   0.089  0.3518  0.0648 -0.1465
  178MPD1    C2 2710   4.580   4.280  17.655 -0.9405  0.7834 -0.0838
  178MPD1    C3 2711   4.517   4.282  17.534  0.6156  0.1246  0.8415
  178MPD1    C4 2712   4.397   4.228  17.518  0.1453 -0.0482 -0.2870
  178MPD1    C5 2713   4.336   4.180  17.634  0.3049 -0.1810 -0.1767
  178MPD1     H 2714   4.666   4.346  17.660 -1.2162  1.3896 -2.9515
  178MPD1    H1 2715   4.340   4.237  17.427  0.4125 -2.2081 -0.6710
  178MPD1    H2 2716   4.342   4.123   0.160  1.1711  0.5271  1.1238
  178MPD1    H3 2717   4.233   4.148  17.629  1.2142 -2.9158 -1.1436
  178MPD1     N 2718   4.574   4.333  17.412  0.0231  0.7089  0.4843
  178MPD1    H5 2719   4.519   4.315  17.329 -1.4703 -0.9563  1.8385
  178MPD1    N1 2720   4.585   4.229   0.214 -0.7313 -0.0924  0.7198
  178MPD1    H6 2721   4.560   4.140   0.258 -0.0642 -1.3212 -1.3736
  178MPD1    H7 2722   4.685   4.239   0.198 -0.5155 -3.3845 -0.0413
  179MPD1     C 2723   0.189   3.550  15.781 -0.1547  0.5301 -0.1819
  179MPD1    C1 2724   0.123   3.516  15.896  0.3967 -0.1534 -0.1616
  179MPD1    C2 2725   0.056   3.399  15.891 -0.2505  1.4410 -0.0737
  179MPD1    C3 2726   0.056   3.313  15.781 -0.1820  0.4175  0.1767
  179MPD1    C4 2727   0.138   3.342  15.672 -0.2465 -0.1118 -0.3159
  179MPD1    C5 2728   0.203   3.464  15.673 -0.8315  0.6941  0.2256
  179MPD1     H 2729   4.708   3.370  15.970 -0.6337 -0.5203 -1.1106
  179MPD1    H1 2730   0.151   3.277  15.586 -5.4303 -2.3200  0.6133
  179MPD1    H2 2731   0.237   3.646  15.765  2.7595 -0.8028  0.4704
  179MPD1    H3 2732   0.268   3.488  15.589  0.0259  0.2717  0.7625
  179MPD1     N 2733   0.005   3.179  15.782 -0.4874 -0.0994 -0.2431
  179MPD1    H5 2734   0.015   3.122  15.699  2.0888 -1.0212  0.6806
  179MPD1    N1 2735   0.112   3.611  16.002  0.4358 -0.0186  0.1085
  179MPD1    H6 2736   0.079   3.567  16.088 -1.5261  1.7836  0.2662
  179MPD1    H7 2737   0.201   3.657  16.020 -0.3416  1.4811  0.1039
  180MPD1     C 2738   4.419   4.323  14.873  0.2093 -0.1929  0.7487
  180MPD1    C1 2739   4.544   4.326  14.807  0.4776 -0.1724  0.8090
  180MPD1    C2 2740   4.561   4.259  14.680 -0.2456  0.8477 -0.3593
  180MPD1    C3 2741   4.461   4.180  14.623  0.3824  0.4871 -0.0589
  180MPD1    C4 2742   4.339   4.179  14.686 -0.3968  0.0599  0.6358
  180MPD1    C5 2743   4.316   4.253  14.808 -0.4947 -0.5358  0.5473
  180MPD1     H 2744   4.654   4.251  14.625  0.7179  0.5760  1.3287
  180MPD1    H1 2745   4.264   4.106  14.657  0.2987  0.5026 -2.3022
  180MPD1    H2 2746   4.407   4.352  14.976  0.6935  0.9344  0.4856
  180MPD1    H3 2747   4.224   4.244  14.866 -1.0230  1.6835  0.0549
  180MPD1     N 2748   4.493   4.106  14.506  0.4394  0.0447  0.4879
  180MPD1    H5 2749   4.589   4.088  14.479  0.5903  2.4638 -0.4899
  180MPD1    N1 2750   4.642   4.405  14.861  0.4047 -0.4886 -0.2930
  180MPD1    H6 2751   4.645   4.400  14.963 -0.1588 -0.5208 -0.2772
  180MPD1    H7 2752   0.010   4.359  14.839  1.2349  1.3748 -0.8769
  181MPD1     C 2753   0.924   0.141   9.354 -0.3663  0.4238 -0.0350
  181MPD1    C1 2754   0.986   0.162   9.231  0.9955  0.2918  0.3755
  181MPD1    C2 2755   1.117   0.202   9.232  0.3804 -0.1591  0.6967
  181MPD1    C3 2756   1.188   0.212   9.354  0.2922 -0.6234 -0.6496
  181MPD1    C4 2757   1.132   0.175   9.473 -0.7577 -1.1902  0.1075
  181MPD1    C5 2758   0.996   0.147   9.472 -0.0048 -0.0509  0.0277
  181MPD1     H 2759   1.167   0.223   9.138 -1.5372 -0.4582 -0.3809
  181MPD1    H1 2760   1.188   0.171   9.565 -1.3927 -1.2977  0.4844
  181MPD1    H2 2761   0.824   0.102   9.369  0.0942 -0.9554 -0.6201
  181MPD1    H3 2762   0.938   0.136   9.562 -1.2826  0.8071 -0.6962
  181MPD1     N 2763   1.320   0.254   9.357  0.3340 -0.1291 -0.6915
  181MPD1    H5 2764   1.365   0.264   9.447  0.1307 -3.1018 -0.2669
  181MPD1    N1 2765   0.923   0.145   9.112 -0.0898 -0.5979 -0.1544
  181MPD1    H6 2766   0.824   0.129   9.129 -0.9061  3.2222 -1.2919
  181MPD1    H7 2767   0.932   0.227   9.052  1.3237  0.5574  1.6376
  182MPD1     C 2768   1.967   3.786   1.723  0.3202  0.2632 -0.9732
  182MPD1    C1 2769   1.827   3.789   1.720 -0.0252  0.7276 -0.2635
  182MPD1    C2 2770   1.767   3.911   1.680 -0.2466  1.0708 -0.2595
  182MPD1    C3 2771   1.841   4.022   1.638 -0.4397  0.0479  0.9757
  182MPD1    C4 2772   1.981   4.019   1.652  0.2256 -0.3892  0.5705
  182MPD1    C5 2773   2.035   3.896   1.687 -0.1679  0.1480 -0.3815
  182MPD1     H 2774   1.659   3.916   1.671 -0.2086  1.0572 -0.7522
  182MPD1    H1 2775   2.038   4.104   1.618 -2.2147  0.5173 -1.2838
  182MPD1    H2 2776   2.028   3.699   1.748  0.7693  0.9638  0.3709
  182MPD1    H3 2777   2.143   3.906   1.688 -0.1572 -0.0299  1.4955
  182MPD1     N 2778   1.778   4.141   1.586 -0.8942  0.7631 -0.1876
  182MPD1    H5 2779   1.842   4.210   1.548 -0.4729  0.2185 -0.4846
  182MPD1    N1 2780   1.765   3.672   1.736  0.1936 -0.1865  0.2236
  182MPD1    H6 2781   1.821   3.600   1.781 -1.1857 -0.2953  1.7709
  182MPD1    H7 2782   1.667   3.677   1.763 -0.2638 -0.2193 -1.4268
  183MPD1     C 2783   3.496   0.766   9.681  0.1284 -0.5413 -0.0205
  183MPD1    C1 2784   3.495   0.679   9.789 -0.0648  0.1137 -0.1813
  183MPD1    C2 2785   3.381   0.595   9.804 -0.2406 -0.1194 -0.4517
  183MPD1    C3 2786   3.271   0.606   9.724  0.0873  0.1237 -0.7250
  183MPD1    C4 2787   3.275   0.704   9.623  0.2248 -1.2310  0.4677
  183MPD1    C5 2788   3.382   0.782   9.602 -0.0904 -0.4726 -0.0566
  183MPD1     H 2789   3.380   0.522   9.884 -0.0389 -0.3749 -0.6831
  183MPD1    H1 2790   3.193   0.727   9.555  0.4619  3.6624  1.8165
  183MPD1    H2 2791   3.584   0.826   9.660  0.2886  0.1104  2.4991
  183MPD1    H3 2792   3.375   0.853   9.520 -1.4927 -0.7184 -0.1508
  183MPD1     N 2793   3.158   0.523   9.759  0.1335  0.0317 -0.0795
  183MPD1    H5 2794   3.175   0.454   9.832  2.1853  0.7263  0.1073
  183MPD1    N1 2795   3.597   0.682   9.889 -0.2138  0.3144  0.2253
  183MPD1    H6 2796   3.597   0.586   9.922 -0.2494 -0.4739 -2.0380
  183MPD1    H7 2797   3.688   0.703   9.849  0.3349 -0.5259  1.0140
  184MPD1     C 2798   2.966   2.279  10.585  0.5368  0.5099 -0.5428
  184MPD1    C1 2799   2.925   2.324  10.457 -0.9903  0.0040 -0.8571
  184MPD1    C2 2800   2.787   2.343  10.436 -0.2989 -0.6284 -0.2584
  184MPD1    C3 2801   2.699   2.303  10.533  0.1649 -0.1544  0.1214
  184MPD1    C4 2802   2.738   2.260  10.652  0.4632 -0.5217 -0.6448
  184MPD1    C5 2803   2.871   2.255  10.677  0.4201 -0.5153  0.1203
  184MPD1     H 2804   2.754   2.404  10.354 -0.4271  0.0880  0.3239
  184MPD1    H1 2805   2.670   2.226  10.729  2.1066 -0.7930  0.6707
  184MPD1    H2 2806   3.065   2.255  10.621  0.4095  0.0298 -0.5167
  184MPD1    H3 2807   2.910   2.234  10.776  2.4742 -0.7064 -0.7218
  184MPD1     N 2808   2.566   2.307  10.488  0.2040 -0.4232  0.1704
  184MPD1    H5 2809   2.550   2.335  10.392  0.6919 -3.4271 -0.7960
  184MPD1    N1 2810   3.019   2.377  10.369 -0.0466 -0.4090  0.1349
  184MPD1    H6 2811   3.113   2.337  10.375 -0.4564 -1.0178  2.3733
  184MPD1    H7 2812   2.987   2.381  10.273  0.7786  0.8120 -0.0893
  185MPD1     C 2813   1.653   1.906  10.117  0.3417 -0.0658  0.3920
  185MPD1    C1 2814   1.680   1.909  10.251  0.2813  0.0666  0.7610
  185MPD1    C2 2815   1.786   1.989  10.300  0.7674 -0.3141 -0.0152
  185MPD1    C3 2816   1.882   2.036  10.211 -0.1799  0.8614  0.0987
  185MPD1    C4 2817   1.854   2.028  10.075 -0.3352 -0.1120  0.4819
  185MPD1    C5 2818   1.741   1.963  10.031  0.1359 -0.1136 -0.0386
  185MPD1     H 2819   1.795   2.004  10.407 -0.1895 -1.6246  0.2439
  185MPD1    H1 2820   1.924   2.075  10.007  1.4684 -1.7166  1.1906
  185MPD1    H2 2821   1.563   1.860  10.078 -0.2966  1.6298 -0.1361
  185MPD1    H3 2822   1.716   1.968   9.925  1.9790 -0.6876 -0.4894
  185MPD1     N 2823   1.989   2.124  10.254 -0.6358  0.0875  0.0292
  185MPD1    H5 2824   2.040   2.169  10.178 -0.6127  1.2322  0.7189
  185MPD1    N1 2825   1.573   1.893  10.339  0.0869 -0.8702  0.3538
  185MPD1    H6 2826   1.598   1.900  10.437 -1.2822  1.1149  0.5609
  185MPD1    H7 2827   1.528   1.803  10.324  0.0250 -0.8809  0.6048
  186MPD1     C 2828   0.505   2.444  15.933 -0.0283 -0.3426 -0.0418
  186MPD1    C1 2829   0.578   2.533  15.856 -0.0695  0.4113 -0.3417
  186MPD1    C2 2830   0.530   2.661  15.847 -0.8131  0.4292 -0.8902
  186MPD1    C3 2831   0.430   2.714  15.927  0.0883  0.0407  0.3281
  186MPD1    C4 2832   0.366   2.629  16.015 -0.0581  0.2875  0.5845
  186MPD1    C5 2833   0.400   2.492  16.013 -0.2313 -0.2675  0.8062
  186MPD1     H 2834   0.577   2.727  15.775 -1.3697  0.5390 -1.1558
  186MPD1    H1 2835   0.281   2.648  16.080  1.9574  1.3291  2.9208
  186MPD1    H2 2836   0.523   2.338  15.924 -0.6308 -0.7014  3.0063
  186MPD1    H3 2837   0.340   2.418  16.064 -4.2068  2.2101 -0.2827
  186MPD1     N 2838   0.396   2.846  15.920  0.1157  0.2649  0.0571
  186MPD1    H5 2839   0.341   2.876  16.000  1.8427  1.1780  0.9084
  186MPD1    N1 2840   0.661   2.488  15.761  0.0479  0.6115 -0.2638
  186MPD1    H6 2841   0.713   2.407  15.794 -2.5898  0.3496  3.3279
  186MPD1    H7 2842   0.727   2.562  15.738 -1.6939  2.7764  1.6367
  187MPD1     C 2843   3.719   0.463   0.386  0.8075  0.6326 -0.4714
  187MPD1    C1 2844   3.752   0.550   0.291 -0.9041 -0.3650 -0.2531
  187MPD1    C2 2845   3.850   0.519   0.198  0.2643 -0.3890 -0.1185
  187MPD1    C3 2846   3.906   0.395   0.199 -0.5104 -0.3649 -0.1809
  187MPD1    C4 2847   3.864   0.301   0.290  0.8420 -0.6333 -0.0754
  187MPD1    C5 2848   3.775   0.340   0.386  0.3549 -0.2658  0.0625
  187MPD1     H 2849   3.881   0.597   0.130 -0.3226  1.7813  2.0929
  187MPD1    H1 2850   3.902   0.200   0.298  1.0444 -0.4400  1.4538
  187MPD1    H2 2851   3.644   0.490   0.460  1.3757  1.2139 -0.1093
  187MPD1    H3 2852   3.744   0.261   0.452 -0.0615 -0.8518 -0.8412
  187MPD1     N 2853   3.999   0.347   0.098  0.0725 -0.7510 -0.6038
  187MPD1    H5 2854   4.037   0.253   0.105 -2.8234 -1.9047 -0.4770
  187MPD1    N1 2855   3.708   0.686   0.296 -0.2066 -0.3704  0.4636
  187MPD1    H6 2856   3.697   0.721   0.201  1.3343 -0.1153  0.3886
  187MPD1    H7 2857   3.617   0.697   0.340 -0.1562 -1.2700  0.7986
  188MPD1     C 2858   0.457   0.091   9.898 -0.6643  0.8516  0.1405
  188MPD1    C1 2859   0.456   4.712   9.799  0.3291  0.5635  0.3592
  188MPD1    C2 2860   0.377   4.604   9.824  0.5683  0.6353  0.0394
  188MPD1    C3 2861   0.287   4.601   9.934 -0.1510 -0.6134 -0.0315
  188MPD1    C4 2862   0.292   4.707  10.019 -0.7165  0.6762 -0.0673
  188MPD1    C5 2863   0.383   0.093  10.002 -0.5953  0.2150  0.0345
  188MPD1     H 2864   0.363   4.520   9.756  0.3520 -0.1172  1.0189
  188MPD1    H1 2865   0.221   4.717  10.100 -2.7585 -2.0946 -1.5004
  188MPD1    H2 2866   0.536   0.165   9.893  1.2459 -1.2005  0.3627
  188MPD1    H3 2867   0.397   0.173  10.074  2.6315  0.9445 -1.4257
  188MPD1     N 2868   0.205   4.491   9.944  0.5091  0.5814  0.1538
  188MPD1    H5 2869   0.219   4.424   9.869 -2.4845 -0.7280  0.7815
  188MPD1    N1 2870   0.557   4.708   9.701  0.2168 -0.2586  0.7455
  188MPD1    H6 2871   0.538   4.655   9.616 -0.3672  1.7317 -0.3619
  188MPD1    H7 2872   0.607   0.076   9.689 -1.5539  1.0553  2.9519
  189MPD1     C 2873   0.702   0.761   1.422  0.3239  0.7268 -0.5418
  189MPD1    C1 2874   0.736   0.699   1.306  0.0044 -0.5233  0.2697
  189MPD1    C2 2875   0.762   0.784   1.204 -0.2418 -0.8463  0.2861
  189MPD1    C3 2876   0.771   0.920   1.220 -0.8460 -0.3452  0.1609
  189MPD1    C4 2877   0.723   0.982   1.331  0.9588  0.1185  0.4902
  189MPD1    C5 2878   0.692   0.904   1.436  0.2729 -0.9716  0.3708
  189MPD1     H 2879   0.784   0.747   1.104  0.0192 -1.7096  0.6625
  189MPD1    H1 2880   0.697   1.087   1.339 -0.6198 -0.2247 -0.1278
  189MPD1    H2 2881   0.695   0.709   1.517 -0.4759  1.9033  0.0565
  189MPD1    H3 2882   0.662   0.937   1.535 -1.1376  0.0921 -0.4175
  189MPD1     N 2883   0.801   1.000   1.104  0.5394  0.4857  0.3062
  189MPD1    H5 2884   0.811   0.949   1.016 -0.5624  0.6537  0.0856
  189MPD1    N1 2885   0.719   0.559   1.288  0.6960 -0.3170  0.2412
  189MPD1    H6 2886   0.733   0.504   1.372 -2.4965  0.9489  1.5957
  189MPD1    H7 2887   0.778   0.522   1.214 -0.3846 -0.1262 -0.7051
  190MPD1     C 2888   4.384   4.707  15.431  0.7552  0.4006 -0.0555
  190MPD1    C1 2889   4.367   4.579  15.458 -0.4898  0.0304  1.1343
  190MPD1    C2 2890   4.473   4.499  15.506  0.3710  0.3749  0.4560
  190MPD1    C3 2891   4.603   4.545  15.521 -0.3497 -0.2952 -0.2125
  190MPD1    C4 2892   4.619   4.684  15.509 -0.1242  0.0609  0.2104
  190MPD1    C5 2893   4.510   0.035  15.463  1.2259  0.1074 -0.2434
  190MPD1     H 2894   4.465   4.393  15.528 -0.0855  0.0751 -1.1333
  190MPD1    H1 2895   4.703   0.027  15.536  0.8079 -1.4460  0.8072
  190MPD1    H2 2896   4.305   0.051  15.391  1.0799 -0.5251 -2.1641
  190MPD1    H3 2897   4.532   0.141  15.452  1.8106 -0.1555 -1.6943
  190MPD1     N 2898   4.698   4.457  15.580 -0.3909 -0.3777  0.1997
  190MPD1    H5 2899   4.666   4.362  15.596 -0.2685 -0.4601 -0.0478
  190MPD1    N1 2900   4.252   4.517  15.410  0.2220  0.1873  0.1896
  190MPD1    H6 2901   4.173   4.580  15.421 -0.9013 -1.1855  0.0582
  190MPD1    H7 2902   4.216   4.431  15.452 -1.8062  1.5896  1.3237
  191MPD1     C 2903   4.128   0.514  13.558  0.3731  1.2295  1.0140
  191MPD1    C1 2904   4.181   0.643  13.562 -0.4930 -0.5226  0.3712
  191MPD1    C2 2905   4.123   0.746  13.494  0.7295  0.5070 -0.2493
  191MPD1    C3 2906   3.999   0.728  13.448  0.3877 -0.7027  0.4945
  191MPD1    C4 2907   3.927   0.610  13.470 -0.7157 -0.4320  0.1805
  191MPD1    C5 2908   4.005   0.500  13.504 -0.2091 -0.2731  0.5948
  191MPD1     H 2909   4.177   0.840  13.486  1.6642  0.1462  1.6075
  191MPD1    H1 2910   3.827   0.596  13.432 -0.1847  0.8912 -1.6733
  191MPD1    H2 2911   4.175   0.431  13.608 -0.5718  0.5873  0.8342
  191MPD1    H3 2912   3.963   0.400  13.506  1.9802 -1.1899  0.5163
  191MPD1     N 2913   3.933   0.840  13.393 -0.2372 -0.1187  0.0191
  191MPD1    H5 2914   3.992   0.916  13.361 -2.4212  1.2299 -0.7996
  191MPD1    N1 2915   4.316   0.664  13.599 -0.3707 -0.4527 -0.5121
  191MPD1    H6 2916   4.336   0.612  13.684  2.0261  0.4397 -0.5186
  191MPD1    H7 2917   4.340   0.761  13.620 -1.1856 -0.3441 -0.0901
  192MPD1     C 2918   3.066   1.470  13.107 -0.0192  0.0529 -0.7077
  192MPD1    C1 2919   3.093   1.413  13.231  0.1362 -0.2529  0.2759
  192MPD1    C2 2920   3.215   1.343  13.250  0.0379  0.8591 -0.7770
  192MPD1    C3 2921   3.306   1.337  13.148  0.5959 -0.3757  0.5032
  192MPD1    C4 2922   3.286   1.404  13.028 -0.2451 -0.1844 -0.1102
  192MPD1    C5 2923   3.173   1.477  13.011  0.0935 -0.1192  0.3965
  192MPD1     H 2924   3.235   1.295  13.345  0.3238  1.3088 -0.6098
  192MPD1    H1 2925   3.352   1.396  12.943 -0.6270 -0.3021 -0.3954
  192MPD1    H2 2926   2.975   1.523  13.083 -1.6231 -2.2103  0.4081
  192MPD1    H3 2927   3.157   1.516  12.911  1.3480  2.0502  1.0572
  192MPD1     N 2928   3.427   1.266  13.160 -0.4247 -0.0153  0.2350
  192MPD1    H5 2929   3.476   1.245  13.074 -0.3413 -1.8756  0.7356
  192MPD1    N1 2930   2.986   1.398  13.325  0.7508 -0.0884 -0.5145
  192MPD1    H6 2931   3.019   1.376  13.418  1.0061  1.5438 -0.2156
  192MPD1    H7 2932   2.939   1.488  13.331  0.5511 -0.2527  0.3855
  193MPD1     C 2933   4.262   1.139  17.627 -0.4229 -0.3393 -0.5941
  193MPD1    C1 2934   4.192   1.254  17.663 -0.1642  0.0879  0.1481
  193MPD1    C2 2935   4.168   1.343  17.555 -0.3543  0.4303  0.2422
  193MPD1    C3 2936   4.204   1.315  17.419  1.0968  0.2047 -0.2772
  193MPD1    C4 2937   4.245   1.186  17.395  0.5168 -0.2831 -0.1009
  193MPD1    C5 2938   4.275   1.100  17.504  0.4283  0.4274 -0.2467
  193MPD1     H 2939   4.127   1.442  17.571 -2.6845 -0.5264  0.1992
  193MPD1    H1 2940   4.263   1.145  17.296  0.0185 -1.0380  0.1184
  193MPD1    H2 2941   4.300   1.072   0.023  1.0352  0.0886 -0.9400
  193MPD1    H3 2942   4.331   1.007  17.501  3.5937  2.3259 -0.1908
  193MPD1     N 2943   4.193   1.398  17.307  0.1382  0.3588 -0.4643
  193MPD1    H5 2944   4.221   1.369  17.214  0.8640 -3.5221  0.9904
  193MPD1    N1 2945   4.188   1.301   0.113  0.3289  0.0916  0.1649
  193MPD1    H6 2946   4.103   1.356   0.123  1.5861  2.2652 -1.3443
  193MPD1    H7 2947   4.182   1.231   0.187  1.6105 -0.3978 -0.1987
  194MPD1     C 2948   1.554   3.852  16.467 -0.2446  0.0158 -0.5501
  194MPD1    C1 2949   1.507   3.915  16.587 -0.6483  0.2850  0.0171
  194MPD1    C2 2950   1.527   3.857  16.712  0.2048  0.5700  0.0222
  194MPD1    C3 2951   1.570   3.723  16.708 -0.1275  0.1184 -0.5132
  194MPD1    C4 2952   1.608   3.664  16.590  1.4069  0.4563  1.4713
  194MPD1    C5 2953   1.600   3.721  16.468  0.4594  0.1197 -0.7027
  194MPD1     H 2954   1.484   3.902  16.801 -3.2573  0.2703 -1.5030
  194MPD1    H1 2955   1.646   3.562  16.593 -0.3738 -0.2707 -1.0313
  194MPD1    H2 2956   1.552   3.912  16.377  0.1737  1.1383  0.1947
  194MPD1    H3 2957   1.623   3.668  16.376  0.2791 -1.0359 -0.0820
  194MPD1     N 2958   1.567   3.640  16.823 -0.0672  0.3133  0.1709
  194MPD1    H5 2959   1.579   3.541  16.805 -0.7391  0.4572 -1.0311
  194MPD1    N1 2960   1.460   4.046  16.588 -0.0078  0.2443  0.0428
  194MPD1    H6 2961   1.410   4.055  16.499  0.6436 -1.9183 -0.5544
  194MPD1    H7 2962   1.389   4.068  16.657 -0.3365  0.4730 -0.3635
  195MPD1     C 2963   2.709   0.782   0.982  1.1344  0.1915 -0.6272
  195MPD1    C1 2964   2.842   0.800   1.009 -0.3304 -0.1537  0.2833
  195MPD1    C2 2965   2.933   0.695   0.984  0.4577 -0.5913 -0.4146
  195MPD1    C3 2966   2.896   0.578   0.927 -0.3790 -0.0088 -0.7145
  195MPD1    C4 2967   2.761   0.557   0.900 -0.4621 -0.3265 -0.2242
  195MPD1    C5 2968   2.671   0.655   0.936 -0.2407  0.0526  0.7052
  195MPD1     H 2969   3.040   0.714   0.988  0.2910 -0.0335  1.2523
  195MPD1    H1 2970   2.734   0.461   0.857  1.9653 -0.8951 -0.4973
  195MPD1    H2 2971   2.638   0.860   1.009  1.8559  0.3469  0.8075
  195MPD1    H3 2972   2.567   0.636   0.911 -1.0511 -0.1370  4.1459
  195MPD1     N 2973   2.987   0.469   0.894 -0.2403 -0.1575  0.4831
  195MPD1    H5 2974   2.960   0.395   0.830 -3.2207  0.8970  0.5054
  195MPD1    N1 2975   2.884   0.926   1.058  0.0025 -0.5399  0.0904
  195MPD1    H6 2976   2.974   0.913   1.103 -1.3476 -0.4576  2.8242
  195MPD1    H7 2977   2.819   0.977   1.118 -1.4036 -1.9464 -0.2392
  196MPD1     C 2978   3.011   3.798   0.531 -0.4020 -0.3270  0.1913
  196MPD1    C1 2979   3.071   3.868   0.630  0.1367 -0.0627  0.0475
  196MPD1    C2 2980   3.006   3.968   0.692  0.2402  0.7839 -0.1175
  196MPD1    C3 2981   2.870   3.997   0.660 -0.3232  0.0220 -0.4678
  196MPD1    C4 2982   2.811   3.907   0.577  0.0451 -0.1537 -0.5640
  196MPD1    C5 2983   2.878   3.810   0.518 -0.2041 -0.7290  0.4794
  196MPD1     H 2984   3.050   4.021   0.776 -0.3227 -0.5387  1.0175
  196MPD1    H1 2985   2.709   3.923   0.545 -0.6519 -2.1707  0.6529
  196MPD1    H2 2986   3.067   3.719   0.483 -0.2077 -0.3346  0.4310
  196MPD1    H3 2987   2.832   3.748   0.442 -1.0043 -0.6861  0.9281
  196MPD1     N 2988   2.791   4.096   0.718  0.3572  0.0444  0.6538
  196MPD1    H5 2989   2.699   4.109   0.678  1.0569 -1.3994 -1.4549
  196MPD1    N1 2990   3.208   3.854   0.655  0.1266  0.7513  0.7007
  196MPD1    H6 2991   3.241   3.758   0.650  0.8131  0.9772  0.8585
  196MPD1    H7 2992   3.243   3.890   0.744 -2.2003  2.2273  1.0043
  197MPD1     C 2993   1.897   3.254  17.222  0.1074  0.3189  0.3732
  197MPD1    C1 2994   1.930   3.129  17.190 -0.3744 -0.3556 -0.9187
  197MPD1    C2 2995   2.058   3.092  17.147 -0.3271  0.6451  0.0392
  197MPD1    C3 2996   2.141   3.192  17.095 -0.5335 -0.0595 -0.5862
  197MPD1    C4 2997   2.112   3.323  17.117  0.5598  0.0353 -0.3782
  197MPD1    C5 2998   1.990   3.349  17.180  0.2168  0.1251 -0.2927
  197MPD1     H 2999   2.076   2.988  17.125 -1.7039  0.4121  0.0012
  197MPD1    H1 3000   2.165   3.412  17.087 -0.1350  0.1971 -1.1096
  197MPD1    H2 3001   1.803   3.280  17.270  0.3120  0.4209  0.7242
  197MPD1    H3 3002   1.971   3.455  17.198 -2.1016 -0.0863 -1.5097
  197MPD1     N 3003   2.259   3.162  17.027  0.2142 -0.0793  0.6669
  197MPD1    H5 3004   2.302   3.235  16.972  0.8009 -2.1300 -1.6027
  197MPD1    N1 3005   1.838   3.031  17.229 -0.1963 -0.0683 -0.8709
  197MPD1    H6 3006   1.739   3.055  17.228  0.0653  1.0112 -0.4190
  197MPD1    H7 3007   1.841   2.944  17.176  2.2488 -0.6759  0.2478
  198MPD1     C 3008   0.046   0.084  15.246  0.5986 -0.1245  0.9617
  198MPD1    C1 3009   0.173   0.097  15.298 -0.1862 -0.4772  0.0758
  198MPD1    C2 3010   0.224   0.217  15.331  0.7433  0.0506 -1.2317
  198MPD1    C3 3011   0.148   0.331  15.321 -0.2910 -0.3846  0.5771
  198MPD1    C4 3012   0.018   0.313  15.270  0.1075 -0.3225  0.2746
  198MPD1    C5 3013   4.694   0.196  15.219  0.0468 -0.6662 -0.4281
  198MPD1     H 3014   0.329   0.216  15.355  0.5707 -0.5256 -0.4838
  198MPD1    H1 3015   4.677   0.400  15.245 -0.7069 -0.4587  1.7495
  198MPD1    H2 3016   0.011   4.714  15.196 -2.9007  1.0844  1.2633
  198MPD1    H3 3017   4.598   0.191  15.169 -0.8460 -3.9618  1.6021
  198MPD1     N 3018   0.207   0.458  15.342 -0.3463 -0.4652  0.1776
  198MPD1    H5 3019   0.307   0.456  15.359 -0.0934  0.8411 -1.1776
  198MPD1    N1 3020   0.247   4.702  15.323  0.4916 -0.1833 -0.0906
  198MPD1    H6 3021   0.202   4.644  15.393  1.2552 -1.4621 -0.6672
  198MPD1    H7 3022   0.328   0.020  15.373  0.6099 -0.6800  0.0937
  199MPD1     C 3023   2.200   1.455  10.234 -0.7823  0.5422  0.7146
  199MPD1    C1 3024   2.111   1.353  10.216 -0.2051 -0.3581  0.2773
  199MPD1    C2 3025   2.080   1.311  10.087 -0.0012  0.4159 -1.0870
  199MPD1    C3 3026   2.158   1.346   9.981 -0.2730  0.2611 -0.4971
  199MPD1    C4 3027   2.269   1.426  10.008  0.6394  0.5796 -0.0306
  199MPD1    C5 3028   2.279   1.493  10.128  0.2431  0.2266 -0.3476
  199MPD1     H 3029   1.990   1.253  10.070  0.4314 -0.2456 -1.0929
  199MPD1    H1 3030   2.333   1.455   9.925 -1.6766  0.8469 -1.7185
  199MPD1    H2 3031   2.225   1.500  10.330  1.5826 -1.1459  0.8903
  199MPD1    H3 3032   2.358   1.567  10.138 -0.2472  0.6413  0.4487
  199MPD1     N 3033   2.122   1.320   9.847 -0.0279 -0.8999 -0.1787
  199MPD1    H5 3034   2.185   1.363   9.780  0.8254 -0.3390  0.9873
  199MPD1    N1 3035   2.025   1.325  10.325  0.5903  0.4036 -0.7172
  199MPD1    H6 3036   2.063   1.351  10.416  1.8043  0.5875 -1.2811
  199MPD1    H7 3037   1.990   1.230  10.328  2.0368 -0.1150 -0.2360
  200MPD1     C 3038   0.333   1.601  14.658 -0.1821 -0.7796 -0.1128
  200MPD1    C1 3039   0.404   1.593  14.537 -0.0949  0.0176 -0.6839
  200MPD1    C2 3040   0.538   1.579  14.546 -0.8314  0.0824 -0.1307
  200MPD1    C3 3041   0.611   1.577  14.666  0.3343  0.5598  0.1069
  200MPD1    C4 3042   0.536   1.568  14.781  0.3914 -0.0675 -0.5159
  200MPD1    C5 3043   0.400   1.578  14.771  0.5090 -1.0203  0.0394
  200MPD1     H 3044   0.585   1.581  14.448 -3.4043  1.7973 -1.3152
  200MPD1    H1 3045   0.575   1.547  14.880 -1.7338 -2.2988 -0.1534
  200MPD1    H2 3046   0.225   1.617  14.659 -0.1609 -0.6441 -0.0655
  200MPD1    H3 3047   0.346   1.569  14.865  1.1685  0.8280  0.5937
  200MPD1     N 3048   0.754   1.559  14.657 -0.0425 -0.0975 -0.0568
  200MPD1    H5 3049   0.787   1.546  14.562 -1.8461  0.2616 -0.7340
  200MPD1    N1 3050   0.332   1.607  14.412 -0.0331 -0.0555  0.0439
  200MPD1    H6 3051   0.381   1.570  14.330 -1.4991 -1.0574 -0.3816
  200MPD1    H7 3052   0.330   1.703  14.377 -1.5596 -0.4152 -0.8746
  201MPD1     C 3053   2.663   0.254  13.593  0.4444 -0.1764  0.8825
  201MPD1    C1 3054   2.720   0.164  13.681 -0.0116 -0.5993  0.0100
  201MPD1    C2 3055   2.856   0.131  13.672 -0.0622  0.5366  0.3261
  201MPD1    C3 3056   2.936   0.201  13.584 -0.1697  0.4397 -0.0963
  201MPD1    C4 3057   2.880   0.298  13.493  0.3725  0.2733  0.0066
  201MPD1    C5 3058   2.745   0.323  13.501 -0.2169  0.4675  0.2346
  201MPD1     H 3059   2.892   0.054  13.739 -1.4010 -1.0463 -0.7769
  201MPD1    H1 3060   2.935   0.348  13.414  0.6133  1.4795  0.9384
  201MPD1    H2 3061   2.558   0.273  13.611  0.5374  2.0990 -0.9114
  201MPD1    H3 3062   2.696   0.397  13.439  0.4412  1.1628  0.5379
  201MPD1     N 3063   3.077   0.153  13.574 -0.3367  0.3767  0.1632
  201MPD1    H5 3064   3.098   0.081  13.642 -0.1654 -2.3767 -2.7786
  201MPD1    N1 3065   2.633   0.100  13.772 -0.4247 -0.4996 -0.3883
  201MPD1    H6 3066   2.563   0.163  13.810  0.4882  0.2996 -0.0568
  201MPD1    H7 3067   2.687   0.071  13.853  2.2242 -2.1149 -2.7026
  202MPD1     C 3068   2.701   4.513   9.224  0.5413  0.0437 -0.2424
  202MPD1    C1 3069   2.805   4.562   9.304 -0.2717  0.5402 -0.1024
  202MPD1    C2 3070   2.882   4.459   9.360  0.2695 -0.2179 -0.8988
  202MPD1    C3 3071   2.823   4.337   9.384  0.2470  0.5224  0.0859
  202MPD1    C4 3072   2.710   4.301   9.318  0.2363  0.2982  0.9897
  202MPD1    C5 3073   2.657   4.389   9.225  0.2599  0.4954 -0.1635
  202MPD1     H 3074   2.968   4.488   9.418 -0.5123 -0.4559  0.3847
  202MPD1    H1 3075   2.674   4.199   9.315 -1.5012  0.9771 -1.3510
  202MPD1    H2 3076   2.666   4.586   9.151 -0.1954 -0.9304 -0.8566
  202MPD1    H3 3077   2.588   4.358   9.149  3.1782 -2.6080 -1.5419
  202MPD1     N 3078   2.885   4.254   9.482  0.2305  0.0840  0.1445
  202MPD1    H5 3079   2.964   4.295   9.530  0.5237  0.0517 -0.3062
  202MPD1    N1 3080   2.861   4.684   9.261  0.0124  0.0590  0.2797
  202MPD1    H6 3081   2.790   0.033   9.234  0.7133  0.3040 -0.9249
  202MPD1    H7 3082   2.916   0.006   9.336 -1.3284 -0.4934  1.5794
  203MPD1     C 3083   2.618   1.237  12.600  0.4938 -0.0284  0.2583
  203MPD1    C1 3084   2.629   1.142  12.503 -0.2200 -0.0910  0.6452
  203MPD1    C2 3085   2.614   1.009  12.532 -0.1688 -0.2648  0.4632
  203MPD1    C3 3086   2.579   0.965  12.656 -1.0227 -0.6276  0.1428
  203MPD1    C4 3087   2.561   1.058  12.753  0.7033  1.0343  1.0424
  203MPD1    C5 3088   2.587   1.193  12.726  0.5289  0.3137 -0.0828
  203MPD1     H 3089   2.628   0.924  12.467 -2.1356 -0.5568  0.4082
  203MPD1    H1 3090   2.528   1.042  12.855 -0.6449  1.7055  0.6948
  203MPD1    H2 3091   2.633   1.341  12.574 -1.7443  0.8088  2.3267
  203MPD1    H3 3092   2.570   1.263  12.807  0.8020  1.0695 -0.6748
  203MPD1     N 3093   2.550   0.830  12.673  0.4015  0.4631  0.2068
  203MPD1    H5 3094   2.573   0.775  12.591  2.4042  0.3000  0.8873
  203MPD1    N1 3095   2.670   1.187  12.383  0.2764 -0.1479  0.2043
  203MPD1    H6 3096   2.649   1.135  12.298  0.8697 -0.0841  0.0185
  203MPD1    H7 3097   2.629   1.280  12.377  0.7320 -0.0246 -1.0199
  204MPD1     C 3098   1.641   2.590   0.205  0.1259 -0.4521  0.0795
  204MPD1    C1 3099   1.510   2.584   0.170  0.6454 -0.2516  0.1109
  204MPD1    C2 3100   1.466   2.461   0.128  0.4901 -0.3424 -0.0099
  204MPD1    C3 3101   1.548   2.358   0.094 -0.2663 -0.0908 -0.8573
  204MPD1    C4 3102   1.682   2.364   0.126  0.0932 -0.1111 -0.2353
  204MPD1    C5 3103   1.727   2.483   0.179 -0.4573  0.7056  0.2677
  204MPD1     H 3104   1.359   2.448   0.113  0.7346 -2.1381 -0.0884
  204MPD1    H1 3105   1.758   2.288   0.112  0.7580  0.2093  1.7527
  204MPD1    H2 3106   1.691   2.675   0.250  0.4767 -1.4371  1.5798
  204MPD1    H3 3107   1.833   2.503   0.187  0.0693 -0.8118 -2.7761
  204MPD1     N 3108   1.493   2.246   0.028 -0.0654  0.3685 -0.3748
  204MPD1    H5 3109   1.393   2.256   0.011  0.1083  1.5938 -0.6294
  204MPD1    N1 3110   1.422   2.683   0.213 -0.6814  0.8791 -0.7780
  204MPD1    H6 3111   1.343   2.682   0.149 -0.7292 -1.8977 -0.6806
  204MPD1    H7 3112   1.462   2.776   0.224 -0.1074  0.5141  0.2472
  205MPD1     C 3113   0.816   0.937  17.194 -0.0024 -0.2070 -0.2757
  205MPD1    C1 3114   0.904   0.891  17.295 -0.6139  0.4121  0.6290
  205MPD1    C2 3115   0.910   0.969  17.416  0.1453  0.6661  0.4978
  205MPD1    C3 3116   0.829   1.073  17.440 -0.3710 -0.3555  0.1880
  205MPD1    C4 3117   0.737   1.112  17.339  0.3312  0.1416  0.6392
  205MPD1    C5 3118   0.734   1.044  17.222 -0.1081  0.3623 -0.5087
  205MPD1     H 3119   0.987   0.942  17.487 -0.0039  2.0622  1.1885
  205MPD1    H1 3120   0.667   1.192  17.359  1.8104  1.5699  0.0675
  205MPD1    H2 3121   0.822   0.890  17.097  1.8521 -2.6130  1.0016
  205MPD1    H3 3122   0.667   1.068  17.140  0.9450 -1.8706 -2.0251
  205MPD1     N 3123   0.830   1.142  17.561  0.4617  0.1238  0.2205
  205MPD1    H5 3124   0.754   1.209  17.563 -0.4267 -0.8761 -0.0566
  205MPD1    N1 3125   1.003   0.795  17.273 -0.1875  0.0751  0.1246
  205MPD1    H6 3126   1.036   0.763  17.364 -1.4628  0.1431  0.6083
  205MPD1    H7 3127   0.970   0.717  17.217  1.8103  0.6692 -1.8613
  206MPD1     C 3128   1.880   3.400  16.849 -0.2879  0.1290  1.0497
  206MPD1    C1 3129   1.874   3.511  16.773 -0.2817  0.3595  0.5048
  206MPD1    C2 3130   1.879   3.491  16.635 -0.1777  0.1041 -0.3667
  206MPD1    C3 3131   1.875   3.367  16.572  0.5438  0.5654 -0.1988
  206MPD1    C4 3132   1.871   3.258  16.656 -0.0974 -0.3016  0.5900
  206MPD1    C5 3133   1.873   3.276  16.788 -0.1052  0.0109 -0.9236
  206MPD1     H 3134   1.880   3.576  16.568  1.3319 -0.2164 -0.7522
  206MPD1    H1 3135   1.876   3.157  16.619 -0.8993 -1.1800  2.9121
  206MPD1    H2 3136   1.887   3.408  16.957 -0.9473  1.9209  0.9611
  206MPD1    H3 3137   1.900   3.195  16.854  2.3451  2.8088  1.5189
  206MPD1     N 3138   1.867   3.339  16.433  0.4499  0.3516  0.3345
  206MPD1    H5 3139   1.855   3.240  16.414 -0.8433  0.6877 -0.5618
  206MPD1    N1 3140   1.886   3.636  16.835  0.0965  0.2025  0.2757
  206MPD1    H6 3141   1.867   3.708  16.765 -0.1859  0.6339  0.7881
  206MPD1    H7 3142   1.821   3.649  16.912  0.6622  0.7344  0.6640
  207MPD1     C 3143   3.541   1.195   9.594  0.1487 -0.3116  0.5677
  207MPD1    C1 3144   3.643   1.291   9.635 -0.0900  0.5516  0.4583
  207MPD1    C2 3145   3.710   1.260   9.754 -0.3483 -0.4898  0.6203
  207MPD1    C3 3146   3.669   1.155   9.829  0.0663  0.2563  0.4904
  207MPD1    C4 3147   3.557   1.081   9.789 -0.3032  0.0055  0.1021
  207MPD1    C5 3148   3.501   1.103   9.669 -0.1757 -0.4284  0.0195
  207MPD1     H 3149   3.798   1.315   9.786 -0.7994  0.5032  0.1704
  207MPD1    H1 3150   3.516   1.002   9.852  1.0361 -1.8414 -1.3288
  207MPD1    H2 3151   3.501   1.200   9.493 -1.3980  1.8847  1.2983
  207MPD1    H3 3152   3.421   1.033   9.647 -0.7782  0.1448  0.4004
  207MPD1     N 3153   3.725   1.114   9.954 -0.3452  0.5015  0.6685
  207MPD1    H5 3154   3.697   1.025   9.997  1.8685 -0.5676 -0.1277
  207MPD1    N1 3155   3.672   1.399   9.553  0.2387 -1.1505 -0.1482
  207MPD1    H6 3156   3.593   1.442   9.506  2.4764  1.2874 -1.6999
  207MPD1    H7 3157   3.730   1.475   9.588 -0.5091 -0.9613  0.6885
  208MPD1     C 3158   1.691   0.075  17.641  0.1563  0.0322 -0.0195
  208MPD1    C1 3159   1.715   0.007   0.081 -0.4847 -0.0667  0.4658
  208MPD1    C2 3160   1.675   0.067   0.195 -0.4607 -0.0000 -0.2856
  208MPD1    C3 3161   1.631   0.196   0.195 -0.3028  0.0476  0.0761
  208MPD1    C4 3162   1.599   0.254   0.077 -0.4989  0.5848 -0.4139
  208MPD1    C5 3163   1.626   0.189  17.644 -0.5330  0.2438  0.0608
  208MPD1     H 3164   1.689   0.018   0.290  1.5094 -0.0596 -0.6033
  208MPD1    H1 3165   1.545   0.347   0.066 -0.4831  0.7637  1.1312
  208MPD1    H2 3166   1.719   0.029  17.547 -0.7228 -1.4673  0.4563
  208MPD1    H3 3167   1.597   0.236  17.551  0.6269 -0.9575 -0.9131
  208MPD1     N 3168   1.591   0.252   0.319 -0.3674 -0.5617  0.1538
  208MPD1    H5 3169   1.613   0.189   0.395  0.3693 -1.9720 -1.2215
  208MPD1    N1 3170   1.797   4.612   0.081  0.1369  0.4455 -0.0999
  208MPD1    H6 3171   1.803   4.550   0.000  1.9177  2.2649 -1.3674
  208MPD1    H7 3172   1.785   4.571   0.173  0.1742 -0.6588 -0.5954
  209MPD1     C 3173   3.779   4.145  10.919 -0.0960  0.0324  0.0043
  209MPD1    C1 3174   3.911   4.150  10.891  0.1979 -0.3545  0.1232
  209MPD1    C2 3175   3.968   4.272  10.862  0.2999 -0.0918  0.6975
  209MPD1    C3 3176   3.897   4.386  10.849 -0.0640 -0.0810 -0.1721
  209MPD1    C4 3177   3.762   4.377  10.866  0.1834  0.2731  0.5313
  209MPD1    C5 3178   3.708   4.260  10.906  0.4607 -0.1279  0.4205
  209MPD1     H 3179   4.077   4.269  10.863  0.2695  0.1611  4.4025
  209MPD1    H1 3180   3.701   4.466  10.866 -1.8117 -1.1096 -1.6852
  209MPD1    H2 3181   3.726   4.059  10.958  0.1913 -0.1242  0.0438
  209MPD1    H3 3182   3.603   4.263  10.933  0.1286 -1.0226 -0.7583
  209MPD1     N 3183   3.973   4.502  10.806  0.3197 -0.8322 -0.2305
  209MPD1    H5 3184   4.074   4.493  10.813  0.1522 -1.5658  1.2686
  209MPD1    N1 3185   3.993   4.041  10.911 -0.6917 -0.2590 -0.3568
  209MPD1    H6 3186   3.940   3.955  10.893  2.2578 -1.6911 -2.3178
  209MPD1    H7 3187   4.085   4.052  10.867  1.1957  0.7577  3.8875
  210MPD1     C 3188   4.698   0.414  11.111  0.0483  0.0747  0.1451
  210MPD1    C1 3189   4.593   0.346  11.162 -0.1697  0.9522 -0.6026
  210MPD1    C2 3190   4.493   0.301  11.084  0.3823 -0.2904 -0.1044
  210MPD1    C3 3191   4.494   0.324  10.953  0.4783  0.3575 -0.2392
  210MPD1    C4 3192   4.594   0.415  10.906  1.0433  0.1543 -0.2277
  210MPD1    C5 3193   4.699   0.447  10.982  0.4843 -0.1204 -0.8002
  210MPD1     H 3194   4.418   0.237  11.128  1.1773 -1.6029 -0.6491
  210MPD1    H1 3195   4.601   0.448  10.803  0.4988  1.3762  0.1278
  210MPD1    H2 3196   0.054   0.456  11.177  0.4632  0.1648 -0.3837
  210MPD1    H3 3197   0.064   0.504  10.945 -0.0941  0.5182 -1.1360
  210MPD1     N 3198   4.394   0.279  10.861  0.1792  0.3299 -0.2883
  210MPD1    H5 3199   4.386   0.321  10.769 -0.5865 -4.1897 -2.3336
  210MPD1    N1 3200   4.589   0.316  11.303 -0.2325  1.0172 -0.2422
  210MPD1    H6 3201   4.490   0.310  11.326 -0.1940  2.3642  0.2748
  210MPD1    H7 3202   4.624   0.384  11.371  0.8123  1.1358 -0.9121
  211MPD1     C 3203   2.799   0.592  16.695 -0.4909 -0.3650  0.2130
  211MPD1    C1 3204   2.744   0.691  16.613  0.0944 -0.1166 -0.0036
  211MPD1    C2 3205   2.608   0.710  16.603 -0.1439 -0.5944 -0.7253
  211MPD1    C3 3206   2.532   0.616  16.676  0.1854 -0.2389  0.5012
  211MPD1    C4 3207   2.589   0.525  16.763  0.3043 -0.0437 -0.0710
  211MPD1    C5 3208   2.723   0.516  16.773 -0.6390  0.1942 -0.5255
  211MPD1     H 3209   2.568   0.783  16.534  0.6182  1.8281  1.3897
  211MPD1    H1 3210   2.535   0.446  16.815 -0.5639  0.8311  0.3625
  211MPD1    H2 3211   2.906   0.586  16.712 -0.5276 -0.9136  0.2190
  211MPD1    H3 3212   2.760   0.456  16.856 -3.4861 -0.5771  0.2163
  211MPD1     N 3213   2.389   0.618  16.667  0.6174 -0.0899  0.1804
  211MPD1    H5 3214   2.344   0.689  16.610  2.3513  1.6658  1.0164
  211MPD1    N1 3215   2.825   0.791  16.563 -0.1508  0.0636 -0.7659
  211MPD1    H6 3216   2.919   0.754  16.551  0.0164 -0.0703  0.9224
  211MPD1    H7 3217   2.787   0.827  16.476 -0.3094  2.0267  0.1193
  212MPD1     C 3218   1.325   3.922  16.229 -0.2670  0.0715  0.8244
  212MPD1    C1 3219   1.247   3.997  16.321  0.0860 -0.0976 -0.5889
  212MPD1    C2 3220   1.161   3.923  16.400  0.7794  0.9527 -1.0433
  212MPD1    C3 3221   1.138   3.791  16.377 -0.6162  0.1735  0.3825
  212MPD1    C4 3222   1.205   3.723  16.281 -0.1326  0.4140  0.0535
  212MPD1    C5 3223   1.299   3.788  16.211  0.4065 -0.2862 -0.3604
  212MPD1     H 3224   1.115   3.967  16.488  1.6744  1.3464 -0.7706
  212MPD1    H1 3225   1.203   3.618  16.255  1.9614  0.0919  1.1588
  212MPD1    H2 3226   1.409   3.963  16.175 -0.6811  2.9667  2.3644
  212MPD1    H3 3227   1.360   3.740  16.136  1.2563 -1.5750  1.1479
  212MPD1     N 3228   1.039   3.711  16.434  0.2914  0.0914  0.3964
  212MPD1    H5 3229   1.031   3.612  16.413  0.1771  0.3001 -0.5384
  212MPD1    N1 3230   1.287   4.121  16.371  0.1346  0.3824  0.2825
  212MPD1    H6 3231   1.327   4.188  16.306 -1.0978  1.6517  0.8264
  212MPD1    H7 3232   1.210   4.169  16.418 -0.9829 -2.9929  1.9553
  213MPD1     C 3233   3.968   4.421  15.992  1.2396 -0.6827  0.1275
  213MPD1    C1 3234   4.040   4.405  15.877 -0.2706 -0.0963  0.2257
  213MPD1    C2 3235   3.966   4.400  15.761  0.7011 -0.1050 -1.0363
  213MPD1    C3 3236   3.831   4.408  15.767  0.4655  0.0175 -0.1349
  213MPD1    C4 3237   3.757   4.426  15.883  0.0681  0.2260 -0.3478
  213MPD1    C5 3238   3.831   4.440  15.996 -0.7022  0.5377 -0.1934
  213MPD1     H 3239   4.014   4.413  15.665  1.8489  0.2645 -0.4024
  213MPD1    H1 3240   3.650   4.431  15.901  0.0609 -3.6026  0.7384
  213MPD1    H2 3241   4.019   4.439  16.087 -0.4939  1.8639  0.5670
  213MPD1    H3 3242   3.784   4.459  16.092 -0.3620 -2.7120  0.6036
  213MPD1     N 3243   3.758   4.401  15.645 -0.3377  0.0402 -0.6497
  213MPD1    H5 3244   3.811   4.370  15.564  1.1424  1.4550 -0.2213
  213MPD1    N1 3245   4.175   4.441  15.886  0.0364 -0.3947 -0.2665
  213MPD1    H6 3246   4.216   4.412  15.974 -0.1568 -1.9184 -0.6739
  213MPD1    H7 3247   4.227   4.402  15.808  0.9356  2.3651 -1.0265
  214MPD1     C 3248   3.007   4.129  14.918 -0.1491 -0.5740  0.5652
  214MPD1    C1 3249   2.977   4.185  15.038 -0.4616 -0.2923  0.3587
  214MPD1    C2 3250   3.077   4.243  15.115  0.2851  0.7738 -0.3087
  214MPD1    C3 3251   3.201   4.263  15.059  0.2140  0.4940  0.2827
  214MPD1    C4 3252   3.226   4.232  14.928 -0.1605 -0.2526 -0.0218
  214MPD1    C5 3253   3.128   4.154  14.863 -0.1369  0.4389 -0.0855
  214MPD1     H 3254   3.057   4.277  15.216  3.5391  0.6112  0.3856
  214MPD1    H1 3255   3.318   4.262  14.878 -0.2046  2.1032  1.2871
  214MPD1    H2 3256   2.934   4.076  14.859 -0.1227 -1.4974  1.3545
  214MPD1    H3 3257   3.137   4.127  14.759 -1.4373  0.4833 -0.2093
  214MPD1     N 3258   3.309   4.322  15.142  0.3214 -0.2035 -1.6194
  214MPD1    H5 3259   3.392   4.351  15.093  0.0400  0.5086 -1.6698
  214MPD1    N1 3260   2.849   4.170  15.092  0.1822 -0.1001  0.1345
  214MPD1    H6 3261   2.775   4.170  15.021 -0.1583 -1.7013  0.4857
  214MPD1    H7 3262   2.844   4.242  15.163  0.8622  0.1892 -0.1128
  215MPD1     C 3263   3.040   4.672  10.582 -0.1696 -0.1524 -0.2078
  215MPD1    C1 3264   3.027   0.088  10.578 -0.5582  0.2926  0.0164
  215MPD1    C2 3265   3.146   0.165  10.599 -0.3196  0.5182 -0.0427
  215MPD1    C3 3266   3.269   0.102  10.578  0.4718  0.3086 -0.2522
  215MPD1    C4 3267   3.277   4.682  10.549  0.0359 -0.3927  0.2569
  215MPD1    C5 3268   3.160   4.613  10.561 -0.1947  0.1553 -0.2321
  215MPD1     H 3269   3.132   0.272  10.612 -2.1205  0.3849 -0.8175
  215MPD1    H1 3270   3.371   4.628  10.555  1.1822  1.6995  1.4664
  215MPD1    H2 3271   2.956   4.607  10.605 -0.2619  0.1949  0.4495
  215MPD1    H3 3272   3.165   4.506  10.549  0.5807  0.2490 -0.7427
  215MPD1     N 3273   3.379   0.191  10.599  0.2666  0.4434  0.3013
  215MPD1    H5 3274   3.356   0.288  10.615 -1.2056  0.3210 -1.0512
  215MPD1    N1 3275   2.896   0.144  10.592 -0.5890 -0.7305 -0.0682
  215MPD1    H6 3276   2.828   0.100  10.530  0.2534 -0.6059 -1.0898
  215MPD1    H7 3277   2.903   0.242  10.565  1.3654 -0.3939  1.6308
  216MPD1     C 3278   1.496   2.519  16.611 -0.2393 -0.9269 -0.0456
  216MPD1    C1 3279   1.553   2.419  16.686 -0.4831 -0.2031  0.3247
  216MPD1    C2 3280   1.498   2.371  16.807  0.0984 -0.4480  0.2253
  216MPD1    C3 3281   1.384   2.433  16.850  0.1091  0.2098 -0.2923
  216MPD1    C4 3282   1.333   2.534  16.773  0.4424 -0.0828  0.4660
  216MPD1    C5 3283   1.389   2.584  16.658  0.1052  0.0299 -0.0279
  216MPD1     H 3284   1.549   2.290  16.857 -3.8705 -2.0047  1.7523
  216MPD1    H1 3285   1.231   2.564  16.797 -0.2495 -2.1145  0.0621
  216MPD1    H2 3286   1.549   2.570  16.531 -1.2779 -0.6774 -0.5695
  216MPD1    H3 3287   1.355   2.677  16.616  0.2423  1.3603  2.8216
  216MPD1     N 3288   1.310   2.373  16.960 -0.1704  0.2466  0.3212
  216MPD1    H5 3289   1.348   2.292  17.006 -1.4482  0.3421  1.5559
  216MPD1    N1 3290   1.652   2.343  16.627  0.0968  0.0056  0.0705
  216MPD1    H6 3291   1.701   2.283  16.693  0.1567  2.2703  2.0539
  216MPD1    H7 3292   1.714   2.396  16.566 -1.0353  3.2035  1.7418
  217MPD1     C 3293   2.669   3.677   8.207 -0.3665 -0.0257  0.4573
  217MPD1    C1 3294   2.574   3.766   8.234 -0.2972  0.0818  0.8128
  217MPD1    C2 3295   2.494   3.744   8.342  0.5201 -0.0382 -0.3153
  217MPD1    C3 3296   2.503   3.625   8.418 -0.7971  0.0611 -0.4723
  217MPD1    C4 3297   2.599   3.531   8.380 -0.2949  0.2118  0.0433
  217MPD1    C5 3298   2.677   3.559   8.274  0.0105 -0.5045  0.3427
  217MPD1     H 3299   2.414   3.814   8.362 -0.3677 -1.0899 -0.1750
  217MPD1    H1 3300   2.604   3.428   8.411  1.2772  0.2248 -0.1270
  217MPD1    H2 3301   2.737   3.703   8.127 -1.5278  0.7177 -0.2861
  217MPD1    H3 3302   2.761   3.498   8.243 -1.1210  0.3606 -4.4182
  217MPD1     N 3303   2.428   3.608   8.532  0.0055 -0.1723  0.6390
  217MPD1    H5 3304   2.462   3.530   8.588 -0.1741 -0.9731 -0.3583
  217MPD1    N1 3305   2.572   3.890   8.164 -0.6773  0.1679 -0.5613
  217MPD1    H6 3306   2.494   3.950   8.189 -1.9854 -0.7188 -2.4823
  217MPD1    H7 3307   2.580   3.898   8.062 -0.6159  0.2805 -0.5480
  218MPD1     C 3308   3.916   1.292  12.450 -0.3357  0.6733 -0.0464
  218MPD1    C1 3309   4.006   1.221  12.378  0.1734 -0.1426 -0.4999
  218MPD1    C2 3310   3.993   1.082  12.374 -0.0067  0.1744  0.3481
  218MPD1    C3 3311   3.890   1.025  12.437 -0.3375 -0.1802 -0.6898
  218MPD1    C4 3312   3.791   1.097  12.497  0.9456  1.3303  0.6722
  218MPD1    C5 3313   3.805   1.238  12.500  0.6293 -0.0690 -0.0954
  218MPD1     H 3314   4.069   1.029  12.318 -0.6767 -0.1783 -0.2447
  218MPD1    H1 3315   3.697   1.058  12.533  1.1497  1.3930  1.2739
  218MPD1    H2 3316   3.934   1.399  12.448  0.6930  0.4004 -3.6268
  218MPD1    H3 3317   3.718   1.302  12.512 -0.1014 -1.1761  0.5545
  218MPD1     N 3318   3.887   0.882  12.443 -0.0911 -0.4166 -0.0979
  218MPD1    H5 3319   3.965   0.837  12.397  0.0515 -0.6066  0.3300
  218MPD1    N1 3320   4.117   1.287  12.326  0.3169 -0.0269 -0.5604
  218MPD1    H6 3321   4.158   1.234  12.250 -1.8249  1.2048 -2.5800
  218MPD1    H7 3322   4.102   1.384  12.300 -2.5353 -0.6347 -1.1697
  219MPD1     C 3323   4.098   0.454  11.762  0.6314 -0.6861  0.0812
  219MPD1    C1 3324   4.147   0.570  11.822 -0.3119 -0.4033 -0.1854
  219MPD1    C2 3325   4.125   0.592  11.956 -0.3344 -0.4179 -0.3912
  219MPD1    C3 3326   4.050   0.502  12.028  0.1101 -0.0587  0.0403
  219MPD1    C4 3327   3.993   0.396  11.974 -0.4959  0.4389 -1.0543
  219MPD1    C5 3328   4.010   0.373  11.843  0.6104 -0.4977  0.1531
  219MPD1     H 3329   4.148   0.688  12.002  0.2746 -0.2557 -1.0361
  219MPD1    H1 3330   3.926   0.324  12.020  2.2887 -1.0090  0.6638
  219MPD1    H2 3331   4.115   0.418  11.661 -1.9159 -1.4919 -0.0751
  219MPD1    H3 3332   3.967   0.279  11.810 -0.5444  1.4728 -3.8325
  219MPD1     N 3333   4.019   0.535  12.159  0.3394  0.2421 -0.2014
  219MPD1    H5 3334   4.031   0.631  12.189 -0.2912 -0.0262  0.8810
  219MPD1    N1 3335   4.212   0.667  11.745  0.3606 -0.0470  0.9608
  219MPD1    H6 3336   4.273   0.619  11.679  0.5778  1.0389  0.3706
  219MPD1    H7 3337   4.278   0.723  11.799  1.1530  0.0733 -0.1258
  220MPD1     C 3338   3.164   1.338   9.298 -0.2046 -0.6134 -0.2139
  220MPD1    C1 3339   3.154   1.412   9.418  0.1947 -0.5764 -0.6473
  220MPD1    C2 3340   3.147   1.335   9.531  0.0272 -0.4306  0.4018
  220MPD1    C3 3341   3.132   1.198   9.525 -0.8617 -0.5620 -0.3569
  220MPD1    C4 3342   3.136   1.134   9.404  0.8020  0.4098  0.5644
  220MPD1    C5 3343   3.153   1.203   9.289 -0.2378 -0.0740  0.3636
  220MPD1     H 3344   3.156   1.383   9.627 -2.2384  1.4256 -0.3060
  220MPD1    H1 3345   3.141   1.026   9.403  1.6973  0.4507  0.2411
  220MPD1    H2 3346   3.174   1.388   9.203 -3.1550  0.4590  0.0514
  220MPD1    H3 3347   3.164   1.151   9.195 -0.1485 -0.5294  0.6254
  220MPD1     N 3348   3.123   1.119   9.648  0.4046 -0.2234 -0.4095
  220MPD1    H5 3349   3.127   1.166   9.738  2.1066 -0.8613 -0.1546
  220MPD1    N1 3350   3.181   1.546   9.428 -0.4804 -0.0293 -0.1777
  220MPD1    H6 3351   3.147   1.611   9.358 -1.8098  0.5127  0.9519
  220MPD1    H7 3352   3.149   1.578   9.520 -1.3686  1.1112 -0.8829
  221MPD1     C 3353   0.781   0.249  16.052  0.4439  0.3296 -0.6725
  221MPD1    C1 3354   0.870   0.340  15.999 -0.7145  0.3237 -0.5091
  221MPD1    C2 3355   1.004   0.319  16.041 -1.0771  0.1481 -0.2413
  221MPD1    C3 3356   1.052   0.215  16.123 -0.1976  0.1616  0.0134
  221MPD1    C4 3357   0.958   0.129  16.168 -0.4157  0.1905  0.4726
  221MPD1    C5 3358   0.834   0.137  16.125 -0.1509  0.5462  0.7707
  221MPD1     H 3359   1.083   0.383  16.003 -1.6381  0.3440 -1.0766
  221MPD1    H1 3360   0.986   0.044  16.228  0.7075 -0.9601 -1.7014
  221MPD1    H2 3361   0.674   0.247  16.038  0.3188  1.0242  0.1414
  221MPD1    H3 3362   0.763   0.061  16.153 -0.3967  0.5623  0.1972
  221MPD1     N 3363   1.178   0.195  16.176 -0.7869 -0.1563  1.0360
  221MPD1    H5 3364   1.177   0.132  16.256 -0.6710 -0.8574  0.4903
  221MPD1    N1 3365   0.832   0.454  15.931 -0.0308 -0.2307  0.0352
  221MPD1    H6 3366   0.899   0.481  15.858 -2.5261 -0.2137 -2.2611
  221MPD1    H7 3367   0.748   0.432  15.878 -0.7744  2.7831 -0.0383
  222MPD1     C 3368   1.260   3.319  16.535  0.1655 -0.1372 -0.1784
  222MPD1    C1 3369   1.291   3.454  16.524  0.0731  0.0104 -0.1073
  222MPD1    C2 3370   1.260   3.543  16.632 -0.5940 -0.2022  0.7726
  222MPD1    C3 3371   1.185   3.498  16.741  0.0469 -0.6610 -0.2504
  222MPD1    C4 3372   1.176   3.359  16.756 -0.1014  0.7996  0.7116
  222MPD1    C5 3373   1.204   3.275  16.650 -0.5228 -0.2848  0.1853
  222MPD1     H 3374   1.289   3.648  16.628  1.0944 -0.6534  1.3485
  222MPD1    H1 3375   1.137   3.307  16.843 -0.2012 -1.0668 -0.4511
  222MPD1    H2 3376   1.282   3.253  16.452  0.6870 -0.4232  0.1855
  222MPD1    H3 3377   1.176   3.171  16.660 -2.7904  0.4427  1.2066
  222MPD1     N 3378   1.147   3.585  16.850  0.5237  0.0930 -0.2023
  222MPD1    H5 3379   1.109   3.543  16.935  1.2165 -2.1867 -1.0190
  222MPD1    N1 3380   1.356   3.505  16.420 -0.0919 -0.4523  0.4470
  222MPD1    H6 3381   1.339   3.605  16.416 -0.4371 -0.5025  0.6901
  222MPD1    H7 3382   1.337   3.455  16.333  1.4346  0.0755 -0.1980
  223MPD1     C 3383   0.828   3.406   0.031  0.1381  0.3301  0.1861
  223MPD1    C1 3384   0.956   3.442   0.020  0.3618  0.7400 -0.9014
  223MPD1    C2 3385   0.999   3.520  17.590  0.6022 -0.3863  0.2500
  223MPD1    C3 3386   0.915   3.547  17.482  0.5468 -0.2763 -0.1771
  223MPD1    C4 3387   0.783   3.511  17.493 -0.5301 -0.5778  0.0402
  223MPD1    C5 3388   0.744   3.434  17.603 -0.6916  1.3405  0.3686
  223MPD1     H 3389   1.097   3.567  17.599 -0.8942  2.8924 -0.7941
  223MPD1    H1 3390   0.710   3.532  17.416 -0.2383 -1.7308 -0.5551
  223MPD1    H2 3391   0.784   3.360   0.119  1.2340 -2.4221 -0.7181
  223MPD1    H3 3392   0.644   3.392  17.594  1.1370 -2.6915 -0.9849
  223MPD1     N 3393   0.964   3.631  17.381  0.0455  0.3521  0.0923
  223MPD1    H5 3394   1.053   3.678  17.390  0.6851 -0.7685 -0.3886
  223MPD1    N1 3395   1.046   3.426   0.129  0.3787  0.1328  0.1520
  223MPD1    H6 3396   1.025   3.347   0.190  1.5041 -0.4695 -0.2426
  223MPD1    H7 3397   1.145   3.432   0.108  0.6818 -2.4602  0.8505
  224MPD1     C 3398   3.019   0.232   9.486  0.1486 -0.3951 -0.6704
  224MPD1    C1 3399   3.040   0.138   9.581 -0.2040 -0.0791  0.2259
  224MPD1    C2 3400   2.935   0.055   9.603 -0.0743 -1.1154  0.0256
  224MPD1    C3 3401   2.809   0.076   9.553 -0.9769 -1.0945 -0.5592
  224MPD1    C4 3402   2.790   0.178   9.465 -0.2214  0.4695 -0.0451
  224MPD1    C5 3403   2.896   0.251   9.435  0.3525  0.3953  0.1050
  224MPD1     H 3404   2.941   4.687   9.667  0.7040 -2.4096 -1.8215
  224MPD1    H1 3405   2.695   0.189   9.414  1.2166  0.7511 -2.6473
  224MPD1    H2 3406   3.099   0.298   9.451 -1.1739 -0.0806 -3.1305
  224MPD1    H3 3407   2.879   0.322   9.355 -2.9328 -0.1993  0.3058
  224MPD1     N 3408   2.699   4.710   9.564 -0.2985  0.6254  0.5818
  224MPD1    H5 3409   2.615   0.008   9.509 -0.9413  0.7735  1.6210
  224MPD1    N1 3410   3.169   0.101   9.624 -0.0638 -0.1099 -0.4639
  224MPD1    H6 3411   3.235   0.179   9.618  0.1144 -0.3335 -1.4754
  224MPD1    H7 3412   3.168   0.064   9.719  1.4079  1.2058  0.0692
  225MPD1     C 3413   3.551   1.422  12.745 -0.2435 -0.3824  0.2746
  225MPD1    C1 3414   3.527   1.285  12.742  0.1911  0.1604  0.1111
  225MPD1    C2 3415   3.446   1.225  12.648  0.7532 -0.4285 -0.0547
  225MPD1    C3 3416   3.391   1.300  12.554  0.3908  0.0983 -0.2255
  225MPD1    C4 3417   3.406   1.443  12.552 -0.5322 -0.6341  0.4809
  225MPD1    C5 3418   3.486   1.505  12.649  0.0414 -0.0784  0.0851
  225MPD1     H 3419   3.413   1.122  12.663 -0.8166  0.1467  0.4236
  225MPD1    H1 3420   3.352   1.508  12.484  0.5143 -1.3918 -1.0996
  225MPD1    H2 3421   3.608   1.477  12.820 -0.9238 -0.7890  1.0838
  225MPD1    H3 3422   3.486   1.613  12.645 -0.0506 -0.0329  1.3241
  225MPD1     N 3423   3.313   1.244  12.451  0.0651 -0.1765 -0.1878
  225MPD1    H5 3424   3.268   1.312  12.390 -0.8703 -0.6328 -0.0112
  225MPD1    N1 3425   3.583   1.207  12.849  0.0102 -0.1151 -0.4664
  225MPD1    H6 3426   3.592   1.109  12.822  1.1435 -0.2214  0.2944
  225MPD1    H7 3427   3.682   1.230  12.860  0.1069 -1.0880  0.7746
  226MPD1     C 3428   1.279   4.492   9.343  0.1961 -0.2406 -0.1153
  226MPD1    C1 3429   1.373   4.418   9.407 -0.1594  0.5604 -0.4574
  226MPD1    C2 3430   1.507   4.440   9.377 -0.5076  0.1438  0.0419
  226MPD1    C3 3431   1.547   4.541   9.291  0.2083 -0.5699  0.2326
  226MPD1    C4 3432   1.446   4.624   9.236  0.4076  0.6466 -0.2076
  226MPD1    C5 3433   1.314   4.590   9.254  0.3748  0.2338 -0.8035
  226MPD1     H 3434   1.591   4.394   9.427 -0.0903 -0.7718 -1.5075
  226MPD1    H1 3435   1.462   4.714   9.177  1.3861 -0.2054 -1.2490
  226MPD1    H2 3436   1.175   4.470   9.362 -0.1878  0.1764 -1.7179
  226MPD1    H3 3437   1.237   4.655   9.214  0.7584  0.3947 -1.2914
  226MPD1     N 3438   1.685   4.548   9.259  0.2861 -0.6432 -0.3390
  226MPD1    H5 3439   1.752   4.480   9.295 -3.2168 -4.3647 -0.8811
  226MPD1    N1 3440   1.342   4.320   9.504  0.2828 -0.5416 -0.1148
  226MPD1    H6 3441   1.257   4.264   9.506  0.4975 -0.9392 -1.8061
  226MPD1    H7 3442   1.415   4.257   9.537 -0.9878 -1.0270  1.7240
  227MPD1     C 3443   2.250   3.990   9.360 -0.0594  0.8108 -0.2248
  227MPD1    C1 3444   2.113   4.006   9.349 -0.2763 -0.2411 -0.3619
  227MPD1    C2 3445   2.074   4.133   9.316 -1.0849 -0.0838 -0.2265
  227MPD1    C3 3446   2.168   4.232   9.285 -0.8483 -0.0975 -0.4395
  227MPD1    C4 3447   2.305   4.201   9.272  0.1356 -0.3408 -0.5750
  227MPD1    C5 3448   2.347   4.082   9.315 -0.3532 -0.2952 -0.0803
  227MPD1     H 3449   1.969   4.159   9.314 -0.7665  1.3614  1.5612
  227MPD1    H1 3450   2.374   4.280   9.246  0.2441 -0.2275  0.0645
  227MPD1    H2 3451   2.292   3.897   9.396 -2.2144  0.2850  0.9223
  227MPD1    H3 3452   2.451   4.053   9.314 -0.0629  0.7502  0.2437
  227MPD1     N 3453   2.110   4.362   9.264  0.1555 -0.5183  0.8101
  227MPD1    H5 3454   2.009   4.372   9.265  0.0181 -1.8893  0.1139
  227MPD1    N1 3455   2.022   3.913   9.408  0.1550  0.5764  0.3258
  227MPD1    H6 3456   1.941   3.899   9.348  0.9144 -2.1194 -0.0876
  227MPD1    H7 3457   2.068   3.825   9.432  0.6756  0.3777 -1.4416
  228MPD1     C 3458   4.120   4.174  11.954  0.7430  0.2451  0.6744
  228MPD1    C1 3459   4.191   4.071  12.005 -0.3204  0.2901  0.0680
  228MPD1    C2 3460   4.242   4.081  12.135  0.7240 -0.6254 -0.6926
  228MPD1    C3 3461   4.211   4.197  12.211  0.1435  0.1024  0.2816
  228MPD1    C4 3462   4.137   4.300  12.155  0.4173 -0.2806 -0.0196
  228MPD1    C5 3463   4.091   4.284  12.025 -0.1867 -0.5179 -0.3995
  228MPD1     H 3464   4.294   3.998  12.180  0.0549 -0.0477  1.1292
  228MPD1    H1 3465   4.117   4.388  12.216  0.1734 -0.6057  0.3709
  228MPD1    H2 3466   4.076   4.168  11.854  0.2709 -1.9354  1.0117
  228MPD1    H3 3467   4.027   4.351  11.970 -0.6956 -0.0519  0.7533
  228MPD1     N 3468   4.252   4.196  12.352  0.3487  0.1122 -0.3691
  228MPD1    H5 3469   4.297   4.110  12.382  2.0887  1.2542  0.2066
  228MPD1    N1 3470   4.212   3.956  11.929 -0.0930 -0.3796 -0.0923
  228MPD1    H6 3471   4.130   3.934  11.873 -0.2457 -0.2086  0.0618
  228MPD1    H7 3472   4.228   3.873  11.985  2.2075 -0.6937 -1.2227
  229MPD1     C 3473   0.059   3.300  14.105  0.4728  0.3814 -0.1422
  229MPD1    C1 3474   0.179   3.238  14.127  0.7638  0.2357 -0.2424
  229MPD1    C2 3475   0.215   3.183  14.248  0.8302 -0.2418 -0.1414
  229MPD1    C3 3476   0.129   3.201  14.353 -1.0646  0.0424  0.5481
  229MPD1    C4 3477   0.007   3.267  14.331 -0.5643  0.0047  0.6183
  229MPD1    C5 3478   4.697   3.315  14.212 -0.0189  1.0711  0.1049
  229MPD1     H 3479   0.308   3.129  14.265  0.7831  0.5626  2.6616
  229MPD1    H1 3480   4.657   3.287  14.412 -0.6568 -0.0368  0.5492
  229MPD1    H2 3481   0.038   3.344  14.008  1.0145 -0.5894 -0.7100
  229MPD1    H3 3482   4.599   3.360  14.196 -0.5799  0.3652  1.5860
  229MPD1     N 3483   0.155   3.148  14.474  0.1290  0.0769 -0.1541
  229MPD1    H5 3484   0.101   3.181  14.553 -0.7544  0.0891 -0.7547
  229MPD1    N1 3485   0.273   3.262  14.024  0.1435 -0.0876  0.2934
  229MPD1    H6 3486   0.227   3.233  13.938  0.8030 -1.0883  0.2752
  229MPD1    H7 3487   0.352   3.198  14.032  0.3908  0.1214 -0.4407
  230MPD1     C 3488   0.603   3.201  15.361 -0.3416 -0.2255  0.0900
  230MPD1    C1 3489   0.639   3.081  15.311 -0.3497 -0.1836  0.1258
  230MPD1    C2 3490   0.558   3.021  15.220 -0.2596 -0.2780  0.0808
  230MPD1    C3 3491   0.460   3.099  15.160 -1.2435 -0.4346 -0.5963
  230MPD1    C4 3492   0.420   3.217  15.214 -0.1511 -0.1432  0.1604
  230MPD1    C5 3493   0.492   3.271  15.320  0.5206 -0.0035  0.7066
  230MPD1     H 3494   0.578   2.921  15.181 -0.2900 -0.6955  1.1211
  230MPD1    H1 3495   0.345   3.280  15.168 -0.1645 -0.6161 -0.4615
  230MPD1    H2 3496   0.678   3.241  15.429  1.2957 -0.6415 -1.4743
  230MPD1    H3 3497   0.485   3.376  15.344 -3.8822 -0.3358  0.9531
  230MPD1     N 3498   0.380   3.042  15.058  0.2954  0.4086  0.3049
  230MPD1    H5 3499   0.414   2.950  15.031 -2.3341 -0.2484 -0.7862
  230MPD1    N1 3500   0.732   3.000  15.384 -0.0153  0.1475 -0.3801
  230MPD1    H6 3501   0.785   2.941  15.319 -1.1255 -0.1916 -0.9681
  230MPD1    H7 3502   0.795   3.065  15.431  0.3436 -1.5717  1.5014
  231MPD1     C 3503   3.158   4.718  15.213  0.9879 -0.7698 -0.4643
  231MPD1    C1 3504   3.189   4.666  15.092  0.5816 -0.2018  0.0359
  231MPD1    C2 3505   3.304   4.710  15.036  0.6422 -0.0193  0.0422
  231MPD1    C3 3506   3.389   0.079  15.111 -0.0904  0.0074  0.4460
  231MPD1    C4 3507   3.357   0.130  15.238  0.1842 -0.3187 -0.1255
  231MPD1    C5 3508   3.237   0.086  15.284 -0.1272 -0.2301 -0.1151
  231MPD1     H 3509   3.333   4.665  14.942  0.0095  2.3307 -1.2765
  231MPD1    H1 3510   3.420   0.191  15.302  1.1025 -0.6725 -0.6912
  231MPD1    H2 3511   3.076   4.671  15.268  0.0313  1.1351 -0.2796
  231MPD1    H3 3512   3.221   0.105  15.390 -1.1740  0.8556 -0.4702
  231MPD1     N 3513   3.507   0.122  15.044 -0.3058  0.2431 -0.6826
  231MPD1    H5 3514   3.526   0.091  14.949 -1.6959 -0.4728 -0.7221
  231MPD1    N1 3515   3.120   4.551  15.044  0.4078 -0.0424  1.0091
  231MPD1    H6 3516   3.028   4.538  15.084  0.1977 -2.6127 -0.2792
  231MPD1    H7 3517   3.125   4.529  14.944 -1.8383  0.3197  0.8217
  232MPD1     C 3518   0.505   2.451  17.542  0.5442 -0.3171  0.5296
  232MPD1    C1 3519   0.484   2.328  17.477 -0.3076 -0.2675 -0.1840
  232MPD1    C2 3520   0.409   2.235  17.547  0.0614 -0.1596 -0.2368
  232MPD1    C3 3521   0.356   2.268  17.668  0.0906  0.5854 -0.1646
  232MPD1    C4 3522   0.377   2.386   0.050 -0.0198 -0.3871 -0.5572
  232MPD1    C5 3523   0.448   2.482  17.663 -0.5257  0.2976  0.6621
  232MPD1     H 3524   0.397   2.135  17.507 -1.4056 -0.3693  0.7594
  232MPD1    H1 3525   0.333   2.403   0.148  2.4452  0.9457  0.3227
  232MPD1    H2 3526   0.567   2.532  17.505 -2.2882  1.6295 -0.0330
  232MPD1    H3 3527   0.463   2.583   0.019  0.6685 -0.7190  2.9413
  232MPD1     N 3528   0.283   2.180   0.073  0.5414  0.1297 -0.2594
  232MPD1    H5 3529   0.266   2.218   0.165  0.4285 -0.1164 -0.1788
  232MPD1    N1 3530   0.513   2.316  17.346  0.1717  0.4322 -0.8246
  232MPD1    H6 3531   0.598   2.369  17.331 -0.0674  0.9150 -0.5000
  232MPD1    H7 3532   0.545   2.223  17.322  0.0201  0.2454 -0.3088
  233MPD1     C 3533   4.640   0.340   1.442 -0.1540  0.3281  0.4509
  233MPD1    C1 3534   4.702   0.412   1.340 -0.1322 -0.7167  0.1222
  233MPD1    C2 3535   0.115   0.381   1.313  0.8870 -0.1823  0.2804
  233MPD1    C3 3536   0.181   0.275   1.374  0.3481 -0.0642 -0.6679
  233MPD1    C4 3537   0.119   0.199   1.473 -0.2150 -0.3294 -0.1707
  233MPD1    C5 3538   4.710   0.239   1.505 -0.0465  0.4308  0.2798
  233MPD1     H 3539   0.159   0.428   1.226  0.1038 -3.2181 -1.7542
  233MPD1    H1 3540   0.178   0.120   1.519 -0.3544 -0.5402 -0.3511
  233MPD1    H2 3541   4.537   0.364   1.469 -0.9397 -3.3566  0.7784
  233MPD1    H3 3542   4.658   0.181   1.581 -0.9874 -1.1549 -1.5634
  233MPD1     N 3543   0.321   0.265   1.348  0.2584  0.2421 -0.7818
  233MPD1    H5 3544   0.369   0.340   1.298  0.3375  1.0473  0.5208
  233MPD1    N1 3545   4.643   0.525   1.277 -0.9072  0.3158 -0.4181
  233MPD1    H6 3546   4.660   0.529   1.177  0.9092  1.9635 -0.0497
  233MPD1    H7 3547   4.541   0.517   1.273 -0.7438 -1.5744 -0.4922
  234MPD1     C 3548   3.187   2.852  10.108  0.3502 -0.1519  0.3816
  234MPD1    C1 3549   3.166   2.840   9.970  0.9434  0.4446 -0.8838
  234MPD1    C2 3550   3.076   2.933   9.924  0.0088  0.7857 -0.1013
  234MPD1    C3 3551   3.005   3.018  10.005 -0.3647 -0.5990 -0.0806
  234MPD1    C4 3552   3.010   3.005  10.139 -0.4800 -0.3511 -0.4107
  234MPD1    C5 3553   3.108   2.923  10.196  0.6335 -0.4835 -0.0456
  234MPD1     H 3554   3.067   2.930   9.816 -4.6327  0.5477  0.3057
  234MPD1    H1 3555   2.948   3.071  10.199  0.6885  0.3931 -0.0406
  234MPD1    H2 3556   3.262   2.784  10.147 -0.5376  0.0139  2.4042
  234MPD1    H3 3557   3.108   2.917  10.304 -1.2970  0.4680  0.0134
  234MPD1     N 3558   2.919   3.122   9.956  0.4341  0.4230 -0.1096
  234MPD1    H5 3559   2.863   3.174  10.023 -0.8909  0.7417 -1.4556
  234MPD1    N1 3560   3.240   2.761   9.884 -0.0776 -0.2043 -0.6105
  234MPD1    H6 3561   3.261   2.674   9.934 -3.0501  1.7124  4.0208
  234MPD1    H7 3562   3.199   2.747   9.792  0.1953 -1.8636 -0.4789
  235MPD1     C 3563   3.474   1.600   8.554  0.6600  0.2127 -0.8060
  235MPD1    C1 3564   3.566   1.525   8.615 -0.2150 -0.1206 -0.2326
  235MPD1    C2 3565   3.649   1.594   8.704 -0.4612  0.5680 -0.2203
  235MPD1    C3 3566   3.649   1.729   8.718  0.1652 -0.6439 -0.5766
  235MPD1    C4 3567   3.540   1.801   8.665  0.0951 -0.6130  1.4280
  235MPD1    C5 3568   3.454   1.730   8.586  0.0991  0.4213  0.3663
  235MPD1     H 3569   3.726   1.537   8.756 -0.7569 -1.2125 -1.7257
  235MPD1    H1 3570   3.543   1.909   8.661  0.4663 -0.7416 -2.0957
  235MPD1    H2 3571   3.407   1.560   8.478  1.0736 -0.3840 -0.8537
  235MPD1    H3 3572   3.383   1.794   8.535 -0.2544 -0.6230 -0.4630
  235MPD1     N 3573   3.748   1.807   8.788 -0.0883  0.1744  0.9420
  235MPD1    H5 3574   3.725   1.905   8.798  0.7206  0.7415 -2.6991
  235MPD1    N1 3575   3.593   1.401   8.568 -0.1118  0.8534 -0.0428
  235MPD1    H6 3576   3.516   1.350   8.527 -0.3346  0.0855  1.3286
  235MPD1    H7 3577   3.640   1.336   8.631  0.3162  1.2993  0.1028
  236MPD1     C 3578   3.649   2.214   9.690  0.3779  0.1244  0.3704
  236MPD1    C1 3579   3.647   2.352   9.704  0.3814  0.1905  0.8355
  236MPD1    C2 3580   3.749   2.404   9.784  0.0328 -0.0405 -1.0637
  236MPD1    C3 3581   3.854   2.325   9.826  0.4172 -1.0186 -0.1081
  236MPD1    C4 3582   3.858   2.193   9.790 -0.0932  0.1067 -0.6484
  236MPD1    C5 3583   3.746   2.135   9.734  0.1152 -0.9692  1.1060
  236MPD1     H 3584   3.752   2.506   9.819 -3.1819 -0.4152  0.2667
  236MPD1    H1 3585   3.940   2.130   9.823  0.2482  0.4466 -0.8421
  236MPD1    H2 3586   3.569   2.157   9.643  0.8437 -0.2622  0.0392
  236MPD1    H3 3587   3.746   2.027   9.725 -1.5604 -0.7315 -1.6119
  236MPD1     N 3588   3.962   2.376   9.906 -0.4338 -0.5381 -0.2454
  236MPD1    H5 3589   4.036   2.308   9.920 -0.5349 -0.3943  0.9409
  236MPD1    N1 3590   3.539   2.429   9.667  0.5788 -0.1241 -0.0127
  236MPD1    H6 3591   3.567   2.526   9.653 -2.2108  0.6461 -0.2523
  236MPD1    H7 3592   3.506   2.393   9.578 -1.9009  0.2961  0.7296
  237MPD1     C 3593   3.665   1.100  15.675  0.2836 -0.4045  0.1999
  237MPD1    C1 3594   3.532   1.096  15.693 -0.4342 -0.8817 -0.1014
  237MPD1    C2 3595   3.449   1.140  15.594  0.6661 -0.5916 -0.2040
  237MPD1    C3 3596   3.503   1.195  15.477 -0.0906  0.2936 -0.0857
  237MPD1    C4 3597   3.633   1.200  15.461  0.5414 -0.2873  0.9189
  237MPD1    C5 3598   3.713   1.157  15.563 -0.3633  0.3589 -0.6785
  237MPD1     H 3599   3.343   1.120  15.603  0.0330  2.0724 -1.8284
  237MPD1    H1 3600   3.686   1.235  15.373  0.2337  0.1554  0.9077
  237MPD1    H2 3601   3.728   1.053  15.750 -1.3679 -0.8337  1.3323
  237MPD1    H3 3602   3.822   1.160  15.556 -0.2371 -1.6327  0.5443
  237MPD1     N 3603   3.426   1.247  15.370 -0.1682 -0.2368  0.0785
  237MPD1    H5 3604   3.479   1.276  15.288 -0.2396  3.2615  1.2771
  237MPD1    N1 3605   3.486   1.027  15.807  0.2180  0.4204  0.3902
  237MPD1    H6 3606   3.393   1.062  15.830  0.6396  2.6317 -1.2389
  237MPD1    H7 3607   3.550   1.017  15.885  0.0846  0.7835  0.5494
  238MPD1     C 3608   1.055   0.109  15.027  0.0483 -0.0157 -0.0752
  238MPD1    C1 3609   0.966   0.058  15.112  0.3495  0.3465 -0.6133
  238MPD1    C2 3610   0.939   4.641  15.096 -0.7169 -0.3405  0.2049
  238MPD1    C3 3611   0.974   4.567  14.987  0.0472  0.3480  0.1038
  238MPD1    C4 3612   1.060   4.626  14.900  0.1225  0.2179  0.8112
  238MPD1    C5 3613   1.109   0.034  14.925 -0.0869  0.5262 -0.2861
  238MPD1     H 3614   0.869   4.599  15.167 -0.1852 -0.6525  0.5407
  238MPD1    H1 3615   1.092   4.561  14.819  2.1116 -0.4421  2.1250
  238MPD1    H2 3616   1.081   0.215  15.033  0.6631 -0.2418  1.3354
  238MPD1    H3 3617   1.181   0.081  14.858  0.1239  0.7658  0.1086
  238MPD1     N 3618   0.928   4.437  14.958  0.0119 -0.3915 -0.5487
  238MPD1    H5 3619   0.944   4.409  14.862  1.5020  1.8641 -0.9523
  238MPD1    N1 3620   0.939   0.128  15.228 -1.4925  0.0327  0.1857
  238MPD1    H6 3621   0.852   0.107  15.277 -1.1637 -2.4479 -0.2957
  238MPD1    H7 3622   0.931   0.229  15.212 -0.4581  0.0731 -0.0697
  239MPD1     C 3623   0.505   4.534  14.883 -0.2672 -0.4879  0.6004
  239MPD1    C1 3624   0.428   4.626  14.959  0.0978  0.3734 -0.3908
  239MPD1    C2 3625   0.489   0.025  14.995  0.0202  0.4534 -0.3815
  239MPD1    C3 3626   0.614   0.061  14.951 -0.0094  0.0322 -0.0159
  239MPD1    C4 3627   0.689   4.690  14.873 -0.3229  0.1374 -0.1873
  239MPD1    C5 3628   0.633   4.560  14.850 -0.4137 -0.1212 -0.2614
  239MPD1     H 3629   0.426   0.091  15.053  0.8951  1.0395 -0.1024
  239MPD1    H1 3630   0.789   4.715  14.842 -1.0433 -1.2123 -3.5862
  239MPD1    H2 3631   0.464   4.437  14.855  2.3372 -1.7608  1.2080
  239MPD1    H3 3632   0.689   4.482  14.799  0.7965  0.6665 -0.1121
  239MPD1     N 3633   0.674   0.192  14.969 -0.1845  0.0422 -0.5195
  239MPD1    H5 3634   0.733   0.217  14.891  1.1504 -1.5601 -0.0272
  239MPD1    N1 3635   0.294   4.600  14.992 -0.2203 -0.2789 -0.0722
  239MPD1    H6 3636   0.282   4.654  15.077  2.5387 -1.0690  0.8088
  239MPD1    H7 3637   0.263   4.504  15.005 -0.4481  0.0327  1.6351
  240MPD1     C 3638   0.035   0.956  14.308  0.0927  0.1679 -0.5864
  240MPD1    C1 3639   4.672   0.872  14.375 -0.0722 -1.1047  0.0279
  240MPD1    C2 3640   4.704   0.739  14.356 -0.9153 -0.3689 -0.2043
  240MPD1    C3 3641   0.102   0.689  14.307 -0.0946  0.7977  1.1485
  240MPD1    C4 3642   0.202   0.779  14.268 -0.2940 -0.2125  0.2109
  240MPD1    C5 3643   0.164   0.911  14.269  0.7120 -0.1930  0.1648
  240MPD1     H 3644   4.637   0.659  14.387 -0.2109 -0.6680  0.5275
  240MPD1    H1 3645   0.293   0.743  14.223 -0.8410 -0.0664 -1.0006
  240MPD1    H2 3646   0.009   1.060  14.292 -2.3716 -0.8985 -3.4117
  240MPD1    H3 3647   0.220   0.984  14.212 -0.1912  0.6499  0.3328
  240MPD1     N 3648   0.127   0.545  14.301  0.1713 -0.4163  0.9098
  240MPD1    H5 3649   0.054   0.476  14.315  1.7835 -1.8477  2.2679
  240MPD1    N1 3650   4.547   0.900  14.425 -0.0836 -0.0662  0.0677
  240MPD1    H6 3651   4.509   0.828  14.486  0.7700 -0.3275  0.2894
  240MPD1    H7 3652   4.535   0.988  14.475  0.0079  1.0326 -1.8191
  241MPD1     C 3653   0.938   4.712  14.577 -0.2173 -0.4319  0.0028
  241MPD1    C1 3654   0.839   4.618  14.557 -0.2539 -0.7437 -0.9255
  241MPD1    C2 3655   0.718   4.671  14.515 -1.4649  0.7459  0.1760
  241MPD1    C3 3656   0.707   0.080  14.459 -0.2790 -0.6579 -0.1392
  241MPD1    C4 3657   0.815   0.163  14.478  0.4549  0.3016  0.0101
  241MPD1    C5 3658   0.929   0.122  14.534 -0.0505 -0.2063 -0.1635
  241MPD1     H 3659   0.638   4.600  14.501 -0.5005  0.2777 -3.0085
  241MPD1    H1 3660   0.823   0.261  14.433 -0.3508  0.7576  0.8820
  241MPD1    H2 3661   1.025   4.674  14.628 -1.0976 -2.4737  0.0036
  241MPD1    H3 3662   1.021   0.178  14.538  0.3290 -0.8759  0.5134
  241MPD1     N 3663   0.584   0.126  14.401 -0.6755  0.4345  0.0848
  241MPD1    H5 3664   0.583   0.220  14.363 -1.5349  0.6115  0.5441
  241MPD1    N1 3665   0.846   4.481  14.590 -0.6344  0.2364 -0.4144
  241MPD1    H6 3666   0.803   4.426  14.516  0.6906  1.7034 -2.2785
  241MPD1    H7 3667   0.944   4.457  14.603 -1.6483 -3.9126 -0.3267
  242MPD1     C 3668   4.165   3.421  15.762  0.3929  0.2682 -0.5369
  242MPD1    C1 3669   4.089   3.482  15.657 -0.8420  0.1585  0.3781
  242MPD1    C2 3670   4.149   3.513  15.530 -0.0048 -0.2887 -1.0791
  242MPD1    C3 3671   4.287   3.491  15.508  0.8693  1.0665 -0.0009
  242MPD1    C4 3672   4.358   3.433  15.616  0.4829  0.3422  0.4613
  242MPD1    C5 3673   4.296   3.407  15.733  0.7056 -0.2600  0.5529
  242MPD1     H 3674   4.080   3.551  15.456 -1.1600  0.3462  0.3149
  242MPD1    H1 3675   4.462   3.402  15.611  0.6919  1.3990 -1.3806
  242MPD1    H2 3676   4.129   3.378  15.854  0.2302  1.1364 -0.1969
  242MPD1    H3 3677   4.349   3.350  15.810 -1.2661  0.9736  2.8322
  242MPD1     N 3678   4.356   3.509  15.382  0.5542  0.4248 -0.0102
  242MPD1    H5 3679   4.457   3.505  15.381  0.5239 -0.6108  0.7129
  242MPD1    N1 3680   3.952   3.478  15.669  0.1713 -0.6676 -0.1042
  242MPD1    H6 3681   3.919   3.567  15.631  0.2580 -1.0073 -0.9654
  242MPD1    H7 3682   3.915   3.471  15.764 -0.3956  4.3373  0.0650
  243MPD1     C 3683   2.322   1.402  16.992 -0.4438 -0.2773 -0.1607
  243MPD1    C1 3684   2.282   1.442  16.864  0.3523  0.3604 -0.4817
  243MPD1    C2 3685   2.179   1.526  16.855 -0.2323 -0.0525  0.3869
  243MPD1    C3 3686   2.085   1.547  16.960  0.5401  0.4717 -0.3201
  243MPD1    C4 3687   2.128   1.499  17.086  0.5022 -0.4207  0.7974
  243MPD1    C5 3688   2.249   1.439  17.101  0.8269  0.4184  0.6401
  243MPD1     H 3689   2.136   1.547  16.757 -0.8573  2.3969  1.1807
  243MPD1    H1 3690   2.065   1.508  17.174  1.6571 -0.2086  1.6014
  243MPD1    H2 3691   2.405   1.335  17.009 -1.9901 -1.9714  0.6952
  243MPD1    H3 3692   2.279   1.406  17.200  0.1313  2.5540  1.5505
  243MPD1     N 3693   1.968   1.615  16.935 -0.0365  0.2929 -0.1677
  243MPD1    H5 3694   1.939   1.619  16.838  1.8775  3.0973 -0.6363
  243MPD1    N1 3695   2.369   1.403  16.755 -0.0527  0.2357 -0.5342
  243MPD1    H6 3696   2.322   1.420  16.666 -1.6663 -1.1191  0.0489
  243MPD1    H7 3697   2.404   1.308  16.761 -0.5918  0.2180  2.4586
  244MPD1     C 3698   1.622   2.416  17.442  0.2852 -0.5239 -0.1899
  244MPD1    C1 3699   1.740   2.346  17.442  0.4708 -0.7480 -0.5180
  244MPD1    C2 3700   1.759   2.254  17.342 -0.2901 -0.5434 -0.4169
  244MPD1    C3 3701   1.655   2.207  17.266 -0.6155  0.2107 -0.8029
  244MPD1    C4 3702   1.529   2.262  17.292  0.7660 -0.0739  0.3746
  244MPD1    C5 3703   1.519   2.371  17.369  0.3847  0.3080 -0.1613
  244MPD1     H 3704   1.854   2.203  17.335  0.0466  0.0857 -0.4596
  244MPD1    H1 3705   1.435   2.215  17.266  0.1762  0.5632  1.3271
  244MPD1    H2 3706   1.617   2.504  17.506 -1.2563 -2.7372  2.7221
  244MPD1    H3 3707   1.419   2.402  17.398  0.3763  0.3810 -0.2689
  244MPD1     N 3708   1.682   2.109  17.174  0.0550  0.1825 -0.7087
  244MPD1    H5 3709   1.777   2.074  17.174  0.4932  1.3570  2.4007
  244MPD1    N1 3710   1.849   2.392  17.514 -0.2835  0.3448 -0.2764
  244MPD1    H6 3711   1.830   2.414  17.611  1.9460  2.6968 -0.3922
  244MPD1    H7 3712   1.921   2.319  17.516 -1.3200 -0.5999  2.4190
  245MPD1     C 3713   3.125   2.382  13.121 -0.2949 -0.5483  0.3773
  245MPD1    C1 3714   3.074   2.495  13.185 -0.0735  0.0398 -0.0664
  245MPD1    C2 3715   3.152   2.598  13.229  0.1712 -0.0921  0.1456
  245MPD1    C3 3716   3.287   2.584  13.222  0.6060  0.4050 -0.1539
  245MPD1    C4 3717   3.343   2.477  13.158  0.5498  0.3074  0.6274
  245MPD1    C5 3718   3.261   2.393  13.094 -0.9248 -0.4669 -0.4412
  245MPD1     H 3719   3.106   2.689  13.265  1.5131 -0.1135  1.9370
  245MPD1    H1 3720   3.450   2.477  13.141  0.4972  0.9062  0.2972
  245MPD1    H2 3721   3.068   2.293  13.097  0.8138 -0.3824 -2.8716
  245MPD1    H3 3722   3.310   2.308  13.048  0.5248  0.8504 -1.2812
  245MPD1     N 3723   3.370   2.687  13.285 -0.1288 -0.3524 -0.0518
  245MPD1    H5 3724   3.316   2.743  13.349 -0.3369  0.7203 -1.1722
  245MPD1    N1 3725   2.937   2.509  13.199  0.4521  0.0873  0.0283
  245MPD1    H6 3726   2.891   2.423  13.169 -0.0941 -0.3863  2.2207
  245MPD1    H7 3727   2.902   2.549  13.285 -1.7650 -2.4146  0.2956
  246MPD1     C 3728   0.369   3.969   9.206 -0.1188  0.3049 -0.2084
  246MPD1    C1 3729   0.260   3.907   9.146  0.1703  0.3137 -0.2756
  246MPD1    C2 3730   0.136   3.934   9.201  0.8345 -0.2336  0.3089
  246MPD1    C3 3731   0.125   3.991   9.320  0.0967  0.3181 -0.7192
  246MPD1    C4 3732   0.238   4.035   9.389 -0.1522  0.4619  0.1250
  246MPD1    C5 3733   0.355   4.041   9.320 -0.4796 -0.4316 -0.1441
  246MPD1     H 3734   0.041   3.902   9.157  0.1937  2.3910 -0.2116
  246MPD1    H1 3735   0.231   4.087   9.483 -1.4903  0.5172 -0.0063
  246MPD1    H2 3736   0.466   3.963   9.157  0.5716 -3.6001  1.6723
  246MPD1    H3 3737   0.442   4.083   9.369 -1.5310 -1.7615  2.8894
  246MPD1     N 3738   4.713   3.991   9.378  0.2189 -0.7783  0.8191
  246MPD1    H5 3739   4.633   3.952   9.329  0.1639  1.9430 -1.2426
  246MPD1    N1 3740   0.267   3.841   9.016 -0.3556 -0.1890 -0.1252
  246MPD1    H6 3741   0.360   3.808   8.994 -0.0804  1.1650 -1.0136
  246MPD1    H7 3742   0.197   3.768   9.002 -0.5618  0.1570 -0.8810
  247MPD1     C 3743   2.469   2.188  16.482 -0.0204  0.5320  0.1507
  247MPD1    C1 3744   2.596   2.214  16.531  0.1413  0.5182  0.5476
  247MPD1    C2 3745   2.694   2.224  16.438 -0.4630 -0.2874 -0.3512
  247MPD1    C3 3746   2.671   2.176  16.310  0.3986 -1.0576 -0.0649
  247MPD1    C4 3747   2.541   2.155  16.271  0.1199  0.2791  0.3142
  247MPD1    C5 3748   2.435   2.168  16.354 -0.1209 -0.0172  0.0096
  247MPD1     H 3749   2.793   2.239  16.479 -0.3179 -0.7470 -0.5251
  247MPD1    H1 3750   2.505   2.135  16.171  1.1078 -3.1005  0.6408
  247MPD1    H2 3751   2.387   2.194  16.552 -0.7098  3.2362 -0.8931
  247MPD1    H3 3752   2.331   2.163  16.322 -0.1615  1.0206 -0.0360
  247MPD1     N 3753   2.772   2.165  16.215  0.4602 -0.1118  0.7454
  247MPD1    H5 3754   2.735   2.151  16.122 -0.0710  1.8085  0.6746
  247MPD1    N1 3755   2.621   2.259  16.657 -0.1402 -0.4352 -0.1571
  247MPD1    H6 3756   2.713   2.232  16.690  1.2178  2.6267 -1.4804
  247MPD1    H7 3757   2.550   2.216  16.717 -2.3821  1.8747 -1.1475
  248MPD1     C 3758   3.584   3.822   0.133 -0.2607  0.1520  0.8523
  248MPD1    C1 3759   3.490   3.750   0.063 -0.1089 -0.2179 -0.1945
  248MPD1    C2 3760   3.503   3.617   0.086 -0.0791  0.0408  0.4477
  248MPD1    C3 3761   3.592   3.552   0.179  0.5946 -0.1864 -0.1456
  248MPD1    C4 3762   3.691   3.629   0.228  0.6673  0.2791 -0.1477
  248MPD1    C5 3763   3.684   3.772   0.207  0.1183 -0.1858 -0.3052
  248MPD1     H 3764   3.434   3.554   0.030 -0.8453  0.2498  1.1507
  248MPD1    H1 3765   3.767   3.593   0.296  0.6154 -0.5414 -0.5219
  248MPD1    H2 3766   3.580   3.930   0.126 -0.9986 -0.0397 -1.5378
  248MPD1    H3 3767   3.747   3.845   0.256 -0.3364 -0.7230  1.0621
  248MPD1     N 3768   3.569   3.416   0.211 -0.0519  0.2617 -0.3538
  248MPD1    H5 3769   3.487   3.373   0.168 -1.7765  0.5139  2.6268
  248MPD1    N1 3770   3.433   3.799  17.626  0.6990  0.5507  0.0131
  248MPD1    H6 3771   3.349   3.753  17.592 -0.3868  1.3549  1.5977
  248MPD1    H7 3772   3.423   3.900  17.629  0.2625  0.5606 -1.8393
  249MPD1     C 3773   4.508   0.018  10.622 -0.8456  0.1344 -0.0005
  249MPD1    C1 3774   4.527   0.146  10.581  0.8017  0.0643 -0.4135
  249MPD1    C2 3775   4.454   0.189  10.472  0.5921  0.1871 -0.1923
  249MPD1    C3 3776   4.360   0.113  10.413 -1.0697 -0.1182 -0.0124
  249MPD1    C4 3777   4.328   4.708  10.461  0.3475 -0.0881 -0.1951
  249MPD1    C5 3778   4.408   4.659  10.558 -0.4275 -0.1852 -0.6003
  249MPD1     H 3779   4.467   0.292  10.441  1.0803 -0.1349 -1.0485
  249MPD1    H1 3780   4.246   4.650  10.419 -0.3194  2.0105 -1.7664
  249MPD1    H2 3781   4.575   4.692  10.694 -2.1972 -0.3235  0.9709
  249MPD1    H3 3782   4.396   4.559  10.599 -0.0830 -0.0314 -0.1328
  249MPD1     N 3783   4.281   0.183  10.315  0.5489  0.7078  0.1154
  249MPD1    H5 3784   4.300   0.281  10.293  4.2227  0.2568  1.3270
  249MPD1    N1 3785   4.639   0.207  10.625  0.4555  0.3702  0.1468
  249MPD1    H6 3786   4.637   0.184  10.724 -0.5299  1.2738  0.3342
  249MPD1    H7 3787   4.622   0.306  10.615 -1.1909  0.2234  1.4180
  250MPD2     C 3788   1.687   0.942  13.213  0.1577  0.0788  0.5299
  250MPD2    C1 3789   1.678   0.936  13.076  0.2786 -0.3871 -0.3941
  250MPD2    C2 3790   1.592   0.853  13.017  0.0463  0.5862  0.6634
  250MPD2    C3 3791   1.506   0.776  13.097  0.0073 -0.5398  0.0068
  250MPD2    C4 3792   1.518   0.783  13.234  0.0749 -0.0139 -0.5482
  250MPD2    C5 3793   1.610   0.863  13.288  0.0928 -0.6218  0.7639
  250MPD2     H 3794   1.587   0.866  12.909  0.8356  0.0930  0.5685
  250MPD2    H1 3795   1.448   0.725  13.292  1.3947  1.5774  2.6175
  250MPD2    H2 3796   1.753   1.006  13.270  0.3849 -1.3576  1.8697
  250MPD2    H3 3797   1.613   0.881  13.395  0.6663 -0.4330  0.7155
  250MPD2     N 3798   1.398   0.699  13.053 -0.4349  0.2288  0.4032
  250MPD2    H5 3799   1.341   0.655  13.124 -0.0337 -0.7532  0.1126
  250MPD2    N1 3800   1.749   1.028  12.987  0.0933  0.1476 -0.0141
  250MPD2    H7 3801   1.725   1.024  12.889 -1.0536 -0.0908  0.2765
  251TMC3    C1 3802   1.896   1.198  12.919  0.1604  0.2660 -0.0598
  251TMC3    C2 3803   1.897   1.329  12.955  0.4787  0.2486  0.4132
  251TMC3    C3 3804   1.877   1.423  12.854  0.0147 -0.4479  0.0271
  251TMC3    C4 3805   1.869   1.160  12.790  0.9505  0.0393 -0.4633
  251TMC3    C5 3806   1.856   1.260  12.689  0.2585  0.7127  0.0853
  251TMC3    C6 3807   1.843   1.392  12.726 -0.5519 -0.0253  0.2445
  251TMC3     C 3808   1.847   1.121  13.026  0.6694 -0.8622  0.4598
  251TMC3     O 3809   1.877   1.153  13.139 -0.7403 -0.4516  0.2284
  251TMC3     H 3810   1.912   1.371  13.054  3.6792  1.5149 -0.5906
  251TMC3    H1 3811   1.880   1.055  12.764  1.8726  0.0203  0.0040
  251TMC3    H2 3812   1.829   1.465  12.647  2.0477 -0.7093 -0.8487
  251TMC3    C7 3813   1.895   1.240  12.557  0.5350 -0.2407  0.7399
  251TMC3    C8 3814   1.810   1.538  12.905 -0.4439  0.5300 -0.0831
  251TMC3    O1 3815   1.952   1.336  12.507 -0.2724 -0.1355 -0.2941
  251TMC3    O2 3816   1.824   1.561  13.025 -0.0004  0.0485 -0.2445
  252TMC3    C1 3817   2.280   2.115   8.827  0.3592  0.9476  0.3719
  252TMC3    C2 3818   2.420   2.104   8.850  0.2782  0.1885 -0.1086
  252TMC3    C3 3819   2.452   2.023   8.954 -0.2284 -0.4592  0.1281
  252TMC3    C4 3820   2.185   2.055   8.898 -0.6104  0.0994 -0.1573
  252TMC3    C5 3821   2.222   1.975   9.004 -0.3499  0.2535 -0.5189
  252TMC3    C6 3822   2.355   1.955   9.035 -0.0922 -0.1256  0.3470
  252TMC3     C 3823   2.246   2.158   8.696  0.0361  0.5331 -0.4146
  252TMC3     O 3824   2.158   2.099   8.630 -0.2362 -0.4174  0.3728
  252TMC3     H 3825   2.503   2.154   8.802  2.0272  0.4417  3.2178
  252TMC3    H1 3826   2.080   2.070   8.876 -0.7410 -1.4054 -0.5197
  252TMC3    H2 3827   2.387   1.902   9.124  0.4551 -0.8566 -0.2854
  252TMC3    C7 3828   2.143   1.874   9.078 -0.7802 -0.3667 -0.3897
  252TMC3    C8 3829   2.585   2.015   8.994 -0.1072  0.3989  0.0626
  252TMC3    O1 3830   2.193   1.817   9.174 -0.8435  0.6866  0.1018
  252TMC3    O2 3831   2.665   2.022   8.903  0.2037  0.2363  0.5314
  253MPD2     C 3832   3.156   1.404  15.720 -0.1840  0.1637 -0.0664
  253MPD2    C1 3833   3.029   1.445  15.751 -0.2129 -0.0273 -0.0572
  253MPD2    C2 3834   2.993   1.451  15.885 -0.4890 -0.1292  0.4355
  253MPD2    C3 3835   3.070   1.399  15.985 -0.0165  0.4579 -0.7927
  253MPD2    C4 3836   3.201   1.361  15.956 -0.2592  0.0006  0.3381
  253MPD2    C5 3837   3.245   1.369  15.820  0.2351  0.6048  0.6156
  253MPD2     H 3838   2.902   1.507  15.904 -1.0246 -0.3139 -1.5851
  253MPD2    H1 3839   3.278   1.329  16.025 -2.5354 -1.3895  2.2285
  253MPD2    H2 3840   3.194   1.387  15.620 -2.2128  2.5040 -1.2398
  253MPD2    H3 3841   3.346   1.337  15.795  1.2375  1.0483  4.0275
  253MPD2     N 3842   3.028   1.372  16.116  0.2753  0.0712  0.2102
  253MPD2    H5 3843   3.094   1.312  16.163 -0.7782  0.0433  1.6314
  253MPD2    N1 3844   2.922   1.463  15.653  0.5769 -0.1467 -0.4075
  253MPD2    H7 3845   2.833   1.476  15.701  0.6296  0.2735 -0.4248
  254TMC3    C1 3846   2.863   1.316  16.282  0.0462 -0.6277  0.0083
  254TMC3    C2 3847   2.730   1.296  16.303 -0.2574 -0.2808  0.1434
  254TMC3    C3 3848   2.697   1.211  16.410  0.1487 -0.0111 -0.0747
  254TMC3    C4 3849   2.962   1.280  16.371 -1.4806 -0.7761 -0.7012
  254TMC3    C5 3850   2.927   1.188  16.471  0.5824  0.0339  0.0472
  254TMC3    C6 3851   2.799   1.155  16.487 -0.8916 -0.3551  0.5458
  254TMC3     C 3852   2.899   1.390  16.160  1.2716 -0.9058  0.6464
  254TMC3     O 3853   2.805   1.444  16.103  0.1188  0.6939  0.2189
  254TMC3     H 3854   2.653   1.315  16.230  0.4332  0.3944 -0.4090
  254TMC3    H1 3855   3.062   1.319  16.357 -1.3813 -0.3300  1.3353
  254TMC3    H2 3856   2.778   1.089  16.571  2.5078  0.2767  1.8778
  254TMC3    C7 3857   3.008   1.168  16.586 -0.3515  0.5239  0.0240
  254TMC3    C8 3858   2.559   1.200  16.447 -0.5402 -0.2918 -0.2128
  254TMC3    O1 3859   3.012   1.055  16.640  0.3082  1.1955  0.2037
  254TMC3    O2 3860   2.534   1.106  16.525  0.5439 -0.4599  0.1712
  255MPD2     C 3861   0.783   3.299  10.419 -0.0968 -0.1663 -0.3861
  255MPD2    C1 3862   0.889   3.383  10.423 -0.3415 -0.3474  0.8513
  255MPD2    C2 3863   1.018   3.335  10.448 -0.1206  0.3719 -0.4745
  255MPD2    C3 3864   1.035   3.194  10.451 -0.3785 -0.3855  0.1531
  255MPD2    C4 3865   0.928   3.111  10.429 -0.1909  0.8131  0.0637
  255MPD2    C5 3866   0.808   3.169  10.414  0.4942 -0.5042 -0.2953
  255MPD2     H 3867   1.108   3.396  10.458  0.5221 -0.1645 -2.9597
  255MPD2    H1 3868   0.927   3.003  10.421  1.2073  0.5810  3.2412
  255MPD2    H2 3869   0.682   3.338  10.410 -0.1818 -0.4105 -0.4969
  255MPD2    H3 3870   0.726   3.099  10.403  0.2329 -0.1696 -0.5084
  255MPD2     N 3871   1.166   3.145  10.461 -0.2821 -0.8006  0.4788
  255MPD2    H5 3872   1.237   3.216  10.474 -2.1991  1.5896 -2.0846
  255MPD2    N1 3873   0.865   3.523  10.414 -0.3931 -0.2780  0.0701
  255MPD2    H7 3874   0.772   3.546  10.378 -0.0387  0.3404 -0.4672
  256TMC3    C1 3875   0.925   3.744  10.338 -0.0530 -0.7148  0.3525
  256TMC3    C2 3876   0.975   3.869  10.365 -1.0439  0.5890 -0.9524
  256TMC3    C3 3877   0.940   3.969  10.270  0.6057  0.2546 -0.3337
  256TMC3    C4 3878   0.823   3.717  10.239  0.0562  0.1974  0.1252
  256TMC3    C5 3879   0.787   3.820  10.158  0.0876  0.6401 -0.3042
  256TMC3    C6 3880   0.853   3.941  10.168 -0.0731 -0.6515  0.9140
  256TMC3     C 3881   0.949   3.624  10.428  0.2891 -0.8450 -0.4523
  256TMC3     O 3882   1.045   3.631  10.507  0.1329  0.5003  0.1405
  256TMC3     H 3883   1.054   3.883  10.437 -2.3013  2.8687 -0.0134
  256TMC3    H1 3884   0.783   3.618  10.221 -1.8007  1.0809 -0.5590
  256TMC3    H2 3885   0.832   4.026  10.104  1.0359 -2.2398 -1.6004
  256TMC3    C7 3886   0.744   3.781  10.026 -0.1335  0.0074  0.3234
  256TMC3    C8 3887   1.054   4.051  10.230  0.2563  0.1479  0.2095
  256TMC3    O1 3888   0.696   3.666  10.013 -0.8264 -0.1542 -0.0169
  256TMC3    O2 3889   1.064   4.166  10.260  0.4177  0.1228 -0.2989
  257MPD2     C 3890   0.419   1.099  13.589  0.8579 -0.9632 -0.2349
  257MPD2    C1 3891   0.327   1.019  13.523  0.1464  1.1119 -0.4891
  257MPD2    C2 3892   0.282   0.905  13.584 -0.1581  0.3719  0.2620
  257MPD2    C3 3893   0.334   0.864  13.708 -0.2265  0.6733  0.5728
  257MPD2    C4 3894   0.421   0.942  13.777 -0.0265 -0.4838 -0.6784
  257MPD2    C5 3895   0.464   1.060  13.711 -0.2075  0.1158 -0.1450
  257MPD2     H 3896   0.203   0.849  13.536  0.9533 -0.0929 -1.0281
  257MPD2    H1 3897   0.471   0.915  13.869 -0.1536  0.3940 -0.3570
  257MPD2    H2 3898   0.455   1.193  13.548 -0.4138 -0.8401 -1.0788
  257MPD2    H3 3899   0.542   1.120  13.755 -0.6105 -0.3997  1.2793
  257MPD2     N 3900   0.293   0.732  13.752 -1.0515 -0.0225 -0.3403
  257MPD2    H5 3901   0.230   0.676  13.695 -2.1037  2.1245 -1.2783
  257MPD2    N1 3902   0.279   1.067  13.394 -0.0685  0.0304 -0.0078
  257MPD2    H7 3903   0.331   1.145  13.354 -1.9034  2.5512  2.4895
  258TMC3    C1 3904   0.278   0.535  13.869 -0.3228 -0.2214  0.0205
  258TMC3    C2 3905   0.149   0.515  13.820 -0.0270 -0.0613 -0.3568
  258TMC3    C3 3906   0.115   0.386  13.801 -0.6653  0.5276  0.0895
  258TMC3    C4 3907   0.365   0.441  13.903  0.4233 -0.3949  0.3608
  258TMC3    C5 3908   0.322   0.309  13.896  0.6799  0.3552 -0.0198
  258TMC3    C6 3909   0.200   0.285  13.841  0.5061  0.9459 -0.0852
  258TMC3     C 3910   0.332   0.669  13.868  0.2027  0.5548  0.7275
  258TMC3     O 3911   0.413   0.693  13.957  0.3253  0.0497  0.2731
  258TMC3     H 3912   0.084   0.596  13.789 -1.6336 -0.2529  2.4501
  258TMC3    H1 3913   0.466   0.464  13.935  0.2728  0.1121  0.4698
  258TMC3    H2 3914   0.180   0.181  13.820  2.4296  0.8482 -1.3893
  258TMC3    C7 3915   0.406   0.200  13.931  0.2176 -0.4055 -0.3274
  258TMC3    C8 3916   0.014   0.368  13.699  0.3058 -0.5534 -0.4389
  258TMC3    O1 3917   0.363   0.088  13.960 -0.2856 -0.1629 -0.2945
  258TMC3    O2 3918   4.641   0.452  13.700 -0.0491  0.8382  0.3210
  259MPD2     C 3919   4.228   3.031   1.456 -0.0601  0.0118  0.6358
  259MPD2    C1 3920   4.135   2.974   1.371  0.0293 -0.0117 -0.0246
  259MPD2    C2 3921   4.171   2.856   1.305 -0.1304 -0.6669  0.3339
  259MPD2    C3 3922   4.298   2.803   1.325  0.1269  0.9763  0.9360
  259MPD2    C4 3923   4.392   2.868   1.406 -0.7005  0.2116 -0.2301
  259MPD2    C5 3924   4.354   2.979   1.474  0.5167 -0.1200  0.2870
  259MPD2     H 3925   4.104   2.812   1.233  1.1393 -1.9336 -0.0647
  259MPD2    H1 3926   4.488   2.823   1.425  0.4519  2.2334 -1.2499
  259MPD2    H2 3927   4.213   3.117   1.520  2.2261  0.1210  1.0440
  259MPD2    H3 3928   4.417   3.018   1.553 -1.3431  1.7427  0.8498
  259MPD2     N 3929   4.330   2.682   1.258 -0.4600 -0.8913  0.1699
  259MPD2    H5 3930   4.252   2.634   1.214 -2.4737  1.8671  0.7087
  259MPD2    N1 3931   4.017   3.045   1.357 -0.1954  0.1955  0.1543
  259MPD2    H7 3932   4.001   3.131   1.408 -0.6756  0.3195 -0.2029
  260TMC3    C1 3933   4.472   2.521   1.145  0.3906 -0.3810 -0.1765
  260TMC3    C2 3934   4.600   2.470   1.134 -0.4007 -0.5324 -0.0302
  260TMC3    C3 3935   4.622   2.359   1.055  0.0480  0.1900 -0.2316
  260TMC3    C4 3936   4.365   2.470   1.076 -0.7945  0.0909  0.1898
  260TMC3    C5 3937   4.393   2.359   0.997 -0.1001 -0.2344 -0.1395
  260TMC3    C6 3938   4.517   2.306   0.985 -0.0021  0.3642  0.1270
  260TMC3     C 3939   4.459   2.627   1.239  0.7304  0.1073  0.9114
  260TMC3     O 3940   4.567   2.678   1.266 -0.2006  0.2544  0.2579
  260TMC3     H 3941   4.686   2.523   1.173  0.0198 -1.8550  0.8448
  260TMC3    H1 3942   4.268   2.519   1.079 -1.0104 -0.3834  0.9965
  260TMC3    H2 3943   4.530   2.218   0.922 -2.8906  0.5503 -0.7245
  260TMC3    C7 3944   4.291   2.307   0.909 -0.0845 -0.2522  0.7926
  260TMC3    C8 3945   0.042   2.329   1.016  0.5076 -0.6426  0.3036
  260TMC3    O1 3946   4.326   2.248   0.806  0.1799 -0.2384 -0.6530
  260TMC3    O2 3947   0.129   2.367   1.093 -0.3541  0.0597  0.1351
  261MPD2     C 3948   0.820   0.845  12.597 -0.6292 -0.5180  0.6556
  261MPD2    C1 3949   0.947   0.812  12.557  0.0882 -0.5247 -0.2997
  261MPD2    C2 3950   1.009   0.898  12.472  0.0761  0.0831  0.3609
  261MPD2    C3 3951   0.945   1.013  12.427  0.3026  0.7378 -0.7288
  261MPD2    C4 3952   0.811   1.024  12.443  0.4516 -0.2077  0.2642
  261MPD2    C5 3953   0.749   0.948  12.541  0.2622 -0.3587  0.6762
  261MPD2     H 3954   1.105   0.875  12.428  1.2417 -2.5002  4.3181
  261MPD2    H1 3955   0.751   1.104  12.402  2.8512  0.1757 -2.4391
  261MPD2    H2 3956   0.762   0.775  12.656  0.2137  0.9943  3.3073
  261MPD2    H3 3957   0.647   0.964  12.572  0.6681  1.9482  0.7993
  261MPD2     N 3958   1.014   1.107  12.347 -0.3810  0.7132  0.1177
  261MPD2    H5 3959   1.108   1.077  12.322  0.0351  1.2795  1.0177
  261MPD2    N1 3960   1.023   0.700  12.601 -0.0989 -0.5227  0.2142
  261MPD2    H7 3961   1.122   0.706  12.578 -0.7534  3.2858 -1.5814
  262TMC3    C1 3962   1.049   1.313  12.214  0.6118  0.0256 -0.3907
  262TMC3    C2 3963   1.000   1.429  12.161  0.2136 -0.3271  0.1565
  262TMC3    C3 3964   1.093   1.511  12.096  0.1979 -0.9750  0.5376
  262TMC3    C4 3965   1.175   1.268  12.185 -0.5184 -0.9449 -0.3200
  262TMC3    C5 3966   1.262   1.349  12.116 -0.1298 -0.0192 -0.0106
  262TMC3    C6 3967   1.222   1.475  12.082  0.5482  0.2330 -0.2777
  262TMC3     C 3968   0.960   1.229  12.293  0.0844 -0.5603  0.5984
  262TMC3     O 3969   0.856   1.288  12.313  0.0805  0.0707  0.7020
  262TMC3     H 3970   0.899   1.467  12.170  0.5660  0.7895 -0.6948
  262TMC3    H1 3971   1.214   1.175  12.225  0.7335 -1.6333 -3.1380
  262TMC3    H2 3972   1.285   1.550  12.035  1.0249  1.8218  2.8840
  262TMC3    C7 3973   1.329   1.283  12.009 -0.0171 -0.1881  0.3866
  262TMC3    C8 3974   1.051   1.600  11.987  0.8244  0.4725 -0.1529
  262TMC3    O1 3975   1.313   1.165  11.990 -0.2519  0.4438  0.3766
  262TMC3    O2 3976   1.139   1.649  11.922 -0.5075 -0.2059 -0.3856
  263MPD2     C 3977   1.770   0.438  11.624  0.5485  0.5570 -0.3343
  263MPD2    C1 3978   1.883   0.374  11.575  0.1517 -0.5612  0.1090
  263MPD2    C2 3979   1.923   0.386  11.446 -0.0700  0.5898  0.0907
  263MPD2    C3 3980   1.870   0.486  11.368 -0.0615 -0.0523 -0.2608
  263MPD2    C4 3981   1.760   0.550  11.422 -0.0879 -0.2780 -0.3376
  263MPD2    C5 3982   1.700   0.522  11.541 -0.3227 -0.5059 -0.1795
  263MPD2     H 3983   2.014   0.338  11.411 -1.3078 -1.3926 -0.4174
  263MPD2    H1 3984   1.704   0.612  11.353 -2.9349 -0.2615  2.0339
  263MPD2    H2 3985   1.738   0.410  11.724 -1.6332  2.0901 -0.5960
  263MPD2    H3 3986   1.606   0.571  11.565 -0.0030 -0.8355  1.7362
  263MPD2     N 3987   1.926   0.523  11.240 -0.0597 -0.0904  0.3153
  263MPD2    H5 3988   2.001   0.465  11.206 -0.1380  2.2120 -3.7225
  263MPD2    N1 3989   1.956   0.293  11.663 -0.0048  0.2868 -0.0657
  263MPD2    H7 3990   1.930   0.299  11.761 -0.1795 -1.5127 -0.0051
  264TMC3    C1 3991   1.963   0.634  11.046  0.6203  0.0666 -0.2510
  264TMC3    C2 3992   2.038   0.745  11.041  0.6627  0.3130  0.7292
  264TMC3    C3 3993   2.143   0.746  10.948 -0.6823 -0.7899 -0.4920
  264TMC3    C4 3994   1.988   0.519  10.976  0.4156 -0.7455  0.3663
  264TMC3    C5 3995   2.103   0.519  10.899  0.2574  0.4783 -0.0451
  264TMC3    C6 3996   2.177   0.630  10.878  0.4034 -0.1999 -0.1444
  264TMC3     C 3997   1.889   0.630  11.168  0.1554 -0.8131  0.2670
  264TMC3     O 3998   1.810   0.723  11.191  0.0561  0.0715  0.0365
  264TMC3     H 3999   2.011   0.825  11.109 -0.4780  0.8376 -0.3458
  264TMC3    H1 4000   1.934   0.428  11.002  0.6764 -1.7783 -2.7681
  264TMC3    H2 4001   2.259   0.644  10.808  0.8457  1.2439  0.6576
  264TMC3    C7 4002   2.111   0.421  10.789 -0.3893 -0.2608  0.2239
  264TMC3    C8 4003   2.213   0.866  10.913  0.3259  0.2396 -0.4161
  264TMC3    O1 4004   2.206   0.428  10.710 -0.0974 -0.2523  0.2516
  264TMC3    O2 4005   2.310   0.864  10.835  0.1863 -0.6223  0.8535
  265MPD2     C 4006   3.853   0.744  15.702 -0.0166  0.3581  0.3093
  265MPD2    C1 4007   3.982   0.811  15.690  0.2502 -0.1271 -0.0620
  265MPD2    C2 4008   4.067   0.764  15.590 -0.5124  0.7515 -0.7486
  265MPD2    C3 4009   4.035   0.657  15.513  0.0173  0.5174  0.5509
  265MPD2    C4 4010   3.901   0.618  15.512  0.7029 -0.0744 -0.5465
  265MPD2    C5 4011   3.813   0.651  15.609  0.9775  0.0800 -0.4167
  265MPD2     H 4012   4.160   0.816  15.572  0.3619 -0.5345  0.0979
  265MPD2    H1 4013   3.860   0.546  15.442  1.1755 -2.0784  1.2088
  265MPD2    H2 4014   3.775   0.770  15.772  1.8130  2.0916  1.7149
  265MPD2    H3 4015   3.712   0.614  15.595  1.5672 -1.9171  0.6469
  265MPD2     N 4016   4.116   0.604  15.415 -0.1089  0.0083  0.3571
  265MPD2    H5 4017   4.085   0.527  15.356 -0.1554 -0.7448  1.3718
  265MPD2    N1 4018   4.010   0.927  15.765 -0.5322  0.4554 -0.0086
  265MPD2    H7 4019   4.093   0.982  15.747  0.6711 -0.2215  3.3669
  266TMC3    C1 4020   3.969   1.099  15.923  0.6670  0.7666 -0.5312
  266TMC3    C2 4021   3.932   1.131  16.046  0.4134 -0.0890 -0.2548
  266TMC3    C3 4022   3.915   1.263  16.071 -0.3999 -0.8395  0.3285
  266TMC3    C4 4023   3.996   1.196  15.824 -0.4269 -0.5305  0.2036
  266TMC3    C5 4024   3.983   1.327  15.857 -0.4513 -1.2253  0.3538
  266TMC3    C6 4025   3.931   1.355  15.976 -0.0679 -0.1054 -0.0506
  266TMC3     C 4026   3.938   0.970  15.880  0.1363 -0.4238  0.4354
  266TMC3     O 4027   3.852   0.913  15.944  0.0425 -0.7092 -0.6586
  266TMC3     H 4028   3.904   1.056  16.119  2.0641 -1.0847 -0.6527
  266TMC3    H1 4029   4.004   1.167  15.720 -2.3268  2.0949 -0.6695
  266TMC3    H2 4030   3.874   1.446  15.993  0.1195 -0.1445  0.7801
  266TMC3    C7 4031   3.918   1.411  15.753 -1.2812 -0.0454  0.5028
  266TMC3    C8 4032   3.843   1.303  16.195 -0.5470 -0.0937  0.7818
  266TMC3    O1 4033   3.809   1.453  15.790  0.5173  0.1171  0.0112
  266TMC3    O2 4034   3.768   1.216  16.244 -0.4344  0.0247 -0.2462
  267MPD2     C 4035   0.786   2.869  17.553 -0.0567 -0.1310  0.3392
  267MPD2    C1 4036   0.875   2.781  17.618  0.5032  0.1978  0.5399
  267MPD2    C2 4037   0.898   2.654  17.570 -0.2461 -0.1265 -0.7820
  267MPD2    C3 4038   0.846   2.622  17.446  0.3081 -0.2247 -0.3057
  267MPD2    C4 4039   0.759   2.710  17.380 -0.4178  0.7586  0.2400
  267MPD2    C5 4040   0.727   2.832  17.439 -0.5230 -1.0768 -0.0582
  267MPD2     H 4041   0.969   2.588  17.618 -0.6076  1.8979  2.6116
  267MPD2    H1 4042   0.726   2.686  17.279 -0.5063  0.6828  0.2864
  267MPD2    H2 4043   0.778   2.970  17.592 -0.6975  0.5863 -1.6413
  267MPD2    H3 4044   0.674   2.901  17.374  1.4468  1.8197  1.4168
  267MPD2     N 4045   0.882   2.507  17.368  0.0032 -0.3833  0.1812
  267MPD2    H5 4046   0.865   2.519  17.269 -0.0445 -0.5961  0.1634
  267MPD2    N1 4047   0.931   2.827   0.054  0.1438 -0.2452 -0.2225
  267MPD2    H7 4048   0.924   2.926   0.073 -3.2638 -0.3056 -1.0311
  268TMC3    C1 4049   1.055   2.828   0.264  0.0522  0.3282 -0.1746
  268TMC3    C2 4050   1.115   2.951   0.249  0.1783 -0.1023  0.3174
  268TMC3    C3 4051   1.198   3.007   0.343 -0.0207 -0.0696  0.3494
  268TMC3    C4 4052   1.076   2.757   0.380  0.6513 -0.4608  0.2148
  268TMC3    C5 4053   1.138   2.825   0.483 -0.2479  0.7574  0.0574
  268TMC3    C6 4054   1.221   2.937   0.456 -0.2059 -0.5893 -0.0195
  268TMC3     C 4055   0.996   2.753   0.151 -0.2612  0.7008 -0.0765
  268TMC3     O 4056   1.015   2.630   0.156  0.2451  0.1037  0.1115
  268TMC3     H 4057   1.095   3.007   0.158 -1.8142 -1.4879 -0.1033
  268TMC3    H1 4058   1.035   2.657   0.386 -0.6343  0.0397 -0.0644
  268TMC3    H2 4059   1.281   2.985   0.532  1.1595 -2.0186 -0.1908
  268TMC3    C7 4060   1.146   2.774   0.613 -0.0660  0.5551  0.3637
  268TMC3    C8 4061   1.266   3.130   0.321 -1.0874  0.1195 -0.2595
  268TMC3    O1 4062   1.206   2.841   0.702 -0.1482  0.7046 -0.0665
  268TMC3    O2 4063   1.289   3.195   0.422  0.1227  0.3821 -0.4403
  269MPD2     C 4064   2.101   1.741  15.731 -0.2561 -0.0847  0.0440
  269MPD2    C1 4065   1.960   1.736  15.706 -0.0969  0.1346  0.7393
  269MPD2    C2 4066   1.898   1.851  15.659  0.3036  0.4124 -0.7599
  269MPD2    C3 4067   1.973   1.962  15.616  0.0601 -0.1817  0.3297
  269MPD2    C4 4068   2.113   1.950  15.609  0.1884  0.0365  0.0670
  269MPD2    C5 4069   2.177   1.848  15.679  0.6259 -0.1701  0.0476
  269MPD2     H 4070   1.790   1.842  15.653  0.4503 -0.8091 -1.5928
  269MPD2    H1 4071   2.169   2.030  15.563  0.8737 -1.2610 -1.3367
  269MPD2    H2 4072   2.156   1.656  15.770  1.0125  1.6968  2.1184
  269MPD2    H3 4073   2.285   1.851  15.690  0.5635  0.6913  0.4123
  269MPD2     N 4074   1.906   2.068  15.556  0.7855 -0.5076  0.0375
  269MPD2    H5 4075   1.806   2.063  15.543  0.7303 -1.9406  1.0649
  269MPD2    N1 4076   1.899   1.619  15.742 -0.1567  0.0011 -0.2421
  269MPD2    H7 4077   1.956   1.548  15.785 -2.3980 -1.5886  0.0836
  270TMC3    C1 4078   1.707   1.470  15.778 -0.3350  0.3508 -0.4836
  270TMC3    C2 4079   1.596   1.425  15.716  0.1570  0.2034 -0.3778
  270TMC3    C3 4080   1.533   1.310  15.758 -0.1171  0.3667 -0.4230
  270TMC3    C4 4081   1.760   1.399  15.882 -0.3006 -0.2317 -0.1475
  270TMC3    C5 4082   1.699   1.276  15.924  0.7631  0.1985 -0.4101
  270TMC3    C6 4083   1.581   1.233  15.862 -0.2502  0.3224 -0.6936
  270TMC3     C 4084   1.758   1.599  15.726  0.2517  0.2018  0.3292
  270TMC3     O 4085   1.671   1.665  15.667  0.5104 -0.0418 -0.5023
  270TMC3     H 4086   1.552   1.474  15.631 -1.9894 -3.2732 -1.2538
  270TMC3    H1 4087   1.855   1.427  15.925  1.0173 -0.0884 -3.1618
  270TMC3    H2 4088   1.524   1.146  15.891 -1.7395  2.1033  1.7533
  270TMC3    C7 4089   1.796   1.173  15.930  0.4809 -0.1991  0.2430
  270TMC3    C8 4090   1.436   1.237  15.680  0.5824 -0.0451  0.4001
  270TMC3    O1 4091   1.909   1.205  15.890  0.3253 -0.3715  0.1247
  270TMC3    O2 4092   1.358   1.154  15.722 -0.1939  0.0849  0.2066
  271MPD2     C 4093   1.003   1.244  13.980 -0.2649 -0.4615 -0.1485
  271MPD2    C1 4094   0.908   1.191  14.061 -0.0498 -0.6920  0.0518
  271MPD2    C2 4095   0.772   1.208  14.033 -0.1882  0.3530  0.2291
  271MPD2    C3 4096   0.731   1.293  13.931 -0.4625 -0.2633  0.4062
  271MPD2    C4 4097   0.830   1.351  13.856  0.2899  0.6874 -0.1812
  271MPD2    C5 4098   0.959   1.322  13.877  0.0838 -0.7327 -0.2001
  271MPD2     H 4099   0.695   1.169  14.098  0.2379 -0.5050  0.2140
  271MPD2    H1 4100   0.809   1.427  13.780 -2.7501 -0.2718 -0.2926
  271MPD2    H2 4101   1.111   1.234  13.992 -0.2418 -1.1110 -0.9405
  271MPD2    H3 4102   1.037   1.359  13.813  0.3545  1.2174  1.2648
  271MPD2     N 4103   0.595   1.323  13.896  0.7475  0.9597  0.1516
  271MPD2    H5 4104   0.592   1.386  13.817 -1.2907 -1.1543 -1.4519
  271MPD2    N1 4105   0.943   1.111  14.174 -0.0103  0.2956 -0.0217
  271MPD2    H7 4106   0.864   1.089  14.234  1.0932  0.7013  1.5634
  272TMC3    C1 4107   1.075   0.985  14.321  0.2265 -0.1814 -0.1830
  272TMC3    C2 4108   1.181   0.908  14.333  0.5319  1.4786 -0.3654
  272TMC3    C3 4109   1.219   0.873  14.461  1.2270  0.2413  0.3826
  272TMC3    C4 4110   1.012   1.043  14.426  0.3387  0.3342 -0.2635
  272TMC3    C5 4111   1.056   1.019  14.554 -0.2233  0.2020 -0.3032
  272TMC3    C6 4112   1.151   0.922  14.575 -0.5352 -0.3172  0.2571
  272TMC3     C 4113   1.062   1.051  14.190  0.2989 -0.1943  0.1763
  272TMC3     O 4114   1.166   1.048  14.120  0.6686  0.4357 -0.7257
  272TMC3     H 4115   1.235   0.868  14.248  1.5305  0.4767  0.7205
  272TMC3    H1 4116   0.939   1.123  14.427 -0.0447 -0.0099 -1.0597
  272TMC3    H2 4117   1.181   0.891  14.674 -0.4979  2.4625  1.1226
  272TMC3    C7 4118   1.013   1.099  14.661 -0.5694 -0.2416  0.2669
  272TMC3    C8 4119   1.343   0.798  14.480  0.9608  0.0025 -1.1490
  272TMC3    O1 4120   0.892   1.118  14.666  0.7705 -0.6890  0.2894
  272TMC3    O2 4121   1.399   0.760  14.377  0.5528 -0.2600  0.5312
  273MPD2     C 4122   2.925   3.654  11.926  0.1694  0.7457 -0.8705
  273MPD2    C1 4123   2.890   3.753  11.839  0.4686 -0.1937 -0.0842
  273MPD2    C2 4124   2.771   3.743  11.761  0.7753  0.4072  0.5220
  273MPD2    C3 4125   2.691   3.632  11.783 -0.5733  0.0978 -0.7106
  273MPD2    C4 4126   2.729   3.536  11.875 -0.0703 -0.2859 -0.1486
  273MPD2    C5 4127   2.846   3.543  11.939 -0.4493 -0.1839 -0.6188
  273MPD2     H 4128   2.743   3.823  11.694  0.4906 -0.2810 -0.1760
  273MPD2    H1 4129   2.668   3.449  11.895 -1.5501  0.8127  0.1075
  273MPD2    H2 4130   3.008   3.652  11.996 -1.0645  0.7005  0.5836
  273MPD2    H3 4131   2.876   3.463  12.006 -1.7168  0.1496  0.3612
  273MPD2     N 4132   2.554   3.630  11.740 -0.7436 -0.5788 -0.1346
  273MPD2    H5 4133   2.497   3.562  11.788 -0.1630  0.2689  1.7436
  273MPD2    N1 4134   2.974   3.862  11.831 -0.4227  0.1547  0.1736
  273MPD2    H7 4135   3.068   3.852  11.868 -0.3532 -0.6901 -0.2351
  274TMC3    C1 4136   2.346   3.700  11.647 -0.3149 -0.1072 -0.6559
  274TMC3    C2 4137   2.291   3.733  11.525  0.2555  0.1014  0.5045
  274TMC3    C3 4138   2.174   3.804  11.525 -0.1575  0.7032  0.7137
  274TMC3    C4 4139   2.298   3.749  11.763  0.0781 -0.2289  0.3076
  274TMC3    C5 4140   2.187   3.833  11.761 -0.4027 -0.4029 -0.1036
  274TMC3    C6 4141   2.114   3.838  11.647 -0.0884  0.7127 -0.0469
  274TMC3     C 4142   2.492   3.706  11.646 -0.2619 -0.1921 -0.5804
  274TMC3     O 4143   2.532   3.786  11.567 -0.4419  0.4519 -0.2235
  274TMC3     H 4144   2.352   3.721  11.437 -0.5368 -1.0240  0.1007
  274TMC3    H1 4145   2.340   3.731  11.861  0.0973  1.9383  0.6981
  274TMC3    H2 4146   2.017   3.886  11.647 -0.6783 -0.4877  1.8574
  274TMC3    C7 4147   2.217   3.968  11.814  0.0262 -0.3449  0.0908
  274TMC3    C8 4148   2.114   3.860  11.407 -0.0006  0.7097 -0.1303
  274TMC3    O1 4149   2.122   4.046  11.808 -0.0321 -0.3129  0.0399
  274TMC3    O2 4150   2.051   3.964  11.427  0.5354  0.1442 -0.4423
  275MPD2     C 4151   2.416   2.191  14.064 -0.8884 -1.0378 -0.1387
  275MPD2    C1 4152   2.385   2.134  14.185 -0.2430 -0.3574  0.4503
  275MPD2    C2 4153   2.266   2.062  14.205 -0.9473  0.0199  0.2601
  275MPD2    C3 4154   2.180   2.044  14.097  0.1556 -0.1883  0.8003
  275MPD2    C4 4155   2.216   2.097  13.973  0.1770 -0.3914 -0.4163
  275MPD2    C5 4156   2.332   2.167  13.956 -0.4551 -0.4171 -0.5706
  275MPD2     H 4157   2.239   2.033  14.306 -0.9593  0.2898  0.3331
  275MPD2    H1 4158   2.147   2.104  13.890 -2.1055 -1.5636  1.3691
  275MPD2    H2 4159   2.505   2.249  14.042 -1.0918  0.0907  1.9487
  275MPD2    H3 4160   2.362   2.195  13.856 -0.6000 -2.6238 -1.2440
  275MPD2     N 4161   2.058   1.985  14.134 -0.4039 -0.5477 -0.0192
  275MPD2    H5 4162   2.028   1.974  14.230  1.9569  2.2604  1.0342
  275MPD2    N1 4163   2.467   2.151  14.305 -0.4745  0.1771  0.4758
  275MPD2    H7 4164   2.432   2.117  14.394 -4.2176 -0.1327 -1.1183
  276TMC3    C1 4165   2.642   2.223  14.449 -0.0437  0.5083  0.3551
  276TMC3    C2 4166   2.629   2.105  14.516 -0.1427  0.1828  0.3307
  276TMC3    C3 4167   2.719   2.071  14.611 -0.0745 -0.3791  0.1431
  276TMC3    C4 4168   2.732   2.309  14.484 -0.3085 -0.1507 -0.3413
  276TMC3    C5 4169   2.817   2.278  14.578 -0.2383 -0.7036 -0.4660
  276TMC3    C6 4170   2.819   2.156  14.651  0.1535 -0.0445 -0.1136
  276TMC3     C 4171   2.571   2.244  14.321 -0.5203 -0.2095 -1.0131
  276TMC3     O 4172   2.609   2.340  14.259 -0.5235  0.0077  0.5509
  276TMC3     H 4173   2.540   2.045  14.505 -0.0004  0.5389 -2.7360
  276TMC3    H1 4174   2.730   2.405  14.434 -1.8084 -0.2962 -0.5579
  276TMC3    H2 4175   2.884   2.142  14.736 -0.3594 -1.6338  0.0256
  276TMC3    C7 4176   2.880   2.388  14.653 -0.0523  0.0837  0.0912
  276TMC3    C8 4177   2.699   1.954  14.698  0.7951 -0.4478  0.0034
  276TMC3    O1 4178   2.895   2.370  14.775  0.0042  0.3251  0.3748
  276TMC3    O2 4179   2.764   1.948  14.803 -0.0152  0.5749  0.1877
  277MPD2     C 4180   4.310   1.003  13.754 -0.8122 -0.2815 -0.7726
  277MPD2    C1 4181   4.175   1.022  13.757  0.5709  0.3390  0.1449
  277MPD2    C2 4182   4.091   0.964  13.852 -0.0104  0.7477  0.5912
  277MPD2    C3 4183   4.153   0.886  13.955  0.1379 -0.7393 -0.3490
  277MPD2    C4 4184   4.289   0.871  13.947 -0.6913  0.1424  0.3375
  277MPD2    C5 4185   4.366   0.930  13.853  0.5605  0.4076  0.2166
  277MPD2     H 4186   3.989   0.999  13.857 -0.4916 -0.5134 -0.3029
  277MPD2    H1 4187   4.357   0.823  14.017 -0.4060  1.2959  0.8512
  277MPD2    H2 4188   4.375   1.042  13.677  1.4529  2.0497  2.3391
  277MPD2    H3 4189   4.474   0.923  13.858  0.5573 -0.8804 -1.4437
  277MPD2     N 4190   4.076   0.821  14.056 -0.4035 -0.3519 -0.0145
  277MPD2    H5 4191   3.976   0.834  14.060 -0.4259 -0.3601 -0.6618
  277MPD2    N1 4192   4.130   1.115  13.661  0.5128 -0.0482  0.5801
  277MPD2    H7 4193   4.207   1.158  13.611  0.6181 -0.5124  0.3470
  278TMC3    C1 4194   4.033   0.665  14.234  0.6741  0.1254  0.1717
  278TMC3    C2 4195   4.029   0.533  14.220  0.1885 -0.0872  0.2591
  278TMC3    C3 4196   3.913   0.469  14.254 -0.1193  0.0458 -0.5451
  278TMC3    C4 4197   3.939   0.739  14.289  0.4179 -0.8656 -1.0111
  278TMC3    C5 4198   3.833   0.671  14.334  0.2810 -0.3651  0.0624
  278TMC3    C6 4199   3.811   0.539  14.313  0.1002 -0.0990  0.5127
  278TMC3     C 4200   4.132   0.733  14.151 -0.1647 -0.1348 -0.9530
  278TMC3     O 4201   4.248   0.708  14.185  0.6731 -0.0988 -0.2914
  278TMC3     H 4202   4.109   0.477  14.172 -1.0970 -1.5609 -0.1930
  278TMC3    H1 4203   3.944   0.847  14.297  2.1278 -1.0488  0.2339
  278TMC3    H2 4204   3.715   0.502  14.346  0.1665 -0.9568 -0.2499
  278TMC3    C7 4205   3.737   0.760  14.390  0.3267  0.6720 -0.7752
  278TMC3    C8 4206   3.894   0.331  14.219 -0.4990 -0.0304 -0.3584
  278TMC3    O1 4207   3.772   0.873  14.423  0.4588 -1.0183  0.2930
  278TMC3    O2 4208   3.995   0.260  14.234 -0.0817 -0.0300  0.1028
  279MPD2     C 4209   3.380   1.564   1.049  0.4593  0.9373  0.2742
  279MPD2    C1 4210   3.274   1.642   1.006  0.4311 -0.2812  0.0725
  279MPD2    C2 4211   3.199   1.600   0.898 -0.2403 -0.0312  0.4929
  279MPD2    C3 4212   3.225   1.480   0.838  0.7453  0.1387  0.9282
  279MPD2    C4 4213   3.336   1.414   0.874  0.5014  0.0622 -0.5191
  279MPD2    C5 4214   3.414   1.453   0.979 -0.6934 -0.6391 -0.8363
  279MPD2     H 4215   3.123   1.657   0.846 -1.8714 -2.1062  0.6172
  279MPD2    H1 4216   3.368   1.328   0.816  1.3340  0.4734 -0.6634
  279MPD2    H2 4217   3.437   1.590   1.137 -0.5343 -1.1172  1.5225
  279MPD2    H3 4218   3.501   1.396   1.009  0.0314  0.8547 -0.0855
  279MPD2     N 4219   3.167   1.435   0.717  0.5614  0.1065  0.7873
  279MPD2    H5 4220   3.216   1.375   0.652  0.2274  1.2407 -0.5161
  279MPD2    N1 4221   3.240   1.762   1.078  0.1843  0.1917  0.0058
  279MPD2    H7 4222   3.305   1.798   1.147 -0.6970  0.1759  0.8447
  280TMC3    C1 4223   3.111   1.950   1.147 -1.0227  0.4350  0.2603
  280TMC3    C2 4224   3.177   1.962   1.264 -0.1744 -0.3114 -0.5262
  280TMC3    C3 4225   3.184   2.089   1.321  0.0413 -0.6838 -0.4679
  280TMC3    C4 4226   3.069   2.064   1.076  0.3961 -0.2020  0.1196
  280TMC3    C5 4227   3.085   2.185   1.138  0.6775  0.4527  0.2147
  280TMC3    C6 4228   3.136   2.201   1.261  0.0357 -0.0257  0.3375
  280TMC3     C 4229   3.129   1.835   1.056 -0.3711 -0.5282 -0.2835
  280TMC3     O 4230   3.039   1.821   0.971  0.2982  0.0326  0.7837
  280TMC3     H 4231   3.201   1.874   1.322  0.0623 -1.3559 -2.2216
  280TMC3    H1 4232   3.027   2.054   0.976  1.2601 -1.0983 -0.1512
  280TMC3    H2 4233   3.163   2.297   1.303  0.6178 -0.2564  0.4939
  280TMC3    C7 4234   3.083   2.307   1.054  0.1619 -0.1116 -0.6507
  280TMC3    C8 4235   3.220   2.092   1.461 -0.1165  0.3417 -0.2424
  280TMC3    O1 4236   3.143   2.404   1.099 -0.4839  0.4581 -0.1361
  280TMC3    O2 4237   3.225   1.988   1.525  0.1680  0.3709  0.0504
  281TMC3    C1 4238   2.258   1.334  12.498  0.0147 -0.6965  0.2399
  281TMC3    C2 4239   2.266   1.359  12.362  0.1734  0.0303 -0.3034
  281TMC3    C3 4240   2.280   1.251  12.280 -0.1939 -0.2995  1.1516
  281TMC3    C4 4241   2.264   1.213  12.555 -0.6050  0.2388 -0.2643
  281TMC3    C5 4242   2.293   1.110  12.466 -0.2489  0.1065  0.3041
  281TMC3    C6 4243   2.301   1.126  12.331 -0.2871  0.2574 -0.0987
  281TMC3     C 4244   2.246   1.438  12.596  0.6928  0.7559  0.2104
  281TMC3     O 4245   2.293   1.427  12.707 -0.4063 -0.7868 -0.0558
  281TMC3     H 4246   2.245   1.457  12.319 -1.4705  0.6209  1.8874
  281TMC3    H1 4247   2.250   1.197  12.661  0.2508  0.6481 -0.0920
  281TMC3    H2 4248   2.313   1.044  12.260  2.0566 -0.1940  0.8305
  281TMC3    C7 4249   2.249   0.976  12.499 -0.2865  0.1182  0.2702
  281TMC3    C8 4250   2.216   1.255  12.146 -0.5228  0.5921 -0.2500
  281TMC3    O1 4251   2.262   0.892  12.412 -0.2025  0.2396 -0.3042
  281TMC3    O2 4252   2.257   1.342  12.070 -0.1261 -0.1839  0.1824
  282MPD2     C 4253   3.981   2.919  14.886 -0.1396  0.0581  0.3501
  282MPD2    C1 4254   3.884   3.010  14.871 -0.3935 -0.0257 -0.5139
  282MPD2    C2 4255   3.865   3.077  14.752 -0.7063  0.1449 -0.6209
  282MPD2    C3 4256   3.943   3.030  14.647 -0.5081  0.0829  0.1538
  282MPD2    C4 4257   4.037   2.930  14.660  0.1314 -0.3628  0.3569
  282MPD2    C5 4258   4.059   2.877  14.784  0.1704  0.3528  0.6553
  282MPD2     H 4259   3.789   3.153  14.737 -0.7640  0.2536  0.2380
  282MPD2    H1 4260   4.097   2.893  14.578 -1.4891 -2.5168  0.1230
  282MPD2    H2 4261   3.991   2.877  14.985  2.0259  1.1309  0.5857
  282MPD2    H3 4262   4.140   2.808  14.804 -0.0502  0.0454  0.4826
  282MPD2     N 4263   3.916   3.087  14.526  0.3610 -0.5589 -0.0844
  282MPD2    H5 4264   3.837   3.150  14.518  2.3941  1.9652 -0.4792
  282MPD2    N1 4265   3.810   3.040  14.990  0.0735  0.2959 -0.7944
  282MPD2    H7 4266   3.836   2.993  15.076  3.0965  1.1944 -1.1969
  283TMC3    C1 4267   3.672   3.148  15.145  0.1183 -0.4276 -0.9888
  283TMC3    C2 4268   3.662   3.274  15.196 -0.0284 -0.1022 -0.6464
  283TMC3    C3 4269   3.614   3.283  15.320  0.2402 -0.0705 -0.2255
  283TMC3    C4 4270   3.641   3.034  15.212 -0.2688  0.5776 -0.1787
  283TMC3    C5 4271   3.587   3.049  15.337 -0.5163  0.5809  0.2185
  283TMC3    C6 4272   3.578   3.175  15.395 -0.3014  0.1581  0.1697
  283TMC3     C 4273   3.714   3.135  15.007 -0.9091 -0.4006  0.5236
  283TMC3     O 4274   3.679   3.225  14.931  0.1034 -0.4302 -0.1972
  283TMC3     H 4275   3.677   3.358  15.128  0.3628 -0.8168 -1.4459
  283TMC3    H1 4276   3.631   2.941  15.158  2.3145 -0.0961  0.4961
  283TMC3    H2 4277   3.546   3.190  15.498  0.7453  0.8944  0.3878
  283TMC3    C7 4278   3.541   2.939  15.418  0.4579  0.1560  0.4726
  283TMC3    C8 4279   3.619   3.412  15.393 -0.3416  0.1367  0.2542
  283TMC3    O1 4280   3.515   2.977  15.534 -0.1442 -0.2304  0.5520
  283TMC3    O2 4281   3.531   3.448  15.471  0.2711  0.1909 -0.5949
  284MPD2     C 4282   2.407   1.871  11.867 -0.1211 -0.0585  0.3712
  284MPD2    C1 4283   2.486   1.812  11.775 -0.0724 -0.3714  0.6033
  284MPD2    C2 4284   2.495   1.679  11.775 -0.2447  0.3095  0.2597
  284MPD2    C3 4285   2.426   1.603  11.859 -0.8563 -0.7640 -0.0159
  284MPD2    C4 4286   2.346   1.656  11.958  0.5074 -0.1840  0.1867
  284MPD2    C5 4287   2.341   1.794  11.967  0.6473 -0.9641 -0.0980
  284MPD2     H 4288   2.557   1.632  11.700  0.2882  0.0559  0.8590
  284MPD2    H1 4289   2.282   1.588  12.013 -0.6757  1.0559  0.3339
  284MPD2    H2 4290   2.375   1.974  11.863 -0.0668 -0.0489  0.2108
  284MPD2    H3 4291   2.279   1.844  12.041  0.9788  0.1474 -0.5786
  284MPD2     N 4292   2.431   1.465  11.843  0.2239  0.0250 -0.3000
  284MPD2    H5 4293   2.405   1.404  11.920 -0.6439 -0.4179 -0.9451
  284MPD2    N1 4294   2.561   1.883  11.682  0.8315 -0.3354 -0.0870
  284MPD2    H7 4295   2.594   1.822  11.608  2.2596  0.0428  0.2489
  285TMC3    C1 4296   2.680   2.057  11.588  0.1628 -0.2500 -0.7781
  285TMC3    C2 4297   2.763   1.969  11.521 -0.4172 -0.2380 -0.0620
  285TMC3    C3 4298   2.871   2.017  11.439  0.1544  0.3262 -0.0928
  285TMC3    C4 4299   2.706   2.193  11.583 -0.0476 -0.1108 -0.1284
  285TMC3    C5 4300   2.815   2.230  11.503 -0.2382 -0.6344 -0.5248
  285TMC3    C6 4301   2.897   2.147  11.426  0.4836  0.2628 -0.6323
  285TMC3     C 4302   2.581   2.016  11.674  0.1418  0.3377  0.0649
  285TMC3     O 4303   2.537   2.102  11.749  0.1619 -0.2054 -0.1072
  285TMC3     H 4304   2.746   1.862  11.514  1.0044 -0.4293 -0.6605
  285TMC3    H1 4305   2.657   2.261  11.651  0.6727  0.9741 -0.6957
  285TMC3    H2 4306   2.968   2.193  11.359  0.8831 -0.5685 -0.7834
  285TMC3    C7 4307   2.833   2.376  11.474  0.0410  0.5079  0.3348
  285TMC3    C8 4308   2.914   1.931  11.337  0.1521  1.6628 -0.2233
  285TMC3    O1 4309   2.944   2.419  11.449 -0.4871  0.0064  0.0696
  285TMC3    O2 4310   2.832   1.843  11.312  0.1656 -0.4207 -0.5401
  286MPD2     C 4311   1.756   0.736   2.116  0.1519 -1.0733  0.0978
  286MPD2    C1 4312   1.768   0.804   2.000 -0.0250  0.0729  0.0603
  286MPD2    C2 4313   1.868   0.766   1.910  0.0472  0.8307 -0.1166
  286MPD2    C3 4314   1.956   0.658   1.939 -0.3917  0.0123 -0.2310
  286MPD2    C4 4315   1.936   0.603   2.070 -0.9001  0.2233 -0.2876
  286MPD2    C5 4316   1.839   0.636   2.149 -0.1867  0.1358  0.2274
  286MPD2     H 4317   1.884   0.823   1.820 -0.8855  0.4159 -0.5441
  286MPD2    H1 4318   2.001   0.524   2.103 -2.1873 -0.4096  0.7028
  286MPD2    H2 4319   1.680   0.755   2.191  1.1301  0.1206  0.8016
  286MPD2    H3 4320   1.826   0.589   2.246 -1.0000 -3.5056 -1.6470
  286MPD2     N 4321   2.056   0.611   1.850 -0.6552  0.1683 -0.1445
  286MPD2    H5 4322   2.126   0.548   1.888  1.5791  2.0783 -1.1069
  286MPD2    N1 4323   1.682   0.911   1.969  0.8632  0.3822  0.0840
  286MPD2    H7 4324   1.693   0.975   1.891 -0.7039  1.2422  0.5569
  287TMC3    C1 4325   2.168   0.589   1.640 -0.6007 -0.1254  0.6756
  287TMC3    C2 4326   2.138   0.571   1.508  0.1081 -0.1376 -0.7469
  287TMC3    C3 4327   2.236   0.518   1.425 -0.0109  0.2975  0.1505
  287TMC3    C4 4328   2.288   0.547   1.687  0.6477 -0.2660 -0.3040
  287TMC3    C5 4329   2.383   0.498   1.599  0.0996 -1.0829  0.0090
  287TMC3    C6 4330   2.362   0.486   1.468 -0.2503  1.1427  0.3194
  287TMC3     C 4331   2.060   0.643   1.718  0.2637 -0.0418 -0.8235
  287TMC3     O 4332   1.980   0.716   1.659 -0.5137 -0.0432  0.2166
  287TMC3     H 4333   2.037   0.590   1.474 -0.1078 -1.3873 -0.7983
  287TMC3    H1 4334   2.313   0.570   1.790 -0.9919 -0.1727  0.0791
  287TMC3    H2 4335   2.439   0.456   1.398 -0.0903 -0.9298  1.3771
  287TMC3    C7 4336   2.522   0.481   1.644  0.5586  0.2312  0.3225
  287TMC3    C8 4337   2.219   0.554   1.284 -0.3626  0.7584  0.2195
  287TMC3    O1 4338   2.554   0.552   1.740  1.1481 -0.2519  0.5510
  287TMC3    O2 4339   2.279   0.489   1.201  0.1367 -0.7773 -0.1480
  288TMC3    C1 4340   0.084   0.742  14.679  0.1579  0.0583  0.2226
  288TMC3    C2 4341   4.695   0.760  14.760  0.0165  0.2692 -0.1227
  288TMC3    C3 4342   4.663   0.885  14.802  0.0592  0.3879  0.4131
  288TMC3    C4 4343   0.161   0.847  14.632  1.0509 -0.7584  0.0634
  288TMC3    C5 4344   0.126   0.967  14.677  0.3625 -0.2917 -0.3066
  288TMC3    C6 4345   0.026   0.995  14.764 -0.0388 -0.0121 -0.7059
  288TMC3     C 4346   0.145   0.616  14.684  0.6048 -0.0099 -0.0614
  288TMC3     O 4347   0.064   0.524  14.676 -0.1098 -0.4999 -0.0455
  288TMC3     H 4348   4.648   0.672  14.803  1.1151 -0.3812 -0.2619
  288TMC3    H1 4349   0.240   0.836  14.559  0.2673 -0.8416 -0.7653
  288TMC3    H2 4350   4.707   1.095  14.778 -0.2660 -0.0751 -0.8765
  288TMC3    C7 4351   0.164   1.076  14.589 -0.2592  0.5241 -0.1916
  288TMC3    C8 4352   4.536   0.922  14.871 -0.6751 -0.3785  0.2757
  288TMC3    O1 4353   0.083   1.159  14.567 -0.0861 -0.1490 -0.3066
  288TMC3    O2 4354   4.535   1.021  14.945  0.3864  0.1261 -0.1717
  289MPD2     C 4355   4.651   4.452  14.259 -0.2189 -0.0261  0.3180
  289MPD2    C1 4356   4.611   4.583  14.264  0.2547  0.4295  0.5487
  289MPD2    C2 4357   4.478   4.616  14.266 -0.2016 -0.1224 -0.6060
  289MPD2    C3 4358   4.384   4.519  14.280 -0.1809  0.0777  0.7586
  289MPD2    C4 4359   4.424   4.389  14.275 -0.8605 -0.2220  0.5085
  289MPD2    C5 4360   4.559   4.353  14.255  0.4332  0.8339  0.0435
  289MPD2     H 4361   4.449   0.001  14.269 -0.7115 -0.2278 -2.0855
  289MPD2    H1 4362   4.349   4.311  14.283 -0.6531 -0.5045 -0.2983
  289MPD2    H2 4363   0.037   4.428  14.246 -0.5432 -1.0701 -0.4484
  289MPD2    H3 4364   4.593   4.251  14.246 -3.0068 -0.4302  1.1984
  289MPD2     N 4365   4.249   4.544  14.314  0.4356 -0.6005 -0.6518
  289MPD2    H5 4366   4.184   4.467  14.328  1.3540 -1.3347 -0.4172
  289MPD2    N1 4367   0.001   4.673  14.263 -0.4648  0.2885  0.0473
  289MPD2    H7 4368   0.094   4.633  14.258 -0.5988  0.1044 -0.9180
  290TMC3    C1 4369   4.055   4.657  14.381  0.3590  0.4911 -0.2172
  290TMC3    C2 4370   3.996   0.044  14.448  0.0995  1.0955 -0.3855
  290TMC3    C3 4371   3.862   0.039  14.472 -0.5745 -0.1467 -0.2272
  290TMC3    C4 4372   3.983   4.548  14.342  0.2438  0.0211 -0.2801
  290TMC3    C5 4373   3.846   4.543  14.372  0.3281 -0.3549  0.5718
  290TMC3    C6 4374   3.787   4.655  14.421 -0.0826 -0.3756  0.1085
  290TMC3     C 4375   4.198   4.667  14.353 -0.3336 -0.2729  0.2869
  290TMC3     O 4376   4.255   0.056  14.378 -0.1193  0.6006  0.0103
  290TMC3     H 4377   4.065   0.109  14.501 -0.0995 -0.0981  1.3492
  290TMC3    H1 4378   4.026   4.477  14.273  1.2307 -0.1968  0.5522
  290TMC3    H2 4379   3.685   4.640  14.456  0.3412 -3.8300 -0.1810
  290TMC3    C7 4380   3.763   4.446  14.315 -1.0322 -0.0283 -0.8792
  290TMC3    C8 4381   3.792   0.144  14.534  0.4570  0.2543 -0.1636
  290TMC3    O1 4382   3.643   4.466  14.295 -0.0948 -0.5202  0.4541
  290TMC3    O2 4383   3.671   0.123  14.544  0.2888 -1.0723  0.0148
  291MPD2     C 4384   2.754   4.457   0.521  0.4796 -0.1313  0.2638
  291MPD2    C1 4385   2.887   4.434   0.517  0.0948  0.4893  0.2490
  291MPD2    C2 4386   2.975   4.525   0.580 -0.2705 -0.3037 -0.4966
  291MPD2    C3 4387   2.923   4.643   0.642  0.2532  0.0064 -0.3158
  291MPD2    C4 4388   2.787   4.654   0.647  0.1692 -0.0029  0.7659
  291MPD2    C5 4389   2.706   4.566   0.585  0.3215  0.0913  0.3286
  291MPD2     H 4390   3.079   4.494   0.572 -0.2288 -0.8182  1.8701
  291MPD2    H1 4391   2.741   0.018   0.699  0.8012 -0.1284  1.5218
  291MPD2    H2 4392   2.689   4.379   0.483 -0.2421 -0.1399  1.5123
  291MPD2    H3 4393   2.599   4.583   0.586  0.2583 -0.3251  0.7933
  291MPD2     N 4394   3.007   0.024   0.699  0.1439 -0.1361 -0.5635
  291MPD2    H5 4395   2.962   0.110   0.729  0.2927  0.3717 -1.8186
  291MPD2    N1 4396   2.944   4.331   0.451  0.7369  0.1558 -0.4391
  291MPD2    H7 4397   3.045   4.333   0.459  0.5985 -0.2986  1.3471
  292TMC3    C1 4398   2.987   4.157   0.316 -0.2752  0.0091  1.1854
  292TMC3    C2 4399   3.119   4.193   0.320 -0.2041 -0.6578  0.4381
  292TMC3    C3 4400   3.205   4.103   0.271  0.3687 -0.1609 -0.1464
  292TMC3    C4 4401   2.937   4.040   0.260 -0.0147  0.2993 -0.0230
  292TMC3    C5 4402   3.030   3.955   0.205  0.1967  0.0966 -0.0968
  292TMC3    C6 4403   3.164   3.988   0.203  0.4033 -0.1160  1.1715
  292TMC3     C 4404   2.886   4.234   0.382  0.1899 -0.1644  0.7765
  292TMC3     O 4405   2.777   4.231   0.326 -0.6631  0.4197  0.1163
  292TMC3     H 4406   3.157   4.282   0.369  1.3856 -0.1766 -1.6759
  292TMC3    H1 4407   2.835   4.008   0.280  0.7593 -2.1980 -0.0720
  292TMC3    H2 4408   3.237   3.926   0.152  1.2872  1.3135  0.6899
  292TMC3    C7 4409   3.012   3.812   0.190 -0.2464 -0.2549 -0.3213
  292TMC3    C8 4410   3.326   4.083   0.346  0.2028 -0.5466 -0.2082
  292TMC3    O1 4411   3.112   3.742   0.214  0.0369 -0.1769 -0.3225
  292TMC3    O2 4412   3.384   4.184   0.393  0.1709  0.0502  0.4192
  293MPD2     C 4413   0.297   0.449  13.318 -0.4209  0.0812  0.2628
  293MPD2    C1 4414   0.334   0.583  13.297  0.0714 -0.1679  0.2914
  293MPD2    C2 4415   0.424   0.651  13.378  0.2999 -0.8436  0.7252
  293MPD2    C3 4416   0.484   0.591  13.486  0.3225  0.6194  0.5171
  293MPD2    C4 4417   0.459   0.452  13.503 -0.7009  0.5748  0.0578
  293MPD2    C5 4418   0.370   0.394  13.415  0.5390  0.4343  0.3389
  293MPD2     H 4419   0.442   0.757  13.369 -1.2766 -0.5799  0.5927
  293MPD2    H1 4420   0.510   0.397  13.581 -0.5158  0.9856  0.2310
  293MPD2    H2 4421   0.234   0.390  13.253 -1.0735  0.3165  0.6855
  293MPD2    H3 4422   0.361   0.288  13.433  1.0872  0.3370  0.0416
  293MPD2     N 4423   0.562   0.660  13.575 -0.0603 -0.2589  0.1219
  293MPD2    H5 4424   0.572   0.760  13.558 -1.1248  0.1935  2.1881
  293MPD2    N1 4425   0.278   0.639  13.183 -0.0623 -0.0370 -0.2267
  293MPD2    H7 4426   0.197   0.593  13.144  0.7570 -0.6410 -1.2310
  294TMC3    C1 4427   0.256   0.793  13.003  0.2111 -0.7272  0.8735
  294TMC3    C2 4428   0.122   0.776  12.995 -0.1267 -0.1100  0.1203
  294TMC3    C3 4429   0.071   0.797  12.871  0.4301  0.2819  1.0057
  294TMC3    C4 4430   0.334   0.839  12.907 -0.2186 -0.1734  0.1896
  294TMC3    C5 4431   0.280   0.843  12.780 -0.1156 -0.3065  0.0002
  294TMC3    C6 4432   0.144   0.840  12.759 -0.6219 -0.1306 -0.3259
  294TMC3     C 4433   0.329   0.753  13.120  0.2868 -0.2994  0.6330
  294TMC3     O 4434   0.427   0.821  13.142  0.2851  0.2222 -0.1540
  294TMC3     H 4435   0.073   0.760  13.090  0.3484 -1.0505  0.2091
  294TMC3    H1 4436   0.442   0.843  12.913 -0.2749 -1.0518  1.9931
  294TMC3    H2 4437   0.102   0.841  12.660 -1.3421 -3.0752 -0.0620
  294TMC3    C7 4438   0.354   0.896  12.675  0.0550  0.3399 -0.9987
  294TMC3    C8 4439   4.639   0.786  12.866 -0.1914  0.5789 -0.0138
  294TMC3    O1 4440   0.447   0.971  12.704  0.0776  0.2173  0.2492
  294TMC3    O2 4441   4.590   0.767  12.975 -0.3437  0.1331  0.1129
  295MPD2     C 4442   1.679   4.211   0.502 -0.4630 -0.2619  0.0384
  295MPD2    C1 4443   1.546   4.253   0.466  0.2305  0.1282  0.1434
  295MPD2    C2 4444   1.447   4.218   0.552 -0.1918  0.1976  0.7250
  295MPD2    C3 4445   1.473   4.139   0.665  0.3876  0.4431 -0.3142
  295MPD2    C4 4446   1.594   4.084   0.688  0.2951  0.7795  0.5463
  295MPD2    C5 4447   1.695   4.128   0.614  0.3558  0.8212  0.0303
  295MPD2     H 4448   1.344   4.238   0.524 -0.2206 -1.3576 -0.2870
  295MPD2    H1 4449   1.622   4.025   0.774 -0.1835 -0.3613 -0.0916
  295MPD2    H2 4450   1.763   4.234   0.437  0.1050 -0.5526  0.6681
  295MPD2    H3 4451   1.789   4.079   0.634 -0.4278  0.5562  3.0258
  295MPD2     N 4452   1.373   4.104   0.762 -0.0628 -0.4546  0.0327
  295MPD2    H5 4453   1.415   4.048   0.835  1.9729 -0.1253 -0.8927
  295MPD2    N1 4454   1.506   4.336   0.357  0.2488  0.3400  0.1326
  295MPD2    H7 4455   1.411   4.371   0.352  0.5630  1.1832  0.1400
  296TMC3    C1 4456   1.174   4.123   0.896  0.1408  0.1773 -0.1384
  296TMC3    C2 4457   1.076   4.212   0.933 -0.2171 -0.1507 -0.4412
  296TMC3    C3 4458   1.013   4.173   1.051 -0.3933 -0.1483 -0.3187
  296TMC3    C4 4459   1.202   4.007   0.959 -0.3764  0.5483 -0.2860
  296TMC3    C5 4460   1.137   3.976   1.069 -0.2378 -0.5476 -0.0380
  296TMC3    C6 4461   1.045   4.059   1.124  0.5603 -0.3563  0.0057
  296TMC3     C 4462   1.243   4.149   0.773 -0.5401  0.5629  0.3414
  296TMC3     O 4463   1.177   4.220   0.698 -0.3330  0.5497  0.1412
  296TMC3     H 4464   1.081   4.312   0.891  0.2630 -0.5611 -1.3772
  296TMC3    H1 4465   1.262   3.929   0.912 -0.3152  0.3655  0.1016
  296TMC3    H2 4466   0.990   4.035   1.214  2.6644 -1.5717  0.9590
  296TMC3    C7 4467   1.169   3.853   1.135 -0.3139 -0.2219 -0.3108
  296TMC3    C8 4468   0.911   4.268   1.088 -0.0469 -0.0527 -0.4093
  296TMC3    O1 4469   1.277   3.798   1.110  0.1621 -0.0298 -0.0185
  296TMC3    O2 4470   0.894   4.352   1.005 -0.0253 -0.0343  0.1892
  297MPD2     C 4471   3.224   2.091  16.772  0.5930  0.8923  0.1055
  297MPD2    C1 4472   3.176   2.104  16.647  0.3367 -0.1206 -0.0028
  297MPD2    C2 4473   3.244   2.184  16.554 -0.1867 -0.4070 -1.2518
  297MPD2    C3 4474   3.366   2.234  16.588  0.2461  0.5429  0.5679
  297MPD2    C4 4475   3.407   2.236  16.720 -0.3328 -0.2528  0.5998
  297MPD2    C5 4476   3.327   2.166  16.808  0.5383  0.2030 -0.3721
  297MPD2     H 4477   3.207   2.194  16.453 -1.5386 -0.9259 -0.8150
  297MPD2    H1 4478   3.497   2.289  16.748  0.0812 -0.5224 -0.2279
  297MPD2    H2 4479   3.180   2.033  16.853  1.1967  1.0757  0.5626
  297MPD2    H3 4480   3.361   2.170  16.910  1.5930 -1.7387 -0.6492
  297MPD2     N 4481   3.437   2.304  16.490  0.3155  0.4774  0.2088
  297MPD2    H5 4482   3.394   2.303  16.398 -1.6520 -2.4261  1.1963
  297MPD2    N1 4483   3.056   2.032  16.601  0.1759 -0.3275  0.2150
  297MPD2    H7 4484   3.040   2.042  16.501 -0.2351 -2.3610  0.0866
  298TMC3    C1 4485   2.842   1.923  16.616  0.2415 -0.3420  0.1057
  298TMC3    C2 4486   2.831   1.898  16.483 -0.3322 -0.4696 -0.1122
  298TMC3    C3 4487   2.704   1.870  16.430 -1.1534  0.6469 -0.9970
  298TMC3    C4 4488   2.732   1.918  16.703 -0.3126  0.6536 -0.0357
  298TMC3    C5 4489   2.611   1.895  16.647 -0.8871  0.0962 -0.4124
  298TMC3    C6 4490   2.597   1.867  16.511  0.5049  0.1799  0.4202
  298TMC3     C 4491   2.963   1.970  16.682  0.4022 -0.3493  0.3939
  298TMC3     O 4492   2.972   1.955  16.807  0.9761 -0.2104 -0.1204
  298TMC3     H 4493   2.921   1.917  16.425 -0.6774  1.5786  0.0490
  298TMC3    H1 4494   2.740   1.942  16.808 -0.4359  0.3594  0.0419
  298TMC3    H2 4495   2.503   1.853  16.459 -0.6891  0.0055  2.6090
  298TMC3    C7 4496   2.496   1.943  16.722 -0.1727  0.5939 -0.4088
  298TMC3    C8 4497   2.704   1.851  16.291 -0.0439 -0.6142 -0.0518
  298TMC3    O1 4498   2.511   2.024  16.813 -0.5410  0.0632  0.1666
  298TMC3    O2 4499   2.600   1.834  16.229 -0.7117 -0.5390 -0.1089
  299MPD2     C 4500   3.734   1.417  10.626 -0.0392 -0.5903  0.0989
  299MPD2    C1 4501   3.821   1.465  10.527 -0.9301 -0.2035 -0.4488
  299MPD2    C2 4502   3.767   1.484  10.400 -0.2572  0.6289 -0.0073
  299MPD2    C3 4503   3.644   1.434  10.372  0.3609  0.5643  0.6953
  299MPD2    C4 4504   3.563   1.383  10.472 -0.3316 -0.3893 -1.0851
  299MPD2    C5 4505   3.613   1.365  10.596  0.4227  0.3275  0.9628
  299MPD2     H 4506   3.831   1.530  10.326  2.2194  0.4387  2.0020
  299MPD2    H1 4507   3.461   1.347  10.460 -1.2993  2.1081 -0.3135
  299MPD2    H2 4508   3.766   1.434  10.729  1.4521  2.0743 -0.7869
  299MPD2    H3 4509   3.563   1.301  10.668 -1.2910 -1.5958 -1.9431
  299MPD2     N 4510   3.586   1.441  10.243  0.0554 -0.2805 -0.0828
  299MPD2    H5 4511   3.489   1.413  10.235  1.0015 -3.7385  0.1102
  299MPD2    N1 4512   3.953   1.511  10.559 -0.4503  0.0810  0.0987
  299MPD2    H7 4513   3.988   1.496  10.653  0.4317 -0.9625 -0.4106
  300TMC3    C1 4514   3.566   1.461  10.015 -0.6791  0.3876  0.0911
  300TMC3    C2 4515   3.574   1.542   9.903 -0.1611 -0.2554  0.5781
  300TMC3    C3 4516   3.469   1.556   9.819 -0.1937  0.2297 -0.0662
  300TMC3    C4 4517   3.449   1.391  10.033  0.5400 -0.0667 -0.3030
  300TMC3    C5 4518   3.346   1.395   9.941 -0.1364 -0.5970 -0.0463
  300TMC3    C6 4519   3.361   1.464   9.829 -0.4651 -0.2884 -0.6881
  300TMC3     C 4520   3.642   1.489  10.132  0.4758  0.3874  0.3738
  300TMC3     O 4521   3.756   1.529  10.113 -0.2872 -0.5998 -0.5281
  300TMC3     H 4522   3.661   1.606   9.889 -1.4628  1.7792  1.7408
  300TMC3    H1 4523   3.444   1.300  10.091 -0.0858 -0.4213 -0.9116
  300TMC3    H2 4524   3.285   1.476   9.753 -0.2818  1.0898 -0.6538
  300TMC3    C7 4525   3.214   1.334   9.969  0.1339  0.1481  0.0783
  300TMC3    C8 4526   3.427   1.689   9.783 -0.7523  0.0761  0.1957
  300TMC3    O1 4527   3.136   1.329   9.872 -0.2000 -0.0636 -0.6106
  300TMC3    O2 4528   3.519   1.770   9.794 -0.0057 -0.6530 -0.3587
  301MPD2     C 4529   1.922   3.574   0.900 -0.0559  0.2398  0.1934
  301MPD2    C1 4530   1.814   3.495   0.875 -0.3338  0.1252 -1.0531
  301MPD2    C2 4531   1.804   3.378   0.946  0.1198 -0.1533 -0.5252
  301MPD2    C3 4532   1.902   3.342   1.038 -0.2555  0.1776  0.3954
  301MPD2    C4 4533   2.010   3.423   1.067  1.3849  0.2062 -0.3996
  301MPD2    C5 4534   2.016   3.533   0.988 -0.0393 -0.3532 -0.0426
  301MPD2     H 4535   1.717   3.317   0.923 -1.2677  1.2674  0.9652
  301MPD2    H1 4536   2.082   3.406   1.145  0.1656 -0.4414  0.5925
  301MPD2    H2 4537   1.938   3.665   0.844  2.7569 -1.1777 -1.3356
  301MPD2    H3 4538   2.093   3.605   1.014 -1.5251  1.5572 -0.8507
  301MPD2     N 4539   1.892   3.222   1.112 -0.2251  0.4702  0.2355
  301MPD2    H5 4540   1.943   3.207   1.198 -0.4735 -0.6009  0.2002
  301MPD2    N1 4541   1.704   3.545   0.798  0.4934  0.5713 -0.2354
  301MPD2    H7 4542   1.626   3.480   0.791  0.3054  0.7840 -0.1250
  302TMC3    C1 4543   1.800   3.016   1.170 -0.1953 -0.2842 -0.5339
  302TMC3    C2 4544   1.899   3.000   1.263 -0.1666  0.4682  0.0639
  302TMC3    C3 4545   1.891   2.902   1.353  0.5374 -0.1885  0.7404
  302TMC3    C4 4546   1.680   2.950   1.185  0.3682  0.2060 -0.4336
  302TMC3    C5 4547   1.677   2.849   1.277  0.6089  0.0111  0.0285
  302TMC3    C6 4548   1.779   2.833   1.364 -0.3317 -0.0098  0.1593
  302TMC3     C 4549   1.799   3.121   1.075  0.0746  0.2895  0.1052
  302TMC3     O 4550   1.733   3.106   0.974  0.0068  0.1548 -1.0554
  302TMC3     H 4551   1.997   3.045   1.248  0.9024 -2.1003 -0.5949
  302TMC3    H1 4552   1.592   2.979   1.128  1.6657  3.7450 -0.6163
  302TMC3    H2 4553   1.761   2.761   1.443  3.1208 -0.3379  0.6384
  302TMC3    C7 4554   1.565   2.774   1.291  1.3424  0.1498  0.6950
  302TMC3    C8 4555   2.004   2.847   1.433 -0.4855  0.3069  0.2241
  302TMC3    O1 4556   1.577   2.667   1.344 -0.3209 -0.2193  0.5965
  302TMC3    O2 4557   1.971   2.742   1.493  0.3024 -0.0411 -0.6662
  303MPD2     C 4558   1.445   0.706  10.574 -0.2756 -0.4394 -0.9727
  303MPD2    C1 4559   1.360   0.602  10.561 -0.2338 -0.0734  0.5352
  303MPD2    C2 4560   1.340   0.550  10.430  0.2609 -0.8859  0.2765
  303MPD2    C3 4561   1.411   0.586  10.317  0.1919  0.8669  0.7282
  303MPD2    C4 4562   1.483   0.699  10.340  0.1700  0.5382 -0.2824
  303MPD2    C5 4563   1.497   0.766  10.465 -0.5683  0.3675  0.3761
  303MPD2     H 4564   1.263   0.474  10.424  0.6192 -1.2177 -0.0977
  303MPD2    H1 4565   1.556   0.742  10.271 -0.2700  2.8456  0.6892
  303MPD2    H2 4566   1.461   0.756  10.668  0.7027  1.0275 -1.9143
  303MPD2    H3 4567   1.562   0.852  10.471 -3.4475  2.4172  2.3675
  303MPD2     N 4568   1.399   0.528  10.185  0.1611 -0.3201  0.0798
  303MPD2    H5 4569   1.450   0.571  10.108  1.0401  1.0618  1.4295
  303MPD2    N1 4570   1.297   0.559  10.677  0.4194 -0.4475 -0.4077
  303MPD2    H7 4571   1.329   0.599  10.765 -0.2662 -0.0986 -0.3214
  304TMC3    C1 4572   1.144   0.430  10.803 -0.0516  0.5477 -0.2787
  304TMC3    C2 4573   1.011   0.395  10.811 -0.5148 -0.1040 -0.0667
  304TMC3    C3 4574   0.970   0.314  10.917 -0.2636 -0.0930 -0.7963
  304TMC3    C4 4575   1.235   0.386  10.896  0.3356 -0.6943 -0.2785
  304TMC3    C5 4576   1.186   0.313  11.003  0.1420  0.3817  0.3588
  304TMC3    C6 4577   1.054   0.283  11.019  0.4296  0.1193 -0.2284
  304TMC3     C 4578   1.190   0.474  10.670  0.1353 -0.8528  1.1601
  304TMC3     O 4579   1.112   0.454  10.581  0.1489 -0.2527 -0.0788
  304TMC3     H 4580   0.942   0.419  10.732 -1.5397  0.8039  1.1007
  304TMC3    H1 4581   1.340   0.390  10.869  0.5802  2.3823  1.0958
  304TMC3    H2 4582   1.017   0.239  11.110  0.2872  1.4457  0.3588
  304TMC3    C7 4583   1.271   0.215  11.069  0.6327  0.1041  0.6149
  304TMC3    C8 4584   0.910   0.192  10.874 -0.4792 -0.3458  0.2874
  304TMC3    O1 4585   1.394   0.232  11.076  0.3955  0.4606  0.0739
  304TMC3    O2 4586   0.956   0.092  10.925  0.0024  0.3440 -0.0103
  305MPD2     C 4587   4.372   3.313  13.661 -0.0538 -0.1228 -1.1308
  305MPD2    C1 4588   4.426   3.189  13.702  0.0422  0.8407 -0.2934
  305MPD2    C2 4589   4.397   3.070  13.625  0.2702 -0.1703 -0.7764
  305MPD2    C3 4590   4.329   3.087  13.503 -0.4092 -0.7580 -0.2395
  305MPD2    C4 4591   4.290   3.219  13.459  0.2165 -0.2417 -0.5014
  305MPD2    C5 4592   4.304   3.321  13.547 -0.5079  0.4078 -0.9661
  305MPD2     H 4593   4.424   2.969  13.654  2.2987 -0.0572 -2.2791
  305MPD2    H1 4594   4.245   3.244  13.364  4.0313  0.0469 -2.2269
  305MPD2    H2 4595   4.382   3.406  13.717  0.8712 -0.3808 -0.8547
  305MPD2    H3 4596   4.261   3.417  13.523 -0.8622 -0.1554 -2.5770
  305MPD2     N 4597   4.313   2.977  13.413  0.3844 -0.2365  0.1223
  305MPD2    H5 4598   4.291   2.992  13.315 -0.4370  1.4975  0.5699
  305MPD2    N1 4599   4.493   3.180  13.827 -0.5766 -0.1837  0.3298
  305MPD2    H7 4600   4.485   3.254  13.896 -0.6815 -0.1385  0.2679
  306TMC3    C1 4601   4.534   3.057  14.012  0.1556  0.2835 -0.2587
  306TMC3    C2 4602   4.615   2.976  14.079 -0.5732 -0.6299 -0.3620
  306TMC3    C3 4603   4.593   2.949  14.212 -0.0387  0.2956  0.4768
  306TMC3    C4 4604   4.419   3.112  14.065  0.1884 -0.3344 -0.7295
  306TMC3    C5 4605   4.394   3.079  14.194  0.3493 -0.2658 -0.2167
  306TMC3    C6 4606   4.481   3.002  14.267  0.2462  0.1872  0.3176
  306TMC3     C 4607   4.540   3.057  13.872  0.1442 -0.1276  1.3643
  306TMC3     O 4608   4.606   2.969  13.814  0.4036 -0.4067  0.0015
  306TMC3     H 4609   4.701   2.933  14.028  0.1058 -0.7531  0.8674
  306TMC3    H1 4610   4.351   3.163  13.997 -0.4709  0.1122  0.2798
  306TMC3    H2 4611   4.459   2.990  14.373 -0.7100  2.4976  0.3863
  306TMC3    C7 4612   4.287   3.158  14.249 -0.7323  0.8403 -0.1570
  306TMC3    C8 4613   4.657   2.827  14.264  0.5947 -0.4539  0.0003
  306TMC3    O1 4614   4.202   3.203  14.175  0.2165  0.6200 -0.1465
  306TMC3    O2 4615   0.026   2.777  14.194 -0.2085 -0.7772  0.4364
  307MPD2     C 4616   1.766   0.613   0.633  0.4874 -0.5534  0.6922
  307MPD2    C1 4617   1.746   0.732   0.566  0.2278 -0.4062  0.3710
  307MPD2    C2 4618   1.703   0.842   0.633 -0.3162 -0.2787  0.4715
  307MPD2    C3 4619   1.663   0.839   0.763  0.5317 -0.9055 -0.0585
  307MPD2    C4 4620   1.685   0.721   0.828  0.7614  0.2431 -0.0093
  307MPD2    C5 4621   1.745   0.615   0.767  0.6041 -0.1532  0.0223
  307MPD2     H 4622   1.691   0.932   0.574 -2.2501 -0.8405  0.0305
  307MPD2    H1 4623   1.670   0.714   0.935 -1.9894 -0.2053 -0.4316
  307MPD2    H2 4624   1.801   0.520   0.590  0.6935  0.4618 -1.2865
  307MPD2    H3 4625   1.743   0.529   0.833 -0.1289  2.1946  3.0620
  307MPD2     N 4626   1.622   0.960   0.828 -0.9570  0.5574 -0.1705
  307MPD2    H5 4627   1.605   1.038   0.765 -0.6810  0.9441  0.2323
  307MPD2    N1 4628   1.778   0.766   0.430 -0.0667  0.1136 -0.2989
  307MPD2    H7 4629   1.754   0.860   0.402 -0.2204  0.2902  0.4279
  308TMC3    C1 4630   1.401   1.288   1.050  0.3992 -0.0924  0.0614
  308TMC3    C2 4631   1.469   1.385   0.979 -0.3004 -0.6663 -0.1419
  308TMC3    C3 4632   1.580   1.345   0.909 -0.2339 -0.4414  0.0352
  308TMC3    C4 4633   1.444   1.156   1.053  0.0516 -0.1100 -0.0595
  308TMC3    C5 4634   1.552   1.121   0.979 -0.6278  0.7165  0.2877
  308TMC3    C6 4635   1.624   1.218   0.910  0.1525 -0.0007 -1.2011
  308TMC3     C 4636   1.304   1.328   1.153  0.4446 -0.6901 -0.1447
  308TMC3     O 4637   1.333   1.287   1.261 -0.1755 -0.1184  0.0500
  308TMC3     H 4638   1.442   1.490   0.979  0.4418 -0.4740 -1.3453
  308TMC3    H1 4639   1.384   1.076   1.095 -0.1453  0.9903  1.7518
  308TMC3    H2 4640   1.716   1.194   0.858  0.6816  3.2734 -1.7913
  308TMC3    C7 4641   1.575   0.978   0.954  0.1637 -0.7245 -0.4993
  308TMC3    C8 4642   1.644   1.445   0.828  0.2038  0.0135  0.4347
  308TMC3    O1 4643   1.522   0.898   1.029  0.0622 -0.3546  0.0553
  308TMC3    O2 4644   1.580   1.549   0.808  0.0609  0.2405 -0.3264
  309MPD2     C 4645   1.126   1.421  17.278 -0.1276  0.6596  0.5166
  309MPD2    C1 4646   1.020   1.368  17.210 -0.4096 -0.3207 -0.0911
  309MPD2    C2 4647   0.892   1.386  17.256 -0.1228 -0.1133  0.0764
  309MPD2    C3 4648   0.873   1.465  17.373 -0.2379  0.3101 -0.0097
  309MPD2    C4 4649   0.985   1.512  17.434  0.8497  0.2346 -0.4237
  309MPD2    C5 4650   1.104   1.493  17.384  0.3236  0.1652  0.4558
  309MPD2     H 4651   0.812   1.351  17.192  1.0440 -3.0583  0.2681
  309MPD2    H1 4652   0.971   1.564  17.528  1.9960  0.5751 -0.4435
  309MPD2    H2 4653   1.225   1.426  17.236 -0.5707  1.4390 -0.4300
  309MPD2    H3 4654   1.188   1.541  17.434 -0.1526 -0.9205  2.2900
  309MPD2     N 4655   0.748   1.486  17.437 -0.3888 -0.6517  0.2994
  309MPD2    H5 4656   0.742   1.527  17.530  0.0655 -0.2141  0.1370
  309MPD2    N1 4657   1.040   1.319  17.080 -0.1734  0.0968  0.8040
  309MPD2    H7 4658   0.955   1.291  17.033 -0.1210 -0.4020  1.0025
  310TMC3    C1 4659   1.156   1.258  16.881 -0.4095 -0.3875  0.5031
  310TMC3    C2 4660   1.078   1.332  16.792 -0.1151 -0.3111  0.0122
  310TMC3    C3 4661   1.097   1.324  16.661  0.0201 -0.0890  0.0419
  310TMC3    C4 4662   1.253   1.179  16.829  0.8918  0.2236 -0.1002
  310TMC3    C5 4663   1.274   1.175  16.694 -0.3887 -0.3213 -0.4907
  310TMC3    C6 4664   1.192   1.246  16.615 -0.1074  0.0912  0.0362
  310TMC3     C 4665   1.162   1.276  17.025  0.0102  0.1731  0.0373
  310TMC3     O 4666   1.276   1.258  17.078 -0.0018  0.0514 -0.3932
  310TMC3     H 4667   1.003   1.397  16.834 -1.3123 -1.9184  0.3831
  310TMC3    H1 4668   1.311   1.113  16.893  1.1566  0.0626 -0.5019
  310TMC3    H2 4669   1.206   1.226  16.509  2.0139 -0.9994  0.5270
  310TMC3    C7 4670   1.390   1.099  16.644  0.7191 -0.1462 -0.6880
  310TMC3    C8 4671   1.002   1.387  16.563  0.5050  0.4888  0.2981
  310TMC3    O1 4672   1.431   1.005  16.707 -0.4586  0.1022 -0.2917
  310TMC3    O2 4673   1.037   1.382  16.446  0.1232  0.4292 -0.4084
  311MPD2     C 4674   3.156   2.302  12.667 -0.1951  0.1536 -0.1076
  311MPD2    C1 4675   3.148   2.421  12.732  0.0655 -0.7484 -0.3050
  311MPD2    C2 4676   3.028   2.481  12.749  0.1724 -0.9080  0.8294
  311MPD2    C3 4677   2.917   2.436  12.685 -0.4220  0.3217 -0.2686
  311MPD2    C4 4678   2.932   2.335  12.597  0.2581 -0.5108 -1.1719
  311MPD2    C5 4679   3.043   2.263  12.597 -0.1290  0.6379 -0.5248
  311MPD2     H 4680   3.020   2.558  12.825 -2.5068  0.7726 -1.1881
  311MPD2    H1 4681   2.848   2.291  12.544 -0.4171  1.5618 -1.8229
  311MPD2    H2 4682   3.252   2.254  12.652  0.1377  0.5608  0.6997
  311MPD2    H3 4683   3.046   2.166  12.548  0.3629 -1.0061  2.7148
  311MPD2     N 4684   2.787   2.498  12.708  0.3070 -0.0720  0.5888
  311MPD2    H5 4685   2.776   2.538  12.800  1.0616  0.5098  0.4218
  311MPD2    N1 4686   3.260   2.480  12.795  0.5571  0.5613 -0.7229
  311MPD2    H7 4687   3.245   2.574  12.828  2.7033  0.2754  1.0323
  312TMC3    C1 4688   2.565   2.550  12.664 -0.1219 -0.0692  0.8910
  312TMC3    C2 4689   2.485   2.622  12.580 -0.5899 -0.4902  0.4886
  312TMC3    C3 4690   2.387   2.696  12.635  0.2470  0.4792  0.2644
  312TMC3    C4 4691   2.549   2.557  12.800  0.1161  0.0844  0.1273
  312TMC3    C5 4692   2.449   2.637  12.845 -0.3904  0.1771  0.2127
  312TMC3    C6 4693   2.362   2.705  12.766  0.0517  0.2470  0.0016
  312TMC3     C 4694   2.691   2.504  12.611 -0.7833 -0.3823 -0.4119
  312TMC3     O 4695   2.718   2.501  12.491  0.5509 -0.1580 -0.2153
  312TMC3     H 4696   2.486   2.614  12.472 -1.6227 -1.4248  0.5464
  312TMC3    H1 4697   2.588   2.479  12.865 -1.8256 -0.3511  0.7613
  312TMC3    H2 4698   2.269   2.745  12.804 -0.5972 -1.8457  0.6086
  312TMC3    C7 4699   2.404   2.621  12.986  1.2194  0.5126  0.5253
  312TMC3    C8 4700   2.270   2.701  12.557 -0.0255 -0.1599  0.1473
  312TMC3    O1 4701   2.287   2.638  13.015  0.2681  0.3116  0.5815
  312TMC3    O2 4702   2.169   2.663  12.612 -0.4655 -0.7819  0.5815
  313MPD2     C 4703   2.733   1.451  10.349 -0.4166  0.4177  0.1401
  313MPD2    C1 4704   2.634   1.381  10.418 -0.4476  0.0020  0.2812
  313MPD2    C2 4705   2.560   1.291  10.345  0.0557  0.3283  0.2316
  313MPD2    C3 4706   2.588   1.274  10.214 -0.3468  0.2085 -0.9661
  313MPD2    C4 4707   2.684   1.348  10.146 -0.6269  0.5862  0.2431
  313MPD2    C5 4708   2.753   1.443  10.216  0.3462 -0.2440 -0.0089
  313MPD2     H 4709   2.482   1.232  10.393 -0.6347  0.7072 -0.4310
  313MPD2    H1 4710   2.702   1.352  10.040 -1.7352 -1.8182 -0.0272
  313MPD2    H2 4711   2.793   1.529  10.394  1.0947 -1.3015  1.0658
  313MPD2    H3 4712   2.833   1.506  10.178  0.5938 -1.4921 -1.5276
  313MPD2     N 4713   2.514   1.171  10.151  0.1418  0.4700 -0.1098
  313MPD2    H5 4714   2.452   1.122  10.214  0.7593 -1.7596 -1.1980
  313MPD2    N1 4715   2.592   1.408  10.547  0.6245  0.3105 -0.2652
  313MPD2    H7 4716   2.507   1.359  10.573  1.2694 -0.7965 -0.2412
  314TMC3    C1 4717   2.547   1.562  10.718  0.2285 -0.1661  0.0967
  314TMC3    C2 4718   2.611   1.652  10.805 -0.4174 -0.1402 -0.1406
  314TMC3    C3 4719   2.577   1.790  10.802 -0.4714 -0.1406 -0.1274
  314TMC3    C4 4720   2.445   1.613  10.641  0.0148 -0.5207 -0.1189
  314TMC3    C5 4721   2.403   1.740  10.654 -0.9344  0.0178 -0.4245
  314TMC3    C6 4722   2.471   1.836  10.730 -0.2209 -0.1319 -0.0456
  314TMC3     C 4723   2.643   1.511  10.621  0.0131  0.2620 -0.3815
  314TMC3     O 4724   2.738   1.590  10.595 -0.4817 -0.0150 -0.2798
  314TMC3     H 4725   2.700   1.621  10.858 -0.5676  1.9576  1.3214
  314TMC3    H1 4726   2.387   1.553  10.573 -0.6278 -0.5810  0.4771
  314TMC3    H2 4727   2.451   1.943  10.726  0.0965  0.0238  2.1598
  314TMC3    C7 4728   2.332   1.800  10.541  0.0509  0.4398 -0.0662
  314TMC3    C8 4729   2.665   1.890  10.860 -0.2359 -0.2494 -0.2360
  314TMC3    O1 4730   2.221   1.755  10.518  0.3369 -0.6403 -0.4184
  314TMC3    O2 4731   2.622   2.009  10.869  0.3978  0.2068 -0.6960
  315MPD2     C 4732   2.214   1.768   0.777  0.1903 -0.5874 -0.0544
  315MPD2    C1 4733   2.348   1.773   0.757  0.4041 -0.3270  0.4888
  315MPD2    C2 4734   2.401   1.874   0.687  0.3106  0.0805 -0.4876
  315MPD2    C3 4735   2.318   1.968   0.627 -0.1927  0.3837 -0.0508
  315MPD2    C4 4736   2.185   1.968   0.661  0.3583 -0.2107  0.3755
  315MPD2    C5 4737   2.130   1.863   0.731  0.9237  0.0043  0.0158
  315MPD2     H 4738   2.509   1.878   0.678  0.5063  0.0002  1.6123
  315MPD2    H1 4739   2.115   2.041   0.623 -1.6964 -2.4246 -0.0973
  315MPD2    H2 4740   2.171   1.687   0.834  0.8888 -0.4809  0.6264
  315MPD2    H3 4741   2.027   1.856   0.762  0.7219  1.9363 -0.2292
  315MPD2     N 4742   2.380   2.074   0.549  0.6646 -0.1245 -0.2722
  315MPD2    H5 4743   2.480   2.081   0.535  0.4030  1.1093 -1.4648
  315MPD2    N1 4744   2.419   1.667   0.820 -0.0015  0.2499 -0.0567
  315MPD2    H7 4745   2.366   1.597   0.872  1.3480 -0.5873  0.1980
  316TMC3    C1 4746   2.406   2.263   0.412  1.1078 -0.3974 -0.0403
  316TMC3    C2 4747   2.497   2.331   0.481 -0.5389 -0.7872  0.6989
  316TMC3    C3 4748   2.551   2.442   0.423 -0.0540 -0.2558  0.3200
  316TMC3    C4 4749   2.363   2.309   0.286 -0.2424  0.5844  0.3733
  316TMC3    C5 4750   2.414   2.426   0.234 -0.1039  0.3079 -0.4380
  316TMC3    C6 4751   2.513   2.492   0.297 -0.2292  0.5918  0.1528
  316TMC3     C 4752   2.315   2.177   0.487 -0.1647 -0.5850 -0.1342
  316TMC3     O 4753   2.191   2.190   0.471 -0.5080  0.2935  0.8491
  316TMC3     H 4754   2.520   2.306   0.584  0.8247  1.9674  1.0673
  316TMC3    H1 4755   2.291   2.252   0.228  1.4966  0.6914 -1.9124
  316TMC3    H2 4756   2.564   2.579   0.256  2.0268  0.1536  2.0267
  316TMC3    C7 4757   2.379   2.444   0.089  0.7719  0.8480 -0.1945
  316TMC3    C8 4758   2.661   2.510   0.485  0.3208 -0.0318  0.0941
  316TMC3    O1 4759   2.299   2.368   0.034 -0.1049 -0.2611 -0.0359
  316TMC3    O2 4760   2.709   2.613   0.439 -0.4142 -0.9403 -0.3204
  317MPD2     C 4761   4.354   4.477  13.879 -0.3961 -0.1087 -0.1314
  317MPD2    C1 4762   4.285   4.440  13.761 -0.0524  0.1540 -0.1376
  317MPD2    C2 4763   4.325   4.331  13.686  0.2901  0.6023 -0.0133
  317MPD2    C3 4764   4.439   4.261  13.725 -0.4602 -0.2387  0.1942
  317MPD2    C4 4765   4.499   4.297  13.841  0.5527  0.6026 -0.4359
  317MPD2    C5 4766   4.462   4.405  13.914 -0.6216 -0.7963  0.4207
  317MPD2     H 4767   4.280   4.312  13.589 -2.1795  0.7441  1.1159
  317MPD2    H1 4768   4.590   4.249  13.875 -0.4838 -0.3504  0.9845
  317MPD2    H2 4769   4.342   4.571  13.932 -2.6951 -0.5119  0.0626
  317MPD2    H3 4770   4.529   4.434  13.994  0.9712 -1.5256 -0.6345
  317MPD2     N 4771   4.491   4.159  13.640 -0.7302  0.0960 -0.1485
  317MPD2    H5 4772   4.454   4.155  13.546  0.9094  0.2037 -0.8109
  317MPD2    N1 4773   4.178   4.523  13.715 -0.0243 -0.0032  0.1379
  317MPD2    H7 4774   4.149   4.498  13.621 -1.7394  0.8980  0.4167
  318TMC3    C1 4775   4.654   4.013  13.541 -1.0699  0.1505 -0.1134
  318TMC3    C2 4776   4.565   3.958  13.457  0.6409 -0.2014  0.0961
  318TMC3    C3 4777   4.620   3.912  13.338  0.1279  0.0079 -0.2076
  318TMC3    C4 4778   0.064   4.016  13.519 -0.5327  0.2300  0.2590
  318TMC3    C5 4779   0.119   3.959  13.411  0.6780  0.3135  0.6914
  318TMC3    C6 4780   0.035   3.911  13.316  0.5872 -0.2716  0.3320
  318TMC3     C 4781   4.602   4.081  13.660  0.2465  0.1879  0.3971
  318TMC3     O 4782   4.663   4.068  13.760  0.6666  0.0342  0.0314
  318TMC3     H 4783   4.463   3.943  13.491  1.3333 -1.8221  1.4597
  318TMC3    H1 4784   0.129   4.072  13.587 -1.9893 -0.8765  2.5675
  318TMC3    H2 4785   0.073   3.886  13.217 -0.0484 -0.6008  0.1723
  318TMC3    C7 4786   0.237   4.041  13.378  0.2724  0.7760  0.0065
  318TMC3    C8 4787   4.543   3.846  13.229 -0.5000  0.2399 -0.8470
  318TMC3    O1 4788   0.239   4.160  13.400 -0.5314 -0.7243  0.9571
  318TMC3    O2 4789   4.617   3.782  13.158 -0.2871 -0.4909  0.6397
  319MPD2     C 4790   0.391   1.330  16.591  0.1900 -0.0865  0.1972
  319MPD2    C1 4791   0.268   1.294  16.641 -0.0330 -0.1954  0.2211
  319MPD2    C2 4792   0.157   1.306  16.559  0.2385 -0.6691 -0.7079
  319MPD2    C3 4793   0.176   1.364  16.430 -0.7933  0.2063  0.6724
  319MPD2    C4 4794   0.296   1.398  16.389  0.9085 -0.1289 -0.2795
  319MPD2    C5 4795   0.406   1.382  16.463  0.3500 -0.7168 -0.1401
  319MPD2     H 4796   0.056   1.288  16.594  0.0508  1.7755  0.0308
  319MPD2    H1 4797   0.314   1.452  16.296  1.0507  1.1107  0.4800
  319MPD2    H2 4798   0.477   1.305  16.652 -0.6857  2.9410  2.6353
  319MPD2    H3 4799   0.503   1.411  16.425 -1.5050  1.3336 -3.3365
  319MPD2     N 4800   0.076   1.395  16.338 -0.3991  0.0594 -0.7898
  319MPD2    H5 4801   0.102   1.431  16.246 -2.0286 -1.0825 -1.7068
  319MPD2    N1 4802   0.250   1.231  16.765  0.4989  0.0366 -0.0347
  319MPD2    H7 4803   0.165   1.176  16.775 -0.7581  1.8286 -0.7304
  320TMC3    C1 4804   4.573   1.379  16.246  0.2975 -0.0143  0.6512
  320TMC3    C2 4805   4.603   1.474  16.151  0.0244 -0.4944 -0.4543
  320TMC3    C3 4806   4.553   1.440  16.030 -0.3668  0.0928 -0.8932
  320TMC3    C4 4807   4.483   1.281  16.239  0.2118 -0.0992 -0.1719
  320TMC3    C5 4808   4.424   1.263  16.122 -0.3760  0.2985 -0.6936
  320TMC3    C6 4809   4.457   1.344  16.016  0.3072 -0.7452  0.3331
  320TMC3     C 4810   4.662   1.367  16.357 -0.0139 -0.0141 -0.9221
  320TMC3     O 4811   4.609   1.316  16.453 -0.2738  0.0199 -0.2629
  320TMC3     H 4812   4.685   1.543  16.167 -1.0118  0.8509 -1.0015
  320TMC3    H1 4813   4.476   1.205  16.316  0.5491  2.2269  2.1405
  320TMC3    H2 4814   4.408   1.323  15.921 -0.8227  3.7927 -0.0690
  320TMC3    C7 4815   4.347   1.147  16.089  0.1509 -0.1456 -0.3435
  320TMC3    C8 4816   4.571   1.543  15.926  0.5965  0.4736  0.0649
  320TMC3    O1 4817   4.341   1.115  15.972 -0.4044  0.2246 -0.1187
  320TMC3    O2 4818   4.616   1.650  15.967  0.0431 -0.0806  0.5560
  321TMC3    C1 4819   0.322   1.109  16.955 -0.2445  0.9117 -0.0855
  321TMC3    C2 4820   0.302   0.990  16.892 -0.0207  0.1195  0.3366
  321TMC3    C3 4821   0.263   0.886  16.975  0.0133 -0.0152 -0.1785
  321TMC3    C4 4822   0.300   1.128  17.090  0.5502 -0.1602  0.1544
  321TMC3    C5 4823   0.253   1.020  17.164  0.4975  0.3290  0.3511
  321TMC3    C6 4824   0.234   0.901  17.109 -0.6640 -0.4548  0.5508
  321TMC3     C 4825   0.344   1.220  16.867  0.4998 -0.1880 -0.2170
  321TMC3     O 4826   0.417   1.307  16.918 -0.0905 -0.1079  0.3577
  321TMC3     H 4827   0.327   0.967  16.789 -1.0858 -2.0526  0.5643
  321TMC3    H1 4828   0.333   1.212  17.149  0.5808 -1.2268  1.6687
  321TMC3    H2 4829   0.193   0.815  17.161  0.3655  0.2135  2.4798
  321TMC3    C7 4830   0.309   0.995  17.299  0.2287  0.4566 -0.3857
  321TMC3    C8 4831   0.353   0.772  16.951 -0.3196  0.2041 -0.0813
  321TMC3    O1 4832   0.342   0.882  17.312  0.0027 -0.2764  0.3151
  321TMC3    O2 4833   0.381   0.730  16.834 -0.0252  0.4332 -0.2865
  322MPD2     C 4834   3.878   2.224  13.731 -0.2081 -0.5371 -0.1833
  322MPD2    C1 4835   3.922   2.255  13.859  0.4448 -0.1601  0.5008
  322MPD2    C2 4836   3.879   2.171  13.965  0.1129 -0.2413  0.0643
  322MPD2    C3 4837   3.813   2.059  13.939 -0.0360  0.5005  0.4654
  322MPD2    C4 4838   3.757   2.037  13.811 -0.0311 -0.7788 -0.2959
  322MPD2    C5 4839   3.795   2.116  13.712 -0.4796  0.1436  0.4670
  322MPD2     H 4840   3.913   2.201  14.063  0.0181 -1.6963  0.5340
  322MPD2    H1 4841   3.685   1.958  13.793  0.3185 -1.6898  2.2528
  322MPD2    H2 4842   3.897   2.286  13.644  0.1885  0.6400  0.7528
  322MPD2    H3 4843   3.754   2.092  13.615  2.4411  0.9234 -0.9422
  322MPD2     N 4844   3.808   1.969  14.044 -0.1427 -0.7953 -0.6730
  322MPD2    H5 4845   3.854   2.006  14.127  0.6239 -0.7863 -1.0961
  322MPD2    N1 4846   4.009   2.362  13.887 -0.0087 -0.2695 -0.4540
  322MPD2    H7 4847   4.040   2.361  13.983  0.1420  4.1541 -0.4578
  323TMC3    C1 4848   4.177   2.526  13.858  0.0239  0.9592 -0.4141
  323TMC3    C2 4849   4.275   2.583  13.783 -0.3439 -0.0133 -0.5054
  323TMC3    C3 4850   4.371   2.658  13.844 -0.3231 -0.6269 -0.7144
  323TMC3    C4 4851   4.171   2.541  13.992  0.2375 -0.1041 -0.5133
  323TMC3    C5 4852   4.266   2.617  14.055  0.4774 -0.4633  0.4720
  323TMC3    C6 4853   4.375   2.672  13.983  0.0764 -0.1910 -0.0309
  323TMC3     C 4854   4.082   2.433  13.793  0.3950 -0.5060  0.0457
  323TMC3     O 4855   4.075   2.442  13.672  0.2864 -0.0061  0.0350
  323TMC3     H 4856   4.277   2.572  13.675 -0.3515  1.2594 -0.6345
  323TMC3    H1 4857   4.095   2.498  14.057  0.9975 -0.3764  0.1882
  323TMC3    H2 4858   4.454   2.713  14.046  0.0979 -0.3653  0.0555
  323TMC3    C7 4859   4.293   2.583  14.194  0.0094  0.8031  0.0523
  323TMC3    C8 4860   4.503   2.650  13.780 -0.7606  0.0484  0.1201
  323TMC3    O1 4861   4.405   2.551  14.229 -0.6426  0.5929 -0.0353
  323TMC3    O2 4862   4.596   2.643  13.857 -0.4852  0.2575 -0.1986
  324MPD2     C 4863   1.241   3.119  14.135 -0.0982  0.1206 -0.8586
  324MPD2    C1 4864   1.286   3.233  14.065 -1.1094 -0.7182 -0.2046
  324MPD2    C2 4865   1.196   3.305  13.998  0.2170 -0.1055  0.0725
  324MPD2    C3 4866   1.055   3.289  14.021  0.4085  0.3648  0.3644
  324MPD2    C4 4867   1.016   3.177  14.086  0.2028  1.2122 -0.3233
  324MPD2    C5 4868   1.109   3.093  14.134  0.4941  0.1742 -0.0213
  324MPD2     H 4869   1.230   3.388  13.937 -0.0538 -0.0774 -0.0391
  324MPD2    H1 4870   0.911   3.156  14.098  1.2226 -3.7902 -0.3704
  324MPD2    H2 4871   1.319   3.053  14.171 -0.2623  1.1381  1.3429
  324MPD2    H3 4872   1.085   2.998  14.181  2.4891  0.0899  0.8046
  324MPD2     N 4873   0.960   3.372  13.955  1.1016 -0.2072  0.3092
  324MPD2    H5 4874   0.867   3.333  13.951  0.7868  0.7117 -1.2501
  324MPD2    N1 4875   1.423   3.271  14.058 -0.5506  0.3342  0.0675
  324MPD2    H7 4876   1.458   3.340  13.992 -0.0188 -2.1669 -2.2511
  325TMC3    C1 4877   0.870   3.549  13.832  0.1378  0.5516  0.3241
  325TMC3    C2 4878   0.781   3.458  13.789 -0.6706  0.8071 -0.6518
  325TMC3    C3 4879   0.655   3.493  13.799  0.9175  0.2694 -0.6259
  325TMC3    C4 4880   0.834   3.665  13.886  0.2031  0.4123  0.6193
  325TMC3    C5 4881   0.698   3.694  13.899  0.0345 -0.9015 -0.2359
  325TMC3    C6 4882   0.601   3.605  13.857  0.0719 -1.2069 -0.1985
  325TMC3     C 4883   0.985   3.495  13.896 -0.0043  0.0533  0.4828
  325TMC3     O 4884   1.065   3.585  13.920 -0.0728  0.4996  0.1004
  325TMC3     H 4885   0.813   3.368  13.736 -0.2351 -0.3040  1.5114
  325TMC3    H1 4886   0.902   3.727  13.944 -0.7529  2.1467 -0.1171
  325TMC3    H2 4887   0.497   3.634  13.845  0.5283 -0.2785 -1.9017
  325TMC3    C7 4888   0.668   3.811  13.983  0.4578  0.1174 -0.5566
  325TMC3    C8 4889   0.567   3.408  13.731  0.2193  0.6970 -0.6280
  325TMC3    O1 4890   0.760   3.866  14.044 -0.4297  0.2932 -0.3548
  325TMC3    O2 4891   0.622   3.363  13.627 -0.3318 -0.6011 -0.1554
  326MPD2     C 4892   2.062   0.003  10.900 -0.5963 -0.3589 -0.0815
  326MPD2    C1 4893   2.058   4.623  11.000 -0.4704  0.4057  0.4051
  326MPD2    C2 4894   2.166   4.613  11.089  0.5708  0.2325 -0.4361
  326MPD2    C3 4895   2.281   4.690  11.068  0.5214  1.5718 -0.3338
  326MPD2    C4 4896   2.278   0.064  10.968  0.3003 -0.2548  0.6724
  326MPD2    C5 4897   2.177   0.078  10.887  0.0193  0.1847 -0.3361
  326MPD2     H 4898   2.174   4.535  11.164 -0.6810  0.5833  0.0633
  326MPD2    H1 4899   2.365   0.123  10.941 -1.3558  2.1990  0.7609
  326MPD2    H2 4900   1.986   0.019  10.824 -1.8163 -3.0546  0.5478
  326MPD2    H3 4901   2.191   0.151  10.808  0.9346 -2.6205 -2.7698
  326MPD2     N 4902   2.409   4.672  11.130  0.0476  0.1096  0.0449
  326MPD2    H5 4903   2.478   0.024  11.109 -0.0600 -0.7277 -3.2397
  326MPD2    N1 4904   1.946   4.546  11.028  0.0285  0.9742  0.0322
  326MPD2    H7 4905   1.952   4.484  11.108 -1.1730 -2.5708 -2.5783
  327TMC3    C1 4906   1.742   4.451  10.984 -0.1119  0.1700  0.4612
  327TMC3    C2 4907   1.623   4.475  10.922 -0.8785  0.6992 -0.7292
  327TMC3    C3 4908   1.575   4.378  10.838  0.2167  0.1148  1.2069
  327TMC3    C4 4909   1.792   4.323  10.979  0.6192  0.5496 -0.9174
  327TMC3    C5 4910   1.728   4.227  10.906  1.0085  0.4252  0.3170
  327TMC3    C6 4911   1.619   4.251  10.828  0.6592  0.2449 -0.1930
  327TMC3     C 4912   1.831   4.555  10.956 -0.1903  1.0028  0.2454
  327TMC3     O 4913   1.787   4.649  10.889  0.0735  0.7666  0.6697
  327TMC3     H 4914   1.582   4.575  10.918 -1.5831  0.5299  2.5317
  327TMC3    H1 4915   1.886   4.302  11.027  0.5848  1.0626 -0.6282
  327TMC3    H2 4916   1.577   4.183  10.755 -0.4360  2.6826 -1.8350
  327TMC3    C7 4917   1.794   4.101  10.892  0.1257 -0.0305 -0.7737
  327TMC3    C8 4918   1.516   4.436  10.715 -0.1200 -0.3496  0.1696
  327TMC3    O1 4919   1.795   4.057  10.775 -0.3038  0.1110 -0.0623
  327TMC3    O2 4920   1.581   4.415  10.610  0.1040 -0.1331 -0.2770
  328MPD2     C 4921   4.440   4.661  17.496  0.0851  0.4995 -0.3591
  328MPD2    C1 4922   4.327   4.585  17.508 -0.0178  0.3958  0.4509
  328MPD2    C2 4923   4.270   4.532  17.389  0.0094  0.4841 -0.1145
  328MPD2    C3 4924   4.326   4.578  17.270 -0.2498  0.2707  0.2527
  328MPD2    C4 4925   4.431   4.660  17.261  0.0549 -0.1933 -0.2422
  328MPD2    C5 4926   4.490   4.701  17.376 -0.0633 -0.2438 -0.6418
  328MPD2     H 4927   4.170   4.492  17.382 -0.1018  1.1055 -2.0390
  328MPD2    H1 4928   4.455   4.717  17.172  1.6265 -0.2155  0.1844
  328MPD2    H2 4929   4.485   4.703  17.585 -1.8211  0.8869  0.4389
  328MPD2    H3 4930   4.576   0.047  17.366 -0.7000  0.7158  0.2374
  328MPD2     N 4931   4.254   4.564  17.145 -0.0130 -0.6743  0.2237
  328MPD2    H5 4932   4.298   4.591  17.057  0.7912 -0.9327  0.5500
  328MPD2    N1 4933   4.270   4.573  17.636 -0.6012  0.4713 -0.2088
  328MPD2    H7 4934   4.312   4.632   0.027 -0.5146 -1.0892  1.0286
  329TMC3    C1 4935   4.148   4.476   0.135  0.6221  0.8713  0.7194
  329TMC3    C2 4936   4.148   4.587   0.206 -0.2395 -0.3140 -0.0413
  329TMC3    C3 4937   4.124   4.574   0.339  0.7855  0.9212 -0.0075
  329TMC3    C4 4938   4.109   4.354   0.184 -0.6111  0.6281 -0.8818
  329TMC3    C5 4939   4.100   4.340   0.313 -0.8849  0.3434 -0.7692
  329TMC3    C6 4940   4.099   4.452   0.390 -0.1009  0.4578 -0.1629
  329TMC3     C 4941   4.171   4.480  17.674  0.3473  0.5904  0.8200
  329TMC3     O 4942   4.109   4.404  17.599  0.9041  0.0136  0.0360
  329TMC3     H 4943   4.178   4.682   0.163 -0.4301  0.0680  0.6647
  329TMC3    H1 4944   4.127   4.267   0.121  0.8161 -1.2551  2.1293
  329TMC3    H2 4945   4.099   4.434   0.497  1.4809  2.2501  0.1425
  329TMC3    C7 4946   4.087   4.207   0.364 -0.2602  0.2097 -0.9291
  329TMC3    C8 4947   4.099   4.695   0.415  0.8561 -0.7663 -0.1249
  329TMC3    O1 4948   4.133   4.113   0.296  0.5764  0.1817 -0.1984
  329TMC3    O2 4949   4.166   0.075   0.389  0.8399  0.0092 -0.0958
  330TMC3    C1 4950   2.685   2.760  10.139 -0.3749 -0.5610 -0.0782
  330TMC3    C2 4951   2.748   2.675  10.055 -0.1129 -0.6741 -0.0375
  330TMC3    C3 4952   2.857   2.605  10.099  0.2578 -0.3131 -0.9723
  330TMC3    C4 4953   2.729   2.768  10.266 -0.1585  0.4664  0.3814
  330TMC3    C5 4954   2.831   2.689  10.306 -0.5174 -0.9298 -0.3017
  330TMC3    C6 4955   2.908   2.613  10.220 -0.2085 -0.4327  1.2088
  330TMC3     C 4956   2.605   2.869  10.081  0.2386  0.6603 -0.8622
  330TMC3     O 4957   2.586   2.959  10.162  1.0477  0.8783  0.7615
  330TMC3     H 4958   2.709   2.653   9.956  0.1178 -1.0919 -0.0355
  330TMC3    H1 4959   2.697   2.852  10.328 -0.6765 -0.9547  2.0323
  330TMC3    H2 4960   3.000   2.564  10.249 -0.1662 -1.4088 -0.6063
  330TMC3    C7 4961   2.907   2.749  10.420  0.5199  0.3591 -0.1227
  330TMC3    C8 4962   2.935   2.519  10.011  0.8570  0.0299  0.5515
  330TMC3    O1 4963   2.893   2.867  10.440  0.1875 -0.1926  0.1448
  330TMC3    O2 4964   3.013   2.442  10.065  0.1012  0.2340  0.2253
  331MPD2     C 4965   0.007   2.789  12.057  0.2728 -0.2173  0.4835
  331MPD2    C1 4966   0.120   2.859  12.072  0.0719  0.0601 -0.7122
  331MPD2    C2 4967   0.239   2.811  12.021 -0.4803  0.7438 -0.4939
  331MPD2    C3 4968   0.236   2.685  11.971  0.6089  0.0060 -0.2324
  331MPD2    C4 4969   0.125   2.604  11.975 -0.2191  0.3369  0.1748
  331MPD2    C5 4970   0.012   2.662  12.016  0.5251  0.4265  0.8603
  331MPD2     H 4971   0.323   2.878  12.004  0.8821 -0.5811  0.8979
  331MPD2    H1 4972   0.123   2.515  11.913  2.3591 -0.1185  0.7678
  331MPD2    H2 4973   4.631   2.835  12.078 -0.8204 -0.4555 -4.0388
  331MPD2    H3 4974   4.637   2.610  12.010  1.1031 -0.8252  2.4262
  331MPD2     N 4975   0.357   2.647  11.903  0.2862  0.2438 -0.2705
  331MPD2    H5 4976   0.444   2.692  11.931 -0.3896  0.1535  1.9674
  331MPD2    N1 4977   0.111   2.986  12.136 -0.1940  0.3781  0.3880
  331MPD2    H7 4978   0.017   3.023  12.131 -0.1957  0.4891  1.3533
  332TMC3    C1 4979   0.497   2.547  11.750  0.4140  0.0799  0.6414
  332TMC3    C2 4980   0.551   2.669  11.736  0.6472  0.5035 -0.0009
  332TMC3    C3 4981   0.683   2.674  11.711  0.5201  0.5865 -0.6570
  332TMC3    C4 4982   0.564   2.432  11.736 -0.2965 -0.0258 -0.1068
  332TMC3    C5 4983   0.702   2.446  11.709  0.0160  0.3335  0.4983
  332TMC3    C6 4984   0.757   2.565  11.699  0.4494  0.2498 -0.0152
  332TMC3     C 4985   0.367   2.538  11.819 -0.0890  0.9338  0.2284
  332TMC3     O 4986   0.292   2.447  11.802  0.0785  0.3169 -0.4826
  332TMC3     H 4987   0.496   2.762  11.732  0.1728  0.3443  2.4327
  332TMC3    H1 4988   0.519   2.341  11.772  0.2801  0.0783  0.8725
  332TMC3    H2 4989   0.859   2.577  11.663  0.5226 -0.7650 -0.1406
  332TMC3    C7 4990   0.777   2.335  11.749 -0.1149  0.3209 -1.0884
  332TMC3    C8 4991   0.737   2.805  11.689 -0.7741  0.0892 -0.1821
  332TMC3    O1 4992   0.718   2.225  11.739  0.1414 -0.2881 -0.6280
  332TMC3    O2 4993   0.693   2.899  11.752  0.9385 -0.3896  0.3287
  333MPD2     C 4994   0.466   2.250  11.039  0.1944  0.0607 -0.5058
  333MPD2    C1 4995   0.584   2.218  11.096  0.6373 -1.0850 -0.4766
  333MPD2    C2 4996   0.587   2.122  11.193  0.4134 -0.0920  0.3397
  333MPD2    C3 4997   0.473   2.051  11.237  0.8659 -0.2997  0.0220
  333MPD2    C4 4998   0.357   2.077  11.176  0.7414  0.3351  0.0012
  333MPD2    C5 4999   0.353   2.177  11.085 -0.0486 -0.3822 -0.1365
  333MPD2     H 5000   0.679   2.093  11.242 -0.4797 -4.1834 -0.4101
  333MPD2    H1 5001   0.268   2.017  11.193  1.1781 -0.0449  0.9263
  333MPD2    H2 5002   0.457   2.333  10.969  0.5312  0.1180 -0.4823
  333MPD2    H3 5003   0.259   2.194  11.033  1.3661  0.8123 -2.3221
  333MPD2     N 5004   0.497   1.951  11.333 -0.0028 -0.2747  0.4892
  333MPD2    H5 5005   0.591   1.931  11.367  0.4228 -0.1430 -0.6244
  333MPD2    N1 5006   0.690   2.295  11.049 -0.7828  0.2358  0.0600
  333MPD2    H7 5007   0.670   2.364  10.977 -1.6544 -0.8653 -0.7640
  334TMC3    C1 5008   0.917   2.356  11.001 -0.1578  0.1263  0.1918
  334TMC3    C2 5009   1.049   2.308  11.006  0.6683 -0.2802 -0.6581
  334TMC3    C3 5010   1.133   2.362  10.917 -0.2606 -0.2847 -0.0715
  334TMC3    C4 5011   0.874   2.467  10.920 -0.6693  0.5976  0.6193
  334TMC3    C5 5012   0.964   2.513  10.836  0.1808  0.2905 -0.8468
  334TMC3    C6 5013   1.087   2.458  10.831  0.2318 -0.2558 -0.6881
  334TMC3     C 5014   0.822   2.286  11.082  0.3475 -0.5723 -0.0228
  334TMC3     O 5015   0.871   2.219  11.175 -0.0057  0.0256 -0.3223
  334TMC3     H 5016   1.081   2.228  11.072 -0.1917  1.3368  1.6972
  334TMC3    H1 5017   0.770   2.495  10.925 -1.6139 -2.6478 -0.5269
  334TMC3    H2 5018   1.153   2.504  10.759  0.4463 -0.1251 -0.4089
  334TMC3    C7 5019   0.950   2.654  10.797  0.3870  0.1971  0.3425
  334TMC3    C8 5020   1.261   2.296  10.899  0.4268 -0.3207  0.0385
  334TMC3    O1 5021   1.051   2.728  10.800  0.3520 -0.1264 -0.4943
  334TMC3    O2 5022   1.280   2.209  10.980 -0.1985 -0.5810 -0.3034
  335TMC3    C1 5023   4.711   4.459  17.277  0.8478  0.5325 -0.4517
  335TMC3    C2 5024   4.646   4.404  17.168 -0.5001  0.3740 -0.8223
  335TMC3    C3 5025   4.684   4.463  17.048  0.8626  0.6417 -0.4998
  335TMC3    C4 5026   0.066   4.572  17.273  0.5364  0.0533 -0.2787
  335TMC3    C5 5027   0.072   4.641  17.151 -0.2638  0.5091 -0.2736
  335TMC3    C6 5028   0.029   4.583  17.039 -0.1624 -0.3784 -0.2055
  335TMC3     C 5029   4.699   4.395  17.407  0.0887 -0.1804 -0.6802
  335TMC3     O 5030   0.064   4.421  17.490 -0.1323 -0.3172  0.2512
  335TMC3     H 5031   4.619   4.300  17.178 -1.1514  0.5773 -0.4027
  335TMC3    H1 5032   0.122   4.607  17.359  1.2719 -0.5223 -0.5182
  335TMC3    H2 5033   0.041   4.627  16.941 -2.2054  1.3834  0.3522
  335TMC3    C7 5034   0.188   0.006  17.136 -0.4535  0.5996  0.1375
  335TMC3    C8 5035   4.690   4.383  16.926  0.0736 -0.6917 -0.1475
  335TMC3    O1 5036   0.232   0.029  17.024 -0.5727 -0.1581  0.2512
  335TMC3    O2 5037   0.031   4.430  16.833 -0.2017 -0.4038  0.8160
  336MPD2     C 5038   4.485   2.500  16.296  0.6084 -0.2938 -0.2735
  336MPD2    C1 5039   4.511   2.462  16.164 -0.6593  0.2389 -1.0656
  336MPD2    C2 5040   4.529   2.333  16.130  1.0590 -0.8714  0.3946
  336MPD2    C3 5041   4.520   2.234  16.230  0.4052  0.2164 -0.3932
  336MPD2    C4 5042   4.484   2.274  16.356  0.1594 -0.2415  0.5635
  336MPD2    C5 5043   4.462   2.403  16.394 -0.5375 -0.1919 -0.2880
  336MPD2     H 5044   4.552   2.303  16.028  0.9672 -0.7357  0.3341
  336MPD2    H1 5045   4.497   2.205  16.439  1.1787 -0.0865  0.5316
  336MPD2    H2 5046   4.466   2.603  16.326  0.6077 -0.4779  0.3749
  336MPD2    H3 5047   4.433   2.416  16.498 -0.1342 -0.0357 -0.1916
  336MPD2     N 5048   4.573   2.105  16.224 -0.5797 -0.0348 -0.0809
  336MPD2    H5 5049   4.569   2.048  16.308  0.2462  0.2613  0.1577
  336MPD2    N1 5050   4.529   2.558  16.066  0.1900 -0.3514 -0.3724
  336MPD2    H7 5051   4.533   2.532  15.968 -0.0859 -0.5675 -0.3287
  337TMC3    C1 5052   4.561   2.777  15.966  0.0463 -0.3460 -0.4284
  337TMC3    C2 5053   4.506   2.729  15.850 -0.0588  0.5566  0.0613
  337TMC3    C3 5054   4.515   2.815  15.746  0.4808 -0.7562 -0.2792
  337TMC3    C4 5055   4.621   2.899  15.975 -0.3600  1.2406  0.4629
  337TMC3    C5 5056   4.626   2.985  15.869 -0.0047  0.1234 -0.5584
  337TMC3    C6 5057   4.578   2.939  15.749  0.0370  0.3088 -0.1047
  337TMC3     C 5058   4.544   2.697  16.087 -0.3871 -0.2127  0.1346
  337TMC3     O 5059   4.544   2.764  16.192  0.1314  0.1922 -0.5014
  337TMC3     H 5060   4.446   2.639  15.842  1.5980 -0.4039 -1.7907
  337TMC3    H1 5061   4.652   2.931  16.074  0.5217  3.0887 -0.4129
  337TMC3    H2 5062   4.572   3.010  15.668  2.3771  0.3259 -0.2512
  337TMC3    C7 5063   4.654   3.123  15.890 -0.1057 -0.0324  0.2094
  337TMC3    C8 5064   4.412   2.799  15.648  0.1468  0.0627  0.1345
  337TMC3    O1 5065   4.647   3.155  16.009 -0.1728  0.1136 -0.0916
  337TMC3    O2 5066   4.365   2.689  15.631  0.6052 -0.4816 -0.1041
  338MPD2     C 5067   0.050   2.067   1.253  0.7471 -0.1239  0.1921
  338MPD2    C1 5068   0.061   1.994   1.133  0.6422 -0.4494 -0.3743
  338MPD2    C2 5069   4.658   1.964   1.068 -0.1833 -0.3224 -0.9546
  338MPD2    C3 5070   4.537   2.001   1.121  0.1337  0.1420  0.5638
  338MPD2    C4 5071   4.530   2.062   1.242 -0.5276  0.1004 -0.3450
  338MPD2    C5 5072   4.645   2.094   1.305  0.0817  0.1317  0.1566
  338MPD2     H 5073   4.663   1.928   0.965 -1.3059 -2.4898 -0.2568
  338MPD2    H1 5074   4.439   2.074   1.298  0.4616 -1.2610  1.5473
  338MPD2    H2 5075   0.133   2.108   1.309 -0.0458  1.6505  0.0707
  338MPD2    H3 5076   4.639   2.152   1.396 -0.1740  0.5560 -0.1320
  338MPD2     N 5077   4.429   1.972   1.045 -0.1220 -0.0514  0.7120
  338MPD2    H5 5078   4.443   1.939   0.950 -0.7156  1.1537  0.1985
  338MPD2    N1 5079   0.187   1.975   1.070  0.4145 -0.6853  0.1489
  338MPD2    H7 5080   0.186   1.931   0.979 -1.2459 -2.4868  1.0367
  339TMC3    C1 5081   4.203   1.939   0.992  0.5287 -0.2126  0.1537
  339TMC3    C2 5082   4.088   1.877   1.040 -0.5734 -0.5445 -0.7413
  339TMC3    C3 5083   4.008   1.810   0.954 -0.1647 -0.3211  0.7022
  339TMC3    C4 5084   4.227   1.947   0.858  0.1599 -0.3088 -1.0551
  339TMC3    C5 5085   4.139   1.882   0.773  0.3954  0.2978  0.2430
  339TMC3    C6 5086   4.033   1.807   0.817 -0.5486  0.0434  0.3299
  339TMC3     C 5087   4.299   1.996   1.083  0.4542  0.1319 -0.3975
  339TMC3     O 5088   4.260   2.040   1.189 -0.1014  0.2081  0.5130
  339TMC3     H 5089   4.064   1.900   1.143  2.1172 -0.6243 -0.1092
  339TMC3    H1 5090   4.309   2.009   0.827  0.9119 -0.8965 -0.2443
  339TMC3    H2 5091   3.974   1.743   0.753 -0.5689  2.0916 -1.6999
  339TMC3    C7 5092   4.191   1.878   0.641 -0.1147  0.0863  0.1430
  339TMC3    C8 5093   3.910   1.719   1.007  0.0867  0.4352  0.2905
  339TMC3    O1 5094   4.289   1.951   0.618 -0.0780 -0.7626 -0.0208
  339TMC3    O2 5095   3.816   1.699   0.934 -0.3149  0.1421  0.0780
  340MPD2     C 5096   0.927   3.733   9.549 -0.0968 -0.0205  0.4611
  340MPD2    C1 5097   0.882   3.642   9.636  1.0676  0.6937 -0.1155
  340MPD2    C2 5098   0.843   3.678   9.761 -0.2983 -0.1116 -0.1530
  340MPD2    C3 5099   0.833   3.817   9.795 -0.3668  0.4448 -0.1925
  340MPD2    C4 5100   0.871   3.911   9.705 -0.7619 -0.1853  0.1639
  340MPD2    C5 5101   0.911   3.867   9.582 -0.7424 -0.0883  0.7164
  340MPD2     H 5102   0.803   3.604   9.829 -0.9208 -0.6628 -1.1178
  340MPD2    H1 5103   0.851   4.018   9.714 -0.6422 -0.3979  2.8848
  340MPD2    H2 5104   0.958   3.699   9.451  0.7626  2.3499 -0.1019
  340MPD2    H3 5105   0.910   3.942   9.505  1.8186 -1.2122 -0.4012
  340MPD2     N 5106   0.802   3.860   9.923 -0.4546  0.1405  0.4845
  340MPD2    H5 5107   0.823   3.957   9.944 -1.6811  0.1353  1.7019
  340MPD2    N1 5108   0.873   3.510   9.591  0.3315 -0.0236  0.0227
  340MPD2    H7 5109   0.919   3.497   9.501  0.9209  1.3782  0.1360
  341TMC3    C1 5110   0.827   3.273   9.600 -0.1980  0.0184 -0.2605
  341TMC3    C2 5111   0.737   3.169   9.626 -0.5153 -0.4908 -0.2042
  341TMC3    C3 5112   0.767   3.039   9.587  0.2930  0.2765  0.3415
  341TMC3    C4 5113   0.939   3.246   9.522  0.3431 -0.5702  0.2115
  341TMC3    C5 5114   0.961   3.121   9.468 -0.3573  0.0640  0.0989
  341TMC3    C6 5115   0.875   3.014   9.500  0.1279  0.7393 -0.0559
  341TMC3     C 5116   0.809   3.407   9.657  1.2638 -0.0692  0.3485
  341TMC3     O 5117   0.717   3.420   9.735  0.0457 -0.0825  0.2582
  341TMC3     H 5118   0.658   3.195   9.695  0.1230 -0.5120  0.5316
  341TMC3    H1 5119   1.017   3.320   9.510 -1.9145  2.0657  1.6881
  341TMC3    H2 5120   0.894   2.917   9.454  0.4007  0.9424 -0.3741
  341TMC3    C7 5121   1.090   3.079   9.414 -0.2136  0.4146 -0.1703
  341TMC3    C8 5122   0.670   2.944   9.606 -0.6133  0.6481  0.1331
  341TMC3    O1 5123   1.095   2.971   9.356 -0.3720  0.0553  0.1884
  341TMC3    O2 5124   0.566   2.992   9.644 -0.1689 -0.0250  0.0750
  342MPD2     C 5125   2.846   2.344  17.585 -0.6955 -0.4517 -0.3355
  342MPD2    C1 5126   2.980   2.359  17.586 -0.0151  0.7989  0.4938
  342MPD2    C2 5127   3.044   2.484  17.579  0.3857 -0.0697  0.0419
  342MPD2    C3 5128   2.965   2.595  17.582 -0.5649  0.4048  0.7272
  342MPD2    C4 5129   2.824   2.582  17.588 -0.1588  0.1913  0.6041
  342MPD2    C5 5130   2.764   2.454  17.593  0.0417  0.9160  0.2167
  342MPD2     H 5131   3.151   2.500  17.569  0.1755  0.4334 -1.4824
  342MPD2    H1 5132   2.770   2.675  17.577 -2.5400 -1.4164 -1.3325
  342MPD2    H2 5133   2.796   2.248  17.581 -1.6498  0.0335 -0.2022
  342MPD2    H3 5134   2.656   2.446  17.593  0.1176 -0.1573  0.8105
  342MPD2     N 5135   3.013   2.730  17.570 -0.3163 -0.0988  0.5386
  342MPD2    H5 5136   2.946   2.805  17.552  0.9903  0.2592 -2.8429
  342MPD2    N1 5137   3.062   2.246  17.593 -0.4560  0.4818 -0.7445
  342MPD2    H7 5138   3.157   2.255  17.560  0.7374  0.2331  2.5925
  343TMC3    C1 5139   3.089   2.011  17.572  0.8796 -0.1080 -0.2505
  343TMC3    C2 5140   3.151   2.026  17.452  0.2491 -0.2332  0.3841
  343TMC3    C3 5141   3.174   1.913  17.381 -0.5031  0.7066  0.2667
  343TMC3    C4 5142   3.055   1.886  17.621 -0.6276  0.3269 -0.0221
  343TMC3    C5 5143   3.097   1.770  17.556 -0.0883  0.7282  0.0455
  343TMC3    C6 5144   3.147   1.789  17.431  0.3996 -0.0269  0.2364
  343TMC3     C 5145   3.022   2.122  17.638  0.2584  0.4051  0.4065
  343TMC3     O 5146   2.927   2.092   0.021 -0.2936  0.0791 -0.4306
  343TMC3     H 5147   3.169   2.119  17.400  0.2504  0.2185  1.1843
  343TMC3    H1 5148   3.004   1.881   0.036  1.7408 -1.6820  1.1115
  343TMC3    H2 5149   3.172   1.696  17.380 -0.5101  0.4496 -1.0721
  343TMC3    C7 5150   3.037   1.640  17.590  0.2797  0.6221 -0.2091
  343TMC3    C8 5151   3.242   1.931  17.262 -0.2986  0.5822  0.0172
  343TMC3    O1 5152   3.077   1.548  17.517 -0.0450 -0.0014 -0.4636
  343TMC3    O2 5153   3.229   2.032  17.193 -0.3393 -0.3183  0.1310
  344MPD2     C 5154   4.679   1.989  10.404  0.5584 -0.7438 -0.0471
  344MPD2    C1 5155   4.567   1.946  10.329 -0.1500  0.8685 -0.0147
  344MPD2    C2 5156   4.542   2.016  10.211 -0.4419  0.7346  0.3003
  344MPD2    C3 5157   4.633   2.107  10.163 -0.1395  0.0441  0.1751
  344MPD2    C4 5158   0.020   2.143  10.242  0.0168  0.5788 -0.8900
  344MPD2    C5 5159   0.037   2.087  10.365 -0.6107 -0.3856 -0.9151
  344MPD2     H 5160   4.451   2.002  10.153 -0.8913 -2.1145  1.6685
  344MPD2    H1 5161   0.090   2.212  10.196 -1.3712  2.3499 -0.3233
  344MPD2    H2 5162   4.713   1.946  10.498 -0.3087 -0.4976  0.3724
  344MPD2    H3 5163   0.123   2.127  10.417  0.3551 -2.2649 -1.0960
  344MPD2     N 5164   4.624   2.181  10.044 -0.4222 -0.1792  0.3434
  344MPD2    H5 5165   4.708   2.235  10.027  0.0497 -0.7368  0.9259
  344MPD2    N1 5166   4.481   1.839  10.375 -0.4187 -0.4000 -0.6114
  344MPD2    H7 5167   4.407   1.806  10.314  0.4806 -0.2377 -1.7741
  345TMC3    C1 5168   4.568   2.245   9.834  0.4197  0.3829 -0.3623
  345TMC3    C2 5169   4.703   2.266   9.808 -0.6903  0.2100 -0.3871
  345TMC3    C3 5170   0.016   2.325   9.693 -0.4403 -0.1533  0.7049
  345TMC3    C4 5171   4.466   2.290   9.750 -0.0769  0.6877  0.4262
  345TMC3    C5 5172   4.499   2.365   9.640  0.1305  0.2780  0.1749
  345TMC3    C6 5173   4.633   2.372   9.607  0.5571  0.9089 -1.2099
  345TMC3     C 5174   4.530   2.179   9.953 -0.6153 -0.5537  0.4666
  345TMC3     O 5175   4.411   2.147   9.959 -0.4852 -0.1977  0.5269
  345TMC3     H 5176   0.066   2.226   9.866 -2.2259  0.7911  2.1897
  345TMC3    H1 5177   4.361   2.269   9.768 -0.0277  0.2684  0.2090
  345TMC3    H2 5178   4.663   2.447   9.535  0.3134  1.3117 -0.8957
  345TMC3    C7 5179   4.436   2.496   9.647 -0.4472 -0.6618 -0.3633
  345TMC3    C8 5180   0.101   2.442   9.709 -0.5633  0.2941 -0.1005
  345TMC3    O1 5181   4.506   2.584   9.698  0.2801  0.5971 -0.1514
  345TMC3    O2 5182   0.043   2.554   9.695 -0.2113 -0.3774 -0.8743
  346MPD2     C 5183   4.348   3.662  13.505  0.0050 -0.7052 -0.2553
  346MPD2    C1 5184   4.474   3.647  13.556  0.0523 -0.9645  0.2489
  346MPD2    C2 5185   4.501   3.709  13.679  0.1320  0.3198 -1.4653
  346MPD2    C3 5186   4.408   3.770  13.755 -0.3353  0.3955  0.2925
  346MPD2    C4 5187   4.279   3.767  13.708  0.1883  0.3285  0.1008
  346MPD2    C5 5188   4.246   3.714  13.583 -0.3583  0.2266  0.2156
  346MPD2     H 5189   4.603   3.697  13.714 -0.9467 -0.7859  1.2248
  346MPD2    H1 5190   4.198   3.803  13.770  0.2976  0.5342  0.1244
  346MPD2    H2 5191   4.340   3.616  13.408  0.7710  1.0643 -1.1494
  346MPD2    H3 5192   4.145   3.698  13.547  0.6339  1.4629 -3.0732
  346MPD2     N 5193   4.450   3.828  13.875 -0.3766 -0.1307 -0.5251
  346MPD2    H5 5194   4.551   3.829  13.882 -0.2729 -0.2832 -2.0685
  346MPD2    N1 5195   4.579   3.602  13.479 -0.0630  0.1555 -0.4707
  346MPD2    H7 5196   4.670   3.609  13.522 -0.9765  0.3912  1.4201
  347TMC3    C1 5197   4.466   3.949  14.072 -0.7058  0.2652  0.2293
  347TMC3    C2 5198   4.581   3.875  14.094 -0.2678  0.6133  0.1411
  347TMC3    C3 5199   4.639   3.883  14.218  0.6641  0.7766 -0.1097
  347TMC3    C4 5200   4.411   4.012  14.176  0.4774  0.7328  0.2403
  347TMC3    C5 5201   4.464   4.002  14.304 -0.5173 -0.2353  0.5307
  347TMC3    C6 5202   4.585   3.945  14.322 -0.5303  1.0639 -0.0823
  347TMC3     C 5203   4.378   3.903  13.968 -0.0168 -0.2389 -0.3799
  347TMC3     O 5204   4.257   3.924  13.981 -0.4245 -0.3649  0.4902
  347TMC3     H 5205   4.645   3.828  14.020  0.4288 -0.5762  1.5150
  347TMC3    H1 5206   4.320   4.071  14.163  0.3470  0.5435  0.2926
  347TMC3    H2 5207   4.628   3.928  14.420 -0.4248  0.4269 -0.2351
  347TMC3    C7 5208   4.398   4.062  14.416 -0.2438  0.9683  0.3333
  347TMC3    C8 5209   0.052   3.825  14.220  0.3809 -0.2362  0.0934
  347TMC3    O1 5210   4.280   4.075  14.415 -0.0342 -0.2234  0.5179
  347TMC3    O2 5211   0.074   3.721  14.157  0.0352  0.5109 -0.4746
  348MPD2     C 5212   3.021   2.776  11.935  0.2477  0.6386 -0.6853
  348MPD2    C1 5213   3.093   2.878  11.987  0.3126 -0.3724  0.0143
  348MPD2    C2 5214   3.071   3.011  11.953 -0.6344 -0.0132 -0.0198
  348MPD2    C3 5215   2.981   3.035  11.847 -0.5828  0.0010 -0.1948
  348MPD2    C4 5216   2.932   2.926  11.780 -0.3536 -0.0181 -1.0927
  348MPD2    C5 5217   2.935   2.806  11.837  0.1915  0.2387  0.3769
  348MPD2     H 5218   3.124   3.093  12.001  1.5287  0.4685 -3.2259
  348MPD2    H1 5219   2.862   2.944  11.699 -1.8989 -0.8084  0.0642
  348MPD2    H2 5220   3.021   2.671  11.962  0.1060  1.4121  2.2943
  348MPD2    H3 5221   2.874   2.731  11.788  0.7633  0.3966 -0.5587
  348MPD2     N 5222   2.950   3.167  11.804  0.1748  0.8553  1.0565
  348MPD2    H5 5223   3.011   3.239  11.843  0.7737 -0.1252  1.9331
  348MPD2    N1 5224   3.198   2.854  12.083 -0.2886  0.1519  0.0382
  348MPD2    H7 5225   3.253   2.930  12.123  2.4083 -1.8466  0.1672
  349TMC3    C1 5226   3.376   2.724  12.191 -0.1197  0.1620  0.1028
  349TMC3    C2 5227   3.401   2.604  12.247  0.1671  0.1326  0.0199
  349TMC3    C3 5228   3.536   2.565  12.258 -0.5441  0.5623 -0.0845
  349TMC3    C4 5229   3.472   2.809  12.153 -0.2124  0.6305  0.3264
  349TMC3    C5 5230   3.602   2.763  12.155  0.0100  0.3728  0.4694
  349TMC3    C6 5231   3.638   2.644  12.211  0.1351 -0.0778 -0.1683
  349TMC3     C 5232   3.247   2.731  12.125  1.1731 -0.1258  0.8479
  349TMC3     O 5233   3.200   2.619  12.108  0.0343  0.1298 -0.2355
  349TMC3     H 5234   3.322   2.545  12.291  0.9942 -2.1950 -1.6718
  349TMC3    H1 5235   3.444   2.904  12.109 -0.2588 -0.2940 -1.6471
  349TMC3    H2 5236   3.735   2.596  12.204  0.2694 -0.2113  2.7239
  349TMC3    C7 5237   3.686   2.833  12.064 -0.7966  0.4499  1.5040
  349TMC3    C8 5238   3.553   2.460  12.354 -0.5038 -0.1833 -0.2934
  349TMC3    O1 5239   3.799   2.861  12.091  0.1829 -0.0576 -0.2928
  349TMC3    O2 5240   3.477   2.463  12.449 -0.0997  0.0556  0.3640
  350MPD2     C 5241   1.989   0.761   9.266  0.3229 -0.0657  0.4055
  350MPD2    C1 5242   1.942   0.704   9.384 -0.1575  0.0337  0.2652
  350MPD2    C2 5243   1.993   0.735   9.508 -0.0525  0.0639 -0.8071
  350MPD2    C3 5244   2.097   0.828   9.516 -0.4652  0.3693 -0.5269
  350MPD2    C4 5245   2.142   0.894   9.401  0.6578 -0.3723 -0.8044
  350MPD2    C5 5246   2.089   0.858   9.281  0.6590 -0.3753  0.4237
  350MPD2     H 5247   1.963   0.672   9.591 -0.2300 -0.5417 -1.3280
  350MPD2    H1 5248   2.225   0.963   9.394 -0.6622  1.3054 -0.0075
  350MPD2    H2 5249   1.952   0.737   9.167  1.5032 -2.6894  0.6202
  350MPD2    H3 5250   2.127   0.910   9.194 -0.1336 -1.4667 -0.5768
  350MPD2     N 5251   2.154   0.853   9.641 -0.3007 -0.4000 -0.1547
  350MPD2    H5 5252   2.109   0.812   9.723  0.9309 -2.3739 -0.4820
  350MPD2    N1 5253   1.853   0.598   9.379 -0.3638 -0.2721 -0.6983
  350MPD2    H7 5254   1.834   0.566   9.474  1.2236 -0.6722 -0.5083
  351TMC3    C1 5255   1.719   0.430   9.305  0.3531 -0.4622 -0.5222
  351TMC3    C2 5256   1.764   0.361   9.411 -0.2760  0.5431 -0.3785
  351TMC3    C3 5257   1.698   0.250   9.453 -0.3239 -0.1216 -0.3821
  351TMC3    C4 5258   1.605   0.399   9.241  0.4204 -0.4615  0.4619
  351TMC3    C5 5259   1.532   0.299   9.289  0.6049  0.4086 -0.7014
  351TMC3    C6 5260   1.582   0.215   9.393 -0.3587 -0.4765 -0.1062
  351TMC3     C 5261   1.779   0.552   9.271 -0.7770  0.6663 -0.4925
  351TMC3     O 5262   1.773   0.586   9.153 -0.5847 -0.6568 -0.6630
  351TMC3     H 5263   1.854   0.383   9.466  0.1632 -0.7586 -0.5782
  351TMC3    H1 5264   1.570   0.468   9.165 -0.8254 -0.9930  0.5628
  351TMC3    H2 5265   1.520   0.130   9.420 -1.6291  1.4022  2.8898
  351TMC3    C7 5266   1.393   0.297   9.254  0.7728 -0.1207 -0.3243
  351TMC3    C8 5267   1.781   0.146   9.516  0.4671 -0.3029 -0.5235
  351TMC3    O1 5268   1.358   0.366   9.156  0.3830  0.1707 -0.1003
  351TMC3    O2 5269   1.901   0.173   9.529 -0.1599  0.4759  0.3477
  352MPD2     C 5270   1.481   4.071  17.679 -0.3765 -0.1085 -0.4300
  352MPD2    C1 5271   1.361   4.086   0.070  0.1279 -0.2523 -0.2557
  352MPD2    C2 5272   1.362   4.038   0.199 -0.0521 -0.1428  0.1498
  352MPD2    C3 5273   1.467   3.959   0.242  0.2321 -0.2326 -0.1004
  352MPD2    C4 5274   1.590   3.951   0.175  0.4172  0.5416  0.0312
  352MPD2    C5 5275   1.595   4.018   0.055 -0.0059 -0.8448 -0.3217
  352MPD2     H 5276   1.271   4.052   0.257  0.7782  2.5162  0.8339
  352MPD2    H1 5277   1.680   3.901   0.209 -0.7527 -0.6528  1.3411
  352MPD2    H2 5278   1.488   4.111  17.578  0.6873  0.9693  0.0841
  352MPD2    H3 5279   1.688   4.037   0.002  0.2775 -1.3497  0.0014
  352MPD2     N 5280   1.464   3.880   0.357  0.7827  0.0362 -0.2644
  352MPD2    H5 5281   1.537   3.810   0.361 -0.8637 -1.7794 -2.3301
  352MPD2    N1 5282   1.256   4.159   0.016  0.2424 -0.3013  0.0897
  352MPD2    H7 5283   1.263   4.176  17.597 -0.0656  1.3337  0.3452
  353TMC3    C1 5284   1.404   3.788   0.561  0.6182 -0.2386 -0.0511
  353TMC3    C2 5285   1.537   3.766   0.589 -0.3367 -0.0812 -0.2007
  353TMC3    C3 5286   1.563   3.690   0.695 -0.7564 -0.7135  0.0523
  353TMC3    C4 5287   1.302   3.735   0.633 -0.7378  0.0897  0.6442
  353TMC3    C5 5288   1.335   3.674   0.750  0.4320 -0.2588 -0.2567
  353TMC3    C6 5289   1.461   3.636   0.771 -0.0806  0.2020  0.1786
  353TMC3     C 5290   1.369   3.885   0.462  0.1511  0.6928  0.2125
  353TMC3     O 5291   1.265   3.947   0.481 -0.3785 -0.3489 -0.2291
  353TMC3     H 5292   1.624   3.815   0.547 -1.4444  2.0472  0.0344
  353TMC3    H1 5293   1.200   3.751   0.601 -0.6686 -0.5003  0.1413
  353TMC3    H2 5294   1.481   3.569   0.854  0.0844 -0.6447 -0.5463
  353TMC3    C7 5295   1.228   3.600   0.828 -0.3982  0.4792 -0.8592
  353TMC3    C8 5296   1.702   3.665   0.732 -0.2376 -1.0004 -0.4506
  353TMC3    O1 5297   1.251   3.499   0.888 -0.1781  0.3568  0.1720
  353TMC3    O2 5298   1.776   3.762   0.725 -0.2156  0.4726  0.0375
  354TMC3    C1 5299   2.248   4.430  13.485 -0.0058 -0.1410 -0.0104
  354TMC3    C2 5300   2.191   4.555  13.492 -0.1225 -0.1693 -0.2242
  354TMC3    C3 5301   2.123   4.602  13.375 -0.2925 -0.1514  0.4155
  354TMC3    C4 5302   2.220   4.346  13.376  0.1206 -0.4637  0.1085
  354TMC3    C5 5303   2.161   4.395  13.267 -0.1276 -0.0517  0.5248
  354TMC3    C6 5304   2.117   4.527  13.261  0.4188 -0.9216 -0.2813
  354TMC3     C 5305   2.260   4.356  13.615 -0.3411  0.0131 -0.5705
  354TMC3     O 5306   2.221   4.243  13.619 -0.3504 -0.7164  0.3129
  354TMC3     H 5307   2.192   4.620  13.578  1.6763 -0.5533  0.0565
  354TMC3    H1 5308   2.269   4.251  13.364 -2.9413 -2.0146 -0.1497
  354TMC3    H2 5309   2.071   4.563  13.170 -0.9191 -1.0445  0.3442
  354TMC3    C7 5310   2.154   4.312  13.146 -0.5737 -0.8042 -0.3201
  354TMC3    C8 5311   2.125   0.021  13.343 -0.0907  0.5514  0.7910
  354TMC3    O1 5312   2.130   4.190  13.164 -0.1914 -0.6072 -0.2760
  354TMC3    O2 5313   2.034   0.054  13.273  0.2373  0.6015  0.0718
  355MPD2     C 5314   2.257   0.567  11.477  0.0901  0.2344  0.1596
  355MPD2    C1 5315   2.356   0.575  11.381 -0.0707 -0.5672  0.0664
  355MPD2    C2 5316   2.467   0.491  11.397 -0.1013  0.0444  0.0141
  355MPD2    C3 5317   2.478   0.395  11.493  0.2810 -0.5596 -0.0734
  355MPD2    C4 5318   2.373   0.381  11.579 -0.1825 -0.2257  0.7372
  355MPD2    C5 5319   2.260   0.462  11.567  0.1244  1.2215  0.7857
  355MPD2     H 5320   2.542   0.507  11.320  0.4009 -1.0283  0.2698
  355MPD2    H1 5321   2.367   0.301  11.651 -0.3806  0.6628  1.7111
  355MPD2    H2 5322   2.173   0.635  11.461 -1.5237 -1.6359  0.6426
  355MPD2    H3 5323   2.172   0.462  11.630 -0.4197  0.1862  0.0189
  355MPD2     N 5324   2.601   0.321  11.505  0.7440 -0.1432 -0.2089
  355MPD2    H5 5325   2.676   0.349  11.442  0.0896  0.4325 -0.7408
  355MPD2    N1 5326   2.347   0.678  11.287  0.0082  0.2034 -0.4092
  355MPD2    H7 5327   2.277   0.750  11.299 -1.3899 -1.1985 -0.0621
  356TMC3    C1 5328   2.765   0.184  11.624 -0.4151 -0.2338  0.1615
  356TMC3    C2 5329   2.848   0.203  11.511  0.2070 -0.2417  1.7250
  356TMC3    C3 5330   2.981   0.234  11.530  1.1165 -0.9310  0.1435
  356TMC3    C4 5331   2.820   0.174  11.749 -0.1197 -0.5386 -0.0061
  356TMC3    C5 5332   2.955   0.201  11.761  0.3132  0.7926 -0.0062
  356TMC3    C6 5333   3.042   0.229  11.653 -0.5155  0.0433 -0.0550
  356TMC3     C 5334   2.632   0.233  11.613  0.1137 -0.0888  0.6140
  356TMC3     O 5335   2.554   0.197  11.703 -0.2525  0.1909  0.1429
  356TMC3     H 5336   2.808   0.204  11.410 -1.4067 -2.9189  2.3370
  356TMC3    H1 5337   2.757   0.175  11.837  0.8356  2.3015  0.6488
  356TMC3    H2 5338   3.147   0.246  11.674 -0.6408 -1.0894  1.4842
  356TMC3    C7 5339   3.009   0.216  11.896 -0.2336  0.0659  0.8616
  356TMC3    C8 5340   3.044   0.292  11.413  0.6171 -0.3171 -0.4444
  356TMC3    O1 5341   2.953   0.154  11.986  0.2954  0.2743  0.2101
  356TMC3    O2 5342   2.990   0.280  11.304  0.1258  0.2683 -0.3595
  357MPD2     C 5343   1.096   4.497   1.777 -0.2368 -0.0591 -0.1728
  357MPD2    C1 5344   1.131   4.507   1.647 -0.2066  0.3772 -0.2648
  357MPD2    C2 5345   1.036   4.561   1.559  0.3138  0.4097  0.9228
  357MPD2    C3 5346   0.922   4.622   1.596 -0.1806 -0.3060  0.3346
  357MPD2    C4 5347   0.883   4.603   1.727  0.2656  0.0557 -0.7557
  357MPD2    C5 5348   0.971   4.545   1.813  0.0567 -0.1192  0.1830
  357MPD2     H 5349   1.062   4.575   1.455 -0.3647  1.5905  0.9125
  357MPD2    H1 5350   0.787   4.641   1.758  0.0023  1.0286 -2.7618
  357MPD2    H2 5351   1.152   4.437   1.849 -1.4910  0.2991  1.1051
  357MPD2    H3 5352   0.933   4.540   1.915  0.7184  2.2610  0.5492
  357MPD2     N 5353   0.842   4.699   1.504 -0.1816  0.0534 -0.0872
  357MPD2    H5 5354   0.752   0.010   1.539 -1.5235 -0.6240 -2.8948
  357MPD2    N1 5355   1.262   4.469   1.612  0.0296 -0.0421  0.2612
  357MPD2    H7 5356   1.316   4.424   1.685 -2.0566 -1.6656  0.7916
  358TMC3    C1 5357   1.454   4.456   1.468 -0.6043  0.5135  0.3594
  358TMC3    C2 5358   1.520   4.493   1.352 -0.4396  0.0432  0.3467
  358TMC3    C3 5359   1.634   4.430   1.320 -0.4722 -1.1426  0.3890
  358TMC3    C4 5360   1.495   4.349   1.542 -0.3575 -0.8223 -0.7319
  358TMC3    C5 5361   1.613   4.290   1.511 -0.1527  0.0828 -0.5835
  358TMC3    C6 5362   1.688   4.334   1.401  0.6807 -0.3338  0.2386
  358TMC3     C 5363   1.321   4.512   1.498  1.0006  0.3362  0.3017
  358TMC3     O 5364   1.289   4.599   1.421  0.2133  0.4025  0.1996
  358TMC3     H 5365   1.474   4.571   1.292 -0.4965  0.2050  0.5995
  358TMC3    H1 5366   1.437   4.318   1.628 -0.8275  2.0861  0.0036
  358TMC3    H2 5367   1.772   4.272   1.372  0.4798 -0.9104  0.8704
  358TMC3    C7 5368   1.643   4.164   1.585  0.5558  0.2944  0.5018
  358TMC3    C8 5369   1.730   4.469   1.221  0.4879 -0.3282 -0.0068
  358TMC3    O1 5370   1.543   4.120   1.643  0.7377  0.3992 -0.4685
  358TMC3    O2 5371   1.841   4.417   1.226 -0.6875 -0.4010  0.6350
  359MPD2     C 5372   3.461   4.043  12.292  0.2484 -0.2903  0.5115
  359MPD2    C1 5373   3.374   3.956  12.234  0.3042 -0.5581  0.5656
  359MPD2    C2 5374   3.333   3.833  12.300  0.7466  0.0947  0.1478
  359MPD2    C3 5375   3.388   3.808  12.427 -0.6861 -0.2616 -0.2601
  359MPD2    C4 5376   3.472   3.899  12.478 -0.6238 -0.7152 -0.2913
  359MPD2    C5 5377   3.512   4.013  12.416  0.0983 -0.3722  0.3516
  359MPD2     H 5378   3.282   3.755  12.245 -1.6262  1.0269  1.0697
  359MPD2    H1 5379   3.514   3.879  12.576 -0.9174  1.6313  0.3244
  359MPD2    H2 5380   3.491   4.139  12.252 -1.5820  0.1793  0.2822
  359MPD2    H3 5381   3.592   4.074  12.456  0.4363 -0.6467  0.0931
  359MPD2     N 5382   3.372   3.700  12.504  0.4857 -0.6067  0.5373
  359MPD2    H5 5383   3.422   3.702  12.592 -0.1778  0.3800  0.9009
  359MPD2    N1 5384   3.311   3.990  12.117  0.0530 -0.6394  0.2023
  359MPD2    H7 5385   3.249   3.922  12.074 -0.0344  0.1028 -0.8529
  360TMC3    C1 5386   3.259   4.106  11.916 -0.4709  0.7349 -0.8578
  360TMC3    C2 5387   3.312   4.172  11.811 -0.1319 -0.1473  0.2199
  360TMC3    C3 5388   3.236   4.188  11.697  0.1082 -0.5329  0.8192
  360TMC3    C4 5389   3.146   4.033  11.904 -1.0502 -0.7968  0.0624
  360TMC3    C5 5390   3.067   4.060  11.796 -0.6074 -0.4669 -1.3803
  360TMC3    C6 5391   3.107   4.141  11.692  0.1988 -0.2027 -0.3201
  360TMC3     C 5392   3.334   4.104  12.040  0.6051 -0.4098 -0.2565
  360TMC3     O 5393   3.411   4.199  12.055 -0.1762 -0.2586  0.1075
  360TMC3     H 5394   3.403   4.229  11.820 -0.2460 -0.0560  0.7768
  360TMC3    H1 5395   3.097   4.002  11.995 -2.6145  0.4537 -0.3469
  360TMC3    H2 5396   3.049   4.153  11.601 -2.2077  0.7411  1.3441
  360TMC3    C7 5397   2.957   3.972  11.757 -0.0533 -1.6768  0.4233
  360TMC3    C8 5398   3.295   4.243  11.573 -0.1502  0.3828 -0.2265
  360TMC3    O1 5399   2.866   4.023  11.693 -0.1429 -0.1992  0.1754
  360TMC3    O2 5400   3.212   4.279  11.490 -0.1196  0.2081  0.5929
  361MPD2     C 5401   3.814   2.746  17.147 -0.2858  0.4960  0.0301
  361MPD2    C1 5402   3.906   2.828  17.223  0.3648  0.2064 -0.1881
  361MPD2    C2 5403   4.040   2.807  17.209  0.4691 -0.7795  0.2872
  361MPD2    C3 5404   4.088   2.698  17.134 -0.1630  0.2510 -0.2781
  361MPD2    C4 5405   3.994   2.623  17.072  0.1782 -0.1522 -0.3928
  361MPD2    C5 5406   3.862   2.648  17.072 -0.2981 -0.7174 -0.1729
  361MPD2     H 5407   4.108   2.877  17.256 -1.2201  2.0828 -1.5108
  361MPD2    H1 5408   4.029   2.540  17.012 -1.3769 -0.5410 -0.7544
  361MPD2    H2 5409   3.707   2.755  17.154 -0.4080  0.3660 -1.6772
  361MPD2    H3 5410   3.788   2.595  17.014 -1.5842 -1.1143  1.8305
  361MPD2     N 5411   4.221   2.658  17.127  0.2257  0.4590 -0.1040
  361MPD2    H5 5412   4.240   2.580  17.066 -2.3702 -0.8219  0.7338
  361MPD2    N1 5413   3.861   2.943  17.288 -0.3089 -0.0797 -0.4706
  361MPD2    H7 5414   3.929   3.013  17.317 -0.1496 -1.0644  1.5793
  362TMC3    C1 5415   3.690   3.106  17.335 -0.5289 -0.2219 -0.1986
  362TMC3    C2 5416   3.560   3.127  17.365 -0.2600 -0.3915 -0.1534
  362TMC3    C3 5417   3.497   3.239  17.335 -0.2911 -0.7108  0.3367
  362TMC3    C4 5418   3.759   3.204  17.260 -0.0709 -0.7690 -0.1147
  362TMC3    C5 5419   3.694   3.326  17.235  0.8763 -0.0372  0.1250
  362TMC3    C6 5420   3.561   3.345  17.276 -0.0030 -0.3648 -0.2162
  362TMC3     C 5421   3.729   2.966  17.316 -0.2153 -0.1519 -0.7494
  362TMC3     O 5422   3.646   2.882  17.342  0.3028  0.4750  0.1296
  362TMC3     H 5423   3.509   3.046  17.417 -0.6730 -0.8625 -1.2947
  362TMC3    H1 5424   3.866   3.202  17.249 -0.1688 -2.7010 -0.7113
  362TMC3    H2 5425   3.502   3.430  17.242  0.7625 -0.7666 -2.5993
  362TMC3    C7 5426   3.715   3.375  17.098  0.1421 -0.7491 -0.4069
  362TMC3    C8 5427   3.359   3.219  17.342  0.6985  0.6292  0.2374
  362TMC3    O1 5428   3.624   3.434  17.038 -0.0312 -0.3630  0.2883
  362TMC3    O2 5429   3.315   3.105  17.326 -0.0860  0.2125 -0.0510
  363TMC3    C1 5430   2.941   0.453   9.777  0.6810 -0.0763 -0.1516
  363TMC3    C2 5431   2.963   0.391   9.893 -0.1968 -0.2819 -0.3516
  363TMC3    C3 5432   2.876   0.295   9.931  0.5164 -0.0700  0.0308
  363TMC3    C4 5433   2.818   0.433   9.717  1.0516 -0.5964  0.2677
  363TMC3    C5 5434   2.722   0.346   9.768 -0.0549 -0.5942 -0.0446
  363TMC3    C6 5435   2.761   0.261   9.865 -0.4145  0.3544 -0.2417
  363TMC3     C 5436   3.033   0.528   9.705  0.0877 -1.1267  0.1782
  363TMC3     O 5437   3.006   0.587   9.603  0.5613 -0.3110 -0.1367
  363TMC3     H 5438   3.049   0.425   9.951 -0.1019  1.7906 -1.7025
  363TMC3    H1 5439   2.794   0.485   9.625  0.1174  0.6142  1.1997
  363TMC3    H2 5440   2.692   0.181   9.887  1.0393 -1.0762 -0.8847
  363TMC3    C7 5441   2.602   0.318   9.696 -0.4860  0.6490 -0.1319
  363TMC3    C8 5442   2.924   0.209  10.037  0.0723 -0.2551 -0.0200
  363TMC3    O1 5443   2.540   0.216   9.724  0.0647  0.0470  0.1688
  363TMC3    O2 5444   3.016   0.239  10.111  0.1604  0.7237 -0.1666
  364MPD2     C 5445   1.277   0.132  10.536  0.4342  0.0137 -0.5106
  364MPD2    C1 5446   1.397   0.072  10.500 -0.4615 -0.5191  0.0907
  364MPD2    C2 5447   1.438   4.677  10.563 -0.1545 -0.3836  0.9094
  364MPD2    C3 5448   1.364   4.619  10.663 -0.7946  0.3552  0.0114
  364MPD2    C4 5449   1.250   4.680  10.701 -0.5462 -0.2384  0.4572
  364MPD2    C5 5450   1.201   0.075  10.638 -0.5832  0.0995  0.4844
  364MPD2     H 5451   1.536   4.635  10.538  1.1089  2.3346  1.3203
  364MPD2    H1 5452   1.198   4.648  10.791  3.1715 -0.5108  2.5185
  364MPD2    H2 5453   1.244   0.222  10.484 -0.6026  0.7596  1.4209
  364MPD2    H3 5454   1.103   0.115  10.664 -0.4769 -1.0431  2.6700
  364MPD2     N 5455   1.413   4.522  10.749 -0.9973  0.1771 -0.7365
  364MPD2    H5 5456   1.379   4.525  10.844  0.1453  0.6951 -0.3441
  364MPD2    N1 5457   1.461   0.123  10.383  0.3216  0.2499  0.3401
  364MPD2    H7 5458   1.424   0.210  10.347 -2.9552 -1.0827  0.5101
  365TMC3    C1 5459   1.660   0.163  10.252  0.1384 -0.2615 -0.1453
  365TMC3    C2 5460   1.752   0.100  10.175 -0.1759 -0.0011 -0.2853
  365TMC3    C3 5461   1.874   0.159  10.154 -0.8420  0.0732 -0.5482
  365TMC3    C4 5462   1.688   0.283  10.316  0.0466 -0.3427  0.0571
  365TMC3    C5 5463   1.817   0.332  10.304  0.0980 -0.2794  0.3940
  365TMC3    C6 5464   1.913   0.273  10.228 -0.2533 -0.0050  0.0921
  365TMC3     C 5465   1.570   0.070  10.322 -1.0121  0.0580 -0.5846
  365TMC3     O 5466   1.620   4.676  10.332 -0.0161 -0.0301  0.3047
  365TMC3     H 5467   1.726   0.011  10.118 -0.8374 -0.1896  0.3135
  365TMC3    H1 5468   1.614   0.337  10.374  1.4221  0.3082  1.1937
  365TMC3    H2 5469   2.016   0.309  10.225  0.2922 -1.7201 -1.2581
  365TMC3    C7 5470   1.848   0.455  10.374 -0.1303 -0.9740 -0.3624
  365TMC3    C8 5471   1.980   0.087  10.076 -0.2758 -0.3357 -0.0192
  365TMC3    O1 5472   1.938   0.522  10.323  0.1808  0.4875  0.5193
  365TMC3    O2 5473   2.080   0.156  10.049  1.1519  0.8490  0.8724
  366MPD2     C 5474   0.149   1.337  14.990  0.2605 -1.5444 -0.9306
  366MPD2    C1 5475   0.185   1.376  15.115  0.5546 -0.1602  0.2397
  366MPD2    C2 5476   0.316   1.358  15.150 -0.1995 -0.3631 -0.6105
  366MPD2    C3 5477   0.422   1.308  15.074 -1.3090  0.0239 -1.2099
  366MPD2    C4 5478   0.376   1.274  14.947  0.1210  0.7624  0.8998
  366MPD2    C5 5479   0.249   1.288  14.907  0.0930  0.3727 -0.4538
  366MPD2     H 5480   0.339   1.387  15.252 -0.7287 -1.6524 -0.1294
  366MPD2    H1 5481   0.439   1.232  14.869  1.6194 -1.0984  3.1338
  366MPD2    H2 5482   0.046   1.333  14.955 -0.0812 -1.1426  0.0030
  366MPD2    H3 5483   0.222   1.255  14.808  0.0531  0.2462 -0.4004
  366MPD2     N 5484   0.556   1.296  15.099  0.0117  0.1271  0.1647
  366MPD2    H5 5485   0.606   1.237  15.033  0.0565  1.7507 -1.2634
  366MPD2    N1 5486   0.107   1.461  15.197 -0.1491 -0.7670  0.1795
  366MPD2    H7 5487   0.151   1.509  15.275 -1.6467  1.9356 -0.6275
  367TMC3    C1 5488   4.667   1.636  15.234  0.5149 -0.4273  0.6275
  367TMC3    C2 5489   0.050   1.703  15.298  0.2498 -0.2028 -0.1330
  367TMC3    C3 5490   0.017   1.827  15.344  0.4051  0.1611  0.3056
  367TMC3    C4 5491   4.540   1.691  15.207 -0.7283 -0.3924 -0.5397
  367TMC3    C5 5492   4.529   1.823  15.252 -0.2390  0.5655  0.3688
  367TMC3    C6 5493   4.618   1.888  15.328 -0.3377 -0.1163  0.1841
  367TMC3     C 5494   4.707   1.516  15.159  0.6349  0.0148 -0.0933
  367TMC3     O 5495   4.624   1.480  15.073 -0.0441 -0.1809  0.1317
  367TMC3     H 5496   0.153   1.673  15.311  0.4987  1.5090  1.9221
  367TMC3    H1 5497   4.477   1.643  15.134 -1.5234 -0.6111  0.2826
  367TMC3    H2 5498   4.591   1.982  15.374  0.5825  0.1682  0.1579
  367TMC3    C7 5499   4.411   1.898  15.204 -0.8305 -0.3375 -0.8813
  367TMC3    C8 5500   0.096   1.852  15.463 -0.5125  0.5124  0.3735
  367TMC3    O1 5501   4.430   2.018  15.186 -0.0667  0.0696 -0.2511
  367TMC3    O2 5502   0.165   1.763  15.506  0.6110  0.1144  0.1985
  368MPD2     C 5503   1.749   2.819  13.016 -0.0227 -0.0698  0.1261
  368MPD2    C1 5504   1.747   2.908  12.917 -0.1690  0.2155  0.2268
  368MPD2    C2 5505   1.867   2.937  12.855 -0.6798  0.0348 -0.1157
  368MPD2    C3 5506   1.986   2.891  12.911  0.4884 -0.7396 -0.9851
  368MPD2    C4 5507   1.980   2.807  13.012  0.3319  0.0851 -0.1734
  368MPD2    C5 5508   1.860   2.771  13.066  0.3364 -0.0873  0.0191
  368MPD2     H 5509   1.862   2.994  12.763  0.7587  1.2681  0.5742
  368MPD2    H1 5510   2.065   2.760  13.061  0.5896  2.0564  1.2817
  368MPD2    H2 5511   1.655   2.795  13.065  1.0189 -0.6735  1.8444
  368MPD2    H3 5512   1.863   2.698  13.146  1.4952 -0.3442 -0.2537
  368MPD2     N 5513   2.118   2.931  12.867 -0.1175  0.2775 -0.6499
  368MPD2    H5 5514   2.199   2.901  12.920  0.4826  0.7127 -1.3231
  368MPD2    N1 5515   1.618   2.959  12.876  0.5290 -0.1182  0.2512
  368MPD2    H7 5516   1.536   2.920  12.921 -0.5714  0.6322 -1.0928
  369TMC3    C1 5517   1.469   3.123  12.790 -0.4856  0.4392  0.5357
  369TMC3    C2 5518   1.462   3.257  12.763  0.0460  0.2200 -0.4168
  369TMC3    C3 5519   1.343   3.317  12.747  0.0284 -0.4832 -0.5742
  369TMC3    C4 5520   1.354   3.040  12.796 -0.4166 -0.0050  0.4237
  369TMC3    C5 5521   1.236   3.115  12.790  0.3244 -0.1384  0.6692
  369TMC3    C6 5522   1.224   3.248  12.760 -0.4128  0.0148  0.2758
  369TMC3     C 5523   1.605   3.067  12.794  0.1615  0.5663 -0.2366
  369TMC3     O 5524   1.698   3.137  12.757 -0.5420 -0.4250 -0.0620
  369TMC3     H 5525   1.554   3.314  12.756 -0.2279  0.8851  1.2611
  369TMC3    H1 5526   1.346   2.935  12.818 -0.5280  0.5312  2.9062
  369TMC3    H2 5527   1.131   3.303  12.744  0.4451  1.0569 -1.0981
  369TMC3    C7 5528   1.112   3.036  12.793 -0.5023  0.2546 -0.2004
  369TMC3    C8 5529   1.338   3.458  12.706  0.6416 -0.0932 -0.2654
  369TMC3    O1 5530   1.132   2.932  12.852  0.4860  0.3588 -0.0699
  369TMC3    O2 5531   1.231   3.500  12.660 -0.1932  0.3915 -0.0179
  370TMC3    C1 5532   0.539   4.054  16.063 -0.5742  0.0968 -0.1977
  370TMC3    C2 5533   0.461   3.979  16.142 -0.4135 -0.1135 -0.9212
  370TMC3    C3 5534   0.432   3.855  16.117  0.5181 -0.4689 -0.6550
  370TMC3    C4 5535   0.589   3.999  15.948 -0.1865 -0.2065  0.2074
  370TMC3    C5 5536   0.551   3.873  15.919 -0.8370  0.0703 -0.5494
  370TMC3    C6 5537   0.472   3.798  16.000  0.1223 -0.3038 -0.0894
  370TMC3     C 5538   0.518   4.195  16.075 -0.4558  0.4789 -0.1472
  370TMC3     O 5539   0.410   4.228  16.128  0.3142  0.0283  0.2604
  370TMC3     H 5540   0.431   4.029  16.233  0.5227  0.1119 -0.7308
  370TMC3    H1 5541   0.647   4.055  15.876  2.5291  1.1527  3.4486
  370TMC3    H2 5542   0.440   3.696  15.980 -2.6078  1.0768 -2.7215
  370TMC3    C7 5543   0.581   3.813  15.790  0.1171  0.5641 -0.3881
  370TMC3    C8 5544   0.356   3.770  16.209  0.1928  0.1888  0.5561
  370TMC3    O1 5545   0.559   3.893  15.699 -0.6043  0.6035  0.0259
  370TMC3    O2 5546   0.343   3.654  16.168  0.3226 -0.1521  0.6176
  371TMC3    C1 5547   1.863   2.295  15.499  0.1051  0.0959  0.1187
  371TMC3    C2 5548   1.730   2.275  15.524 -0.1129  0.2035  0.1574
  371TMC3    C3 5549   1.641   2.371  15.486 -0.8476  0.6142 -0.2815
  371TMC3    C4 5550   1.912   2.411  15.446  0.3420  0.6786 -0.3147
  371TMC3    C5 5551   1.813   2.509  15.419 -0.2994  0.4118  0.1455
  371TMC3    C6 5552   1.680   2.488  15.439  0.2724  0.2055  0.0270
  371TMC3     C 5553   1.957   2.189  15.522 -0.6321 -0.4607  0.1603
  371TMC3     O 5554   2.075   2.225  15.552  0.3117 -0.4815  0.2579
  371TMC3     H 5555   1.699   2.182  15.571 -1.3115  1.7040  2.3292
  371TMC3    H1 5556   2.016   2.418  15.416  0.0443 -0.6202 -1.6796
  371TMC3    H2 5557   1.627   2.572  15.395 -1.2164  0.6771  2.6736
  371TMC3    C7 5558   1.858   2.613  15.322  0.1320 -0.3845 -0.6008
  371TMC3    C8 5559   1.498   2.336  15.481 -0.7137  0.4888  0.9819
  371TMC3    O1 5560   1.975   2.658  15.332 -0.0508  0.2791 -0.4633
  371TMC3    O2 5561   1.466   2.218  15.484 -0.0853  0.8461 -0.2219
  372MPD2     C 5562   1.292   3.335  13.092 -0.3117  0.8205 -0.2542
  372MPD2    C1 5563   1.385   3.233  13.126 -0.3135  0.5073  0.2519
  372MPD2    C2 5564   1.339   3.108  13.173  0.0406 -0.7478  0.0425
  372MPD2    C3 5565   1.209   3.069  13.162  0.4692  0.3520 -0.1209
  372MPD2    C4 5566   1.118   3.164  13.131  0.5852  1.6511 -1.0608
  372MPD2    C5 5567   1.163   3.291  13.096 -0.0731  0.2779 -0.5430
  372MPD2     H 5568   1.416   3.036  13.200  0.2918 -0.0592  1.1662
  372MPD2    H1 5569   1.012   3.143  13.142  1.1542 -0.0054  1.0665
  372MPD2    H2 5570   1.316   3.435  13.058  0.0548  0.7622 -0.1697
  372MPD2    H3 5571   1.089   3.363  13.065 -1.2822 -0.5233  0.4975
  372MPD2     N 5572   1.172   2.936  13.197 -0.1913  0.4308  0.2612
  372MPD2    H5 5573   1.246   2.874  13.226  1.6949  1.7839 -1.6890
  372MPD2    N1 5574   1.525   3.253  13.115 -0.4046 -0.9332  0.1696
  372MPD2    H7 5575   1.592   3.183  13.146  0.7757  0.1461  0.0318
  373TMC3    C1 5576   1.040   2.743  13.225 -0.3311  0.2359 -0.2374
  373TMC3    C2 5577   1.031   2.704  13.359 -0.2190  0.5552  0.6318
  373TMC3    C3 5578   1.082   2.579  13.379  0.4688 -0.1513 -0.4095
  373TMC3    C4 5579   1.083   2.668  13.121  0.1992 -0.6342 -0.6225
  373TMC3    C5 5580   1.129   2.544  13.152  0.4359 -0.0287 -0.6275
  373TMC3    C6 5581   1.131   2.503  13.276 -0.1953  0.4000 -0.0861
  373TMC3     C 5582   1.041   2.884  13.194 -0.6975  0.2105 -0.0990
  373TMC3     O 5583   0.931   2.935  13.182 -0.0214 -0.5057 -0.6585
  373TMC3     H 5584   1.014   2.779  13.435 -0.6628 -0.2892  1.3654
  373TMC3    H1 5585   1.071   2.699  13.018 -1.0559  1.9481  0.2986
  373TMC3    H2 5586   1.171   2.407  13.308 -3.5801 -0.2743  2.1276
  373TMC3    C7 5587   1.245   2.510  13.068 -0.1115 -0.1137  0.2446
  373TMC3    C8 5588   1.147   2.572  13.507  0.4772 -0.2074 -0.5608
  373TMC3    O1 5589   1.256   2.555  12.956 -0.1261  0.1289  0.6851
  373TMC3    O2 5590   1.263   2.536  13.504  0.5930  0.4585 -0.0201
  374TMC3    C1 5591   2.336   2.321  10.500  0.0659  0.2024  0.0732
  374TMC3    C2 5592   2.340   2.432  10.414  0.2512 -0.2241 -0.5964
  374TMC3    C3 5593   2.224   2.450  10.334  0.2446 -0.2246  0.3098
  374TMC3    C4 5594   2.239   2.225  10.494 -0.1578 -0.0486 -0.9938
  374TMC3    C5 5595   2.135   2.243  10.399  0.1155 -0.1429 -0.1001
  374TMC3    C6 5596   2.122   2.353  10.323 -0.4195 -0.1659 -0.6401
  374TMC3     C 5597   2.457   2.273  10.559 -0.2441 -0.5466 -0.0879
  374TMC3     O 5598   2.444   2.213  10.666  0.4738  0.0802 -0.0900
  374TMC3     H 5599   2.430   2.491  10.405 -0.1990  0.4956 -0.3145
  374TMC3    H1 5600   2.236   2.133  10.551  0.9926  1.0072  0.7494
  374TMC3    H2 5601   2.038   2.359  10.255 -0.7828 -1.1512 -0.2702
  374TMC3    C7 5602   2.025   2.143  10.386 -0.4183 -0.0211 -0.1183
  374TMC3    C8 5603   2.196   2.578  10.262 -0.5730 -0.4486 -0.2730
  374TMC3    O1 5604   2.010   2.067  10.483  0.2507 -0.1937 -0.2789
  374TMC3    O2 5605   2.104   2.579  10.181  0.1470 -0.2188  0.6838
  375MPD2     C 5606   1.559   4.659  17.250 -0.4776 -0.3825 -0.6388
  375MPD2    C1 5607   1.486   4.584  17.157 -0.2445 -0.1531 -0.2397
  375MPD2    C2 5608   1.554   4.495  17.079  0.9687  0.1177 -0.1626
  375MPD2    C3 5609   1.695   4.473  17.095 -0.5717 -0.7430 -0.4448
  375MPD2    C4 5610   1.768   4.558  17.177  0.3682 -0.2953 -0.2943
  375MPD2    C5 5611   1.698   4.648  17.259  0.5433 -0.1988 -0.3033
  375MPD2     H 5612   1.497   4.435  17.010  0.4957 -0.6932  0.9364
  375MPD2    H1 5613   1.872   4.536  17.196  0.2809 -1.5972 -1.3682
  375MPD2    H2 5614   1.516   0.009  17.321  0.9991 -1.8984  1.7579
  375MPD2    H3 5615   1.756   4.715  17.321  2.6604 -0.2048 -2.2902
  375MPD2     N 5616   1.770   4.393  17.009  0.2860 -0.4362 -0.8896
  375MPD2    H5 5617   1.869   4.418  17.007  0.1790  0.1293  0.6772
  375MPD2    N1 5618   1.344   4.583  17.145  0.4030  0.3834  0.4920
  375MPD2    H7 5619   1.307   4.510  17.086  0.5638  0.3704  0.4074
  376TMC3    C1 5620   1.833   4.223  16.856  0.5927  0.6635 -0.6368
  376TMC3    C2 5621   1.967   4.259  16.881  0.2398 -0.0357 -0.3707
  376TMC3    C3 5622   2.059   4.178  16.815  0.1864  0.1069  0.3038
  376TMC3    C4 5623   1.805   4.109  16.782  0.6542  0.1662 -0.3958
  376TMC3    C5 5624   1.902   4.033  16.731 -0.0428  0.4378 -0.6134
  376TMC3    C6 5625   2.031   4.058  16.752  0.1577  0.3754 -0.4842
  376TMC3     C 5626   1.721   4.297  16.921 -0.4347 -0.7592  0.0974
  376TMC3     O 5627   1.604   4.261  16.908 -0.0770 -0.0249 -0.6796
  376TMC3     H 5628   2.003   4.336  16.948  1.0981 -0.2532 -0.5879
  376TMC3    H1 5629   1.705   4.083  16.750 -0.4612  1.6027  1.9210
  376TMC3    H2 5630   2.101   3.984  16.714  0.3993  1.3911 -2.0121
  376TMC3    C7 5631   1.873   3.954  16.608  0.0407  0.1488 -0.5871
  376TMC3    C8 5632   2.187   4.241  16.805  0.0955 -0.4310 -0.1107
  376TMC3    O1 5633   1.892   3.832  16.607 -0.0202 -0.1439  0.2762
  376TMC3    O2 5634   2.187   4.364  16.811 -0.1484 -0.5821  0.4072
  377MPD2     C 5635   4.390   3.684  11.909  0.7878  0.3698 -0.3035
  377MPD2    C1 5636   4.457   3.707  12.027 -0.2255 -0.0971 -0.1470
  377MPD2    C2 5637   4.393   3.687  12.149 -0.7338  0.1266  0.2651
  377MPD2    C3 5638   4.261   3.639  12.149 -0.1464  0.6866 -0.6304
  377MPD2    C4 5639   4.196   3.612  12.023 -0.4093 -1.2463 -0.8700
  377MPD2    C5 5640   4.262   3.638  11.909 -0.3699  0.1931  0.2512
  377MPD2     H 5641   4.444   3.721  12.239  2.7416 -1.9590 -0.9267
  377MPD2    H1 5642   4.092   3.582  12.020 -1.0198  0.6682  0.7126
  377MPD2    H2 5643   4.433   3.705  11.812 -1.4157  0.7637 -1.2117
  377MPD2    H3 5644   4.208   3.628  11.816 -0.8179 -0.3867  0.5757
  377MPD2     N 5645   4.180   3.603  12.265  0.5354  0.3331  1.1502
  377MPD2    H5 5646   4.082   3.583  12.244  1.1274  0.8642 -2.0546
  377MPD2    N1 5647   4.589   3.742  12.016  0.1052  0.3540 -0.0837
  377MPD2    H7 5648   4.631   3.738  11.923 -1.6994 -2.6355 -0.7407
  378TMC3    C1 5649   0.264   3.814  11.911  0.2741 -0.1649 -0.0484
  378TMC3    C2 5650   0.129   3.798  11.939 -0.6930 -0.3548  0.5827
  378TMC3    C3 5651   0.096   3.769  12.079  0.0605 -0.3883  0.5779
  378TMC3    C4 5652   0.362   3.800  12.003  0.3791  0.2264  0.3829
  378TMC3    C5 5653   0.323   3.784  12.133 -0.8848 -0.4721 -0.6007
  378TMC3    C6 5654   0.195   3.762  12.170 -1.1238  0.7098 -0.5499
  378TMC3     C 5655   0.290   3.855  11.778 -0.4041  0.0081  0.2256
  378TMC3     O 5656   0.199   3.912  11.722 -0.5714 -0.0294  0.0661
  378TMC3     H 5657   0.056   3.829  11.866  0.0757 -0.9705 -0.4457
  378TMC3    H1 5658   0.465   3.826  11.980  0.6378  0.0828  1.3703
  378TMC3    H2 5659   0.162   3.742  12.272 -0.8440  1.5447 -0.2900
  378TMC3    C7 5660   0.420   3.761  12.237  0.0390 -0.2844  0.1098
  378TMC3    C8 5661   4.675   3.768  12.126  0.0704 -0.5117 -1.1732
  378TMC3    O1 5662   0.378   3.757  12.351 -0.2539  0.3390 -0.0275
  378TMC3    O2 5663   4.652   3.776  12.248 -0.0568  0.0836 -0.4799
  379MPD2     C 5664   0.584   1.681  16.505  0.4274  0.2176  0.9190
  379MPD2    C1 5665   0.692   1.652  16.419  0.7068  0.1671 -0.2368
  379MPD2    C2 5666   0.785   1.550  16.450  0.2837 -0.2847 -0.4892
  379MPD2    C3 5667   0.774   1.485  16.569 -0.3601 -0.4887  0.3473
  379MPD2    C4 5668   0.666   1.513  16.657 -0.1564  0.3566 -0.7958
  379MPD2    C5 5669   0.572   1.609  16.626 -0.1220 -0.5506 -0.4106
  379MPD2     H 5670   0.865   1.526  16.380 -0.2329 -1.9013 -0.5325
  379MPD2    H1 5671   0.646   1.462  16.750  0.8980  0.1245 -0.7039
  379MPD2    H2 5672   0.519   1.762  16.475  0.3113 -1.7013 -3.9883
  379MPD2    H3 5673   0.499   1.633  16.703 -0.6529 -0.2585 -1.0083
  379MPD2     N 5674   0.876   1.396  16.621  0.8569 -0.7032 -0.7792
  379MPD2    H5 5675   0.876   1.348  16.711  0.5262  1.1123  0.1989
  379MPD2    N1 5676   0.686   1.720  16.300  0.1877  0.0967 -0.0106
  379MPD2    H7 5677   0.601   1.776  16.291 -1.0316 -1.4005  2.0578
  380TMC3    C1 5678   0.761   1.793  16.079  0.1368 -0.4152 -0.9204
  380TMC3    C2 5679   0.836   1.752  15.973 -0.2182  0.5095  0.9919
  380TMC3    C3 5680   0.799   1.798  15.848 -0.7594 -0.2641 -0.5240
  380TMC3    C4 5681   0.664   1.891  16.073  0.1978 -0.7249  0.0549
  380TMC3    C5 5682   0.637   1.935  15.950 -0.4666  0.1073 -0.4893
  380TMC3    C6 5683   0.706   1.896  15.835  1.1254  0.5883 -0.2277
  380TMC3     C 5684   0.776   1.713  16.202 -0.7082 -0.1432 -0.0205
  380TMC3     O 5685   0.875   1.644  16.199 -0.1138 -0.4886 -0.1728
  380TMC3     H 5686   0.902   1.667  15.967 -1.3542 -0.2720 -0.2966
  380TMC3    H1 5687   0.595   1.904  16.156 -0.1705 -0.5787 -0.2735
  380TMC3    H2 5688   0.682   1.915  15.730 -0.5886 -1.0381 -0.1318
  380TMC3    C7 5689   0.517   2.010  15.940  0.0513 -0.1820  0.1055
  380TMC3    C8 5690   0.857   1.733  15.728  0.1020  0.0779 -0.1561
  380TMC3    O1 5691   0.496   2.097  16.024  0.0122  0.3222 -0.1885
  380TMC3    O2 5692   0.888   1.615  15.737  0.0981  0.6728 -0.1215
  381TMC3    C1 5693   0.384   3.068  15.862 -0.1978  0.3039 -0.9208
  381TMC3    C2 5694   0.489   3.151  15.894  0.2339  0.8109 -0.5029
  381TMC3    C3 5695   0.476   3.223  16.010  0.3385  0.1186 -0.2484
  381TMC3    C4 5696   0.275   3.063  15.940  0.3570 -0.7306  0.4523
  381TMC3    C5 5697   0.267   3.132  16.055  0.1722  0.2150  0.7971
  381TMC3    C6 5698   0.369   3.216  16.097  0.0231  0.3427  0.5540
  381TMC3     C 5699   0.430   2.939  15.819 -0.3123 -0.2241 -0.4865
  381TMC3     O 5700   0.498   2.929  15.717 -0.0812  0.9451 -0.1921
  381TMC3     H 5701   0.578   3.137  15.834 -1.5485  1.1697 -3.2047
  381TMC3    H1 5702   0.195   2.994  15.916 -0.2082 -0.1501  0.6549
  381TMC3    H2 5703   0.367   3.274  16.188 -0.4110 -0.8267  1.2858
  381TMC3    C7 5704   0.210   3.055  16.159  0.3538 -0.3708  0.1753
  381TMC3    C8 5705   0.600   3.300  16.036  0.7791 -0.5727  0.2691
  381TMC3    O1 5706   0.251   2.940  16.160 -0.0649 -0.3571  0.1589
  381TMC3    O2 5707   0.691   3.279  15.958  0.6375  1.0534  0.0461
  382MPD2     C 5708   4.618   0.930  17.159  0.0815 -0.5592  0.5769
  382MPD2    C1 5709   4.594   0.946  17.291  0.2975  0.2227 -0.4882
  382MPD2    C2 5710   4.531   0.845  17.365 -0.3589  0.1431  0.0743
  382MPD2    C3 5711   4.507   0.721  17.311 -0.7115  0.2020 -0.1633
  382MPD2    C4 5712   4.547   0.704  17.184 -0.6014  0.0327 -0.1378
  382MPD2    C5 5713   4.606   0.804  17.112 -0.5521 -0.5015 -0.3262
  382MPD2     H 5714   4.501   0.860  17.468  0.7357  0.3832  0.3560
  382MPD2    H1 5715   4.529   0.608  17.138 -3.1245  1.2599 -1.6557
  382MPD2    H2 5716   4.656   1.010  17.097 -0.2625  1.1259  2.5336
  382MPD2    H3 5717   4.640   0.781  17.011  1.0120  1.9805 -0.3486
  382MPD2     N 5718   4.434   0.625  17.385 -0.3762  0.6985  0.0267
  382MPD2    H5 5719   4.392   0.662  17.470 -0.7515  1.4328 -0.4827
  382MPD2    N1 5720   4.624   1.066  17.358 -0.1968 -0.7186 -0.2846
  382MPD2    H7 5721   4.604   1.068  17.457  0.8098 -0.8529 -0.0778
  383TMC3    C1 5722   4.311   0.417  17.432 -0.4822 -0.0650  0.3363
  383TMC3    C2 5723   4.269   0.313  17.358 -0.8135 -0.4455 -0.2262
  383TMC3    C3 5724   4.171   0.246  17.423 -0.7319  0.1638  0.4524
  383TMC3    C4 5725   4.267   0.457  17.551 -0.5604  0.9471  0.5433
  383TMC3    C5 5726   4.167   0.381  17.609  0.1573 -0.2505 -0.3915
  383TMC3    C6 5727   4.123   0.273  17.545  1.0225 -0.9011 -0.2813
  383TMC3     C 5728   4.421   0.489  17.360  0.1340  0.3037 -0.0923
  383TMC3     O 5729   4.480   0.420  17.280 -0.5252 -0.1675 -0.0601
  383TMC3     H 5730   4.304   0.284  17.259  1.8361 -0.8330  0.8041
  383TMC3    H1 5731   4.316   0.542  17.597  0.3190  1.0373 -0.5578
  383TMC3    H2 5732   4.032   0.223  17.578  0.3891 -1.1343 -2.3328
  383TMC3    C7 5733   4.074   0.444   0.027  0.7945 -0.5074  0.1500
  383TMC3    C8 5734   4.087   0.165  17.334  0.1588 -0.3806  0.5677
  383TMC3    O1 5735   4.077   0.566   0.021  0.4567  0.5767  0.5060
  383TMC3    O2 5736   4.051   0.209  17.228  0.0265  0.1996 -0.0657
  384MPD2     C 5737   1.218   1.774  12.278  0.1379 -0.1359  0.2183
  384MPD2    C1 5738   1.269   1.670  12.357 -0.0442 -0.2973 -0.0362
  384MPD2    C2 5739   1.394   1.613  12.335  0.3757 -0.2925  0.4219
  384MPD2    C3 5740   1.461   1.641  12.217 -0.2685  0.3138 -0.2362
  384MPD2    C4 5741   1.410   1.743  12.135 -0.1154 -0.5438 -0.3226
  384MPD2    C5 5742   1.299   1.809  12.168 -0.2048 -0.2496 -0.1517
  384MPD2     H 5743   1.427   1.531  12.398 -1.1788  0.1799  1.8639
  384MPD2    H1 5744   1.479   1.780  12.060 -1.0863  2.2297  0.1420
  384MPD2    H2 5745   1.129   1.831  12.299 -0.2258 -0.1785 -1.2563
  384MPD2    H3 5746   1.270   1.898  12.114  0.8165  1.3431  1.9761
  384MPD2     N 5747   1.574   1.558  12.187 -0.4818  0.2984 -0.2631
  384MPD2    H5 5748   1.594   1.490  12.260 -3.4727 -0.0408  0.2605
  384MPD2    N1 5749   1.190   1.614  12.463 -0.5620 -0.3168  0.0584
  384MPD2    H7 5750   1.218   1.538  12.525 -0.8062  1.8899  2.8399
  385TMC3    C1 5751   1.725   1.428  12.080  0.1234 -0.5349  0.0664
  385TMC3    C2 5752   1.723   1.348  11.968  0.1209  0.2420  0.3216
  385TMC3    C3 5753   1.714   1.213  11.978 -0.0573 -0.6284  0.2202
  385TMC3    C4 5754   1.718   1.370  12.203 -0.4739  0.5845 -0.4957
  385TMC3    C5 5755   1.710   1.235  12.217 -0.1734 -0.3728  0.2690
  385TMC3    C6 5756   1.707   1.156  12.104 -0.3299  0.3029  0.1685
  385TMC3     C 5757   1.636   1.546  12.068  0.3951  0.0527  0.0118
  385TMC3     O 5758   1.589   1.568  11.959 -0.1003 -0.2854 -0.9745
  385TMC3     H 5759   1.715   1.392  11.869  0.0862 -1.0294 -0.2409
  385TMC3    H1 5760   1.749   1.427  12.289 -2.3284 -1.0626  1.2547
  385TMC3    H2 5761   1.688   1.050  12.095 -0.5126  0.4219 -0.9328
  385TMC3    C7 5762   1.598   1.221  12.306  0.0764 -0.5066 -0.3614
  385TMC3    C8 5763   1.782   1.128  11.887  0.7961  0.6742  0.4684
  385TMC3    O1 5764   1.570   1.323  12.369 -0.1118 -0.2465  0.4290
  385TMC3    O2 5765   1.837   1.026  11.922 -0.0752  0.0705  0.2924
  386TMC3    C1 5766   1.837   3.624  11.588 -0.6691  0.2611 -0.2299
  386TMC3    C2 5767   1.835   3.608  11.451  0.4229  0.3972  0.2218
  386TMC3    C3 5768   1.750   3.679  11.374 -0.3176 -0.4208  0.0552
  386TMC3    C4 5769   1.755   3.718  11.646  0.2516  0.2362  0.8874
  386TMC3    C5 5770   1.673   3.790  11.565  0.2264 -0.3136  0.6270
  386TMC3    C6 5771   1.669   3.769  11.434  0.4749  0.5392  0.7459
  386TMC3     C 5772   1.945   3.561  11.670  0.2788 -0.2217 -0.0662
  386TMC3     O 5773   1.948   3.599  11.783 -0.3822  0.5079 -0.1517
  386TMC3     H 5774   1.917   3.552  11.407  0.8138  3.0586 -2.4211
  386TMC3    H1 5775   1.775   3.735  11.752 -1.5082 -1.4264  1.4764
  386TMC3    H2 5776   1.608   3.829  11.368 -1.5900 -2.4181 -0.0714
  386TMC3    C7 5777   1.553   3.840  11.626  0.5729  0.0871 -0.5655
  386TMC3    C8 5778   1.692   3.625  11.248 -0.8362  0.2221  0.8812
  386TMC3    O1 5779   1.564   3.860  11.748 -0.2634 -0.1291  0.1082
  386TMC3    O2 5780   1.604   3.690  11.198 -0.2512 -0.4667  0.1330
  387MPD2     C 5781   4.160   4.057  10.010 -0.5961  0.4109  0.5865
  387MPD2    C1 5782   4.281   3.993  10.024  0.7198 -0.5559  0.3436
  387MPD2    C2 5783   4.292   3.856   9.985 -0.2824  0.0482  0.3169
  387MPD2    C3 5784   4.188   3.787   9.934 -0.1309  0.2751 -0.1484
  387MPD2    C4 5785   4.066   3.853   9.927  0.6686 -0.4461  0.1141
  387MPD2    C5 5786   4.048   3.984   9.971  0.2292 -0.1586 -0.5166
  387MPD2     H 5787   4.383   3.797   9.983 -0.8292 -0.7694 -0.2716
  387MPD2    H1 5788   3.980   3.804   9.884  0.7508  0.5256 -1.1585
  387MPD2    H2 5789   4.148   4.161  10.037  0.3049  0.3783  1.1294
  387MPD2    H3 5790   3.951   4.032   9.958  0.8209  0.1755 -3.6369
  387MPD2     N 5791   4.206   3.655   9.902 -0.3831  0.4827  0.5410
  387MPD2    H5 5792   4.299   3.615   9.901  0.6347  3.0031 -2.8361
  387MPD2    N1 5793   4.407   4.057  10.056  0.3342 -0.4335 -0.1642
  387MPD2    H7 5794   4.485   3.995  10.038  0.8032 -0.6595  2.6448
  388TMC3    C1 5795   4.568   4.208  10.008 -0.3657  0.7948 -0.4617
  388TMC3    C2 5796   4.630   4.322  10.049  0.0730 -0.3136 -0.1428
  388TMC3    C3 5797   0.041   4.343  10.008  0.2319 -0.0418  0.3882
  388TMC3    C4 5798   4.622   4.124   9.920 -0.1875  0.5747 -0.1210
  388TMC3    C5 5799   0.033   4.138   9.888 -0.3409  0.3269 -0.5418
  388TMC3    C6 5800   0.100   4.249   9.929  0.0535 -0.1393  0.6642
  388TMC3     C 5801   4.435   4.192  10.044 -0.2610  0.3124  0.2880
  388TMC3     O 5802   4.358   4.282  10.021  0.1290 -0.5348 -0.6019
  388TMC3     H 5803   4.575   4.396  10.106  1.3514  0.1881  0.4382
  388TMC3    H1 5804   4.571   4.043   9.869 -1.2170  0.9223  0.3523
  388TMC3    H2 5805   0.205   4.263   9.904  0.2413  0.3596  1.7025
  388TMC3    C7 5806   0.101   4.031   9.802  0.0769  0.2012 -0.0931
  388TMC3    C8 5807   0.090   4.475  10.025 -0.1180  0.0730 -0.9699
  388TMC3    O1 5808   0.197   4.074   9.739  0.2142 -0.2872 -0.1545
  388TMC3    O2 5809   0.027   4.558  10.090 -0.5191  0.7605 -0.5461
  389MPD2     C 5810   3.941   1.819  11.086 -0.1495 -0.5341  0.8569
  389MPD2    C1 5811   3.843   1.743  11.027  0.3765  0.0908 -0.2072
  389MPD2    C2 5812   3.784   1.637  11.101  0.5686 -0.0615 -0.0283
  389MPD2    C3 5813   3.840   1.607  11.225 -0.0180 -0.4598  0.1241
  389MPD2    C4 5814   3.947   1.680  11.277 -0.0308 -0.3638  0.5801
  389MPD2    C5 5815   3.989   1.785  11.210 -0.5981 -0.1718 -0.6022
  389MPD2     H 5816   3.691   1.590  11.069  0.7336  0.7022 -1.6458
  389MPD2    H1 5817   3.983   1.650  11.375 -0.8982 -0.2639  0.9349
  389MPD2    H2 5818   3.983   1.910  11.045 -1.3896 -0.5947 -0.5799
  389MPD2    H3 5819   4.060   1.857  11.250  0.8866 -1.3634 -1.0770
  389MPD2     N 5820   3.778   1.507  11.309  0.0805 -0.7280  0.2277
  389MPD2    H5 5821   3.823   1.486  11.397  1.2182 -0.8628 -0.3921
  389MPD2    N1 5822   3.790   1.788  10.901  0.6265 -0.0103  0.2088
  389MPD2    H7 5823   3.832   1.871  10.861 -2.4687 -0.2211 -3.4893
  390TMC3    C1 5824   3.618   1.382  11.391 -0.2045  0.2385 -0.4298
  390TMC3    C2 5825   3.549   1.264  11.375 -0.3148  0.1129 -0.3769
  390TMC3    C3 5826   3.461   1.226  11.476 -0.7662  0.2097  0.3589
  390TMC3    C4 5827   3.598   1.464  11.497  0.3212 -0.0403  0.3102
  390TMC3    C5 5828   3.505   1.426  11.597 -0.4810  0.3669 -0.4810
  390TMC3    C6 5829   3.438   1.303  11.590 -0.3699 -0.0576 -0.7865
  390TMC3     C 5830   3.675   1.427  11.273  0.1957  0.3157 -0.0613
  390TMC3     O 5831   3.615   1.406  11.166 -0.5313  0.1071  0.1814
  390TMC3     H 5832   3.553   1.213  11.280  1.4425 -2.4898  1.0963
  390TMC3    H1 5833   3.642   1.563  11.490  1.6158 -0.5964  0.6640
  390TMC3    H2 5834   3.363   1.276  11.663  1.1811  0.1402  0.8950
  390TMC3    C7 5835   3.445   1.520  11.694  0.4923 -0.6746 -1.0492
  390TMC3    C8 5836   3.345   1.151  11.443 -0.1907  0.2815  0.2278
  390TMC3    O1 5837   3.517   1.582  11.764 -0.4647 -0.2121 -0.0814
  390TMC3    O2 5838   3.318   1.137  11.326  0.3042 -0.1110 -0.1460
  391MPD2     C 5839   2.329   3.389  11.383  0.4724  0.1222 -0.2820
  391MPD2    C1 5840   2.442   3.455  11.335 -0.2065  0.2684  0.0056
  391MPD2    C2 5841   2.445   3.500  11.202  0.8871 -0.2643  0.0739
  391MPD2    C3 5842   2.344   3.466  11.118 -0.5571 -0.3665 -0.7999
  391MPD2    C4 5843   2.228   3.413  11.170 -0.5845  0.3601 -1.2460
  391MPD2    C5 5844   2.222   3.383  11.304 -0.3981 -0.5978 -0.2581
  391MPD2     H 5845   2.531   3.545  11.154  0.4418 -0.4563 -0.9068
  391MPD2    H1 5846   2.147   3.384  11.103 -0.0967 -1.6392 -0.9701
  391MPD2    H2 5847   2.315   3.347  11.482  2.1465 -0.2478 -0.2035
  391MPD2    H3 5848   2.125   3.340  11.330 -1.1168  1.6357  0.7323
  391MPD2     N 5849   2.370   3.479  10.976  0.6940 -0.4889  0.2669
  391MPD2    H5 5850   2.462   3.514  10.949  0.8930 -2.1225 -1.1909
  391MPD2    N1 5851   2.549   3.466  11.432 -0.0947 -0.0560  0.6098
  391MPD2    H7 5852   2.525   3.419  11.519  0.6633  1.6868  1.7711
  392TMC3    C1 5853   2.378   3.422  10.751 -0.2513  0.5718  0.4618
  392TMC3    C2 5854   2.329   3.334  10.659 -0.3801 -0.6542 -0.2782
  392TMC3    C3 5855   2.396   3.275  10.566 -0.4904  0.4969 -0.3655
  392TMC3    C4 5856   2.510   3.448  10.748 -0.2028  0.5825  0.0585
  392TMC3    C5 5857   2.581   3.391  10.640  0.7021 -0.3197 -0.1467
  392TMC3    C6 5858   2.527   3.298  10.556 -0.2530 -0.2927 -0.3182
  392TMC3     C 5859   2.292   3.433  10.872  0.6978 -0.2964  0.6041
  392TMC3     O 5860   2.179   3.391  10.876  0.6676 -0.4606  0.0565
  392TMC3     H 5861   2.224   3.308  10.665 -0.1656 -1.7411 -1.3622
  392TMC3    H1 5862   2.553   3.525  10.811  1.9049 -1.0666  0.6411
  392TMC3    H2 5863   2.588   3.239  10.488  0.0961 -0.9768  0.5905
  392TMC3    C7 5864   2.723   3.424  10.641 -0.4313 -0.4437 -0.1960
  392TMC3    C8 5865   2.351   3.150  10.529  0.5591  0.5192 -0.0807
  392TMC3    O1 5866   2.761   3.519  10.712  0.4843 -0.9015 -0.4302
  392TMC3    O2 5867   2.325   3.063  10.615 -0.2911  0.0682  0.2765
  393TMC3    C1 5868   1.510   1.381  10.048 -0.3512 -0.0615 -0.5541
  393TMC3    C2 5869   1.422   1.299   9.997 -0.5888  0.0138  0.1052
  393TMC3    C3 5870   1.381   1.187  10.068  0.1336  0.3468 -0.5216
  393TMC3    C4 5871   1.549   1.361  10.183  0.2925  0.0902  0.4768
  393TMC3    C5 5872   1.502   1.255  10.254  0.1168  0.6286  0.3194
  393TMC3    C6 5873   1.416   1.162  10.199 -0.2254 -0.1573  0.2514
  393TMC3     C 5874   1.578   1.479   9.958 -0.2097 -1.0040  0.4261
  393TMC3     O 5875   1.527   1.501   9.846  0.0890 -0.1135 -0.3766
  393TMC3     H 5876   1.373   1.321   9.903 -0.8380  3.9701  1.1635
  393TMC3    H1 5877   1.614   1.429  10.237 -1.1227  0.7281  1.3451
  393TMC3    H2 5878   1.380   1.071  10.246 -1.9810  0.1581 -0.4830
  393TMC3    C7 5879   1.579   1.216  10.371  0.5615 -0.0368 -0.7760
  393TMC3    C8 5880   1.308   1.087   9.996  0.0187 -0.8185 -0.2010
  393TMC3    O1 5881   1.613   1.310  10.447  0.0225  0.2159 -0.1205
  393TMC3    O2 5882   1.290   1.100   9.873  0.0567 -0.1510 -0.1121
  394TMC3    C1 5883   3.671   1.786  10.703 -1.0129  0.5885  0.9065
  394TMC3    C2 5884   3.569   1.742  10.637 -0.8244  0.5333  0.2684
  394TMC3    C3 5885   3.565   1.769  10.498  0.2260  0.6685  0.1052
  394TMC3    C4 5886   3.783   1.829  10.637  0.1047  0.0859 -0.0116
  394TMC3    C5 5887   3.782   1.850  10.505  0.1526 -0.6834 -0.5823
  394TMC3    C6 5888   3.671   1.829  10.434  0.2264  0.8948  0.2871
  394TMC3     C 5889   3.683   1.736  10.836  0.1127  0.1249  0.1175
  394TMC3     O 5890   3.608   1.644  10.870  0.0035  0.1260  0.4044
  394TMC3     H 5891   3.493   1.684  10.688 -0.7744  0.9855  0.8601
  394TMC3    H1 5892   3.875   1.844  10.692  0.0430 -1.7374  0.5828
  394TMC3    H2 5893   3.683   1.857  10.330 -1.1952 -0.2139 -0.1575
  394TMC3    C7 5894   3.892   1.916  10.439 -0.7090 -0.4084  0.1145
  394TMC3    C8 5895   3.440   1.746  10.429  0.3763 -0.6754 -0.1424
  394TMC3    O1 5896   3.871   1.977  10.334 -0.3414 -0.3980 -0.1736
  394TMC3    O2 5897   3.339   1.707  10.489 -0.3479 -0.0472  0.3630
  395TMC3    C1 5898   3.469   4.003  14.738  0.8220  0.4219 -0.5537
  395TMC3    C2 5899   3.398   3.960  14.628  0.1339  0.3355  0.1958
  395TMC3    C3 5900   3.467   3.962  14.511  1.0605  0.2016  1.0960
  395TMC3    C4 5901   3.594   4.057  14.741  0.4102 -0.4066 -0.3879
  395TMC3    C5 5902   3.654   4.049  14.620  0.2327 -0.7686  0.0768
  395TMC3    C6 5903   3.596   4.001  14.503  0.3898  0.1888  0.9529
  395TMC3     C 5904   3.417   3.967  14.865  0.1323 -0.2573  0.3048
  395TMC3     O 5905   3.457   4.025  14.962  0.0798 -0.5102 -0.6775
  395TMC3     H 5906   3.295   3.928  14.637  0.5516 -0.8425  0.7821
  395TMC3    H1 5907   3.640   4.096  14.831 -0.5887  0.3878 -0.2066
  395TMC3    H2 5908   3.639   4.031  14.408  0.4109 -0.1115  0.8683
  395TMC3    C7 5909   3.781   4.115  14.593  0.6190 -0.4863  0.4562
  395TMC3    C8 5910   3.386   3.959  14.384 -0.2322 -0.1976 -0.3489
  395TMC3    O1 5911   3.859   4.078  14.507 -0.1358  0.1788 -0.0549
  395TMC3    O2 5912   3.423   4.035  14.298 -0.0311  0.1519 -0.4134
  396MPD2     C 5913   3.400   0.097  17.389 -0.0914  0.0377  0.2166
  396MPD2    C1 5914   3.278   0.152  17.414 -0.4261 -0.7838  0.2272
  396MPD2    C2 5915   3.258   0.288  17.386 -0.0133 -0.2696  0.0407
  396MPD2    C3 5916   3.356   0.365  17.327  1.0289  0.6232 -0.7765
  396MPD2    C4 5917   3.486   0.310  17.305  0.7560 -0.9919 -0.1184
  396MPD2    C5 5918   3.494   0.178  17.333 -0.5668 -0.3474  0.4645
  396MPD2     H 5919   3.159   0.334  17.382  1.2176  2.0751 -3.0953
  396MPD2    H1 5920   3.569   0.361  17.258  0.8068  0.3196  1.3801
  396MPD2    H2 5921   3.426   4.713  17.410  1.6073  0.3154 -0.5325
  396MPD2    H3 5922   3.582   0.130  17.290 -1.3475 -1.6109  0.2748
  396MPD2     N 5923   3.324   0.494  17.298 -0.3968 -0.0700 -0.2224
  396MPD2    H5 5924   3.236   0.524  17.338  0.4693  0.8884  0.9818
  396MPD2    N1 5925   3.177   0.066  17.444  0.2344  0.0242  0.1701
  396MPD2    H7 5926   3.190   4.688  17.418 -1.1825 -1.5653  5.4108
  397TMC3    C1 5927   2.954   4.714  17.498  0.5836 -0.3363  0.3538
  397TMC3    C2 5928   2.920   4.661  17.367 -0.1292 -0.3606 -0.6918
  397TMC3    C3 5929   2.798   4.691  17.310 -0.4634  0.4756  0.6744
  397TMC3    C4 5930   2.847   0.054  17.559 -0.2041  0.1131 -0.5262
  397TMC3    C5 5931   2.726   0.080  17.498 -0.7020 -0.1559 -0.0352
  397TMC3    C6 5932   2.699   0.030  17.374 -0.3663  0.2879  0.0778
  397TMC3     C 5933   3.052   0.105  17.480 -0.1347  0.0374 -0.1230
  397TMC3     O 5934   3.018   0.219  17.509 -0.1953 -0.1787  0.2218
  397TMC3     H 5935   2.996   4.622  17.301  1.7496 -0.5752  1.6256
  397TMC3    H1 5936   2.852   0.103  17.655 -1.2549 -2.3270  0.7946
  397TMC3    H2 5937   2.603   0.053  17.330 -0.6224 -0.6334  0.1488
  397TMC3    C7 5938   2.639   0.162  17.562 -0.6486  0.1859  0.3482
  397TMC3    C8 5939   2.804   0.010  17.166  0.4822  0.2248  0.2243
  397TMC3    O1 5940   2.638   0.162   0.006 -0.1499 -0.3112  0.4848
  397TMC3    O2 5941   2.704   0.025  17.101  0.4112  0.5356  0.3172
  398MPD2     C 5942   0.953   1.777   0.714  0.6274 -0.8970 -0.1935
  398MPD2    C1 5943   0.979   1.657   0.648  0.2542 -0.6697  0.9287
  398MPD2    C2 5944   1.069   1.658   0.542  0.6932  0.0706 -0.8952
  398MPD2    C3 5945   1.128   1.777   0.507  0.5486  0.3133  0.1211
  398MPD2    C4 5946   1.094   1.894   0.572  0.0761 -0.1105 -0.0277
  398MPD2    C5 5947   1.006   1.898   0.676  0.7034 -0.4337 -0.3333
  398MPD2     H 5948   1.101   1.564   0.499  0.0707  0.5387 -2.3873
  398MPD2    H1 5949   1.141   1.988   0.546 -1.6430  0.5965 -0.6120
  398MPD2    H2 5950   0.877   1.785   0.791  1.1708 -0.3015  0.2787
  398MPD2    H3 5951   0.969   1.992   0.716  1.8079  0.5217 -1.5363
  398MPD2     N 5952   1.219   1.778   0.394 -0.0053  0.2901 -0.9086
  398MPD2    H5 5953   1.226   1.695   0.337 -0.1441 -0.4530  0.1613
  398MPD2    N1 5954   0.933   1.528   0.684 -1.1114 -0.0065 -0.1502
  398MPD2    H7 5955   0.962   1.442   0.637 -1.0014 -0.1977  0.2633
  399TMC3    C1 5956   0.825   1.362   0.810  0.5463 -0.2359  0.8412
  399TMC3    C2 5957   0.832   1.316   0.939  0.5849  0.1906 -0.2232
  399TMC3    C3 5958   0.823   1.183   0.959  0.2362  1.0357 -0.6212
  399TMC3    C4 5959   0.790   1.288   0.707 -0.0960  0.2044 -0.0702
  399TMC3    C5 5960   0.757   1.161   0.734 -0.7238 -0.2234 -0.1194
  399TMC3    C6 5961   0.770   1.105   0.862 -0.7230 -0.0679 -0.0395
  399TMC3     C 5962   0.849   1.504   0.793  0.1662  0.0995 -0.0602
  399TMC3     O 5963   0.816   1.577   0.888 -0.0926 -1.1933 -0.2481
  399TMC3     H 5964   0.861   1.390   1.013 -1.4596  0.2914  0.4621
  399TMC3    H1 5965   0.770   1.334   0.611 -0.9533 -0.7011 -0.3115
  399TMC3    H2 5966   0.731   1.005   0.879 -2.1048  0.6639  1.0774
  399TMC3    C7 5967   0.693   1.083   0.637 -0.1923  0.1878  0.1703
  399TMC3    C8 5968   0.814   1.136   1.100  0.0665  0.1052  0.0383
  399TMC3    O1 5969   0.702   0.963   0.646  0.5840  0.4173  0.8018
  399TMC3    O2 5970   0.814   1.224   1.188 -0.0044 -0.6681 -0.5544
  400TMC3    C1 5971   4.053   4.577  17.037 -0.9037 -0.3122  0.7009
  400TMC3    C2 5972   3.970   4.509  16.953 -0.0766  0.7479  0.7767
  400TMC3    C3 5973   3.918   4.575  16.847 -0.3725  0.0265 -0.4256
  400TMC3    C4 5974   4.083   4.708  17.012  0.7771 -0.1143 -0.8211
  400TMC3    C5 5975   4.023   0.060  16.915  0.2167 -0.1086  0.7442
  400TMC3    C6 5976   3.952   4.709  16.824  0.1192 -0.0691 -0.2245
  400TMC3     C 5977   4.137   4.492  17.121 -0.2668 -0.3877  0.5225
  400TMC3     O 5978   4.082   4.412  17.190 -0.7614  0.2752 -0.3810
  400TMC3     H 5979   3.944   4.405  16.970 -0.0233  0.5735 -0.2207
  400TMC3    H1 5980   4.154   0.038  17.076 -0.2042 -0.4490  0.5224
  400TMC3    H2 5981   3.908   0.037  16.737 -0.7799  1.5610  1.1207
  400TMC3    C7 5982   4.086   0.172  16.860  0.1419  0.1696 -0.6707
  400TMC3    C8 5983   3.786   4.548  16.791  0.4170  0.4655 -0.0849
  400TMC3    O1 5984   4.095   0.174  16.740  0.3816 -0.5302  0.5063
  400TMC3    O2 5985   3.719   4.646  16.758 -0.1316  0.3885  0.0688
  401MPD2     C 5986   3.020   2.923   0.706 -0.3247  0.2467 -0.2467
  401MPD2    C1 5987   3.049   3.035   0.637 -0.6796  0.3887 -0.3835
  401MPD2    C2 5988   2.947   3.096   0.568 -0.4371  0.0527  0.3813
  401MPD2    C3 5989   2.816   3.047   0.567 -0.2795 -0.6604  0.4678
  401MPD2    C4 5990   2.790   2.936   0.640  0.3335  0.2878  0.2560
  401MPD2    C5 5991   2.889   2.882   0.713  0.3314  0.3957  0.3198
  401MPD2     H 5992   2.970   3.185   0.510  0.4759 -0.5697 -0.2057
  401MPD2    H1 5993   2.699   2.878   0.628  1.2170 -1.0237 -0.1324
  401MPD2    H2 5994   3.099   2.868   0.756  0.7020  1.0756 -0.9551
  401MPD2    H3 5995   2.877   2.794   0.774 -1.7004  0.7356  0.4297
  401MPD2     N 5996   2.713   3.119   0.494  0.4041 -0.0969  0.0809
  401MPD2    H5 5997   2.739   3.197   0.434 -0.8488 -1.1479 -1.8313
  401MPD2    N1 5998   3.185   3.090   0.634  0.6506  0.3955  0.1168
  401MPD2    H7 5999   3.191   3.190   0.618  0.4880  0.3734 -0.0787
  402TMC3    C1 6000   2.527   3.094   0.368 -0.2008  0.1448  0.0737
  402TMC3    C2 6001   2.407   3.029   0.373  0.1246 -0.5943  0.2119
  402TMC3    C3 6002   2.370   2.937   0.278  0.2517 -0.3059  0.5417
  402TMC3    C4 6003   2.612   3.058   0.270 -0.8864  0.0594  0.0412
  402TMC3    C5 6004   2.577   2.951   0.187  0.0833 -1.2008 -0.1222
  402TMC3    C6 6005   2.453   2.900   0.178 -0.0194 -0.2773  0.1433
  402TMC3     C 6006   2.582   3.093   0.499 -0.0396  0.1709  1.0309
  402TMC3     O 6007   2.524   3.030   0.581  0.2047 -0.5264 -0.4485
  402TMC3     H 6008   2.340   3.063   0.452  0.4128 -2.3994  1.2441
  402TMC3    H1 6009   2.698   3.121   0.249 -1.0731 -0.4714 -2.2826
  402TMC3    H2 6010   2.433   2.810   0.120  0.7297 -0.4091  0.0910
  402TMC3    C7 6011   2.686   2.854   0.171  0.1172 -1.0147 -0.1292
  402TMC3    C8 6012   2.322   2.820   0.344 -0.5636 -1.0377 -0.1670
  402TMC3    O1 6013   2.652   2.744   0.131 -0.4412 -0.1034 -0.4027
  402TMC3    O2 6014   2.274   2.731   0.277  0.2377 -0.1129 -0.2188
  403MPD2     C 6015   0.761   1.255  13.430 -0.3520 -0.4799  0.0478
  403MPD2    C1 6016   0.862   1.199  13.506  0.0648  0.7397  0.0585
  403MPD2    C2 6017   0.989   1.248  13.510  0.6661 -0.3133  0.2976
  403MPD2    C3 6018   1.021   1.364  13.434 -0.0047 -0.0249  0.5431
  403MPD2    C4 6019   0.927   1.426  13.358 -0.7761  0.1933 -0.7264
  403MPD2    C5 6020   0.807   1.357  13.347  0.0004  0.5852 -0.4014
  403MPD2     H 6021   1.061   1.199  13.574  0.4859  0.6698  1.2401
  403MPD2    H1 6022   0.950   1.517  13.304 -1.5761  0.6954 -0.2106
  403MPD2    H2 6023   0.658   1.224  13.417 -0.7283  1.3314 -1.3833
  403MPD2    H3 6024   0.732   1.391  13.277  1.3820  2.1075 -1.1301
  403MPD2     N 6025   1.158   1.409  13.447  0.1114 -0.3056 -0.6370
  403MPD2    H5 6026   1.224   1.354  13.502 -0.9766  0.3598  1.3551
  403MPD2    N1 6027   0.827   1.083  13.592 -0.6664  0.1583 -0.4949
  403MPD2    H7 6028   0.731   1.050  13.588  0.0964 -2.3035  1.1564
  404TMC3    C1 6029   0.830   0.920  13.757 -0.0117  0.3287  0.2284
  404TMC3    C2 6030   0.879   0.877  13.871 -0.1401  0.7993 -0.1680
  404TMC3    C3 6031   0.828   0.770  13.939  0.7853 -0.6077  0.0916
  404TMC3    C4 6032   0.723   0.840  13.697  0.0058  0.0921 -0.4616
  404TMC3    C5 6033   0.680   0.725  13.761 -0.5640  0.4474  0.1654
  404TMC3    C6 6034   0.731   0.690  13.884 -0.0871  0.1765 -0.2927
  404TMC3     C 6035   0.907   1.018  13.686  0.2648 -0.2528  0.3750
  404TMC3     O 6036   1.024   1.021  13.716  0.5917  0.6047 -0.0539
  404TMC3     H 6037   0.960   0.932  13.916  0.8444 -0.9229  0.1842
  404TMC3    H1 6038   0.685   0.855  13.597  1.8676  0.3079 -1.1410
  404TMC3    H2 6039   0.700   0.607  13.945  1.0095  1.2362  1.6945
  404TMC3    C7 6040   0.613   0.621  13.695 -0.1663  0.8941  0.9555
  404TMC3    C8 6041   0.918   0.713  14.033 -0.2479 -0.2459  0.4451
  404TMC3    O1 6042   0.595   0.519  13.755 -0.2456  0.7914 -0.2613
  404TMC3    O2 6043   1.035   0.739  14.007 -0.3890 -0.1994 -0.2429
  405MPD2     C 6044   1.327   1.890  15.136  0.1914 -0.3765  0.4553
  405MPD2    C1 6045   1.306   1.863  15.002  0.5521  0.0071 -0.1717
  405MPD2    C2 6046   1.338   1.963  14.919  0.0789 -0.4020 -0.1535
  405MPD2    C3 6047   1.401   2.079  14.956 -0.6541  0.0587 -0.2125
  405MPD2    C4 6048   1.425   2.105  15.088 -0.5621 -0.5477  0.3000
  405MPD2    C5 6049   1.388   2.005  15.171 -0.0995  0.0577  0.4011
  405MPD2     H 6050   1.327   1.945  14.813  0.9106 -1.4073 -0.0677
  405MPD2    H1 6051   1.481   2.195  15.113 -1.3134 -0.2835  0.9949
  405MPD2    H2 6052   1.303   1.816  15.211  1.4277 -0.0573  1.1716
  405MPD2    H3 6053   1.389   2.035  15.275  0.7543  1.6588 -0.0771
  405MPD2     N 6054   1.419   2.175  14.853 -0.1276  0.5060  0.0556
  405MPD2    H5 6055   1.394   2.155  14.757  1.2701 -2.9885  0.4478
  405MPD2    N1 6056   1.268   1.729  14.956  0.4037  0.5945 -0.1860
  405MPD2    H7 6057   1.214   1.673  15.023 -0.1339  2.0546  0.5998
  406TMC3    C1 6058   1.317   2.565  14.665 -0.1511  0.2349  0.3437
  406TMC3    C2 6059   1.323   2.510  14.539 -0.4137  0.0215 -0.3559
  406TMC3    C3 6060   1.393   2.391  14.526  0.0628  0.3428  0.0928
  406TMC3    C4 6061   1.375   2.499  14.776 -0.4027 -0.7245  0.1234
  406TMC3    C5 6062   1.439   2.385  14.752  0.7180  0.3835 -0.4458
  406TMC3    C6 6063   1.444   2.324  14.631 -0.2242 -0.1773 -0.1636
  406TMC3     C 6064   1.209   2.650  14.687  0.7944 -0.4290  0.6105
  406TMC3     O 6065   1.215   2.724  14.783  0.4868 -0.5346  0.4551
  406TMC3     H 6066   1.277   2.557  14.453 -0.1568  1.9696  0.5798
  406TMC3    H1 6067   1.364   2.541  14.876  0.9261 -1.1821  0.4545
  406TMC3    H2 6068   1.510   2.241  14.607  1.7023  1.0651  0.7731
  406TMC3    C7 6069   1.470   2.303  14.870 -0.0185  0.5371 -0.4812
  406TMC3    C8 6070   1.370   2.301  14.404 -0.5604  0.2966  0.2291
  406TMC3    O1 6071   1.503   2.359  14.978 -0.1645 -0.0971  0.7439
  406TMC3    O2 6072   1.357   2.353  14.298  0.5268  0.1326  0.3097
  407MPD2     C 6073   3.621   2.780   9.396 -0.0562 -0.0975 -0.2337
  407MPD2    C1 6074   3.673   2.889   9.459 -0.4534  0.2640 -0.0516
  407MPD2    C2 6075   3.639   2.927   9.588 -0.2132  0.2312  0.2803
  407MPD2    C3 6076   3.540   2.861   9.654  0.0266  0.1312 -0.6634
  407MPD2    C4 6077   3.480   2.748   9.590 -0.5820  0.2029  0.4748
  407MPD2    C5 6078   3.528   2.709   9.463  0.4045  0.0083 -0.4642
  407MPD2     H 6079   3.697   3.002   9.640 -0.8503  0.7898  0.1764
  407MPD2    H1 6080   3.404   2.688   9.638 -0.2037 -1.3334 -0.8110
  407MPD2    H2 6081   3.656   2.751   9.298 -0.2261  1.5819 -0.7902
  407MPD2    H3 6082   3.485   2.617   9.425 -0.3096  0.3800 -0.5617
  407MPD2     N 6083   3.495   2.894   9.782 -0.1247 -0.0477 -0.6127
  407MPD2    H5 6084   3.414   2.845   9.819  0.4142 -2.1387 -2.2041
  407MPD2    N1 6085   3.774   2.972   9.399 -0.3301  0.9753 -0.5363
  407MPD2    H7 6086   3.810   3.047   9.458 -2.0277  0.6409  0.9372
  408TMC3    C1 6087   3.937   3.049   9.253 -0.3178  0.1477  0.6958
  408TMC3    C2 6088   4.022   3.012   9.150 -0.0129  0.2449 -0.8488
  408TMC3    C3 6089   4.144   3.080   9.156 -0.0233 -0.1635  0.6379
  408TMC3    C4 6090   3.956   3.160   9.333  0.2094  0.0804  0.4219
  408TMC3    C5 6091   4.071   3.233   9.322 -0.0220 -0.0353  0.2719
  408TMC3    C6 6092   4.173   3.188   9.242  0.2194  0.0880  0.0702
  408TMC3     C 6093   3.817   2.971   9.271 -1.1606 -0.3174  0.3630
  408TMC3     O 6094   3.778   2.897   9.180 -0.1437 -0.2882 -0.0481
  408TMC3     H 6095   3.999   2.931   9.082  0.3080 -0.7612  0.2284
  408TMC3    H1 6096   3.866   3.200   9.378 -1.8256 -3.0438 -0.8764
  408TMC3    H2 6097   4.271   3.234   9.247  0.7539 -0.9597 -0.7434
  408TMC3    C7 6098   4.075   3.368   9.373  0.4092  0.2085 -0.3071
  408TMC3    C8 6099   4.246   3.017   9.067 -1.1855  0.3183 -0.9933
  408TMC3    O1 6100   4.149   3.442   9.310  0.3278 -0.1399 -0.0501
  408TMC3    O2 6101   4.208   2.952   8.972 -0.1871  0.7397  0.0825
  409MPD2     C 6102   2.761   4.279  17.004 -0.3093 -0.3081 -0.4921
  409MPD2    C1 6103   2.869   4.279  17.097  0.1247 -0.2784 -0.5408
  409MPD2    C2 6104   2.969   4.369  17.087 -0.0970  0.3364  0.0983
  409MPD2    C3 6105   2.977   4.460  16.981  0.0684  0.0661 -0.4181
  409MPD2    C4 6106   2.866   4.472  16.900 -0.2644 -0.0027 -0.2113
  409MPD2    C5 6107   2.759   4.389  16.916  0.0669  0.7071  0.4419
  409MPD2     H 6108   3.058   4.365  17.149 -0.0302  1.9732  0.1081
  409MPD2    H1 6109   2.859   4.547  16.822  0.5024  0.8708  0.5608
  409MPD2    H2 6110   2.684   4.203  17.009 -1.9106  1.2584 -1.2663
  409MPD2    H3 6111   2.680   4.397  16.842  1.6285  2.3658 -1.0475
  409MPD2     N 6112   3.087   4.549  16.954  0.4506 -0.8302  0.5532
  409MPD2    H5 6113   3.086   4.589  16.861 -1.5522  0.8691  1.2947
  409MPD2    N1 6114   2.887   4.192  17.213 -0.1996  0.5200 -0.0944
  409MPD2    H7 6115   2.961   4.213  17.280  0.2736 -4.9688  1.0900
  410TMC3    C1 6116   3.315   4.630  16.966  0.6395  0.0232 -0.3589
  410TMC3    C2 6117   3.424   4.657  17.049  0.7186 -0.0431  0.0090
  410TMC3    C3 6118   3.513   0.019  16.996  0.3336 -0.6172 -0.2414
  410TMC3    C4 6119   3.292   4.690  16.843  0.0999  1.2881  0.2640
  410TMC3    C5 6120   3.393   0.059  16.809  0.2631 -0.4081  0.2498
  410TMC3    C6 6121   3.502   0.089  16.883 -0.1406 -0.2243 -0.6443
  410TMC3     C 6122   3.198   4.565  17.033  0.3738 -0.0427 -0.2000
  410TMC3     O 6123   3.206   4.546  17.154 -0.5883 -0.1578  0.3522
  410TMC3     H 6124   3.437   4.602  17.142 -2.2764  0.8245  0.9690
  410TMC3    H1 6125   3.209   4.669  16.777 -0.1258 -1.2757  1.3319
  410TMC3    H2 6126   3.585   0.142  16.837 -0.3043 -0.0915 -0.7881
  410TMC3    C7 6127   3.393   0.099  16.674  0.0904  0.2776  0.2145
  410TMC3    C8 6128   3.643   0.025  17.053  0.3702  0.2766  0.1456
  410TMC3    O1 6129   3.327   0.033  16.596 -0.3569  0.5851 -0.5183
  410TMC3    O2 6130   3.706   0.128  17.040  0.6505  0.5462  0.4399
  411MPD2     C 6131   2.902   0.215  14.872 -0.5058  0.1328  0.4865
  411MPD2    C1 6132   3.031   0.167  14.846 -0.1786 -0.1686 -0.2572
  411MPD2    C2 6133   3.049   0.038  14.792 -0.8144  0.1747  0.0978
  411MPD2    C3 6134   2.935   4.684  14.767  0.2683 -0.9685  0.4766
  411MPD2    C4 6135   2.814   0.003  14.819  0.2606  0.0119 -0.0984
  411MPD2    C5 6136   2.795   0.131  14.863 -0.7215  0.4651 -0.1062
  411MPD2     H 6137   3.149   4.719  14.775 -0.9034 -0.6703  1.4116
  411MPD2    H1 6138   2.723   4.667  14.801  0.9509 -1.4729  1.0179
  411MPD2    H2 6139   2.881   0.318  14.899  0.8830  0.6374 -0.3827
  411MPD2    H3 6140   2.696   0.170  14.883 -0.0012  1.7572  0.9590
  411MPD2     N 6141   2.940   4.562  14.698  0.2265  0.2371 -0.0106
  411MPD2    H5 6142   2.857   4.505  14.684  0.6822 -0.8943  1.9100
  411MPD2    N1 6143   3.136   0.267  14.852  0.2379 -0.0172  0.0576
  411MPD2    H7 6144   3.116   0.360  14.885 -0.2269 -0.7088  1.7543
  412TMC3    C1 6145   3.030   4.376  14.577  0.2438  0.1222  0.3211
  412TMC3    C2 6146   2.927   4.298  14.622 -0.3175 -0.2459 -0.5052
  412TMC3    C3 6147   2.917   4.181  14.547  0.4180  0.2078  0.7885
  412TMC3    C4 6148   3.131   4.338  14.491  0.7072 -0.0496  0.5501
  412TMC3    C5 6149   3.111   4.230  14.411  0.2404 -0.4818  0.6062
  412TMC3    C6 6150   3.009   4.146  14.449  0.4573  0.1487  0.0294
  412TMC3     C 6151   3.050   4.510  14.637 -0.5656  0.3050 -0.3278
  412TMC3     O 6152   3.165   4.552  14.635 -0.4368 -0.0518  0.2272
  412TMC3     H 6153   2.849   4.330  14.691 -0.0696  1.7453 -1.1328
  412TMC3    H1 6154   3.195   4.417  14.454 -1.4159  1.3340 -0.1888
  412TMC3    H2 6155   3.006   4.050  14.398  1.5993  0.5776 -0.8400
  412TMC3    C7 6156   3.082   4.258  14.276  0.0450 -0.3346  0.1017
  412TMC3    C8 6157   2.778   4.140  14.503  0.4324  0.5585 -0.2482
  412TMC3    O1 6158   2.978   4.213  14.230  0.2201  0.6035  0.8422
  412TMC3    O2 6159   2.693   4.143  14.587 -0.2487 -0.6023  0.0222
  413MPD2     C 6160   0.273   3.712  15.336  0.1034  0.0653  0.4340
  413MPD2    C1 6161   0.221   3.654  15.218 -0.2214  0.8368 -0.4731
  413MPD2    C2 6162   0.315   3.608  15.125  0.5313  0.4886  0.0198
  413MPD2    C3 6163   0.447   3.604  15.159  0.0784 -0.2040 -0.1303
  413MPD2    C4 6164   0.492   3.654  15.281  0.0407 -0.7788  0.1398
  413MPD2    C5 6165   0.405   3.718  15.365 -0.0350 -0.2321 -0.2073
  413MPD2     H 6166   0.283   3.563  15.031  4.7027 -1.2028 -0.5763
  413MPD2    H1 6167   0.596   3.640  15.308  0.3633  1.5629  0.1191
  413MPD2    H2 6168   0.209   3.753  15.413  2.1538 -1.4878  2.9530
  413MPD2    H3 6169   0.451   3.753  15.457  1.2401  2.0288 -1.7032
  413MPD2     N 6170   0.532   3.532  15.070  0.0445  1.1972  0.1070
  413MPD2    H5 6171   0.486   3.478  14.997  0.5866  1.6702 -0.5951
  413MPD2    N1 6172   0.082   3.650  15.192  0.4609  0.5738  0.5861
  413MPD2    H7 6173   0.026   3.706  15.255 -1.1694 -1.5586  1.0123
  414TMC3    C1 6174   0.706   3.407  14.996  0.4865  0.6001  0.1674
  414TMC3    C2 6175   0.759   3.291  15.051  0.0932  0.0754 -0.0919
  414TMC3    C3 6176   0.751   3.179  14.978  0.2539  0.2173 -0.1516
  414TMC3    C4 6177   0.642   3.401  14.872 -0.0153  0.3038 -0.0963
  414TMC3    C5 6178   0.627   3.285  14.798  0.1737  0.4766  0.1259
  414TMC3    C6 6179   0.682   3.168  14.854 -0.6514  0.0260 -0.3595
  414TMC3     C 6180   0.660   3.507  15.088 -0.1275 -0.0702  0.5610
  414TMC3     O 6181   0.738   3.543  15.172  0.3242  0.3852 -0.0455
  414TMC3     H 6182   0.817   3.299  15.143 -2.0932  1.6912  1.1563
  414TMC3    H1 6183   0.597   3.492  14.832 -2.6093 -0.4306  1.1323
  414TMC3    H2 6184   0.680   3.068  14.811  0.9379 -0.4650  0.7195
  414TMC3    C7 6185   0.535   3.292  14.685 -0.2081  0.3026  0.1304
  414TMC3    C8 6186   0.823   3.064  15.016 -0.5828  0.2685  0.5848
  414TMC3    O1 6187   0.437   3.363  14.711  0.0589 -0.0371  0.1121
  414TMC3    O2 6188   0.789   2.961  14.966  0.1606  0.3001 -0.0766
  415TMC3    C1 6189   1.343   0.352  10.037  0.5898  0.4470  0.1075
  415TMC3    C2 6190   1.370   0.421   9.925  0.2896 -0.4054  0.7957
  415TMC3    C3 6191   1.406   0.357   9.817  0.3002 -0.5111  0.3270
  415TMC3    C4 6192   1.344   0.211  10.040 -0.1097 -0.7415  0.1063
  415TMC3    C5 6193   1.379   0.150   9.929 -0.8494  0.0217 -0.0059
  415TMC3    C6 6194   1.411   0.222   9.816 -0.5496 -0.5953 -0.4273
  415TMC3     C 6195   1.344   0.407  10.169  0.1676 -0.2953 -0.6769
  415TMC3     O 6196   1.304   0.335  10.257  0.3463  0.6055  0.0474
  415TMC3     H 6197   1.343   0.525   9.913  0.5575 -0.3992  0.2315
  415TMC3    H1 6198   1.321   0.156  10.131 -0.5058  0.4764  0.7443
  415TMC3    H2 6199   1.452   0.168   9.731 -1.1497 -0.7088 -0.6446
  415TMC3    C7 6200   1.452   0.022   9.946  0.0245 -0.3417  0.1107
  415TMC3    C8 6201   1.429   0.424   9.693  1.0109 -0.2189  0.5050
  415TMC3    O1 6202   1.567   0.018   9.912 -0.4766 -0.4944 -0.2896
  415TMC3    O2 6203   1.410   0.356   9.593 -0.0126  0.3349  0.2426
  416MPD2     C 6204   2.557   4.339  11.877 -0.2101  0.3889  0.5319
  416MPD2    C1 6205   2.428   4.344  11.838 -0.1524 -0.0006  0.1489
  416MPD2    C2 6206   2.351   4.231  11.820  0.2026 -0.2631  0.3784
  416MPD2    C3 6207   2.413   4.110  11.848  0.0136 -0.6207  0.2726
  416MPD2    C4 6208   2.551   4.104  11.867  0.2394  0.4836 -0.7892
  416MPD2    C5 6209   2.623   4.221  11.886 -0.4351  0.0932 -0.4500
  416MPD2     H 6210   2.250   4.229  11.780 -0.2074  1.5788  1.3341
  416MPD2    H1 6211   2.604   4.011  11.880 -0.1401 -0.1082 -3.4489
  416MPD2    H2 6212   2.615   4.430  11.880  0.1316  0.2304 -1.2054
  416MPD2    H3 6213   2.727   4.219  11.919 -0.8636  0.4045  0.9199
  416MPD2     N 6214   2.351   3.983  11.833 -0.0769  0.6754 -0.5059
  416MPD2    H5 6215   2.405   3.899  11.850 -0.3724  0.6010  0.0835
  416MPD2    N1 6216   2.377   4.477  11.825  0.3397  0.4452  0.5037
  416MPD2    H7 6217   2.437   4.547  11.867 -1.5951  2.1974  0.3747
  417TMC3    C1 6218   2.223   4.649  11.784 -0.5309  0.1062 -0.1426
  417TMC3    C2 6219   2.259   4.710  11.903 -0.2092  0.2116  0.0384
  417TMC3    C3 6220   2.208   0.114  11.924 -0.2195  0.4385 -0.4053
  417TMC3    C4 6221   2.129   4.708  11.698 -0.6906 -0.1726  0.9073
  417TMC3    C5 6222   2.079   0.108  11.732 -1.3459 -0.3753 -0.4918
  417TMC3    C6 6223   2.124   0.185  11.838  0.2281  0.2727  0.1813
  417TMC3     C 6224   2.257   4.514  11.766  0.1922 -0.0625 -0.7175
  417TMC3     O 6225   2.198   4.445  11.688  0.0191  0.3228  0.2493
  417TMC3     H 6226   2.302   4.660  11.990 -0.3579 -2.0909 -1.2004
  417TMC3    H1 6227   2.092   4.664  11.606 -1.2464 -0.2736  1.1788
  417TMC3    H2 6228   2.074   0.277  11.865 -2.1462 -0.8111 -0.5489
  417TMC3    C7 6229   2.021   0.182  11.618  0.9257 -0.1398  0.4473
  417TMC3    C8 6230   2.258   0.189  12.038  0.1685  0.0871 -0.8192
  417TMC3    O1 6231   2.037   0.128  11.508  0.1031  0.5310 -0.6221
  417TMC3    O2 6232   2.183   0.279  12.075  0.6098 -0.1962 -0.8542
  418TMC3    C1 6233   1.489   1.715   0.094 -0.3779  0.9081 -0.1289
  418TMC3    C2 6234   1.380   1.763   0.162 -0.2320 -0.3180 -0.5052
  418TMC3    C3 6235   1.407   1.837   0.272  0.0702  0.1735 -0.1658
  418TMC3    C4 6236   1.618   1.741   0.126 -1.3762 -0.0519 -0.4354
  418TMC3    C5 6237   1.627   1.822   0.234  0.1438 -0.1322  0.1678
  418TMC3    C6 6238   1.533   1.870   0.315  0.8924 -0.1362  0.2419
  418TMC3     C 6239   1.463   1.617  17.671  0.5060  0.6711 -0.5789
  418TMC3     O 6240   1.350   1.620  17.626 -0.5018  0.4520 -0.4898
  418TMC3     H 6241   1.284   1.733   0.120 -1.0111  1.4728 -0.0011
  418TMC3    H1 6242   1.709   1.710   0.077 -1.8907 -1.6968 -0.3324
  418TMC3    H2 6243   1.545   1.923   0.409 -0.0189 -0.5596  0.5951
  418TMC3    C7 6244   1.744   1.803   0.306  0.0168 -0.4064 -0.2332
  418TMC3    C8 6245   1.299   1.886   0.357  0.7168  1.2113 -0.3289
  418TMC3    O1 6246   1.854   1.856   0.276  0.3371  0.0474  0.3812
  418TMC3    O2 6247   1.321   1.983   0.422  0.3669 -0.0281  0.4674
  419MPD2     C 6248   4.475   4.532  12.460 -0.7426  0.3975  0.0845
  419MPD2    C1 6249   4.404   4.642  12.508 -0.6378  0.4185 -0.6314
  419MPD2    C2 6250   4.374   4.649  12.643 -0.1567 -0.1740 -0.0820
  419MPD2    C3 6251   4.426   4.565  12.739  0.1065  0.4025  0.5013
  419MPD2    C4 6252   4.492   4.452  12.688 -0.2004  0.1119  0.2054
  419MPD2    C5 6253   4.516   4.437  12.551 -0.8533 -0.9566 -0.7013
  419MPD2     H 6254   4.330   0.021  12.681  1.8810  1.0198 -0.6362
  419MPD2    H1 6255   4.527   4.381  12.762  0.5718 -1.2186 -1.4420
  419MPD2    H2 6256   4.486   4.509  12.354 -1.7742  0.5170 -0.0473
  419MPD2    H3 6257   4.555   4.342  12.517  0.4018 -0.8684  0.4761
  419MPD2     N 6258   4.410   4.599  12.875 -0.1330  0.3702 -0.2155
  419MPD2    H5 6259   4.357   4.685  12.890  1.0190  1.2797 -1.3459
  419MPD2    N1 6260   4.354   0.023  12.419 -0.4643 -0.0551 -0.4682
  419MPD2    H7 6261   4.295   0.095  12.460  0.9484  0.8152  0.0413
  420TMC3    C1 6262   4.423   4.593  13.111  0.0163 -0.8837 -0.2053
  420TMC3    C2 6263   4.309   4.670  13.114  0.5781  0.4453 -0.5226
  420TMC3    C3 6264   4.257   4.701  13.240  0.1994  0.1894  0.9989
  420TMC3    C4 6265   4.503   4.558  13.216 -0.2972  0.0858 -0.3036
  420TMC3    C5 6266   4.453   4.587  13.340  0.2947  0.4111  0.2947
  420TMC3    C6 6267   4.329   4.658  13.353 -0.2847 -0.5361  0.0367
  420TMC3     C 6268   4.461   4.533  12.978  0.3514 -0.0195 -0.0809
  420TMC3     O 6269   4.536   4.435  12.981 -0.2338 -0.5623  0.3293
  420TMC3     H 6270   4.245   4.684  13.027  1.1492  0.8343 -0.8797
  420TMC3    H1 6271   4.601   4.514  13.203 -0.5025 -0.5188  0.1866
  420TMC3    H2 6272   4.295   4.675  13.454  0.2572 -1.0127  0.2991
  420TMC3    C7 6273   4.550   4.588  13.445  0.1585 -0.6672 -0.9211
  420TMC3    C8 6274   4.170   0.098  13.256 -0.4214 -0.1929 -0.0342
  420TMC3    O1 6275   4.658   4.530  13.423  0.5854  0.0446 -0.2526
  420TMC3    O2 6276   4.156   0.137  13.371 -0.2975 -0.5466  0.1477
  421TMC3    C1 6277   1.350   1.527  13.431  0.5040 -0.2165 -0.3696
  421TMC3    C2 6278   1.379   1.657  13.457  0.2504  0.9157 -0.7372
  421TMC3    C3 6279   1.473   1.681  13.551  0.6153  0.3404  0.6827
  421TMC3    C4 6280   1.420   1.418  13.480  0.2505  0.0937  0.0685
  421TMC3    C5 6281   1.525   1.443  13.559 -0.2302  0.8052 -0.1114
  421TMC3    C6 6282   1.549   1.577  13.596  0.2455 -0.1864 -0.2687
  421TMC3     C 6283   1.214   1.510  13.379 -0.0378 -0.1614 -0.4250
  421TMC3     O 6284   1.167   1.602  13.312  0.2786 -0.0093 -0.2126
  421TMC3     H 6285   1.312   1.737  13.427 -1.2085  0.1664  0.5087
  421TMC3    H1 6286   1.403   1.317  13.444 -1.1175  0.8945 -1.5635
  421TMC3    H2 6287   1.610   1.584  13.686  1.2247 -0.6990 -0.8992
  421TMC3    C7 6288   1.614   1.339  13.604 -1.0382 -0.4939 -0.2227
  421TMC3    C8 6289   1.434   1.778  13.649 -0.0829  0.5297 -0.3231
  421TMC3    O1 6290   1.723   1.357  13.659 -0.4309 -0.2819  0.1406
  421TMC3    O2 6291   1.317   1.807  13.654  0.0824  0.0925 -0.2434
  422TMC3    C1 6292   3.656   2.640  12.677 -0.0394 -0.4436 -0.9230
  422TMC3    C2 6293   3.621   2.761  12.720  0.0771  0.1475  0.0931
  422TMC3    C3 6294   3.520   2.760  12.818  0.1536  0.4111  0.0158
  422TMC3    C4 6295   3.593   2.521  12.712  0.2851 -0.7058  0.1193
  422TMC3    C5 6296   3.489   2.531  12.803 -0.1954  0.1303 -0.8903
  422TMC3    C6 6297   3.452   2.644  12.870 -0.4292 -0.2427 -0.6658
  422TMC3     C 6298   3.732   2.639  12.558 -0.3459  0.1689 -0.7691
  422TMC3     O 6299   3.726   2.740  12.492  0.1280  0.6636  0.4031
  422TMC3     H 6300   3.689   2.845  12.704  0.9185 -1.1635 -3.0983
  422TMC3    H1 6301   3.623   2.428  12.666 -1.2705 -1.5637  0.8643
  422TMC3    H2 6302   3.385   2.648  12.955  1.0597 -1.0236  0.5408
  422TMC3    C7 6303   3.388   2.429  12.792  0.6475 -0.1547  0.0985
  422TMC3    C8 6304   3.513   2.889  12.892 -0.4562 -0.5581  0.2297
  422TMC3    O1 6305   3.424   2.311  12.785 -0.7139 -0.3829  0.7220
  422TMC3    O2 6306   3.614   2.960  12.889  0.6505 -0.5669 -0.2337
  423MPD2     C 6307   0.825   4.064  17.114 -0.6741 -0.3052  0.0203
  423MPD2    C1 6308   0.827   4.043  17.256 -0.2486  0.3890 -0.0501
  423MPD2    C2 6309   0.741   3.946  17.308  0.0507 -0.1856  0.8990
  423MPD2    C3 6310   0.652   3.877  17.229  0.2600  0.7138 -0.2223
  423MPD2    C4 6311   0.660   3.900  17.088 -0.0616  1.2146  0.1787
  423MPD2    C5 6312   0.743   3.990  17.028 -0.0463 -0.2362 -0.5570
  423MPD2     H 6313   0.733   3.944  17.416  1.2701  2.0955  1.0350
  423MPD2    H1 6314   0.599   3.837  17.024  1.4073  2.5934 -2.5609
  423MPD2    H2 6315   0.904   4.127  17.076 -0.0133 -0.3842  1.2403
  423MPD2    H3 6316   0.736   4.011  16.922  0.7111  0.9864 -0.3670
  423MPD2     N 6317   0.550   3.797  17.281 -0.7529  0.0202 -0.1807
  423MPD2    H5 6318   0.492   3.745  17.216 -0.5153 -2.2972  1.4563
  423MPD2    N1 6319   0.907   4.115  17.345 -0.7391 -0.6056 -0.0341
  423MPD2    H7 6320   0.910   4.085  17.442 -2.0034 -1.6096 -0.3101
  424TMC3    C1 6321   1.029   4.283  17.436  0.1873  0.4343 -0.0609
  424TMC3    C2 6322   1.053   4.202  17.542 -1.2082 -0.4081  0.1307
  424TMC3    C3 6323   1.048   4.253  17.665 -0.6303 -0.0517 -0.5410
  424TMC3    C4 6324   0.993   4.412  17.458 -0.3017 -0.2879 -0.4543
  424TMC3    C5 6325   0.979   4.460  17.587 -0.3391 -1.0927  0.8243
  424TMC3    C6 6326   0.992   4.378   0.012 -0.0485  1.0908 -0.2189
  424TMC3     C 6327   0.987   4.222  17.312 -0.0370  0.1025 -1.0448
  424TMC3     O 6328   0.986   4.289  17.210 -0.0095 -0.2851 -0.3185
  424TMC3     H 6329   1.089   4.100  17.529  0.1640  0.2234 -0.9697
  424TMC3    H1 6330   0.964   4.471  17.371 -0.3390 -0.2747 -0.4330
  424TMC3    H2 6331   0.994   4.422   0.111  0.6775  0.5968 -0.0163
  424TMC3    C7 6332   0.873   4.554  17.601  0.2471  0.6526 -0.1084
  424TMC3    C8 6333   1.139   4.198   0.085  0.2411 -0.7565 -0.1787
  424TMC3    O1 6334   0.832   4.594  17.495  0.7093 -0.5137 -0.0188
  424TMC3    O2 6335   1.123   4.225   0.202 -0.1907 -0.2271 -0.5597
  425MPD2     C 6336   3.939   3.103  17.645  0.2719 -0.3975  0.9559
  425MPD2    C1 6337   3.890   2.972  17.632  0.9006 -0.1435  0.0265
  425MPD2    C2 6338   3.750   2.962  17.661  0.0652 -0.1321  0.2916
  425MPD2    C3 6339   3.670   3.073   0.003  1.2461 -0.3329 -0.2159
  425MPD2    C4 6340   3.720   3.201   0.005 -1.1510 -0.2058  0.7302
  425MPD2    C5 6341   3.853   3.212  17.663 -0.1734 -0.4984  0.4533
  425MPD2     H 6342   3.710   2.861  17.668  0.3817 -0.2847 -0.1277
  425MPD2    H1 6343   3.661   3.291   0.018  2.5102  2.1468  1.0198
  425MPD2    H2 6344   4.043   3.129  17.637  0.2281 -0.7292 -0.7169
  425MPD2    H3 6345   3.891   3.313  17.657 -0.5526 -0.5147 -2.1786
  425MPD2     N 6346   3.529   3.055   0.007  0.9092 -0.0710 -0.3250
  425MPD2    H5 6347   3.513   2.956  17.674 -0.2023 -0.2385  2.1719
  425MPD2    N1 6348   3.976   2.863  17.599  0.3159  0.3134 -0.5323
  425MPD2    H7 6349   4.073   2.888  17.584  0.2528  0.7234 -0.2626
  426TMC3    C1 6350   4.047   2.640  17.535  1.0629 -0.4211  0.2905
  426TMC3    C2 6351   3.998   2.538  17.447 -0.0099  0.0587 -0.6822
  426TMC3    C3 6352   4.088   2.454  17.396 -0.1569 -0.7131 -0.3251
  426TMC3    C4 6353   4.182   2.660  17.557  0.4333  0.3015  0.1663
  426TMC3    C5 6354   4.266   2.577  17.487  0.0040  0.0314  0.2658
  426TMC3    C6 6355   4.216   2.478  17.416  0.6942 -0.3942 -0.9414
  426TMC3     C 6356   3.939   2.732  17.580 -0.0915  0.4409  0.0402
  426TMC3     O 6357   3.830   2.676  17.583 -0.4651  0.1468 -0.7543
  426TMC3     H 6358   3.893   2.528  17.422  0.0410  0.1308 -0.9253
  426TMC3    H1 6359   4.229   2.747  17.602  0.9715  0.0256  0.1370
  426TMC3    H2 6360   4.280   2.397  17.381  0.2089 -0.7624 -0.9709
  426TMC3    C7 6361   4.401   2.553  17.539 -0.3752 -0.4532 -0.3184
  426TMC3    C8 6362   4.060   2.363  17.287  0.2630  0.6139 -0.1606
  426TMC3    O1 6363   4.451   2.455  17.491  0.4204  0.4209  0.1682
  426TMC3    O2 6364   4.148   2.341  17.202 -0.2141 -0.0300 -0.2535
  427MPD2     C 6365   2.551   0.640  15.016  0.2012  0.0094  0.7189
  427MPD2    C1 6366   2.514   0.544  15.119  0.1652 -0.6373  0.6218
  427MPD2    C2 6367   2.385   0.547  15.172 -0.6370 -0.5015  0.2683
  427MPD2    C3 6368   2.297   0.645  15.119 -0.7177 -0.4513 -0.1621
  427MPD2    C4 6369   2.341   0.727  15.021  0.2844 -0.2859 -0.7392
  427MPD2    C5 6370   2.465   0.726  14.970 -0.6253 -0.2728  0.0958
  427MPD2     H 6371   2.349   0.491  15.258 -1.1444  1.2806  1.2275
  427MPD2    H1 6372   2.266   0.798  14.988 -0.4054 -1.5060 -1.7490
  427MPD2    H2 6373   2.652   0.646  14.977  0.0391  0.1450  0.3143
  427MPD2    H3 6374   2.485   0.795  14.889 -2.2375 -0.8212 -0.7633
  427MPD2     N 6375   2.163   0.658  15.155 -0.0461  0.6646 -0.3600
  427MPD2    H5 6376   2.108   0.731  15.109 -1.1586  1.2342  1.8724
  427MPD2    N1 6377   2.611   0.452  15.171  0.2037  0.2405 -0.2336
  427MPD2    H7 6378   2.576   0.385  15.240  0.1475  1.3823  0.8572
  428TMC3    C1 6379   2.818   0.355  15.223  0.1388  0.5843  0.4435
  428TMC3    C2 6380   2.756   0.245  15.276  0.1653 -0.4363 -0.4658
  428TMC3    C3 6381   2.807   0.186  15.388 -0.1321 -0.0656  1.0399
  428TMC3    C4 6382   2.936   0.398  15.269  0.3116 -0.5904  0.2154
  428TMC3    C5 6383   2.993   0.326  15.364  0.1939  0.1051 -1.0047
  428TMC3    C6 6384   2.930   0.223  15.428  0.0771 -0.0103 -0.7966
  428TMC3     C 6385   2.746   0.445  15.143 -0.0920  0.6762  0.1170
  428TMC3     O 6386   2.810   0.497  15.053  0.3288 -0.6800  0.4715
  428TMC3     H 6387   2.669   0.204  15.227  0.0235 -1.4297  0.6164
  428TMC3    H1 6388   2.965   0.500  15.251 -0.7502 -0.3213  0.0246
  428TMC3    H2 6389   2.985   0.166  15.502  0.7444  0.9749 -0.5256
  428TMC3    C7 6390   3.098   0.391  15.444  0.2373  0.5800 -0.2480
  428TMC3    C8 6391   2.769   0.047  15.415 -0.3138 -0.2994 -0.3419
  428TMC3    O1 6392   3.100   0.384  15.570 -0.3059  0.2118 -0.8050
  428TMC3    O2 6393   2.866   4.696  15.433  0.3136  0.7381  0.1017
  429MPD2     C 6394   3.511   0.647   0.025  0.0060  0.2258  0.6343
  429MPD2    C1 6395   3.597   0.562  17.637 -0.3287  0.2126 -0.2706
  429MPD2    C2 6396   3.696   0.619  17.563 -0.9361  0.8098 -0.1587
  429MPD2    C3 6397   3.713   0.758  17.563  0.7737 -0.0012 -0.4924
  429MPD2    C4 6398   3.627   0.841  17.628 -0.2745 -0.6805  0.4104
  429MPD2    C5 6399   3.534   0.787   0.022  0.1319  0.0510  0.2024
  429MPD2     H 6400   3.737   0.544  17.496  1.3687  0.5990  1.5110
  429MPD2    H1 6401   3.631   0.950  17.628  0.7445 -0.7177 -0.9905
  429MPD2    H2 6402   3.426   0.606   0.077 -0.5994 -0.9503 -1.2718
  429MPD2    H3 6403   3.477   0.843   0.095  0.8930  0.9210  0.1281
  429MPD2     N 6404   3.822   0.807  17.490  1.0229  0.0303  0.2018
  429MPD2    H5 6405   3.863   0.737  17.428 -2.3901 -1.2712 -0.5495
  429MPD2    N1 6406   3.595   0.419  17.644 -0.2797 -0.2509  0.0618
  429MPD2    H7 6407   3.675   0.373  17.602 -0.5556  0.1658 -0.9108
  430TMC3    C1 6408   3.957   0.958  17.373  0.1936  0.4235 -0.2695
  430TMC3    C2 6409   3.927   1.042  17.269 -0.7735  0.4863  0.3994
  430TMC3    C3 6410   3.997   1.047  17.149 -0.7477 -0.4878 -0.2050
  430TMC3    C4 6411   4.049   0.864  17.350  0.1156  0.0712  0.2394
  430TMC3    C5 6412   4.116   0.863  17.233 -0.2085  0.0062 -0.1768
  430TMC3    C6 6413   4.088   0.949  17.129  0.5110  0.2300 -0.0194
  430TMC3     C 6414   3.849   0.938  17.467  0.1502  0.7073 -0.0777
  430TMC3     O 6415   3.791   1.040  17.502 -0.0791  0.4170 -0.6189
  430TMC3     H 6416   3.837   1.103  17.274 -0.5598  0.8890 -0.7003
  430TMC3    H1 6417   4.072   0.783  17.418  0.7087  1.6715  1.9472
  430TMC3    H2 6418   4.115   0.935  17.025 -0.4464  0.0479 -0.2384
  430TMC3    C7 6419   4.143   0.730  17.190  0.0762 -0.3107 -0.7112
  430TMC3    C8 6420   3.914   1.089  17.034  0.0470 -0.1336 -0.1080
  430TMC3    O1 6421   4.098   0.634  17.252  0.7435 -0.5314 -0.1328
  430TMC3    O2 6422   3.946   1.043  16.925  0.0354 -0.6640  0.4509
  431MPD2     C 6423   4.371   0.685  12.788 -0.5472  0.9122 -0.0193
  431MPD2    C1 6424   4.478   0.689  12.702  0.5999  0.8123  1.0658
  431MPD2    C2 6425   4.471   0.620  12.580 -0.9252  0.2970 -0.4072
  431MPD2    C3 6426   4.353   0.554  12.550  0.4420 -0.8081  0.6555
  431MPD2    C4 6427   4.255   0.543  12.647  0.3173  0.2922  0.4272
  431MPD2    C5 6428   4.271   0.599  12.771 -0.0087  0.5251 -0.6003
  431MPD2     H 6429   4.564   0.611  12.525 -1.4951  1.8984 -1.6215
  431MPD2    H1 6430   4.166   0.482  12.631  1.9638 -2.3841  1.5291
  431MPD2    H2 6431   4.378   0.738  12.883  0.3732  0.8519 -0.0505
  431MPD2    H3 6432   4.200   0.583  12.851  0.0503  1.8350 -0.2866
  431MPD2     N 6433   4.335   0.479  12.433 -0.4737 -0.3470 -0.1811
  431MPD2    H5 6434   4.258   0.413  12.446 -1.3716  1.3544  3.1075
  431MPD2    N1 6435   4.601   0.748  12.738  0.4471  0.5522  0.1673
  431MPD2    H7 6436   4.672   0.761  12.667  1.8653 -2.3796  1.0483
  432TMC3    C1 6437   4.395   0.381  12.238 -0.4184 -0.3656 -0.8255
  432TMC3    C2 6438   4.413   0.396  12.100  0.5235 -0.1134 -0.6570
  432TMC3    C3 6439   4.397   0.280  12.019  0.4179 -0.0343 -0.1282
  432TMC3    C4 6440   4.362   0.264  12.296 -0.2835  0.4449 -0.4043
  432TMC3    C5 6441   4.336   0.155  12.211 -0.8809  0.4274  0.8239
  432TMC3    C6 6442   4.365   0.165  12.078  0.0807 -0.4002  0.1438
  432TMC3     C 6443   4.399   0.500  12.315 -0.4809 -0.1508 -0.2708
  432TMC3     O 6444   4.483   0.579  12.273  0.0927  0.0728  0.1502
  432TMC3     H 6445   4.446   0.487  12.052 -0.8743  0.1848 -1.0617
  432TMC3    H1 6446   4.359   0.255  12.404 -2.0872 -1.3993 -0.6038
  432TMC3    H2 6447   4.350   0.076  12.017 -0.8581 -0.9442  1.1475
  432TMC3    C7 6448   4.365   0.025  12.277 -0.3536 -0.1339 -0.1099
  432TMC3    C8 6449   4.468   0.282  11.889 -0.7960 -0.3331 -0.5932
  432TMC3    O1 6450   4.381   4.654  12.200  0.4546 -0.9289 -0.1746
  432TMC3    O2 6451   4.463   0.385  11.829 -0.2774 -0.2858 -0.2613
  433MPD2     C 6452   3.584   3.501  10.547 -0.5162  0.6657  0.2372
  433MPD2    C1 6453   3.513   3.445  10.650  0.2614  0.2276  0.6322
  433MPD2    C2 6454   3.543   3.490  10.778 -0.1340  0.3603  0.4355
  433MPD2    C3 6455   3.636   3.591  10.810  0.0653  0.2251 -0.3754
  433MPD2    C4 6456   3.717   3.637  10.707 -0.4407  0.6062 -0.2808
  433MPD2    C5 6457   3.686   3.593  10.582  0.1189  0.1983  0.4350
  433MPD2     H 6458   3.490   3.458  10.867  0.9537 -2.0969  0.2221
  433MPD2    H1 6459   3.810   3.690  10.716 -0.8176  1.1593  0.3323
  433MPD2    H2 6460   3.585   3.475  10.442  1.2072  0.6853  0.2359
  433MPD2    H3 6461   3.751   3.622  10.500 -0.7025  1.5093  0.2552
  433MPD2     N 6462   3.670   3.632  10.940 -0.3939 -0.0568 -0.3251
  433MPD2    H5 6463   3.631   3.581  11.018  1.2976 -1.3790 -0.3457
  433MPD2    N1 6464   3.448   3.327  10.628  0.6217  0.1787 -0.1521
  433MPD2    H7 6465   3.472   3.290  10.537 -2.4475  0.4573 -1.0890
  434TMC3    C1 6466   3.379   3.116  10.684  0.2733 -0.1173  0.0186
  434TMC3    C2 6467   3.398   3.037  10.796  0.0166  0.1060 -0.9559
  434TMC3    C3 6468   3.448   2.909  10.775  0.1591 -0.2941  0.3914
  434TMC3    C4 6469   3.382   3.067  10.560  0.2091 -0.4236  0.0139
  434TMC3    C5 6470   3.420   2.937  10.544  0.2294  1.3890 -0.1368
  434TMC3    C6 6471   3.462   2.864  10.649  0.2232  0.4931 -0.4853
  434TMC3     C 6472   3.383   3.254  10.720 -0.2087 -0.4369 -0.3609
  434TMC3     O 6473   3.332   3.289  10.826 -0.1847 -0.3652 -0.2176
  434TMC3     H 6474   3.408   3.079  10.895 -0.4332 -0.9245 -0.4777
  434TMC3    H1 6475   3.369   3.131  10.474 -1.4876  1.5772  1.7606
  434TMC3    H2 6476   3.487   2.760  10.630 -1.7680 -0.1268  0.2893
  434TMC3    C7 6477   3.466   2.904  10.413  0.1611 -0.0185 -0.1307
  434TMC3    C8 6478   3.545   2.853  10.870 -0.9503  0.3637  0.2232
  434TMC3    O1 6479   3.409   2.957  10.317  0.6915  0.5018  0.6156
  434TMC3    O2 6480   3.573   2.922  10.964 -0.1285  0.3781 -0.4544
  435MPD2     C 6481   0.784   4.207  15.432 -0.0284  0.4335 -0.2350
  435MPD2    C1 6482   0.737   4.142  15.544 -0.2650 -0.0062 -0.1351
  435MPD2    C2 6483   0.809   4.043  15.598 -0.3469  0.4264 -0.3958
  435MPD2    C3 6484   0.919   3.996  15.542 -0.0642 -0.3991 -0.1250
  435MPD2    C4 6485   0.966   4.044  15.426 -0.1740 -0.4558 -0.3743
  435MPD2    C5 6486   0.900   4.156  15.374  0.1346  0.2687 -0.1969
  435MPD2     H 6487   0.783   3.995  15.691  0.3722 -1.4919 -1.1929
  435MPD2    H1 6488   1.054   4.007  15.376 -0.2000 -1.0539  0.0308
  435MPD2    H2 6489   0.733   4.292  15.388 -0.8563 -0.0653 -0.2385
  435MPD2    H3 6490   0.926   4.191  15.274 -1.4418  2.2114  0.0833
  435MPD2     N 6491   0.981   3.886  15.595 -0.1294 -0.6147  0.5764
  435MPD2    H5 6492   0.940   3.838  15.674  1.3799 -1.8159  0.6250
  435MPD2    N1 6493   0.613   4.175  15.605  1.2367 -0.0251  0.1498
  435MPD2    H7 6494   0.575   4.102  15.664 -2.0961  1.2419 -0.3997
  436TMC3    C1 6495   0.248   4.208  15.792  0.5510 -0.2427  0.4572
  436TMC3    C2 6496   0.373   4.190  15.737 -0.2120  0.2455 -0.8900
  436TMC3    C3 6497   0.410   4.280  15.643 -0.1704  0.3859  0.0172
  436TMC3    C4 6498   0.154   4.302  15.756 -0.8811 -0.2759  0.0164
  436TMC3    C5 6499   0.200   4.388  15.657  0.3564  0.0058  0.0630
  436TMC3    C6 6500   0.324   4.380  15.606 -0.7226  0.4492 -0.1994
  436TMC3     C 6501   0.208   4.121  15.902  0.6205  0.4591 -0.5617
  436TMC3     O 6502   0.253   4.009  15.894  0.3388 -0.5150 -0.0800
  436TMC3     H 6503   0.439   4.122  15.790 -1.9481 -1.3949 -0.8232
  436TMC3    H1 6504   0.057   4.307  15.804 -1.1288  0.1702 -0.5311
  436TMC3    H2 6505   0.351   4.444  15.522 -1.2568 -0.4731 -1.0825
  436TMC3    C7 6506   0.111   4.491  15.597  0.0501 -0.2730 -0.3263
  436TMC3    C8 6507   0.537   4.288  15.585 -0.3973 -0.1923 -0.1850
  436TMC3    O1 6508   0.172   4.585  15.555  0.0099 -0.0663  0.0890
  436TMC3    O2 6509   0.563   4.384  15.512 -0.1262 -0.0088  0.2041
  437TMC3    C1 6510   3.769   0.988  13.309  0.3740  0.0770 -0.0755
  437TMC3    C2 6511   3.657   1.057  13.347  0.2011  0.0466 -0.4132
  437TMC3    C3 6512   3.611   1.150  13.261 -0.0686  0.3664  0.0534
  437TMC3    C4 6513   3.845   1.023  13.198 -0.0082 -0.4246  0.7863
  437TMC3    C5 6514   3.806   1.128  13.120  0.3172 -0.0716  0.5760
  437TMC3    C6 6515   3.686   1.191  13.151  0.6575 -0.6324  0.0599
  437TMC3     C 6516   3.802   0.857  13.379 -0.2757 -0.3591 -1.1312
  437TMC3     O 6517   3.713   0.783  13.412 -0.6790 -0.2683  0.0644
  437TMC3     H 6518   3.597   1.020  13.430  0.0238 -0.1000 -0.6077
  437TMC3    H1 6519   3.920   0.951  13.167  0.1123  0.7830 -1.7267
  437TMC3    H2 6520   3.658   1.282  13.099  2.7712  0.4353  0.7689
  437TMC3    C7 6521   3.886   1.183  13.017 -0.7520  0.4254 -0.5412
  437TMC3    C8 6522   3.475   1.191  13.266 -0.0567 -0.6142 -0.2636
  437TMC3    O1 6523   3.833   1.265  12.946 -0.1246  0.1433 -0.0476
  437TMC3    O2 6524   3.417   1.171  13.372 -0.9109  0.0345 -0.0517
  438MPD2     C 6525   1.444   1.491  16.904  0.1515  0.3663 -0.4656
  438MPD2    C1 6526   1.533   1.497  17.007 -0.6545 -0.7281  0.1521
  438MPD2    C2 6527   1.509   1.589  17.109 -0.2301 -0.0864  0.0983
  438MPD2    C3 6528   1.399   1.670  17.112 -0.4073 -0.3870  1.4026
  438MPD2    C4 6529   1.315   1.668  16.999  1.0199  1.0986 -0.4749
  438MPD2    C5 6530   1.341   1.585  16.898 -0.4952 -0.0913 -0.1907
  438MPD2     H 6531   1.581   1.590  17.190 -0.0288  0.3527 -0.0867
  438MPD2    H1 6532   1.225   1.727  17.005  0.5592  0.3620 -0.1355
  438MPD2    H2 6533   1.456   1.418  16.825  0.8219  0.2190 -0.2350
  438MPD2    H3 6534   1.276   1.562  16.814  0.4684 -2.1086 -0.3876
  438MPD2     N 6535   1.380   1.771  17.216 -0.3518  0.3699  0.5795
  438MPD2    H5 6536   1.297   1.828  17.206 -0.6686 -0.2983 -0.4882
  438MPD2    N1 6537   1.647   1.412  17.015  0.2085 -0.7326  0.1780
  438MPD2    H7 6538   1.696   1.421  17.104  1.3354 -0.9792 -0.4101
  439TMC3    C1 6539   1.814   1.249  16.947  0.1576  0.0734  0.2985
  439TMC3    C2 6540   1.879   1.216  16.830 -0.4883  0.6244  0.0656
  439TMC3    C3 6541   2.006   1.166  16.839  0.0602  0.9053  0.3492
  439TMC3    C4 6542   1.860   1.229  17.070  1.0282  0.1265  0.0543
  439TMC3    C5 6543   1.983   1.170  17.076 -0.0767  0.1966 -0.3723
  439TMC3    C6 6544   2.057   1.145  16.965  0.0319 -0.1799 -0.4470
  439TMC3     C 6545   1.682   1.316  16.918 -0.4191 -0.4803 -0.3225
  439TMC3     O 6546   1.626   1.298  16.811 -0.2454  0.0014 -0.4902
  439TMC3     H 6547   1.832   1.216  16.732 -2.5417  0.0827  1.0365
  439TMC3    H1 6548   1.799   1.243  17.158  1.2200  0.1632  0.1829
  439TMC3    H2 6549   2.155   1.100  16.974  0.1712  0.3094  0.4854
  439TMC3    C7 6550   2.041   1.124  17.204  0.0602  0.0924 -0.6537
  439TMC3    C8 6551   2.096   1.168  16.727  0.0640  0.1392  0.1915
  439TMC3    O1 6552   2.134   1.045  17.194 -0.3616  0.4100 -0.2918
  439TMC3    O2 6553   2.201   1.110  16.746  0.0211 -0.3263 -0.2364
  440MPD2     C 6554   0.327   2.372  14.824 -0.1910  0.2908  0.5446
  440MPD2    C1 6555   0.410   2.483  14.854 -0.2016  0.7452  0.1288
  440MPD2    C2 6556   0.537   2.455  14.893  0.0703  0.5744  0.1030
  440MPD2    C3 6557   0.581   2.323  14.888 -0.2080  0.6619  0.0694
  440MPD2    C4 6558   0.492   2.222  14.865  0.2419 -0.3259  0.7845
  440MPD2    C5 6559   0.362   2.246  14.829  0.3946 -0.0132  0.1642
  440MPD2     H 6560   0.603   2.537  14.921 -1.6915  2.3890 -1.1076
  440MPD2    H1 6561   0.523   2.118  14.873  0.5215 -0.3290 -0.2707
  440MPD2    H2 6562   0.221   2.387  14.804 -0.2926  1.9480  2.2957
  440MPD2    H3 6563   0.289   2.167  14.818  0.5832 -0.6046  3.0810
  440MPD2     N 6564   0.713   2.285  14.913  0.0198 -0.0468  0.2944
  440MPD2    H5 6565   0.744   2.194  14.880  0.8503  0.7915 -1.2710
  440MPD2    N1 6566   0.377   2.616  14.852  0.0615 -0.4499 -0.2104
  440MPD2    H7 6567   0.449   2.684  14.871 -1.6509  1.5106 -0.7463
  441TMC3    C1 6568   0.947   2.312  14.962  0.1889  0.6140  0.0288
  441TMC3    C2 6569   1.040   2.408  14.970 -0.1833 -0.5611 -0.1335
  441TMC3    C3 6570   1.129   2.401  15.069  0.3985 -0.1698  0.3898
  441TMC3    C4 6571   0.948   2.185  15.027  0.0321  0.7146 -0.2314
  441TMC3    C5 6572   1.046   2.178  15.124  0.2027  0.1261 -0.1997
  441TMC3    C6 6573   1.125   2.287  15.150  0.3100 -0.1785 -0.3492
  441TMC3     C 6574   0.810   2.375  14.949 -0.9028 -0.0900 -0.4445
  441TMC3     O 6575   0.817   2.496  14.965 -0.1932  0.1235 -0.6153
  441TMC3     H 6576   1.041   2.483  14.892  1.8070  0.2307  0.6565
  441TMC3    H1 6577   0.871   2.111  15.014  0.6091  0.1863 -0.6200
  441TMC3    H2 6578   1.197   2.280  15.231 -0.8535  2.0915  0.8887
  441TMC3    C7 6579   1.039   2.076  15.225 -0.0544 -0.3596 -0.4858
  441TMC3    C8 6580   1.156   2.522  15.141 -0.4454 -0.3711 -0.0208
  441TMC3    O1 6581   1.097   2.096  15.328  0.0793  0.0036  0.4542
  441TMC3    O2 6582   1.237   2.515  15.234 -0.9372  0.1153  0.1969
  442MPD2     C 6583   3.736   3.242  16.547  0.2770 -0.2751 -0.0872
  442MPD2    C1 6584   3.609   3.186  16.531  0.2848 -0.6516 -0.1508
  442MPD2    C2 6585   3.594   3.053  16.512 -0.3319 -0.2320  0.0827
  442MPD2    C3 6586   3.702   2.970  16.490  0.7328 -0.1516  0.2921
  442MPD2    C4 6587   3.832   3.028  16.510 -0.4576 -0.3048  0.2721
  442MPD2    C5 6588   3.845   3.159  16.552 -0.0078  0.4322  1.1483
  442MPD2     H 6589   3.499   3.000  16.504 -0.4338  0.2807 -2.0924
  442MPD2    H1 6590   3.923   2.969  16.518 -1.6828 -2.0597  1.2969
  442MPD2    H2 6591   3.743   3.350  16.557  0.5955 -0.1548 -1.5426
  442MPD2    H3 6592   3.946   3.196  16.567  0.5117  0.4906 -2.6805
  442MPD2     N 6593   3.680   2.833  16.452  0.1747  0.1112 -0.3372
  442MPD2    H5 6594   3.585   2.799  16.447 -0.1277  1.2786 -2.5600
  442MPD2    N1 6595   3.491   3.263  16.528  0.0494 -0.1339 -0.3302
  442MPD2    H7 6596   3.406   3.215  16.501  0.5097 -0.8733 -0.4583
  443TMC3    C1 6597   3.347   3.443  16.500 -0.2935  0.6708  0.8915
  443TMC3    C2 6598   3.286   3.392  16.390  0.1208 -0.4298 -0.2004
  443TMC3    C3 6599   3.174   3.445  16.344 -0.6391 -0.1403 -0.2007
  443TMC3    C4 6600   3.292   3.548  16.561  0.1845  0.2300  0.2663
  443TMC3    C5 6601   3.169   3.597  16.515  0.2297 -0.2047 -0.2731
  443TMC3    C6 6602   3.113   3.554  16.397  0.2730  0.2301  0.1337
  443TMC3     C 6603   3.479   3.397  16.549  0.3590 -0.8496 -0.3328
  443TMC3     O 6604   3.546   3.481  16.610 -0.1376  0.4332  0.2913
  443TMC3     H 6605   3.334   3.321  16.323 -1.9690 -1.3460 -0.7470
  443TMC3    H1 6606   3.340   3.583  16.652  1.5151  0.9555 -0.7134
  443TMC3    H2 6607   3.010   3.577  16.371  0.5770  1.1686 -0.2435
  443TMC3    C7 6608   3.071   3.613  16.624  0.3196 -0.4018  0.3130
  443TMC3    C8 6609   3.115   3.369  16.235 -0.4348 -0.3007 -0.2476
  443TMC3    O1 6610   3.080   3.520  16.701  0.2458 -0.3989  0.1554
  443TMC3    O2 6611   3.146   3.250  16.229 -0.6048 -0.0626 -0.0617
  444MPD2     C 6612   3.394   1.875  17.006  0.0090  0.3328 -0.7448
  444MPD2    C1 6613   3.440   1.837  17.135 -0.2283  0.0390  0.1252
  444MPD2    C2 6614   3.570   1.789  17.147 -0.2108  0.1380 -0.4175
  444MPD2    C3 6615   3.652   1.774  17.034 -0.3384  0.0635 -0.0555
  444MPD2    C4 6616   3.596   1.805  16.910 -0.0015 -0.8821  0.3988
  444MPD2    C5 6617   3.472   1.857  16.899  0.3866 -0.0475 -0.6239
  444MPD2     H 6618   3.604   1.766  17.247  0.4005 -1.6665 -1.0324
  444MPD2    H1 6619   3.652   1.804  16.818  0.0907 -0.7440  0.4534
  444MPD2    H2 6620   3.296   1.919  16.989  0.8081  1.0570 -3.5430
  444MPD2    H3 6621   3.440   1.886  16.800  1.6858 -0.4172 -1.1521
  444MPD2     N 6622   3.794   1.750  17.059  0.1721 -0.4650 -0.2715
  444MPD2    H5 6623   3.824   1.755  17.155 -0.0597  0.8662 -0.2734
  444MPD2    N1 6624   3.354   1.850  17.249  0.0783 -0.1636  0.1727
  444MPD2    H7 6625   3.382   1.793  17.329  0.2930 -1.8185 -1.0876
  445TMC3    C1 6626   4.004   1.663  17.007  0.5885 -0.3926  0.4205
  445TMC3    C2 6627   4.010   1.621  17.139 -0.2040 -0.6543 -0.8607
  445TMC3    C3 6628   4.127   1.571  17.189 -0.2059 -0.2367  0.3564
  445TMC3    C4 6629   4.113   1.669  16.926  0.6253 -0.3344 -0.1121
  445TMC3    C5 6630   4.236   1.632  16.989  0.6527 -1.0938  0.3507
  445TMC3    C6 6631   4.240   1.576  17.115 -0.0375 -0.2428 -0.4857
  445TMC3     C 6632   3.890   1.741  16.959  0.0188 -0.3469  0.4499
  445TMC3     O 6633   3.875   1.742  16.838  0.6233  0.4256  0.3255
  445TMC3     H 6634   3.921   1.597  17.195 -0.7139 -0.4338 -1.5864
  445TMC3    H1 6635   4.105   1.718  16.830 -2.2935  0.5439  0.5734
  445TMC3    H2 6636   4.323   1.520  17.156 -0.1228 -0.9768 -1.3368
  445TMC3    C7 6637   4.349   1.607  16.903  0.0381  0.9578 -0.2682
  445TMC3    C8 6638   4.118   1.511  17.316 -0.1731  0.2349 -0.0763
  445TMC3    O1 6639   4.326   1.610  16.783 -0.4226 -0.4882  0.2730
  445TMC3    O2 6640   4.029   1.542  17.394 -0.2008  0.0787  0.5030
  446MPD2     C 6641   3.485   2.735  11.422 -0.0948 -0.4330 -0.1827
  446MPD2    C1 6642   3.428   2.799  11.315 -0.8487 -1.0171  0.4807
  446MPD2    C2 6643   3.500   2.908  11.258  0.1374 -0.2688 -0.5656
  446MPD2    C3 6644   3.617   2.949  11.307 -0.1256  0.0630 -0.5926
  446MPD2    C4 6645   3.674   2.888  11.416  0.0599 -0.5713 -0.3397
  446MPD2    C5 6646   3.603   2.782  11.477 -0.4738 -0.4463 -0.2916
  446MPD2     H 6647   3.463   2.967  11.175  0.4985 -0.6116 -0.9670
  446MPD2    H1 6648   3.774   2.910  11.451 -0.5652 -0.9919  1.6885
  446MPD2    H2 6649   3.435   2.666  11.489  0.7850 -0.4927  0.4139
  446MPD2    H3 6650   3.652   2.734  11.561  2.6859  2.5522 -0.4036
  446MPD2     N 6651   3.687   3.032  11.217  0.2181  0.3421 -0.6357
  446MPD2    H5 6652   3.645   3.048  11.125 -1.5969 -0.1767  0.0975
  446MPD2    N1 6653   3.304   2.768  11.258  0.0250  0.1619  0.8160
  446MPD2    H7 6654   3.286   2.824  11.176  1.6659  0.5610  0.7152
  447TMC3    C1 6655   3.863   3.158  11.119 -0.5771 -0.0370 -0.0704
  447TMC3    C2 6656   3.779   3.185  11.011 -0.1318 -0.4109  0.7983
  447TMC3    C3 6657   3.815   3.273  10.920  0.2431  0.8450 -0.5538
  447TMC3    C4 6658   3.982   3.223  11.138  0.1844 -0.1865  0.2807
  447TMC3    C5 6659   4.017   3.310  11.038 -0.0453 -0.4079 -0.4905
  447TMC3    C6 6660   3.932   3.333  10.933  0.0123 -0.1506 -0.2982
  447TMC3     C 6661   3.813   3.091  11.239  0.5801 -0.3976 -0.4630
  447TMC3     O 6662   3.886   3.064  11.332 -0.5824  0.4949 -0.0814
  447TMC3     H 6663   3.677   3.147  11.004  0.1709 -0.9418 -0.8937
  447TMC3    H1 6664   4.047   3.197  11.220 -2.0185 -0.5445  1.9086
  447TMC3    H2 6665   3.936   3.426  10.877 -1.1478 -1.1159 -1.9940
  447TMC3    C7 6666   4.158   3.337  11.007  0.1165  0.3074  0.6324
  447TMC3    C8 6667   3.795   3.228  10.786 -0.8207  0.5431 -0.3006
  447TMC3    O1 6668   4.177   3.330  10.886  0.0305  0.3412 -0.3498
  447TMC3    O2 6669   3.698   3.158  10.756  0.5003 -0.6235 -0.1373
  448TMC3    C1 6670   1.519   3.556  17.035 -0.3038 -0.3113 -0.5260
  448TMC3    C2 6671   1.555   3.431  16.995  0.1045 -0.1741  0.4424
  448TMC3    C3 6672   1.557   3.335  17.089 -0.1775  0.0042 -0.0556
  448TMC3    C4 6673   1.458   3.580  17.158 -0.9361  0.3249  0.1501
  448TMC3    C5 6674   1.472   3.479  17.250 -0.4119 -0.3664 -0.4089
  448TMC3    C6 6675   1.523   3.358  17.219 -0.2909  0.2192  0.2933
  448TMC3     C 6676   1.529   3.675  16.949  0.7257 -0.1468 -0.1478
  448TMC3     O 6677   1.478   3.777  16.997  0.0870  0.3118  0.8792
  448TMC3     H 6678   1.609   3.416  16.902 -1.4391  0.2802 -0.5170
  448TMC3    H1 6679   1.438   3.679  17.196 -0.7254  0.3972  0.0699
  448TMC3    H2 6680   1.520   3.272  17.284  1.2400 -1.0781 -1.3598
  448TMC3    C7 6681   1.436   3.508  17.389  0.1495 -0.2926  0.3110
  448TMC3    C8 6682   1.587   3.194  17.048 -0.3706 -1.2118  0.6648
  448TMC3    O1 6683   1.435   3.627  17.418  0.5943  0.2194  0.3965
  448TMC3    O2 6684   1.582   3.106  17.134  0.3646  0.1276  0.0101
  449MPD2     C 6685   2.937   1.359  13.934  0.8255 -0.6050  0.1773
  449MPD2    C1 6686   2.878   1.426  13.830  0.3892 -0.1020 -0.0230
  449MPD2    C2 6687   2.779   1.369  13.758 -0.3456 -0.4219 -0.0683
  449MPD2    C3 6688   2.728   1.245  13.792 -0.6181 -0.4030 -0.3631
  449MPD2    C4 6689   2.790   1.176  13.894 -0.1585  0.2146  0.2693
  449MPD2    C5 6690   2.899   1.229  13.956 -0.2654 -0.3940  0.4796
  449MPD2     H 6691   2.735   1.419  13.673 -1.1097  1.2079  1.2885
  449MPD2    H1 6692   2.761   1.077  13.928 -0.9093  0.1210 -0.6423
  449MPD2    H2 6693   3.011   1.404  13.999  0.6672 -1.4983  0.9669
  449MPD2    H3 6694   2.955   1.180  14.035  0.0029 -0.1659  0.4327
  449MPD2     N 6695   2.622   1.199  13.713 -0.1583 -0.4378  0.4468
  449MPD2    H5 6696   2.594   1.252  13.632 -2.0622 -2.7127 -0.3967
  449MPD2    N1 6697   2.910   1.558  13.796 -0.3451  0.0014  1.0443
  449MPD2    H7 6698   2.839   1.597  13.735  0.7818  1.1286  0.4566
  450TMC3    C1 6699   3.011   1.768  13.788 -0.2276  1.1461 -0.2175
  450TMC3    C2 6700   3.096   1.768  13.686  0.3203  0.0423  0.0642
  450TMC3    C3 6701   3.071   1.834  13.572 -0.1223  0.5520  0.4836
  450TMC3    C4 6702   2.887   1.812  13.768 -0.0900  0.4116 -0.3286
  450TMC3    C5 6703   2.850   1.864  13.645  0.4186  0.6948  0.6485
  450TMC3    C6 6704   2.944   1.880  13.549 -0.2544 -0.4128  0.0126
  450TMC3     C 6705   3.013   1.641  13.850  0.4795  0.2641  0.0881
  450TMC3     O 6706   3.114   1.607  13.914  0.0626 -0.1773 -0.0288
  450TMC3     H 6707   3.191   1.721  13.707  0.3561  0.5761  1.0871
  450TMC3    H1 6708   2.814   1.803  13.848 -3.0203  0.0820 -3.0482
  450TMC3    H2 6709   2.924   1.952  13.471  0.4904  1.7239  1.7790
  450TMC3    C7 6710   2.735   1.804  13.601  0.2133  0.2201 -0.4274
  450TMC3    C8 6711   3.160   1.837  13.453 -0.3287 -0.6243 -0.6217
  450TMC3    O1 6712   2.707   1.706  13.669 -0.5137 -0.1274 -0.4818
  450TMC3    O2 6713   3.121   1.903  13.360  0.8358 -0.3961  0.0680
  451MPD2     C 6714   3.942   0.140   1.623 -0.2101 -0.5235  0.3069
  451MPD2    C1 6715   3.992   0.226   1.522 -1.1442 -0.2746  1.0501
  451MPD2    C2 6716   4.120   0.200   1.467  0.0981 -0.4777 -0.1686
  451MPD2    C3 6717   4.181   0.086   1.505 -0.2433 -0.7221  0.1428
  451MPD2    C4 6718   4.139   0.005   1.607 -0.7277  0.0414 -0.0596
  451MPD2    C5 6719   4.015   0.030   1.659 -0.4497 -0.7205 -0.2202
  451MPD2     H 6720   4.160   0.266   1.391  0.1682 -0.0663  0.2245
  451MPD2    H1 6721   4.197   4.638   1.637 -0.1965  0.9110  1.4679
  451MPD2    H2 6722   3.844   0.141   1.670 -0.0949 -1.2840  0.5689
  451MPD2    H3 6723   3.974   4.687   1.738 -1.3664  1.4150  0.9770
  451MPD2     N 6724   4.297   0.047   1.439  0.1407  0.0232 -0.0930
  451MPD2    H5 6725   4.355   4.689   1.469 -3.2647 -2.9540 -1.1501
  451MPD2    N1 6726   3.912   0.339   1.490 -0.4064 -0.9493 -0.4032
  451MPD2    H7 6727   3.831   0.358   1.547  0.7329  0.5716  0.7100
  452TMC3    C1 6728   4.486   0.048   1.292 -0.3411  0.2658  0.4815
  452TMC3    C2 6729   4.529   4.653   1.357 -0.5147  0.2799  0.3327
  452TMC3    C3 6730   4.663   4.626   1.339  0.1680  0.4266  0.0383
  452TMC3    C4 6731   4.549   0.105   1.186  0.0984  0.6748  0.2129
  452TMC3    C5 6732   4.677   0.062   1.164 -0.1221 -0.2568  0.0562
  452TMC3    C6 6733   0.018   4.695   1.249  0.1842  0.7341 -0.3320
  452TMC3     C 6734   4.356   0.102   1.327  0.1955 -0.2134  0.2714
  452TMC3     O 6735   4.317   0.189   1.252  0.7035 -0.3743  0.2251
  452TMC3     H 6736   4.485   4.608   1.445  0.2163 -0.6051  0.2495
  452TMC3    H1 6737   4.507   0.188   1.130 -0.1481  0.5205  0.1694
  452TMC3    H2 6738   0.122   4.670   1.235  0.8306  2.9424  0.5105
  452TMC3    C7 6739   0.029   0.116   1.051  0.1957 -0.0928  0.7213
  452TMC3    C8 6740   0.013   4.519   1.408 -0.0556 -0.2633 -0.0168
  452TMC3    O1 6741   4.694   0.207   0.994 -0.5317  0.5099 -0.4082
  452TMC3    O2 6742   0.046   4.425   1.336 -0.1533 -0.3593  0.2281
  453TMC3    C1 6743   1.186   2.022  11.337 -0.2042  0.1433 -0.1466
  453TMC3    C2 6744   1.086   2.001  11.420  0.2162  0.2336 -0.5051
  453TMC3    C3 6745   0.969   1.963  11.366  0.1106 -0.4358 -0.4404
  453TMC3    C4 6746   1.177   2.008  11.198 -0.4242 -0.2777 -0.1547
  453TMC3    C5 6747   1.063   1.955  11.152 -0.1146  0.1248  0.2309
  453TMC3    C6 6748   0.954   1.931  11.238 -1.0551 -0.4474  0.0972
  453TMC3     C 6749   1.315   2.052  11.389  0.1986 -0.5157  0.5093
  453TMC3     O 6750   1.387   2.133  11.334  0.1214 -0.2650 -0.1249
  453TMC3     H 6751   1.087   2.029  11.524 -0.7717 -2.2181  0.1572
  453TMC3    H1 6752   1.256   2.032  11.126 -0.9756  4.1270  0.6766
  453TMC3    H2 6753   0.861   1.883  11.209 -0.9495 -0.7299  0.2291
  453TMC3    C7 6754   1.046   1.913  11.016  0.0444  0.0984 -0.3395
  453TMC3    C8 6755   0.863   1.937  11.459  0.7974 -0.1270 -0.6262
  453TMC3    O1 6756   0.927   1.900  10.979  0.2464  0.1065 -0.3453
  453TMC3    O2 6757   0.747   1.971  11.436 -0.6201  0.2900  0.1320
  454MPD2     C 6758   4.186   2.599  15.891 -0.0044  0.6276 -0.2202
  454MPD2    C1 6759   4.231   2.466  15.872 -0.6944 -0.0814  0.1682
  454MPD2    C2 6760   4.209   2.383  15.977  0.0205 -0.0016 -0.2582
  454MPD2    C3 6761   4.159   2.427  16.101  0.1605  0.3951 -0.1115
  454MPD2    C4 6762   4.124   2.563  16.119 -0.0015  0.4684  0.2596
  454MPD2    C5 6763   4.135   2.647  16.011 -0.0627  0.0983  0.5016
  454MPD2     H 6764   4.221   2.276  15.963 -0.8305  0.3737 -3.7529
  454MPD2    H1 6765   4.078   2.606  16.207  0.2270  2.4901 -0.6129
  454MPD2    H2 6766   4.187   2.661  15.802 -1.6723  1.1828  0.1590
  454MPD2    H3 6767   4.093   2.746  16.025  1.1399  0.5156  1.2218
  454MPD2     N 6768   4.130   2.334  16.205 -1.0023 -0.4442  0.3406
  454MPD2    H5 6769   4.158   2.239  16.181  2.1347  0.4446  0.5681
  454MPD2    N1 6770   4.290   2.442  15.748 -0.5785  0.0343 -0.2882
  454MPD2    H7 6771   4.298   2.526  15.692  2.6758  1.1517  1.8235
  455TMC3    C1 6772   4.036   2.255  16.413  0.0825  0.1815 -0.5681
  455TMC3    C2 6773   4.031   2.292  16.542  0.1428 -0.3766 -0.0673
  455TMC3    C3 6774   4.005   2.188  16.634 -0.6614 -0.4075  0.0009
  455TMC3    C4 6775   3.997   2.129  16.366 -0.9760  0.2446 -0.4988
  455TMC3    C5 6776   3.952   2.041  16.462 -0.1576  0.4947 -0.4893
  455TMC3    C6 6777   3.965   2.058  16.601  0.0221 -0.3054 -0.1647
  455TMC3     C 6778   4.083   2.366  16.332  0.4316  0.0855  0.2049
  455TMC3     O 6779   4.064   2.476  16.380  0.4049 -0.5287 -0.0865
  455TMC3     H 6780   4.070   2.384  16.584 -1.6075  1.4623 -2.4905
  455TMC3    H1 6781   4.006   2.115  16.259  3.3344 -2.5122  0.2082
  455TMC3    H2 6782   3.947   1.977  16.671  0.2437  0.1823  0.4545
  455TMC3    C7 6783   3.935   1.907  16.412  0.5063  1.0405  0.2019
  455TMC3    C8 6784   3.982   2.233  16.770 -0.0876  0.3617 -0.0496
  455TMC3    O1 6785   3.970   1.888  16.296 -0.1286  0.0719 -0.3732
  455TMC3    O2 6786   4.050   2.322  16.817 -0.2588  0.2695 -0.4387
  456MPD2     C 6787   2.148   1.853  16.655  0.1211  0.8503 -0.1241
  456MPD2    C1 6788   2.248   1.927  16.712  0.7634  0.0494  0.0082
  456MPD2    C2 6789   2.218   2.034  16.790 -0.5592 -0.3245  1.0825
  456MPD2    C3 6790   2.080   2.063  16.813  0.1173 -0.3925  0.7173
  456MPD2    C4 6791   1.988   1.977  16.764  0.2540  0.1106  0.1765
  456MPD2    C5 6792   2.021   1.877  16.676  0.0012 -0.1614 -0.2963
  456MPD2     H 6793   2.294   2.101  16.828 -0.7824  1.1545 -1.0895
  456MPD2    H1 6794   1.884   1.984  16.793  0.3772 -0.4698  0.7526
  456MPD2    H2 6795   2.180   1.773  16.589  0.0696  2.3154 -1.9253
  456MPD2    H3 6796   1.950   1.802  16.644  0.6131 -0.9457  0.1474
  456MPD2     N 6797   2.056   2.175  16.897  0.0253 -0.2608 -0.1004
  456MPD2    H5 6798   2.138   2.221  16.935 -0.1338  1.4525 -1.8331
  456MPD2    N1 6799   2.384   1.889  16.674  0.0293  0.6583 -0.1571
  456MPD2    H7 6800   2.403   1.823  16.599 -1.3401 -1.6799  1.5734
  457TMC3    C1 6801   1.954   2.360  17.002 -0.1404  0.6211  0.4311
  457TMC3    C2 6802   1.890   2.473  16.957 -0.4489 -0.5107  0.0131
  457TMC3    C3 6803   1.894   2.587  17.035 -0.1097 -0.1088 -1.0395
  457TMC3    C4 6804   2.029   2.355  17.116  0.3373 -0.3812  0.9044
  457TMC3    C5 6805   2.021   2.465  17.195  0.5452 -0.3171 -0.0429
  457TMC3    C6 6806   1.954   2.577  17.162 -0.3037 -0.0816  0.4131
  457TMC3     C 6807   1.937   2.241  16.920 -0.3948 -0.9099  0.1872
  457TMC3     O 6808   1.832   2.218  16.856 -0.1100 -0.1027  0.0542
  457TMC3     H 6809   1.835   2.478  16.864 -1.9410  0.3847  0.9482
  457TMC3    H1 6810   2.077   2.261  17.143  2.2643  0.4498  0.3759
  457TMC3    H2 6811   1.958   2.648  17.244  2.5786  0.2210  0.0363
  457TMC3    C7 6812   2.127   2.475  17.293 -0.3720 -0.0447  0.7112
  457TMC3    C8 6813   1.824   2.704  17.001  0.3787 -0.5682 -0.3544
  457TMC3    O1 6814   2.157   2.373  17.354 -0.5762  0.4924  0.5933
  457TMC3    O2 6815   1.804   2.781  17.094  0.7204 -0.1806 -0.0811
  458MPD2     C 6816   4.326   1.260  12.763  1.1814 -0.8855  0.8952
  458MPD2    C1 6817   4.354   1.208  12.878  0.0568  0.3402 -0.4386
  458MPD2    C2 6818   4.255   1.177  12.967  0.0744 -0.0140 -0.0461
  458MPD2    C3 6819   4.123   1.198  12.935 -0.5194 -0.4438  0.6696
  458MPD2    C4 6820   4.098   1.250  12.809  0.5726  0.8541  0.3977
  458MPD2    C5 6821   4.200   1.277  12.719  0.0611  0.1497 -0.3282
  458MPD2     H 6822   4.275   1.136  13.065  2.7690  0.4610 -0.3948
  458MPD2    H1 6823   3.999   1.254  12.765 -0.2262  0.5734  2.1712
  458MPD2    H2 6824   4.409   1.283  12.697  0.8872 -0.4749  0.6738
  458MPD2    H3 6825   4.173   1.301  12.617  0.1473  1.0537 -0.1473
  458MPD2     N 6826   4.022   1.150  13.026 -1.0202  0.2173  0.1397
  458MPD2    H5 6827   4.054   1.086  13.098  0.9405  1.6631  0.5689
  458MPD2    N1 6828   4.490   1.194  12.915 -0.0476 -0.0345 -0.0868
  458MPD2    H7 6829   4.552   1.234  12.845  0.9603 -1.5694 -0.0935
  459TMC3    C1 6830   4.682   1.129  13.060  0.1158  0.1014  0.0508
  459TMC3    C2 6831   0.055   1.185  12.971  0.1738  0.5435  0.3354
  459TMC3    C3 6832   0.192   1.190  13.006 -0.2652  0.5629  0.2304
  459TMC3    C4 6833   0.006   1.077  13.180  0.0052  0.0220 -0.1689
  459TMC3    C5 6834   0.136   1.089  13.213 -0.0353 -0.1052 -0.1032
  459TMC3    C6 6835   0.232   1.136  13.126 -0.0673 -0.4720  0.3893
  459TMC3     C 6836   4.540   1.127  13.030  0.7130  0.8037  0.5261
  459TMC3     O 6837   4.475   1.071  13.119  0.1610  0.6964  0.7557
  459TMC3     H 6838   0.024   1.233  12.879  1.6506 -0.2332 -0.5608
  459TMC3    H1 6839   4.655   1.044  13.255 -1.1166  0.6115 -0.9418
  459TMC3    H2 6840   0.337   1.121  13.151 -0.3023  1.2333  2.4270
  459TMC3    C7 6841   0.179   1.010  13.322  0.0882  0.1394 -0.0367
  459TMC3    C8 6842   0.299   1.219  12.906  0.1324 -0.2067 -0.0429
  459TMC3    O1 6843   0.097   0.924  13.353 -0.3047  0.8929 -0.0822
  459TMC3    O2 6844   0.409   1.265  12.943 -0.2569 -0.2883  0.3261
  460MPD2     C 6845   4.054   3.220  10.524  0.0514  0.0415 -0.4070
  460MPD2    C1 6846   3.923   3.224  10.572  0.0355 -0.1805 -0.6298
  460MPD2    C2 6847   3.819   3.224  10.487 -0.5221  0.0799 -0.7440
  460MPD2    C3 6848   3.835   3.208  10.353 -0.3025  0.4003  0.3589
  460MPD2    C4 6849   3.964   3.218  10.301 -0.1935 -0.2954 -0.1058
  460MPD2    C5 6850   4.071   3.227  10.387 -0.4661 -0.2537  0.0342
  460MPD2     H 6851   3.723   3.246  10.532 -0.2394  2.0932 -1.1559
  460MPD2    H1 6852   3.973   3.205  10.194 -0.6942 -1.0791 -0.0553
  460MPD2    H2 6853   4.142   3.222  10.588 -2.2821 -0.4001  2.7773
  460MPD2    H3 6854   4.170   3.225  10.342  0.1755  0.2018  1.4224
  460MPD2     N 6855   3.728   3.183  10.260 -0.7004 -0.3044 -0.7036
  460MPD2    H5 6856   3.754   3.177  10.162  1.8255 -0.6020 -0.0192
  460MPD2    N1 6857   3.909   3.247  10.712  0.4105  0.8368 -0.2964
  460MPD2    H7 6858   3.992   3.283  10.759 -1.1902  3.4399  0.5686
  461TMC3    C1 6859   3.528   3.185  10.150 -0.1653  0.5682  0.3418
  461TMC3    C2 6860   3.570   3.080  10.070  0.1858 -0.2450 -0.6112
  461TMC3    C3 6861   3.492   3.040   9.970  0.2240  0.2632 -0.5805
  461TMC3    C4 6862   3.412   3.259  10.121  0.1430 -0.2267  0.0601
  461TMC3    C5 6863   3.345   3.217  10.007  0.1455 -0.3890  0.2717
  461TMC3    C6 6864   3.378   3.106   9.932 -0.3187 -0.1485  1.0395
  461TMC3     C 6865   3.594   3.194  10.278 -0.1363 -0.2294  0.0793
  461TMC3     O 6866   3.534   3.238  10.371 -0.2016  0.1465  0.3599
  461TMC3     H 6867   3.660   3.026  10.096  1.0684  0.9387 -1.1906
  461TMC3    H1 6868   3.370   3.328  10.193 -0.5079 -0.9669  0.4044
  461TMC3    H2 6869   3.325   3.069   9.845  1.2731 -0.0981  0.0424
  461TMC3    C7 6870   3.255   3.316   9.949 -0.0369  0.6288  0.8242
  461TMC3    C8 6871   3.566   2.977   9.863 -0.1665  0.0907  0.1826
  461TMC3    O1 6872   3.249   3.423  10.006  0.7299  0.3436 -0.3941
  461TMC3    O2 6873   3.685   2.999   9.867  0.6006  0.6901  0.1284
  462TMC3    C1 6874   3.198   0.356   0.862  0.1194 -0.0284 -0.5679
  462TMC3    C2 6875   3.324   0.336   0.905  0.0966 -0.5746  1.0857
  462TMC3    C3 6876   3.396   0.229   0.865  0.1405  0.4358 -0.4712
  462TMC3    C4 6877   3.143   0.259   0.782 -0.4715  0.1932  0.7423
  462TMC3    C5 6878   3.210   0.142   0.767 -0.3099 -0.0326  0.2249
  462TMC3    C6 6879   3.342   0.126   0.802  0.0813  0.5762  0.0780
  462TMC3     C 6880   3.121   0.463   0.930 -0.3429  0.1916 -0.1307
  462TMC3     O 6881   3.183   0.535   1.010  0.1376 -0.4802  0.4123
  462TMC3     H 6882   3.380   0.419   0.948 -1.8139  0.3377  1.7805
  462TMC3    H1 6883   3.043   0.266   0.739 -0.4091  0.4675  0.6400
  462TMC3    H2 6884   3.389   0.028   0.795 -1.4484 -0.0930 -0.9193
  462TMC3    C7 6885   3.145   0.016   0.709  0.7319 -0.1643  0.4722
  462TMC3    C8 6886   3.536   0.255   0.837 -0.2943  0.5412 -0.2276
  462TMC3    O1 6887   3.211   4.635   0.696 -0.5979 -0.3423  0.0308
  462TMC3    O2 6888   3.567   0.374   0.835  0.0504  0.1313  0.1861
  463MPD2     C 6889   0.248   3.528   0.696  1.2203  0.2622 -0.1872
  463MPD2    C1 6890   0.174   3.546   0.801 -0.2574 -0.9164 -0.5462
  463MPD2    C2 6891   0.210   3.490   0.919 -0.2139 -0.2722 -0.8369
  463MPD2    C3 6892   0.333   3.439   0.937 -0.1917 -0.2337 -0.4294
  463MPD2    C4 6893   0.412   3.427   0.824  0.1212 -0.3084  0.1689
  463MPD2    C5 6894   0.368   3.460   0.702 -0.3022  0.3311 -0.6394
  463MPD2     H 6895   0.145   3.514   1.002  1.4109  1.5315 -0.0597
  463MPD2    H1 6896   0.512   3.384   0.826  0.4760  0.6363  2.2113
  463MPD2    H2 6897   0.210   3.545   0.595  0.2049  1.8321  0.4581
  463MPD2    H3 6898   0.424   3.439   0.612  1.3528 -0.9989  0.6879
  463MPD2     N 6899   0.380   3.403   1.061 -0.0245  0.1167  0.0261
  463MPD2    H5 6900   0.476   3.369   1.068 -0.8013 -2.1383 -0.2649
  463MPD2    N1 6901   0.057   3.625   0.799  0.0366  0.4879  0.3842
  463MPD2    H7 6902   0.005   3.633   0.886 -0.5309  2.0741 -0.1105
  464TMC3    C1 6903   4.617   3.790   0.740  0.7806 -0.0856 -0.2505
  464TMC3    C2 6904   4.584   3.898   0.667  0.2643 -0.2736 -0.2101
  464TMC3    C3 6905   4.467   3.960   0.695 -0.4629  0.1441 -0.4026
  464TMC3    C4 6906   4.527   3.727   0.825 -0.6585 -0.5993 -0.1173
  464TMC3    C5 6907   4.415   3.799   0.859 -0.0053  0.7979  0.0810
  464TMC3    C6 6908   4.382   3.912   0.787  0.4321  0.0156 -0.2005
  464TMC3     C 6909   0.028   3.727   0.715 -0.4775  0.1687  0.6775
  464TMC3     O 6910   0.102   3.765   0.624 -0.0085 -0.0483 -0.7941
  464TMC3     H 6911   4.645   3.945   0.590  1.9904 -0.0204  1.3104
  464TMC3    H1 6912   4.553   3.636   0.879 -0.0735  1.3200  2.8774
  464TMC3    H2 6913   4.281   3.950   0.796  0.5481  0.2493  0.1554
  464TMC3    C7 6914   4.325   3.734   0.956  0.2236  0.7801 -0.6638
  464TMC3    C8 6915   4.438   4.073   0.610 -0.7374  0.5334 -0.3739
  464TMC3    O1 6916   4.332   3.612   0.967  0.0503  0.6779 -0.2027
  464TMC3    O2 6917   4.474   4.065   0.495  0.1247 -0.0757  0.1616
  465MPD2     C 6918   1.454   1.796  16.404 -0.0633 -0.0686  0.0193
  465MPD2    C1 6919   1.391   1.845  16.517  0.1351 -0.2337 -0.1233
  465MPD2    C2 6920   1.266   1.912  16.502  0.3332 -0.4282  0.5993
  465MPD2    C3 6921   1.214   1.920  16.374  0.5156 -0.6343 -0.0194
  465MPD2    C4 6922   1.279   1.862  16.263  0.1437  0.5531  0.0923
  465MPD2    C5 6923   1.398   1.803  16.279  0.0938  0.2929 -0.7611
  465MPD2     H 6924   1.213   1.948  16.589  0.6039 -0.1755  0.6601
  465MPD2    H1 6925   1.232   1.860  16.165  1.6044  0.2202 -0.5996
  465MPD2    H2 6926   1.545   1.739  16.421  1.6117  2.7368  0.5343
  465MPD2    H3 6927   1.444   1.768  16.187 -0.7963 -1.8876 -0.3831
  465MPD2     N 6928   1.093   1.993  16.350 -0.0259 -0.1590 -0.7742
  465MPD2    H5 6929   1.041   2.027  16.430  1.4268  0.4023 -0.0574
  465MPD2    N1 6930   1.454   1.851  16.649  0.2990  0.3605 -0.3069
  465MPD2    H7 6931   1.404   1.883  16.731 -1.0748  0.8846 -1.3456
  466TMC3    C1 6932   0.712   2.135  16.312  0.1167  0.1341 -0.4988
  466TMC3    C2 6933   0.697   2.247  16.231  0.5045 -0.4395  0.2049
  466TMC3    C3 6934   0.808   2.291  16.154 -0.3198  0.4064 -0.2549
  466TMC3    C4 6935   0.827   2.064  16.314  0.6995  0.2193  0.4048
  466TMC3    C5 6936   0.928   2.113  16.242  0.7552 -0.1832 -0.1466
  466TMC3    C6 6937   0.920   2.217  16.156 -0.1535 -0.0811 -0.0186
  466TMC3     C 6938   0.597   2.066  16.367 -0.6500  0.3788 -0.0822
  466TMC3     O 6939   0.613   1.995  16.465 -0.6967  0.1713  0.4865
  466TMC3     H 6940   0.604   2.303  16.223 -0.5180 -2.2601 -0.7077
  466TMC3    H1 6941   0.853   1.992  16.391 -1.9798 -2.8540 -1.5470
  466TMC3    H2 6942   1.006   2.249  16.098 -0.9948  0.7835 -0.8009
  466TMC3    C7 6943   1.056   2.041  16.229  0.7767 -0.5480  1.1914
  466TMC3    C8 6944   0.822   2.430  16.125  0.0918  0.1446 -0.6441
  466TMC3    O1 6945   1.093   2.032  16.111 -0.3457  0.2674 -0.3977
  466TMC3    O2 6946   0.913   2.461  16.049  0.6666 -0.0979 -0.0015
  467TMC3    C1 6947   2.121   0.839  13.461 -0.0934 -0.1489 -0.2078
  467TMC3    C2 6948   2.133   0.874  13.329  0.0187 -0.4378 -0.3380
  467TMC3    C3 6949   2.041   0.825  13.245  0.7736 -0.1731  0.4906
  467TMC3    C4 6950   2.016   0.767  13.513  0.5237 -0.0555 -0.0816
  467TMC3    C5 6951   1.921   0.722  13.423 -0.3287 -0.2590  0.8380
  467TMC3    C6 6952   1.939   0.749  13.286 -0.7841  0.1682  1.3755
  467TMC3     C 6953   2.243   0.823  13.541 -0.5522  0.1916 -0.4692
  467TMC3     O 6954   2.231   0.794  13.661  0.3344  0.6146 -0.1422
  467TMC3     H 6955   2.214   0.930  13.285  0.7543 -1.1015  0.1698
  467TMC3    H1 6956   2.011   0.746  13.619 -0.6701  0.5206 -0.0190
  467TMC3    H2 6957   1.861   0.715  13.218  1.8724 -1.9239 -0.6250
  467TMC3    C7 6958   1.822   0.632  13.475  0.3285 -0.9821  0.0821
  467TMC3    C8 6959   2.039   0.868  13.107  0.1963  0.2273  0.4448
  467TMC3    O1 6960   1.819   0.636  13.597  0.1031  0.5254  0.6108
  467TMC3    O2 6961   2.113   0.958  13.076 -0.1247  0.4451  0.2686
  468MPD2     C 6962   0.650   3.065  10.672  0.1320 -0.4769 -0.2841
  468MPD2    C1 6963   0.764   3.055  10.751 -0.6682 -1.0015  0.0398
  468MPD2    C2 6964   0.819   2.929  10.776 -0.4701  0.0466  0.6968
  468MPD2    C3 6965   0.767   2.811  10.728 -0.2997 -0.2135 -0.3318
  468MPD2    C4 6966   0.642   2.827  10.670 -0.2094 -0.1229 -0.0990
  468MPD2    C5 6967   0.586   2.950  10.641 -0.4917  0.6422 -1.0017
  468MPD2     H 6968   0.912   2.929  10.832 -0.0413 -1.0946 -0.0165
  468MPD2    H1 6969   0.593   2.734  10.644 -1.7642  0.4613  0.7041
  468MPD2    H2 6970   0.605   3.158  10.641  2.9078  0.6804 -0.8602
  468MPD2    H3 6971   0.501   2.958  10.575 -2.0292  0.5358  0.9845
  468MPD2     N 6972   0.824   2.682  10.763  0.2014  0.0412 -0.8174
  468MPD2    H5 6973   0.760   2.604  10.755  0.1762 -0.0197 -0.0466
  468MPD2    N1 6974   0.842   3.167  10.786  0.3445  0.1111  0.3151
  468MPD2    H7 6975   0.929   3.135  10.829  0.1187  0.2760  0.8963
  469TMC3    C1 6976   0.941   3.378  10.795 -0.2678 -0.7407  0.1613
  469TMC3    C2 6977   1.064   3.326  10.784 -0.2796  0.8386  0.1108
  469TMC3    C3 6978   1.167   3.397  10.830  0.0359  0.4553  0.3670
  469TMC3    C4 6979   0.909   3.492  10.865 -0.0230  0.2734  0.0743
  469TMC3    C5 6980   1.013   3.559  10.924 -0.1500 -0.4586 -0.6479
  469TMC3    C6 6981   1.146   3.520  10.898  0.1478 -0.5096 -0.4206
  469TMC3     C 6982   0.818   3.302  10.768  0.7564  0.3858 -0.4042
  469TMC3     O 6983   0.711   3.351  10.731 -0.0376 -0.0320 -0.4463
  469TMC3     H 6984   1.083   3.238  10.724  0.4828  1.7445 -0.9768
  469TMC3    H1 6985   0.806   3.506  10.893 -0.8357 -1.1851 -2.2247
  469TMC3    H2 6986   1.229   3.578  10.936  0.2998 -2.0677  1.5958
  469TMC3    C7 6987   0.967   3.667  11.014  0.1676  1.0810  0.0207
  469TMC3    C8 6988   1.296   3.327  10.837  0.8158 -0.3886  0.0930
  469TMC3    O1 6989   0.850   3.675  11.045  0.6360 -0.0531 -0.4044
  469TMC3    O2 6990   1.298   3.212  10.794 -0.2661 -0.6272  0.5628
  470TMC3    C1 6991   2.746   4.305   0.840 -0.4075  0.4542 -0.9993
  470TMC3    C2 6992   2.794   4.422   0.896 -0.6103 -0.6041 -0.3667
  470TMC3    C3 6993   2.711   4.527   0.915  0.9911  0.5298  0.2657
  470TMC3    C4 6994   2.610   4.290   0.826 -0.8875  0.4302 -0.8844
  470TMC3    C5 6995   2.525   4.391   0.860 -0.2085  0.1380  0.4282
  470TMC3    C6 6996   2.580   4.516   0.900  0.2404 -0.2403 -0.5614
  470TMC3     C 6997   2.837   4.202   0.800 -0.0558 -0.4876  0.2475
  470TMC3     O 6998   2.953   4.229   0.831 -0.4596  0.3060 -0.1055
  470TMC3     H 6999   2.898   4.424   0.926 -0.4355 -0.3290 -0.9957
  470TMC3    H1 7000   2.562   4.202   0.785 -2.5568  1.6128 -1.4888
  470TMC3    H2 7001   2.511   4.592   0.936 -1.2173 -1.2990 -1.1263
  470TMC3    C7 7002   2.381   4.387   0.840 -0.4094  0.2932  0.0489
  470TMC3    C8 7003   2.755   4.639   0.992  0.1646  0.7611  1.3317
  470TMC3    O1 7004   2.323   4.492   0.815 -0.3735  0.6650  1.0075
  470TMC3    O2 7005   2.668   4.702   1.055 -0.7456  0.0863 -0.0658
  471MPD2     C 7006   3.566   1.374  16.802  0.1182 -0.5962  0.2867
  471MPD2    C1 7007   3.619   1.246  16.776  0.3127 -0.5158 -0.0725
  471MPD2    C2 7008   3.721   1.198  16.854  0.5800  0.6117  0.2614
  471MPD2    C3 7009   3.765   1.269  16.963  0.6124  0.0657 -0.0174
  471MPD2    C4 7010   3.718   1.394  16.989  0.0309 -0.4226 -0.9018
  471MPD2    C5 7011   3.618   1.438  16.904  0.1051 -0.0698  0.4304
  471MPD2     H 7012   3.748   1.095  16.834  0.1632 -0.0768  3.3585
  471MPD2    H1 7013   3.746   1.462  17.069  1.1927  2.6918 -3.9888
  471MPD2    H2 7014   3.476   1.408  16.753  0.4246 -0.6873 -0.3341
  471MPD2    H3 7015   3.568   1.529  16.935 -0.7777 -0.5858  0.5374
  471MPD2     N 7016   3.849   1.203  17.059  0.2202 -0.1281 -0.0944
  471MPD2    H5 7017   3.847   1.240  17.154 -2.8497 -1.6810  0.4552
  471MPD2    N1 7018   3.566   1.155  16.682  0.1268 -0.1707  0.3491
  471MPD2    H7 7019   3.586   1.057  16.698  1.0605 -0.1911 -0.9779
  472TMC3    C1 7020   3.470   1.083  16.480  0.0124  0.0729  0.2239
  472TMC3    C2 7021   3.382   1.113  16.378 -0.0262  0.0345  0.5514
  472TMC3    C3 7022   3.338   1.003  16.299 -0.2501 -0.0510  0.4376
  472TMC3    C4 7023   3.526   0.959  16.496 -0.2238  0.1045  0.6169
  472TMC3    C5 7024   3.475   0.860  16.416 -0.9343 -0.8560 -0.3298
  472TMC3    C6 7025   3.389   0.875  16.314  0.3164 -0.7005  0.0046
  472TMC3     C 7026   3.490   1.191  16.575  0.5328  0.9858  0.3085
  472TMC3     O 7027   3.445   1.303  16.541  0.6253 -0.5620 -0.1031
  472TMC3     H 7028   3.340   1.212  16.368  0.4507  0.3164  1.3768
  472TMC3    H1 7029   3.608   0.940  16.564  0.6119  2.9215  0.3632
  472TMC3    H2 7030   3.347   0.794  16.255 -2.6557  0.6769  0.1943
  472TMC3    C7 7031   3.466   0.726  16.472 -0.4805 -0.8655 -0.1021
  472TMC3    C8 7032   3.219   1.019  16.216  0.0203  0.1244  0.4241
  472TMC3    O1 7033   3.465   0.713  16.594  0.4216  0.4649 -0.1959
  472TMC3    O2 7034   3.182   1.130  16.182 -0.1509  0.1290 -0.5893
  473MPD2     C 7035   4.048   2.879  13.728  0.4513  0.3811  0.1831
  473MPD2    C1 7036   4.001   2.991  13.670 -0.1716  0.2519 -0.0501
  473MPD2    C2 7037   4.018   3.115  13.734  0.2454 -0.0304  0.1718
  473MPD2    C3 7038   4.064   3.125  13.860  0.3701  0.2329 -0.1463
  473MPD2    C4 7039   4.100   3.003  13.923  0.7319  0.2352 -0.7559
  473MPD2    C5 7040   4.100   2.880  13.857 -0.0664  0.2600  0.6188
  473MPD2     H 7041   3.989   3.199  13.672  3.6577  0.5873 -0.5501
  473MPD2    H1 7042   4.139   3.005  14.024 -0.5201  0.5798 -0.2813
  473MPD2    H2 7043   4.053   2.781  13.682  0.6822 -0.1285  1.2951
  473MPD2    H3 7044   4.122   2.791  13.915 -0.7955  0.5709  1.3880
  473MPD2     N 7045   4.073   3.246  13.932 -0.2050  0.3182 -0.4849
  473MPD2    H5 7046   4.121   3.239  14.021 -2.0340 -2.6666  0.2693
  473MPD2    N1 7047   3.914   2.989  13.562 -0.1510  0.0279  0.0330
  473MPD2    H7 7048   3.872   3.078  13.537 -2.0610 -0.9885 -0.3989
  474TMC3    C1 7049   4.008   3.450  14.023 -0.4017  0.2768  0.1213
  474TMC3    C2 7050   3.907   3.543  14.036 -0.1390 -0.5663 -0.2259
  474TMC3    C3 7051   3.940   3.657  14.098  0.3742  0.0621  0.4216
  474TMC3    C4 7052   4.135   3.468  14.076 -0.0335  0.5355  0.5735
  474TMC3    C5 7053   4.158   3.582  14.157  0.2412  0.6163  0.2479
  474TMC3    C6 7054   4.057   3.673  14.170  0.0495  0.1705  0.1585
  474TMC3     C 7055   3.986   3.352  13.921 -0.8079 -0.0501 -0.0269
  474TMC3     O 7056   3.891   3.376  13.850 -0.4715  0.2953 -0.0697
  474TMC3     H 7057   3.812   3.516  13.992 -1.7242  2.6959  1.2630
  474TMC3    H1 7058   4.223   3.408  14.055 -0.3449  0.1800  0.2838
  474TMC3    H2 7059   4.071   3.763  14.229 -3.0444  0.4348  0.4894
  474TMC3    C7 7060   4.295   3.611  14.206 -0.1068  0.1189 -0.1227
  474TMC3    C8 7061   3.841   3.760  14.087 -0.3116 -0.0907  0.8694
  474TMC3    O1 7062   4.384   3.591  14.131  0.0976  0.1687  0.4663
  474TMC3    O2 7063   3.736   3.736  14.037  0.0543 -0.3270 -0.0370
  475MPD2     C 7064   2.022   1.026  10.462  0.0721 -1.1879  0.0091
  475MPD2    C1 7065   1.993   1.007  10.329  0.3708 -0.9548 -0.3528
  475MPD2    C2 7066   1.867   1.025  10.283  0.0091  0.3536  0.8466
  475MPD2    C3 7067   1.775   1.078  10.374 -0.4342 -0.0933 -0.4854
  475MPD2    C4 7068   1.808   1.105  10.510  0.5458  0.0339 -0.0398
  475MPD2    C5 7069   1.933   1.078  10.553  0.0747 -0.6450  0.3016
  475MPD2     H 7070   1.827   0.991  10.189 -2.3858 -0.4951  2.1884
  475MPD2    H1 7071   1.739   1.145  10.584  0.5825 -0.8070  0.4404
  475MPD2    H2 7072   2.122   1.014  10.502  0.8155 -2.4008 -2.1699
  475MPD2    H3 7073   1.952   1.096  10.658 -1.1291  1.0926  0.2230
  475MPD2     N 7074   1.641   1.102  10.336  0.6516 -0.7339 -0.3982
  475MPD2    H5 7075   1.617   1.055  10.249 -0.8594 -0.7673  0.0378
  475MPD2    N1 7076   2.093   0.957  10.243  0.4992 -0.6959  0.5586
  475MPD2    H7 7077   2.186   0.967  10.283  0.2662  3.3020  0.1905
  476TMC3    C1 7078   2.192   0.958  10.028  0.7009 -0.1560  0.3094
  476TMC3    C2 7079   2.179   0.928   9.894  0.1199 -0.5762  1.0270
  476TMC3    C3 7080   2.280   0.962   9.809 -0.9383 -0.5203 -0.4360
  476TMC3    C4 7081   2.301   1.030  10.079  0.7282 -0.2199 -0.2568
  476TMC3    C5 7082   2.389   1.069   9.981 -0.9112  0.5555  0.1011
  476TMC3    C6 7083   2.384   1.037   9.848  0.0947 -0.0505  0.2740
  476TMC3     C 7084   2.074   0.926  10.112 -0.1663 -0.3183 -0.7408
  476TMC3     O 7085   1.979   0.873  10.057 -0.7185  0.6695 -0.3607
  476TMC3     H 7086   2.103   0.860   9.858  1.5207 -0.3570 -2.3978
  476TMC3    H1 7087   2.297   1.095  10.166  0.5912 -1.9082  1.0078
  476TMC3    H2 7088   2.464   1.075   9.785  1.4379 -0.2070  1.8639
  476TMC3    C7 7089   2.503   1.158  10.011 -0.2387  0.4120 -0.7627
  476TMC3    C8 7090   2.257   0.949   9.668  0.3813  0.3818 -0.2321
  476TMC3    O1 7091   2.569   1.215   9.923  0.1486 -0.1833 -0.0418
  476TMC3    O2 7092   2.324   1.022   9.599 -0.0841 -0.2968  0.2521
  477MPD2     C 7093   4.560   2.448  11.669  1.1303 -0.1355 -0.0890
  477MPD2    C1 7094   4.441   2.433  11.730  0.4827  0.3905 -0.2485
  477MPD2    C2 7095   4.420   2.333  11.821 -0.0895  0.1519 -0.0518
  477MPD2    C3 7096   4.524   2.251  11.863  0.3887  0.7432  0.7683
  477MPD2    C4 7097   4.646   2.269  11.790 -0.3566  0.2081 -0.9166
  477MPD2    C5 7098   4.664   2.371  11.702  0.1690  0.6639  0.5291
  477MPD2     H 7099   4.321   2.320  11.863 -0.7230 -2.2803 -2.2755
  477MPD2    H1 7100   0.011   2.204  11.812  0.0711  0.8447 -0.6886
  477MPD2    H2 7101   4.580   2.517  11.588  0.6351  1.1525  0.8993
  477MPD2    H3 7102   0.039   2.385  11.650  1.0006 -1.5083  1.4156
  477MPD2     N 7103   4.524   2.155  11.968 -0.5754 -0.1372 -0.3506
  477MPD2    H5 7104   4.598   2.086  11.979 -0.3299  0.4084  1.4815
  477MPD2    N1 7105   4.331   2.511  11.678 -0.0467 -0.2479 -0.0976
  477MPD2    H7 7106   4.359   2.569  11.600 -2.2811  1.9457  0.7349
  478TMC3    C1 7107   4.122   2.604  11.631  0.0853  0.3103  0.0620
  478TMC3    C2 7108   4.178   2.728  11.623  0.4148 -0.6970 -0.5519
  478TMC3    C3 7109   4.122   2.813  11.533  0.4946 -1.1229  0.1225
  478TMC3    C4 7110   4.019   2.561  11.555 -0.6225 -0.1873  0.5139
  478TMC3    C5 7111   3.982   2.647  11.459  0.3838 -1.1871  0.2107
  478TMC3    C6 7112   4.016   2.780  11.447  0.0374  0.1518 -0.2541
  478TMC3     C 7113   4.194   2.504  11.706 -0.1724  0.2928  0.0016
  478TMC3     O 7114   4.131   2.418  11.763 -0.2833  0.7355 -0.1821
  478TMC3     H 7115   4.261   2.754  11.688  1.7319 -2.0165 -1.7046
  478TMC3    H1 7116   3.999   2.454  11.555 -1.4121 -0.0397  0.6372
  478TMC3    H2 7117   4.003   2.832  11.353  2.3117  2.4821  0.7270
  478TMC3    C7 7118   3.935   2.576  11.338 -0.3338 -0.4137  0.2312
  478TMC3    C8 7119   4.185   2.938  11.528 -0.0431 -0.6274  0.2570
  478TMC3    O1 7120   3.970   2.460  11.336 -0.6928 -0.5175 -0.5910
  478TMC3    O2 7121   4.300   2.936  11.564  0.0311 -0.1052 -0.2819
  479MPD2     C 7122   3.344   0.639  15.307  0.2595 -0.7001 -0.2183
  479MPD2    C1 7123   3.267   0.571  15.405  0.0040  0.2066  0.3541
  479MPD2    C2 7124   3.280   0.610  15.537  0.0215  0.8097 -0.1608
  479MPD2    C3 7125   3.356   0.722  15.576 -0.6509 -0.0535 -0.4688
  479MPD2    C4 7126   3.438   0.783  15.485 -0.0741 -0.1390 -0.9999
  479MPD2    C5 7127   3.435   0.738  15.348 -0.2298  0.3253 -0.2029
  479MPD2     H 7128   3.225   0.554  15.612 -2.4885  1.0453 -1.8342
  479MPD2    H1 7129   3.508   0.864  15.498  0.3620 -0.4538 -1.3809
  479MPD2    H2 7130   3.335   0.594  15.209 -1.8363  1.0119 -0.8129
  479MPD2    H3 7131   3.510   0.775  15.279 -0.7492 -0.6038 -1.2571
  479MPD2     N 7132   3.350   0.786  15.703 -0.2053 -0.3783 -0.2170
  479MPD2    H5 7133   3.417   0.856  15.734 -1.6040  0.1530  1.6448
  479MPD2    N1 7134   3.175   0.473  15.361 -0.6428 -0.5491  0.1854
  479MPD2    H7 7135   3.174   0.459  15.260 -0.8540 -0.3720  0.1607
  480TMC3    C1 7136   2.897   0.677  15.823  0.5898 -0.0744 -0.4379
  480TMC3    C2 7137   2.840   0.723  15.706 -1.3194 -0.3535 -0.3487
  480TMC3    C3 7138   2.918   0.792  15.617  0.4587  0.8305  0.0976
  480TMC3    C4 7139   3.031   0.700  15.848  0.1675  0.3621  0.2963
  480TMC3    C5 7140   3.109   0.749  15.747 -0.5633 -0.2572 -0.1059
  480TMC3    C6 7141   3.058   0.786  15.627  0.1086  0.5794 -0.4356
  480TMC3     C 7142   2.827   0.583  15.906  0.5086 -0.5347  0.1796
  480TMC3     O 7143   2.908   0.507  15.961  0.5608 -0.2441  0.0887
  480TMC3     H 7144   2.733   0.721  15.693 -1.5217  0.7774  1.1543
  480TMC3    H1 7145   3.077   0.685  15.945 -0.8247  2.2482  1.0661
  480TMC3    H2 7146   3.130   0.831  15.560 -0.8535  1.2305 -1.0431
  480TMC3    C7 7147   3.253   0.766  15.797  0.0850 -0.1340 -0.2525
  480TMC3    C8 7148   2.861   0.831  15.493  0.3721  0.0000 -1.2130
  480TMC3    O1 7149   3.251   0.811  15.909  0.1400  0.1811 -0.0062
  480TMC3    O2 7150   2.740   0.860  15.495  0.4172 -0.0634 -0.4236
  481MPD2     C 7151   0.975   4.260  14.169  0.6479 -1.1303  0.4661
  481MPD2    C1 7152   0.841   4.270  14.201 -0.3353 -0.0892 -0.8707
  481MPD2    C2 7153   0.812   4.245  14.335  0.6497  0.5341 -0.1922
  481MPD2    C3 7154   0.904   4.194  14.429 -0.3260 -0.5679  0.6476
  481MPD2    C4 7155   1.032   4.184  14.388  0.6164  0.2264  0.0991
  481MPD2    C5 7156   1.068   4.215  14.260  0.2389 -0.0106  0.6993
  481MPD2     H 7157   0.710   4.270  14.362  0.3002 -1.0039 -0.0984
  481MPD2    H1 7158   1.112   4.140  14.445  0.8413 -1.5034 -1.5677
  481MPD2    H2 7159   1.012   4.279  14.068 -0.0185 -0.9914  0.2471
  481MPD2    H3 7160   1.170   4.217  14.225  0.2401 -0.6772  0.6712
  481MPD2     N 7161   0.878   4.166  14.565  0.0449 -0.1240 -0.4904
  481MPD2    H5 7162   0.966   4.151  14.613 -0.6646  0.8600  1.1131
  481MPD2    N1 7163   0.747   4.296  14.096 -0.2075 -0.2088  0.1177
  481MPD2    H7 7164   0.781   4.292  14.000  1.9019  1.4947  0.8025
  482TMC3    C1 7165   0.526   4.326  14.005  0.1330  0.2426 -0.0571
  482TMC3    C2 7166   0.523   4.213  13.926 -0.7848 -0.1438 -0.0057
  482TMC3    C3 7167   0.411   4.186  13.841 -0.6374  0.3409 -0.0864
  482TMC3    C4 7168   0.420   4.397  14.024  0.4005 -0.5526 -0.4450
  482TMC3    C5 7169   0.312   4.357  13.948 -0.3187  0.1241  0.3500
  482TMC3    C6 7170   0.304   4.257  13.858  0.0239  1.0126  0.0728
  482TMC3     C 7171   0.616   4.337  14.121  0.3436 -0.3435 -0.1829
  482TMC3     O 7172   0.570   4.372  14.228  0.2961  0.7568 -0.2664
  482TMC3     H 7173   0.596   4.135  13.945 -0.3678  0.6113  1.4639
  482TMC3    H1 7174   0.419   4.496  14.068  0.4482 -0.0653 -1.5215
  482TMC3    H2 7175   0.209   4.238  13.810 -1.0788  0.7173  2.3694
  482TMC3    C7 7176   0.200   4.453  13.959  0.1404 -0.6461 -0.3907
  482TMC3    C8 7177   0.409   4.059  13.766  0.5876 -0.0862  0.0243
  482TMC3    O1 7178   0.182   4.504  14.069  0.0326  0.2776  0.2389
  482TMC3    O2 7179   0.303   4.005  13.741 -0.2289 -0.1695 -0.4341
  483TMC3    C1 7180   3.397   3.141   0.701 -0.2348 -0.1472  0.1160
  483TMC3    C2 7181   3.373   3.262   0.639 -0.1164  0.9558 -0.3189
  483TMC3    C3 7182   3.473   3.355   0.648 -0.8404 -0.1287  0.0955
  483TMC3    C4 7183   3.508   3.107   0.772  0.3109  0.6211  0.3441
  483TMC3    C5 7184   3.611   3.199   0.761  0.0001 -1.0373 -0.9021
  483TMC3    C6 7185   3.588   3.324   0.714 -0.1476 -0.5181  0.0124
  483TMC3     C 7186   3.296   3.039   0.683  0.1858 -0.2671 -0.3671
  483TMC3     O 7187   3.321   2.923   0.726  0.0733  0.6779  0.1210
  483TMC3     H 7188   3.282   3.297   0.591  0.2548  1.6345 -0.5403
  483TMC3    H1 7189   3.511   3.004   0.804  0.0362  1.1030  1.9431
  483TMC3    H2 7190   3.655   3.405   0.740  1.0400 -1.5590  0.2262
  483TMC3    C7 7191   3.741   3.182   0.824 -0.4881 -0.1952 -0.2913
  483TMC3    C8 7192   3.444   3.489   0.589  0.8730  0.0245  0.4084
  483TMC3    O1 7193   3.805   3.280   0.854  0.2064  0.2697  0.1757
  483TMC3    O2 7194   3.336   3.512   0.545  0.6897  0.2433 -0.8315
  484MPD2     C 7195   0.263   1.325  12.549  0.7125  0.4637  0.6010
  484MPD2    C1 7196   0.330   1.277  12.664  0.1995  0.0115  0.5341
  484MPD2    C2 7197   0.466   1.292  12.668 -0.2726 -0.1678 -0.1450
  484MPD2    C3 7198   0.532   1.346  12.554 -0.8735 -0.4146  0.5093
  484MPD2    C4 7199   0.467   1.378  12.439  0.1231 -0.0463  0.5610
  484MPD2    C5 7200   0.331   1.367  12.439 -0.1243  0.0901  0.5286
  484MPD2     H 7201   0.519   1.245  12.751 -2.2539  0.6810  1.6131
  484MPD2    H1 7202   0.509   1.416  12.347  0.3473  0.9945  1.0956
  484MPD2    H2 7203   0.155   1.325  12.546  0.7042 -0.4483  0.7787
  484MPD2    H3 7204   0.276   1.381  12.346 -0.6340  1.5886  1.0498
  484MPD2     N 7205   0.674   1.374  12.554  0.0190  0.0878  0.2215
  484MPD2    H5 7206   0.712   1.423  12.474  0.7086 -1.1844 -0.2172
  484MPD2    N1 7207   0.249   1.239  12.779  0.0203 -0.0012  1.0397
  484MPD2    H7 7208   0.151   1.227  12.759 -0.1629  2.3533  0.4733
  485TMC3    C1 7209   0.895   1.399  12.630 -0.2076 -1.0331 -0.5040
  485TMC3    C2 7210   0.993   1.323  12.681  0.2337 -0.7892 -0.0757
  485TMC3    C3 7211   1.105   1.389  12.705 -0.0390 -0.5106  0.8322
  485TMC3    C4 7212   0.904   1.529  12.595 -0.1968 -1.1049 -0.9259
  485TMC3    C5 7213   1.021   1.592  12.614  0.3595 -0.3426  0.3093
  485TMC3    C6 7214   1.117   1.525  12.678 -0.2054  0.1128  0.2971
  485TMC3     C 7215   0.759   1.348  12.657  0.4400 -0.0422  0.6588
  485TMC3     O 7216   0.744   1.287  12.760  0.4928  0.2832 -0.5255
  485TMC3     H 7217   0.976   1.221  12.713 -0.2770 -0.0365  2.0153
  485TMC3    H1 7218   0.816   1.575  12.552 -2.5982 -1.7658  3.2664
  485TMC3    H2 7219   1.210   1.576  12.699  0.9186 -0.5318 -3.0635
  485TMC3    C7 7220   1.064   1.659  12.497 -0.6916  0.4268 -0.5207
  485TMC3    C8 7221   1.231   1.320  12.669  0.5332 -0.3962 -0.4994
  485TMC3    O1 7222   0.981   1.723  12.437  0.4231  0.3704 -0.5090
  485TMC3    O2 7223   1.309   1.395  12.612 -0.1691 -0.3111  0.2628
  486MPD2     C 7224   2.611   0.353  13.070  1.0095  0.2621  0.4878
  486MPD2    C1 7225   2.649   0.357  12.941 -0.0962  0.1241  0.1773
  486MPD2    C2 7226   2.711   0.470  12.888  0.3355  0.2936 -0.0354
  486MPD2    C3 7227   2.727   0.581  12.965 -0.1562 -0.4216 -0.1960
  486MPD2    C4 7228   2.705   0.570  13.099 -0.0534 -0.0462 -0.5665
  486MPD2    C5 7229   2.643   0.461  13.149 -0.4042  0.4105 -0.0897
  486MPD2     H 7230   2.720   0.481  12.781 -0.1199 -0.2535 -0.1364
  486MPD2    H1 7231   2.732   0.656  13.160  1.3474 -0.5177 -0.5273
  486MPD2    H2 7232   2.554   0.275  13.121  0.6605  1.1699  1.4832
  486MPD2    H3 7233   2.604   0.476  13.249 -0.7052 -1.9323  0.1646
  486MPD2     N 7234   2.788   0.689  12.903 -0.1213 -0.1191  0.1095
  486MPD2    H5 7235   2.813   0.672  12.806  0.6711  0.1428  0.2686
  486MPD2    N1 7236   2.629   0.235  12.874  0.7627  0.7215 -0.3966
  486MPD2    H7 7237   2.609   0.153  12.929 -0.6227 -0.2439 -2.3249
  487TMC3    C1 7238   2.614   0.083  12.699 -0.1983  0.4661  1.0018
  487TMC3    C2 7239   2.510   0.061  12.612 -0.4601 -0.3802  0.2908
  487TMC3    C3 7240   2.480   4.652  12.589 -0.3798  0.5086 -0.4711
  487TMC3    C4 7241   2.687   4.704  12.762  0.1309 -0.1983  1.0298
  487TMC3    C5 7242   2.661   4.571  12.728 -0.5927  0.5839  0.3385
  487TMC3    C6 7243   2.555   4.547  12.647 -0.2229 -0.2397 -0.0054
  487TMC3     C 7244   2.649   0.218  12.741  0.0519  1.1698  0.2054
  487TMC3     O 7245   2.631   0.299  12.651  0.5156  0.1246 -0.3437
  487TMC3     H 7246   2.460   0.148  12.570  0.9401 -0.2539 -1.1211
  487TMC3    H1 7247   2.764   0.008  12.835 -0.5864 -0.8582  1.9892
  487TMC3    H2 7248   2.547   4.451  12.598  1.6810 -1.4691  2.1359
  487TMC3    C7 7249   2.680   4.482  12.843  0.1018  0.2116 -0.4647
  487TMC3    C8 7250   2.345   4.621  12.597 -0.0224  0.4599 -0.9990
  487TMC3    O1 7251   2.736   4.537  12.933 -0.1143  0.5703 -0.1690
  487TMC3    O2 7252   2.281   4.698  12.667 -0.6074  0.1833  0.8309
  488MPD2     C 7253   2.892   2.495  16.421 -0.1217  0.6305  0.2853
  488MPD2    C1 7254   2.869   2.614  16.357 -0.4628 -0.3319  0.3375
  488MPD2    C2 7255   2.814   2.711  16.433 -1.7734  0.0653  0.0995
  488MPD2    C3 7256   2.777   2.696  16.567  0.0875 -0.4371  0.3270
  488MPD2    C4 7257   2.820   2.584  16.636  0.1020  0.3636  0.4243
  488MPD2    C5 7258   2.882   2.486  16.562  0.2519  0.1094  0.0429
  488MPD2     H 7259   2.772   2.800  16.387 -0.0171  0.6554 -0.3748
  488MPD2    H1 7260   2.810   2.577  16.744 -0.5084  1.1046  0.4189
  488MPD2    H2 7261   2.934   2.404  16.381 -1.2948  1.0802 -1.9395
  488MPD2    H3 7262   2.900   2.394  16.616 -0.2280  0.3779  0.6491
  488MPD2     N 7263   2.716   2.804  16.634 -0.5248  0.5005  0.5063
  488MPD2    H5 7264   2.708   2.890  16.581 -1.6435 -0.8493 -1.5225
  488MPD2    N1 7265   2.883   2.640  16.217  0.4000  0.3158  0.3394
  488MPD2    H7 7266   2.875   2.735  16.182 -1.7870  0.8982  2.3568
  489TMC3    C1 7267   2.606   2.926  16.808 -0.4675  0.1028  0.9327
  489TMC3    C2 7268   2.662   3.049  16.777 -0.6431  0.7381  0.1510
  489TMC3    C3 7269   2.601   3.168  16.814  0.0153  0.6473  0.3160
  489TMC3    C4 7270   2.486   2.926  16.871  0.3141 -0.3409  0.0865
  489TMC3    C5 7271   2.435   3.043  16.917  0.3306 -0.0042  0.2193
  489TMC3    C6 7272   2.483   3.171  16.886  0.1170 -0.2118 -0.5699
  489TMC3     C 7273   2.666   2.801  16.760 -0.1538 -0.2848 -0.2539
  489TMC3     O 7274   2.625   2.703  16.817 -0.2492 -0.2028 -0.2930
  489TMC3     H 7275   2.757   3.043  16.726 -1.3330 -3.0396 -0.6937
  489TMC3    H1 7276   2.444   2.826  16.883 -0.5081 -0.3232 -2.7459
  489TMC3    H2 7277   2.440   3.264  16.921  0.0450  0.4960 -2.5902
  489TMC3    C7 7278   2.317   3.036  17.006  0.3264 -0.8283  0.0915
  489TMC3    C8 7279   2.679   3.287  16.790  0.1243  1.1065  1.9040
  489TMC3    O1 7280   2.286   2.926  17.048 -0.0628  0.0993 -0.1061
  489TMC3    O2 7281   2.800   3.269  16.779 -0.3165  0.4807 -0.1349
  490MPD2     C 7282   3.161   2.028   0.241  0.2028  0.2683  0.1314
  490MPD2    C1 7283   3.246   1.920   0.238 -0.2999 -0.7901  0.6831
  490MPD2    C2 7284   3.384   1.944   0.223  0.3641  0.1728 -0.7224
  490MPD2    C3 7285   3.437   2.071   0.219  0.5023  0.3620  0.1764
  490MPD2    C4 7286   3.345   2.178   0.220 -1.1948 -0.1019 -0.1321
  490MPD2    C5 7287   3.208   2.155   0.225  0.5046  0.6666 -0.1808
  490MPD2     H 7288   3.444   1.854   0.228 -1.8720 -1.3067 -0.4476
  490MPD2    H1 7289   3.376   2.281   0.209 -2.0541  0.4916  2.9180
  490MPD2    H2 7290   3.055   2.017   0.259  0.3206 -0.2320  0.5158
  490MPD2    H3 7291   3.141   2.240   0.221  0.5525  0.7082 -0.0885
  490MPD2     N 7292   3.573   2.096   0.207 -0.2157  0.7448 -0.4803
  490MPD2    H5 7293   3.607   2.190   0.224  1.3326 -0.1115  1.1558
  490MPD2    N1 7294   3.208   1.787   0.264 -0.0916  0.1026 -0.4278
  490MPD2    H7 7295   3.278   1.716   0.244 -1.1389 -1.0628  0.0538
  491TMC3    C1 7296   3.089   1.605   0.372  0.1955  0.3744 -0.2857
  491TMC3    C2 7297   3.034   1.591   0.494  0.1748  0.0880  0.3567
  491TMC3    C3 7298   3.021   1.459   0.541  0.0982  0.1421 -0.3572
  491TMC3    C4 7299   3.143   1.498   0.298 -0.1050  0.0314 -0.0265
  491TMC3    C5 7300   3.136   1.372   0.356 -0.5365  0.7446  0.0291
  491TMC3    C6 7301   3.076   1.349   0.473 -0.1246  0.3358  0.3780
  491TMC3     C 7302   3.094   1.744   0.323  0.4117  0.3392 -0.7947
  491TMC3     O 7303   2.989   1.805   0.340  0.4563  0.1186 -0.4645
  491TMC3     H 7304   3.002   1.682   0.544  0.8299 -0.2236  1.3307
  491TMC3    H1 7305   3.172   1.513   0.194 -0.5064  0.0779 -0.1318
  491TMC3    H2 7306   3.084   1.254   0.525  1.0473  0.6697  0.8055
  491TMC3    C7 7307   3.166   1.265   0.267 -0.4811 -0.4137  0.1765
  491TMC3    C8 7308   3.041   1.467   0.683  0.0341  0.6372  0.7246
  491TMC3    O1 7309   3.230   1.296   0.166  0.2036 -0.0644 -0.0071
  491TMC3    O2 7310   2.959   1.529   0.747  0.4754 -0.3067 -0.3224
  492MPD2     C 7311   4.635   1.419  11.056  0.1539  0.3623  0.0726
  492MPD2    C1 7312   4.512   1.397  10.999 -0.1398  0.3801 -1.0676
  492MPD2    C2 7313   4.438   1.299  11.072  0.1756  0.6502  0.5303
  492MPD2    C3 7314   4.464   1.252  11.195  1.0105 -1.2176 -0.3195
  492MPD2    C4 7315   4.587   1.293  11.255  0.1553 -0.3466  0.9835
  492MPD2    C5 7316   4.667   1.381  11.182 -0.6689  0.3105 -0.2325
  492MPD2     H 7317   4.348   1.263  11.023  2.6428 -2.9414 -1.2728
  492MPD2    H1 7318   4.616   1.264  11.355 -0.7705  3.8939  2.4389
  492MPD2    H2 7319   4.716   1.471  11.006  0.3199  0.3554  0.3344
  492MPD2    H3 7320   0.037   1.420  11.229 -0.4782  1.4985 -1.5854
  492MPD2     N 7321   4.385   1.162  11.269  0.0162  0.1714 -0.1117
  492MPD2    H5 7322   4.413   1.142  11.364  1.1206 -1.0524 -0.6977
  492MPD2    N1 7323   4.482   1.448  10.872  0.1100 -0.5983 -0.6728
  492MPD2    H7 7324   4.558   1.487  10.817 -0.6257  0.8975 -0.6285
  493TMC3    C1 7325   4.338   1.519  10.691 -0.3243  0.8765  0.1042
  493TMC3    C2 7326   4.435   1.604  10.648  0.1962  0.2145  0.0026
  493TMC3    C3 7327   4.395   1.672  10.537  0.3671  0.1501  0.2002
  493TMC3    C4 7328   4.217   1.497  10.626 -0.8498  0.4470  0.3330
  493TMC3    C5 7329   4.184   1.573  10.523  0.4043 -0.1162  0.1620
  493TMC3    C6 7330   4.272   1.666  10.475  0.2550  0.7500 -0.2521
  493TMC3     C 7331   4.352   1.447  10.821  0.1088  0.4240  0.0600
  493TMC3     O 7332   4.249   1.422  10.883 -0.4479  0.0854 -0.5341
  493TMC3     H 7333   4.529   1.628  10.697 -0.1105  1.4647 -0.0201
  493TMC3    H1 7334   4.144   1.430  10.670 -0.2167 -0.7589 -0.4199
  493TMC3    H2 7335   4.247   1.737  10.397 -1.2745 -0.4120 -0.8324
  493TMC3    C7 7336   4.045   1.573  10.475  0.2607  0.3845  0.8701
  493TMC3    C8 7337   4.482   1.787  10.504  0.0618 -0.1049 -0.6188
  493TMC3    O1 7338   4.027   1.630  10.368  0.6727 -0.1281  0.2072
  493TMC3    O2 7339   4.537   1.827  10.608  0.8675 -0.2448 -0.5980
  494TMC3    C1 7340   0.270   3.722   0.141  0.5619  1.0199 -0.6690
  494TMC3    C2 7341   0.358   3.645   0.212  0.4027  0.7810  0.2932
  494TMC3    C3 7342   0.330   3.508   0.213  0.1011  0.6829 -0.3190
  494TMC3    C4 7343   0.153   3.680   0.096  0.3831 -0.2574  0.4496
  494TMC3    C5 7344   0.128   3.546   0.104 -0.1173 -0.1478  0.1418
  494TMC3    C6 7345   0.215   3.451   0.159  0.0012  0.8772  0.2605
  494TMC3     C 7346   0.292   3.868   0.126  1.1387  0.2384 -0.5230
  494TMC3     O 7347   0.189   3.931   0.105  0.2597 -0.1500 -0.5487
  494TMC3     H 7348   0.450   3.690   0.247  0.9455 -1.1189  1.3205
  494TMC3    H1 7349   0.075   3.738   0.047 -0.0524 -0.4899  0.8736
  494TMC3    H2 7350   0.187   3.347   0.166 -2.6801  1.5922 -0.0060
  494TMC3    C7 7351   0.050   3.500  17.672 -0.1581  0.0875  0.4411
  494TMC3    C8 7352   0.427   3.413   0.266  0.3360  0.3143 -0.3758
  494TMC3    O1 7353   0.034   3.578  17.577 -0.0559 -0.1928 -0.2443
  494TMC3    O2 7354   0.499   3.457   0.353  0.4099 -0.0081 -0.5491
  495TMC3    C1 7355   3.328   0.372  14.762  0.0440  0.7216  0.1271
  495TMC3    C2 7356   3.305   0.409  14.634 -0.0676  0.4721  0.1403
  495TMC3    C3 7357   3.241   0.529  14.620 -0.3681  0.6588 -0.0160
  495TMC3    C4 7358   3.309   0.460  14.861 -0.4006 -1.1043 -0.9040
  495TMC3    C5 7359   3.251   0.582  14.843  0.1118 -0.1272  0.2199
  495TMC3    C6 7360   3.212   0.616  14.722 -0.5530  0.8368  0.2691
  495TMC3     C 7361   3.262   0.244  14.792  0.1299 -0.5451  0.2836
  495TMC3     O 7362   3.299   0.153  14.719 -0.2982  0.2963 -0.2874
  495TMC3     H 7363   3.286   0.331  14.561  4.6112  0.8062 -1.4765
  495TMC3    H1 7364   3.340   0.429  14.960 -0.3811  1.4002 -0.1228
  495TMC3    H2 7365   3.156   0.707  14.704  0.5724  0.7771 -3.5943
  495TMC3    C7 7366   3.178   0.627  14.959 -0.1139  0.1955 -0.8067
  495TMC3    C8 7367   3.148   0.529  14.512  0.2490  0.2878  0.0333
  495TMC3    O1 7368   3.188   0.555  15.054  0.0551  0.0367  0.0861
  495TMC3    O2 7369   3.036   0.551  14.548  0.5685 -0.8459  0.1188
  496MPD2     C 7370   0.968   0.820  15.143 -0.1801  0.3557  0.2839
  496MPD2    C1 7371   0.943   0.693  15.194 -0.0801  0.1560  0.6890
  496MPD2    C2 7372   0.827   0.667  15.253  0.6383 -0.6529 -0.0598
  496MPD2    C3 7373   0.739   0.769  15.271  0.3531  0.0441  0.3686
  496MPD2    C4 7374   0.759   0.891  15.212  0.1810  0.1286  0.6618
  496MPD2    C5 7375   0.877   0.923  15.145 -0.6050  0.5823 -0.1396
  496MPD2     H 7376   0.803   0.567  15.290  2.9268 -1.0558  0.3277
  496MPD2    H1 7377   0.675   0.959  15.210  0.9870  1.0807 -1.2431
  496MPD2    H2 7378   1.057   0.851  15.090  0.0468 -0.5748  0.1350
  496MPD2    H3 7379   0.889   1.002  15.072  1.6691  1.3468  1.0684
  496MPD2     N 7380   0.618   0.731  15.342 -0.2712  0.2138  0.3285
  496MPD2    H5 7381   0.598   0.635  15.369  1.7980 -0.7039 -1.4049
  496MPD2    N1 7382   1.052   0.602  15.184 -0.1040  0.1427  0.6557
  496MPD2    H7 7383   1.141   0.633  15.148 -0.7441 -0.2626 -1.3462
  497TMC3    C1 7384   0.408   0.770  15.461  0.5020 -0.6113  0.1054
  497TMC3    C2 7385   0.323   0.689  15.394 -0.3155 -0.7194 -0.0395
  497TMC3    C3 7386   0.204   0.664  15.451  0.1826 -1.0087  0.5204
  497TMC3    C4 7387   0.378   0.831  15.578  0.1143 -0.0111 -0.1494
  497TMC3    C5 7388   0.260   0.800  15.634  0.0518  0.6312 -0.4734
  497TMC3    C6 7389   0.168   0.717  15.570  0.1201 -0.3506 -0.3854
  497TMC3     C 7390   0.530   0.822  15.399 -1.1632  0.1497  0.1267
  497TMC3     O 7391   0.571   0.931  15.425 -0.0856 -0.1950  0.4349
  497TMC3     H 7392   0.352   0.650  15.298  0.1139  2.6166 -1.2529
  497TMC3    H1 7393   0.447   0.885  15.642  0.7955 -1.6140  0.4771
  497TMC3    H2 7394   0.077   0.704  15.626  0.6389  0.1000  0.5570
  497TMC3    C7 7395   0.255   0.805  15.779  0.2536 -0.5783 -0.8852
  497TMC3    C8 7396   0.125   0.560  15.385  0.7631 -0.0604  0.4548
  497TMC3    O1 7397   0.144   0.815  15.829 -1.1577 -0.1805 -0.4482
  497TMC3    O2 7398   0.011   0.551  15.417  0.2291 -0.1517 -0.2402
  498MPD2     C 7399   1.593   0.812   9.404 -0.6290  0.6551  0.1715
  498MPD2    C1 7400   1.647   0.834   9.527 -0.9249  1.3493  0.6447
  498MPD2    C2 7401   1.607   0.746   9.625 -0.6351  1.1101  0.2402
  498MPD2    C3 7402   1.532   0.632   9.601  0.3960  0.2086  0.1495
  498MPD2    C4 7403   1.461   0.631   9.483  0.5582 -0.2931 -0.1370
  498MPD2    C5 7404   1.506   0.715   9.387  0.2087  0.7868  0.0040
  498MPD2     H 7405   1.645   0.741   9.726  0.1492 -0.4722 -0.1254
  498MPD2    H1 7406   1.382   0.561   9.460 -0.1570  0.9086 -1.3628
  498MPD2    H2 7407   1.616   0.864   9.311  2.0131  0.9039  0.9785
  498MPD2    H3 7408   1.462   0.703   9.289 -1.0572 -1.3411  0.8198
  498MPD2     N 7409   1.498   0.548   9.710  0.3863 -0.0775 -0.3721
  498MPD2    H5 7410   1.517   0.583   9.803 -0.6543  0.6168 -0.4192
  498MPD2    N1 7411   1.729   0.946   9.551 -0.0546 -0.2450  0.1816
  498MPD2    H7 7412   1.760   0.955   9.647 -0.7460 -0.1081  0.3984
  499TMC3    C1 7413   1.850   1.151   9.505  0.9412  0.9795 -0.1714
  499TMC3    C2 7414   1.923   1.132   9.620 -0.6250 -0.7650  0.6069
  499TMC3    C3 7415   2.007   1.230   9.661 -0.6704 -0.2693 -0.1542
  499TMC3    C4 7416   1.854   1.269   9.434 -0.0975 -0.1734  0.0017
  499TMC3    C5 7417   1.936   1.364   9.482  0.7209  0.3513 -1.2284
  499TMC3    C6 7418   2.013   1.351   9.597  0.5776  0.2869 -0.0938
  499TMC3     C 7419   1.770   1.041   9.453 -0.5307  0.1653 -0.0784
  499TMC3     O 7420   1.745   1.047   9.331 -0.2804 -0.2008 -0.5446
  499TMC3     H 7421   1.927   1.038   9.673 -1.9537 -1.5622 -0.6959
  499TMC3    H1 7422   1.795   1.289   9.345  0.4181  0.6075 -0.1593
  499TMC3    H2 7423   2.070   1.440   9.621 -0.8363  1.6833 -1.8891
  499TMC3    C7 7424   1.948   1.484   9.401  0.0160  0.1851  0.0517
  499TMC3    C8 7425   2.028   1.224   9.806 -0.1025  0.4556 -0.1694
  499TMC3    O1 7426   2.054   1.545   9.407 -0.1962  0.2930 -0.2736
  499TMC3    O2 7427   1.968   1.134   9.864  0.0783 -0.0457  0.4659
  500MPD2     C 7428   3.263   2.071  10.562  0.4741  0.0829  0.4533
  500MPD2    C1 7429   3.338   2.115  10.452  0.3991  0.0860  0.2381
  500MPD2    C2 7430   3.271   2.115  10.326 -0.2465  0.3248  0.8271
  500MPD2    C3 7431   3.144   2.070  10.313  0.5233  0.0071 -0.5798
  500MPD2    C4 7432   3.071   2.041  10.426  0.5801  0.4467  0.2511
  500MPD2    C5 7433   3.133   2.030  10.544 -1.3687  0.6009 -0.0029
  500MPD2     H 7434   3.330   2.136  10.238  0.5296 -2.6783  0.6245
  500MPD2    H1 7435   2.968   2.008  10.435  0.9251 -1.1857 -1.8135
  500MPD2    H2 7436   3.308   2.082  10.660  0.7354  1.7996  0.1304
  500MPD2    H3 7437   3.076   2.000  10.631 -0.1929  0.9727  0.9044
  500MPD2     N 7438   3.067   2.085  10.200  0.1561 -0.2415 -0.4236
  500MPD2    H5 7439   2.972   2.051  10.205 -0.4324  1.8244  2.4463
  500MPD2    N1 7440   3.476   2.142  10.462 -0.0119 -0.1285  0.1592
  500MPD2    H7 7441   3.521   2.166  10.374  1.0550  0.9350  0.9934
  501TMC3    C1 7442   3.699   2.179  10.561 -0.2363 -0.3066  0.1106
  501TMC3    C2 7443   3.752   2.247  10.456  0.0499 -0.2608 -0.7793
  501TMC3    C3 7444   3.877   2.296  10.470 -0.5380  0.0791 -0.4169
  501TMC3    C4 7445   3.761   2.173  10.681  0.4616  0.5061 -0.3328
  501TMC3    C5 7446   3.896   2.212  10.683  0.0496 -0.4258 -0.6913
  501TMC3    C6 7447   3.953   2.275  10.581  0.3445 -0.2873 -0.2063
  501TMC3     C 7448   3.561   2.130  10.573 -0.3035  0.1553 -0.1901
  501TMC3     O 7449   3.529   2.096  10.687  0.2395 -0.0959  0.2920
  501TMC3     H 7450   3.690   2.255  10.368 -0.0031  1.6856 -0.5587
  501TMC3    H1 7451   3.725   2.119  10.768 -1.2427  0.6572 -0.9371
  501TMC3    H2 7452   4.058   2.304  10.584 -0.1691  1.4070  1.7261
  501TMC3    C7 7453   3.986   2.148  10.774 -0.1691  0.1508  0.6814
  501TMC3    C8 7454   3.899   2.425  10.408  0.0813  0.3262 -0.4291
  501TMC3    O1 7455   3.944   2.052  10.835  0.3257 -0.1656  0.3026
  501TMC3    O2 7456   3.942   2.506  10.489  0.1828 -0.0836  0.0482
  502TMC3    C1 7457   2.807   1.485  15.448 -0.5363 -0.5867 -0.3095
  502TMC3    C2 7458   2.805   1.549  15.328 -0.5878 -0.4880  0.5609
  502TMC3    C3 7459   2.689   1.567  15.257 -0.5202  0.2560 -0.4210
  502TMC3    C4 7460   2.694   1.428  15.502 -0.1550  0.7843 -0.0147
  502TMC3    C5 7461   2.572   1.461  15.442 -0.5468 -0.1599 -0.5438
  502TMC3    C6 7462   2.570   1.522  15.320 -0.2657  0.4762 -0.5400
  502TMC3     C 7463   2.933   1.483  15.519  0.2221 -0.0373 -0.0000
  502TMC3     O 7464   3.033   1.515  15.452 -0.8567  0.2310  0.3397
  502TMC3     H 7465   2.901   1.580  15.289 -0.8540 -0.0297  0.2665
  502TMC3    H1 7466   2.699   1.366  15.592  0.0256 -2.0711 -1.9864
  502TMC3    H2 7467   2.475   1.555  15.277  0.0818  1.7752 -0.3227
  502TMC3    C7 7468   2.454   1.400  15.510  0.6845  0.1000  0.0467
  502TMC3    C8 7469   2.684   1.608  15.122 -0.2848 -0.1102  0.9954
  502TMC3    O1 7470   2.469   1.355  15.624 -0.0854 -0.3827  0.1074
  502TMC3    O2 7471   2.789   1.664  15.086 -0.4095 -0.1095  0.4236
  503MPD2     C 7472   4.600   2.017  17.093 -0.0878  0.2709 -0.1548
  503MPD2    C1 7473   4.672   2.098  17.180 -0.2624 -0.2609 -0.1969
  503MPD2    C2 7474   0.041   2.039  17.263  0.0264  0.1155 -0.5989
  503MPD2    C3 7475   0.058   1.903  17.258  0.4469  0.4483  0.7199
  503MPD2    C4 7476   4.715   1.821  17.166  0.0606 -0.0975 -0.2083
  503MPD2    C5 7477   4.626   1.884  17.083  0.1931  0.2136 -0.2770
  503MPD2     H 7478   0.107   2.098  17.325 -1.8238  0.2425  1.2270
  503MPD2    H1 7479   0.010   1.714  17.161 -0.3200 -0.0356 -2.9335
  503MPD2    H2 7480   4.527   2.059  17.025 -2.3403 -2.3442  0.6563
  503MPD2    H3 7481   4.572   1.842  16.999 -2.1827 -0.0808  1.3835
  503MPD2     N 7482   0.161   1.843  17.344  0.7397  0.3161 -0.0606
  503MPD2    H5 7483   0.200   1.906  17.414 -0.9970  2.5621 -1.1188
  503MPD2    N1 7484   4.666   2.237  17.188  0.8887 -0.2155  0.7898
  503MPD2    H7 7485   4.719   2.291  17.255  2.7275 -0.8014 -0.1970
  504TMC3    C1 7486   0.336   1.698  17.405 -0.8487  0.6285  0.2270
  504TMC3    C2 7487   0.323   1.711  17.542 -0.2253 -0.4403  0.4025
  504TMC3    C3 7488   0.425   1.667  17.628  0.7296  0.1925  0.1827
  504TMC3    C4 7489   0.441   1.627  17.349  0.0935  0.2071 -0.3347
  504TMC3    C5 7490   0.523   1.567  17.437  0.3991 -0.4118  0.0139
  504TMC3    C6 7491   0.518   1.582  17.570  0.2550 -0.2939 -0.4779
  504TMC3     C 7492   0.228   1.725  17.321 -0.2388  0.1615  0.2795
  504TMC3     O 7493   0.217   1.645  17.232  0.2680 -0.0934  0.2345
  504TMC3     H 7494   0.230   1.747  17.585 -1.9142 -2.5230 -1.5404
  504TMC3    H1 7495   0.442   1.621  17.241  0.7520 -1.2276 -0.2441
  504TMC3    H2 7496   0.591   1.532  17.634 -1.0110 -1.2477  0.2118
  504TMC3    C7 7497   0.624   1.475  17.380 -0.4202 -0.2377  0.7634
  504TMC3    C8 7498   0.380   1.614   0.076  0.0305 -0.6280  0.2156
  504TMC3    O1 7499   0.597   1.432  17.268 -0.2174 -0.3165  0.1787
  504TMC3    O2 7500   0.346   1.499   0.071 -0.7122  0.0339 -0.4434
  505MPD2     C 7501   0.758   4.622  10.482  0.4816  0.0435 -0.1649
  505MPD2    C1 7502   0.841   4.597  10.592 -0.3832  0.0131  0.1644
  505MPD2    C2 7503   0.871   4.696  10.688 -0.1600  1.1148 -0.5208
  505MPD2    C3 7504   0.804   0.096  10.677  0.0292 -0.3009  0.0236
  505MPD2    C4 7505   0.723   0.116  10.571  0.8811 -0.0488 -0.5056
  505MPD2    C5 7506   0.698   0.024  10.471  0.1987  0.6590 -0.0397
  505MPD2     H 7507   0.949   4.672  10.759  0.0090 -0.6436 -1.2982
  505MPD2    H1 7508   0.675   0.211  10.552  1.9146  0.5037 -0.3717
  505MPD2    H2 7509   0.732   4.546  10.410 -0.7015  0.2642  0.0319
  505MPD2    H3 7510   0.637   0.049  10.385  0.7980  1.0725 -0.3409
  505MPD2     N 7511   0.826   0.199  10.769  0.7631  0.3777 -0.5330
  505MPD2    H5 7512   0.788   0.291  10.748  0.4434 -0.1781 -2.4342
  505MPD2    N1 7513   0.900   4.464  10.592  0.3502 -0.0588 -0.2552
  505MPD2    H7 7514   0.903   4.407  10.508 -2.1791 -2.6853  1.4297
  506TMC3    C1 7515   1.024   4.281  10.666 -0.5086  0.7999  0.4102
  506TMC3    C2 7516   1.111   4.264  10.554  0.0816 -0.4730 -0.5893
  506TMC3    C3 7517   1.232   4.209  10.576 -0.6246  0.3172  0.5613
  506TMC3    C4 7518   1.054   4.216  10.785 -0.3914 -0.1773 -0.2629
  506TMC3    C5 7519   1.177   4.172  10.808 -0.0059 -0.5243  0.0607
  506TMC3    C6 7520   1.260   4.158  10.699 -0.0429  0.0387  1.0698
  506TMC3     C 7521   0.972   4.413  10.693  0.0745  0.7663 -0.0723
  506TMC3     O 7522   0.991   4.452  10.805  0.1537 -0.2643 -0.7518
  506TMC3     H 7523   1.090   4.321  10.465 -1.5503 -0.8792 -0.4624
  506TMC3    H1 7524   0.977   4.228  10.861  0.7305 -1.2126  1.0483
  506TMC3    H2 7525   1.357   4.118  10.724 -0.5463 -1.7455  0.1742
  506TMC3    C7 7526   1.250   4.232  10.919 -0.1365 -0.1288  0.0739
  506TMC3    C8 7527   1.345   4.236  10.487 -0.5200  0.1145 -0.2472
  506TMC3    O1 7528   1.351   4.180  10.968  0.2457  0.1889 -0.4683
  506TMC3    O2 7529   1.438   4.159  10.487  0.3719 -0.3515  0.1601
  507TMC3    C1 7530   0.978   1.541  14.729 -0.2607 -0.1892  0.0417
  507TMC3    C2 7531   1.007   1.520  14.601 -0.0276 -0.2081  0.5378
  507TMC3    C3 7532   1.139   1.519  14.560  0.8788 -0.0791 -0.2190
  507TMC3    C4 7533   1.069   1.587  14.817  0.0597 -0.0540  0.6312
  507TMC3    C5 7534   1.203   1.579  14.783 -1.0983 -0.0774  0.6793
  507TMC3    C6 7535   1.235   1.541  14.653  1.0370 -0.2798 -0.1301
  507TMC3     C 7536   0.840   1.566  14.764 -0.5139  0.2199 -0.9409
  507TMC3     O 7537   0.820   1.607  14.880 -0.6187  0.0741  0.4533
  507TMC3     H 7538   0.939   1.497  14.519  0.9463  1.9831 -0.8840
  507TMC3    H1 7539   1.043   1.634  14.911 -0.1094  1.5450 -0.2153
  507TMC3    H2 7540   1.338   1.541  14.622  1.6420  2.6559  1.8906
  507TMC3    C7 7541   1.275   1.698  14.825  0.1341 -0.2322 -0.3200
  507TMC3    C8 7542   1.143   1.604  14.445 -0.2308 -0.8184  0.0998
  507TMC3    O1 7543   1.352   1.740  14.737 -0.2373 -0.2422  0.1539
  507TMC3    O2 7544   1.061   1.589  14.356  0.3529  0.2842  0.0074
  508MPD2     C 7545   1.891   3.881  16.312 -0.1457 -0.0818  0.5879
  508MPD2    C1 7546   1.906   4.005  16.372 -0.4881 -0.2745 -0.2937
  508MPD2    C2 7547   1.936   4.120  16.298 -0.3506  0.6022 -0.0133
  508MPD2    C3 7548   1.967   4.102  16.165  0.4219  0.6030 -0.0612
  508MPD2    C4 7549   1.968   3.976  16.101  0.0087  0.2658  0.9046
  508MPD2    C5 7550   1.925   3.874  16.181 -0.3329 -0.2937 -0.0155
  508MPD2     H 7551   1.941   4.215  16.350 -0.1398 -0.2230  1.4934
  508MPD2    H1 7552   1.992   3.967  15.995 -0.1913  1.6050  0.7406
  508MPD2    H2 7553   1.871   3.794  16.372 -0.8915 -1.1356 -1.2116
  508MPD2    H3 7554   1.945   3.775  16.141 -1.1191  0.3938 -2.0938
  508MPD2     N 7555   1.996   4.228  16.101 -0.0102 -0.0957  0.6075
  508MPD2    H5 7556   2.000   4.310  16.161 -1.9325  0.8375 -0.5312
  508MPD2    N1 7557   1.878   4.040  16.504  0.1007 -0.2157 -0.7643
  508MPD2    H7 7558   1.878   4.138  16.531  0.6625 -0.7331  1.0447
  509TMC3    C1 7559   2.037   4.601  15.945  0.1072 -0.8990  0.4009
  509TMC3    C2 7560   2.163   4.641  15.914  0.0741 -0.3051  0.4567
  509TMC3    C3 7561   2.252   4.539  15.880  0.0169  1.1083 -0.3279
  509TMC3    C4 7562   1.999   4.470  15.955 -0.3547 -0.8771 -0.0025
  509TMC3    C5 7563   2.094   4.375  15.942  0.0480  0.1794 -0.6606
  509TMC3    C6 7564   2.215   4.406  15.889  0.2647  0.2847 -0.1196
  509TMC3     C 7565   1.916   4.693  15.934  0.4985  0.1574  0.3273
  509TMC3     O 7566   1.824   4.665  16.005 -0.3613  0.2612 -0.4239
  509TMC3     H 7567   2.188   0.027  15.913  0.8351 -0.4918 -0.3099
  509TMC3    H1 7568   1.897   4.447  15.985 -0.3760 -0.3954  0.2861
  509TMC3    H2 7569   2.285   4.324  15.872  0.3908 -0.0939  2.3493
  509TMC3    C7 7570   2.049   4.243  15.972 -0.0335  0.2253  0.0629
  509TMC3    C8 7571   2.380   4.583  15.842 -0.5415 -0.5599 -0.2465
  509TMC3    O1 7572   2.068   4.160  15.888 -0.2013 -0.2952  0.4576
  509TMC3    O2 7573   2.471   4.503  15.861 -0.3056  0.0662  0.1277
  510MPD2     C 7574   0.058   0.941  15.123  0.0287  0.2036 -0.1880
  510MPD2    C1 7575   0.052   0.806  15.100 -0.0451 -0.1780  0.3338
  510MPD2    C2 7576   0.168   0.735  15.068 -0.1750 -0.4246  0.1852
  510MPD2    C3 7577   0.293   0.786  15.057  0.8003 -0.3288 -0.2872
  510MPD2    C4 7578   0.299   0.918  15.099 -0.3069  0.1096  0.0032
  510MPD2    C5 7579   0.188   0.992  15.129  0.5841  0.9500  0.7898
  510MPD2     H 7580   0.157   0.635  15.026 -0.0911 -0.4065  0.1198
  510MPD2    H1 7581   0.393   0.971  15.109 -1.4256  1.8118  1.6535
  510MPD2    H2 7582   4.694   0.997  15.164  0.0418 -0.5339  0.8393
  510MPD2    H3 7583   0.203   1.094  15.163 -1.4620  1.2097  0.9288
  510MPD2     N 7584   0.403   0.702  15.025 -0.1543  0.3976 -0.3700
  510MPD2    H5 7585   0.393   0.601  15.027  0.5799  0.3784  2.4684
  510MPD2    N1 7586   4.648   0.747  15.108  0.1077  0.2785 -0.2271
  510MPD2    H7 7587   4.568   0.805  15.131  0.4092  1.2439 -1.6350
  511TMC3    C1 7588   4.500   0.559  15.138  0.8415 -0.1695 -0.8540
  511TMC3    C2 7589   4.432   0.634  15.233 -0.4487  0.3724 -0.0913
  511TMC3    C3 7590   4.326   0.573  15.289  0.4297 -0.0635 -0.5165
  511TMC3    C4 7591   4.455   0.443  15.090 -0.0671 -0.0366  0.2570
  511TMC3    C5 7592   4.342   0.387  15.152  0.5431 -0.2297 -0.6757
  511TMC3    C6 7593   4.277   0.454  15.254 -0.3356 -0.4336  0.1380
  511TMC3     C 7594   4.622   0.615  15.078 -0.3596  0.0180 -0.0428
  511TMC3     O 7595   4.682   0.545  14.999  0.0619  0.1875  0.2612
  511TMC3     H 7596   4.464   0.729  15.273  0.5285  0.5475 -1.3137
  511TMC3    H1 7597   4.511   0.390  15.013  1.4861 -1.4472  2.3836
  511TMC3    H2 7598   4.208   0.395  15.313 -2.4960  1.8625 -0.0998
  511TMC3    C7 7599   4.300   0.256  15.104 -0.6070  0.7752  0.3000
  511TMC3    C8 7600   4.244   0.649  15.382 -0.7084  0.1661  0.9678
  511TMC3    O1 7601   4.375   0.210  15.018  0.1796  0.4958  0.5036
  511TMC3    O2 7602   4.299   0.739  15.439 -0.4416 -0.0396 -0.1973
  512TMC3    C1 7603   3.280   0.107  13.481  0.0996 -0.6311 -0.2681
  512TMC3    C2 7604   3.332   0.080  13.606  0.3232 -0.1384 -0.1500
  512TMC3    C3 7605   3.414   4.689  13.611 -0.1256  0.7214 -0.4969
  512TMC3    C4 7606   3.328   0.047  13.364  0.4154  0.6564  0.1789
  512TMC3    C5 7607   3.403   4.655  13.376 -0.3539  0.2239 -0.5078
  512TMC3    C6 7608   3.442   4.611  13.498 -0.6207  0.0737  0.1249
  512TMC3     C 7609   3.162   0.191  13.478 -0.0342  0.0463  0.5435
  512TMC3     O 7610   3.149   0.261  13.379  0.7425  0.4735 -1.2565
  512TMC3     H 7611   3.308   0.137  13.696 -0.3253  0.8906 -0.9777
  512TMC3    H1 7612   3.287   0.072  13.267 -0.4992  1.0640  0.6647
  512TMC3    H2 7613   3.521   4.536  13.492  0.3810  1.1132  0.3687
  512TMC3    C7 7614   3.445   4.597  13.256 -0.0885  0.4631 -0.0338
  512TMC3    C8 7615   3.506   4.672  13.720 -0.7679 -0.0606 -0.6183
  512TMC3    O1 7616   3.440   4.662  13.152  0.8424 -0.5265 -0.1917
  512TMC3    O2 7617   3.578   4.572  13.713  0.1470 -0.3280 -0.1134
  513MPD2     C 7618   0.188   4.487  13.226  0.0140 -0.1647 -0.1903
  513MPD2    C1 7619   0.278   4.439  13.131  0.2884  0.1246 -0.0685
  513MPD2    C2 7620   0.406   4.494  13.132  0.3111  0.4453  0.1833
  513MPD2    C3 7621   0.425   4.614  13.196  0.5280 -0.2164  0.0220
  513MPD2    C4 7622   0.337   4.664  13.290 -0.2468 -0.5905  0.0935
  513MPD2    C5 7623   0.219   4.597  13.304  0.2442 -0.2467 -0.1147
  513MPD2     H 7624   0.487   4.458  13.068 -0.7134  1.9542 -1.9711
  513MPD2    H1 7625   0.368   0.027  13.354 -1.1437 -0.2999  0.1505
  513MPD2    H2 7626   0.095   4.433  13.239  0.7323 -1.4241 -0.3420
  513MPD2    H3 7627   0.156   4.629  13.387  1.0951  2.7279 -0.6356
  513MPD2     N 7628   0.547   4.676  13.165  0.3287 -0.5058 -0.2616
  513MPD2    H5 7629   0.602   4.630  13.094 -0.5703  0.0252 -1.2957
  513MPD2    N1 7630   0.251   4.319  13.068 -0.3194 -0.3094 -0.7078
  513MPD2    H7 7631   0.159   4.279  13.085  0.7516 -2.5831 -0.3650
  514TMC3    C1 7632   0.280   4.128  12.921 -0.5797 -0.0385  0.5828
  514TMC3    C2 7633   0.190   4.155  12.816 -0.3638  0.0781  0.1117
  514TMC3    C3 7634   0.221   4.103  12.691  0.0129 -0.4648 -0.3548
  514TMC3    C4 7635   0.391   4.044  12.903 -0.0376 -0.2806  0.2058
  514TMC3    C5 7636   0.417   3.998  12.781  0.1847  0.7769 -0.1604
  514TMC3    C6 7637   0.335   4.021  12.675  0.5124  0.2638  0.0178
  514TMC3     C 7638   0.330   4.259  12.980  0.1139 -0.0580 -0.1099
  514TMC3     O 7639   0.449   4.269  12.955  0.5440  0.2192 -0.7395
  514TMC3     H 7640   0.114   4.229  12.837 -1.3415 -1.1068  0.7126
  514TMC3    H1 7641   0.456   4.021  12.987  1.0934  0.5169 -0.4537
  514TMC3    H2 7642   0.349   3.970  12.581 -2.3123  2.3909 -1.5367
  514TMC3    C7 7643   0.563   3.995  12.761 -0.0919  0.0910  0.2726
  514TMC3    C8 7644   0.135   4.150  12.584 -0.0769 -0.8191  0.1776
  514TMC3    O1 7645   0.601   3.912  12.682 -0.1547 -0.6115  0.3579
  514TMC3    O2 7646   0.041   4.228  12.618  0.0027 -0.5811  0.5256
  515MPD2     C 7647   3.333   2.630  14.537  0.1163 -0.0164 -0.3644
  515MPD2    C1 7648   3.399   2.510  14.547  0.1506 -0.1458 -0.3707
  515MPD2    C2 7649   3.498   2.500  14.638  0.3539  0.1936  0.6210
  515MPD2    C3 7650   3.528   2.598  14.727 -0.0741  0.4781 -0.4761
  515MPD2    C4 7651   3.450   2.710  14.729  0.4393  0.3880 -0.0511
  515MPD2    C5 7652   3.356   2.732  14.631 -0.5143 -0.2822  0.2349
  515MPD2     H 7653   3.558   2.410  14.635  0.7650  0.4535  0.9402
  515MPD2    H1 7654   3.466   2.793  14.797 -1.0702  2.1996 -1.8768
  515MPD2    H2 7655   3.266   2.652  14.455  0.9465 -1.4500 -1.4087
  515MPD2    H3 7656   3.290   2.816  14.614 -0.1579 -0.2656 -1.0232
  515MPD2     N 7657   3.627   2.585  14.828 -0.0200 -0.0719  0.1155
  515MPD2    H5 7658   3.628   2.662  14.894 -1.2167 -0.8400  1.0464
  515MPD2    N1 7659   3.363   2.398  14.470  0.2175 -0.6562 -0.9899
  515MPD2    H7 7660   3.420   2.315  14.476  0.9624 -0.0807 -0.1491
  516TMC3    C1 7661   3.217   2.265  14.340  0.0254 -0.1946  0.1061
  516TMC3    C2 7662   3.108   2.264  14.262  0.0009 -0.6208 -0.4789
  516TMC3    C3 7663   3.015   2.169  14.278  0.0624 -0.1679 -0.2116
  516TMC3    C4 7664   3.241   2.167  14.436 -0.1158 -0.3965 -0.2863
  516TMC3    C5 7665   3.142   2.068  14.451 -0.3739 -0.3291  0.4932
  516TMC3    C6 7666   3.031   2.071  14.372 -0.2878  0.3405  0.3525
  516TMC3     C 7667   3.260   2.396  14.379 -0.1971 -0.2494 -0.5376
  516TMC3     O 7668   3.202   2.486  14.324  0.0491 -0.0475 -0.2108
  516TMC3     H 7669   3.095   2.341  14.186  1.1413  0.1899  0.1427
  516TMC3    H1 7670   3.333   2.155  14.492 -0.3903  1.0096  0.4623
  516TMC3    H2 7671   2.959   1.991  14.379  1.0206 -0.8933 -0.1558
  516TMC3    C7 7672   3.123   2.002  14.580  0.3797  0.4404  0.0385
  516TMC3    C8 7673   2.913   2.139  14.171  1.0183 -0.1059  0.3638
  516TMC3    O1 7674   3.051   1.905  14.577 -0.2270  0.0164  0.3894
  516TMC3    O2 7675   2.825   2.051  14.183 -0.1312  0.4140 -0.8428
  517MPD2     C 7676   2.731   3.393   0.084  0.2574  0.1966  0.3336
  517MPD2    C1 7677   2.868   3.418   0.080 -0.0115  0.0715  0.6289
  517MPD2    C2 7678   2.922   3.547   0.101 -0.4076 -0.8878  0.4660
  517MPD2    C3 7679   2.836   3.647   0.142  0.3952 -0.3718 -0.6329
  517MPD2    C4 7680   2.703   3.619   0.158 -0.1393 -0.4919  0.2232
  517MPD2    C5 7681   2.655   3.495   0.127 -0.5263  0.7496  0.0970
  517MPD2     H 7682   3.030   3.559   0.094 -0.6132 -0.0421 -1.1176
  517MPD2    H1 7683   2.632   3.697   0.185 -0.2486 -0.2007 -0.8996
  517MPD2    H2 7684   2.686   3.297   0.063  0.2985 -0.0009  1.1773
  517MPD2    H3 7685   2.547   3.481   0.128 -0.3061 -0.7684  1.3354
  517MPD2     N 7686   2.882   3.778   0.171  0.3238 -0.4726 -0.0451
  517MPD2    H5 7687   2.806   3.845   0.169  0.0563 -0.7772 -0.2355
  517MPD2    N1 7688   2.965   3.325   0.046 -0.0982  0.0361  0.0202
  517MPD2    H7 7689   3.064   3.349   0.043 -0.8151  2.9351 -0.6476
  518TMC3    C1 7690   3.064   3.112   0.023 -0.4735 -0.1915  0.4107
  518TMC3    C2 7691   3.044   2.980  17.667  0.0690 -0.3126 -0.1974
  518TMC3    C3 7692   3.152   2.903  17.634 -0.2908  1.0079  0.0938
  518TMC3    C4 7693   3.185   3.163   0.031  0.4359  0.0170 -0.9100
  518TMC3    C5 7694   3.296   3.089  17.670  0.5108  0.1868 -0.0831
  518TMC3    C6 7695   3.282   2.954  17.638  0.0483 -0.2311 -0.2200
  518TMC3     C 7696   2.942   3.191   0.045  0.1951 -0.0798 -0.0820
  518TMC3     O 7697   2.833   3.133   0.049  0.0196 -0.3809 -0.6941
  518TMC3     H 7698   2.943   2.940  17.661  1.0469 -2.7347 -0.7235
  518TMC3    H1 7699   3.204   3.270   0.033 -2.2933  0.4732  0.5376
  518TMC3    H2 7700   3.373   2.911  17.598 -0.2150 -0.7266 -0.2894
  518TMC3    C7 7701   3.428   3.149   0.002  0.8619 -0.6298 -0.1416
  518TMC3    C8 7702   3.141   2.760  17.614 -0.5893 -0.2221  0.3747
  518TMC3    O1 7703   3.430   3.270  17.680  0.5962  0.2226  0.2220
  518TMC3    O2 7704   3.244   2.689  17.618  0.0900 -0.6068 -0.1041
  519MPD2     C 7705   0.378   2.142  13.960 -0.5489 -1.0307  0.9739
  519MPD2    C1 7706   0.284   2.094  13.880 -0.0007  0.2876  0.5497
  519MPD2    C2 7707   0.289   1.970  13.827  0.1690 -0.0140  0.2732
  519MPD2    C3 7708   0.387   1.889  13.875  0.0400  0.4086 -0.2168
  519MPD2    C4 7709   0.494   1.947  13.938  0.8711  0.1869 -0.4788
  519MPD2    C5 7710   0.490   2.075  13.978  0.1904 -0.2821 -0.8498
  519MPD2     H 7711   0.204   1.937  13.767  0.5042  1.5009 -1.0109
  519MPD2    H1 7712   0.582   1.892  13.971  0.1978 -0.3266  0.5028
  519MPD2    H2 7713   0.367   2.237  14.012 -0.7223 -0.2691 -0.4451
  519MPD2    H3 7714   0.562   2.110  14.052 -1.4618  0.8123  0.2581
  519MPD2     N 7715   0.385   1.748  13.856 -0.1195 -0.0391  0.7716
  519MPD2    H5 7716   0.458   1.693  13.900  1.0779 -0.1333 -1.3341
  519MPD2    N1 7717   0.174   2.180  13.849  0.0628 -0.1433 -0.0407
  519MPD2    H7 7718   0.168   2.265  13.905 -0.7970 -0.8887  1.0021
  520TMC3    C1 7719   0.264   1.544  13.856 -0.0609 -0.6001 -0.1956
  520TMC3    C2 7720   0.141   1.490  13.873 -0.0591 -0.0718 -0.3688
  520TMC3    C3 7721   0.132   1.364  13.926  0.4256 -0.1721  0.7060
  520TMC3    C4 7722   0.381   1.483  13.889 -0.1066 -0.0668  0.4418
  520TMC3    C5 7723   0.367   1.351  13.930  0.1166 -0.0385  0.1355
  520TMC3    C6 7724   0.250   1.295  13.955  0.0547  0.2595  0.2962
  520TMC3     C 7725   0.276   1.680  13.798 -0.6041 -0.0310  0.5782
  520TMC3     O 7726   0.180   1.712  13.730 -1.0486  0.3927 -0.3186
  520TMC3     H 7727   0.054   1.549  13.846 -1.5578 -0.8750  2.7218
  520TMC3    H1 7728   0.477   1.531  13.871 -0.5004  0.1578 -1.0950
  520TMC3    H2 7729   0.243   1.193  13.991 -1.1597  0.3420  0.3066
  520TMC3    C7 7730   0.491   1.280  13.963 -0.1660 -0.2335  0.0330
  520TMC3    C8 7731   0.003   1.297  13.946  0.2932 -0.0113 -0.5072
  520TMC3    O1 7732   0.486   1.174  14.029 -0.3589  0.3958  0.3726
  520TMC3    O2 7733   4.719   1.174  13.936 -0.0203  0.2961  0.3317
  521MPD2     C 7734   0.359   0.219  17.380 -0.4191  0.5205  0.3931
  521MPD2    C1 7735   0.354   0.130  17.279 -0.1169 -0.4565 -0.2369
  521MPD2    C2 7736   0.468   0.080  17.216  0.1242 -0.0075 -0.6803
  521MPD2    C3 7737   0.589   0.126  17.264 -0.3812 -0.2962 -0.6207
  521MPD2    C4 7738   0.595   0.227  17.358  0.1434  0.4682 -0.6927
  521MPD2    C5 7739   0.479   0.277  17.413  0.7792  0.3270 -0.1432
  521MPD2     H 7740   0.461   0.008  17.135 -0.8408 -0.0481 -0.5690
  521MPD2    H1 7741   0.688   0.280  17.372 -0.0330  1.2597 -2.5224
  521MPD2    H2 7742   0.265   0.260  17.416 -0.1030  0.0142  1.8170
  521MPD2    H3 7743   0.494   0.366  17.474 -0.8974  1.3336 -1.2005
  521MPD2     N 7744   0.701   0.089  17.191  0.1874 -0.2020 -0.1916
  521MPD2    H5 7745   0.680   0.024  17.116 -1.6986  1.3575 -1.0113
  521MPD2    N1 7746   0.230   0.072  17.252 -0.2786 -0.6125  0.3077
  521MPD2    H7 7747   0.165   0.077  17.331 -0.3415 -2.0246  0.3599
  522TMC3    C1 7748   0.921   0.032  17.153 -0.1475 -0.0583 -0.4753
  522TMC3    C2 7749   1.028   4.709  17.222  0.1536 -0.5592 -0.0203
  522TMC3    C3 7750   1.134   4.659  17.159 -0.6423  0.8036 -0.1870
  522TMC3    C4 7751   0.913   0.024  17.016 -0.2370  0.1442  0.2420
  522TMC3    C5 7752   1.027   4.706  16.949  0.7881 -0.3648  0.9205
  522TMC3    C6 7753   1.138   4.664  17.020  0.1574  0.2695  0.4958
  522TMC3     C 7754   0.828   0.112  17.225  0.8039 -0.3158 -0.3241
  522TMC3     O 7755   0.883   0.168  17.316  0.4019  0.3656  0.0362
  522TMC3     H 7756   1.037   0.006  17.329  1.7057  0.5373 -0.3136
  522TMC3    H1 7757   0.827   0.069  16.968  0.1379 -0.7512 -1.2772
  522TMC3    H2 7758   1.222   4.632  16.960 -1.6449  0.9033 -2.3573
  522TMC3    C7 7759   1.023   4.681  16.804  0.1832 -0.4001  0.4756
  522TMC3    C8 7760   1.259   4.658  17.222  0.3414  0.3312  0.3550
  522TMC3    O1 7761   1.096   4.600  16.754  0.9863 -0.1978 -0.0470
  522TMC3    O2 7762   1.284   0.017  17.313 -0.0414  0.3802  0.4453
  523MPD2     C 7763   3.107   3.314   9.609  0.3277  0.3816 -0.4050
  523MPD2    C1 7764   3.142   3.361   9.734 -0.5104 -0.3699  0.5062
  523MPD2    C2 7765   3.111   3.495   9.759 -0.9900 -0.7034 -0.4177
  523MPD2    C3 7766   3.049   3.567   9.665 -0.2274  0.1679  0.2171
  523MPD2    C4 7767   3.022   3.520   9.533 -0.8507 -0.3205 -0.4514
  523MPD2    C5 7768   3.062   3.388   9.507  0.2304 -0.2704 -0.3132
  523MPD2     H 7769   3.138   3.546   9.850 -0.8843 -1.4510 -0.0337
  523MPD2    H1 7770   2.993   3.586   9.452  1.4068  0.2396 -0.8116
  523MPD2    H2 7771   3.124   3.211   9.579 -0.4498 -0.4881  2.1176
  523MPD2    H3 7772   3.052   3.351   9.405  2.0620  3.2390 -1.7509
  523MPD2     N 7773   3.033   3.707   9.680 -0.0057 -0.8265  0.7992
  523MPD2    H5 7774   2.999   3.749   9.595 -0.4646 -0.1606  1.3142
  523MPD2    N1 7775   3.210   3.280   9.823 -0.1724 -0.6465  0.0891
  523MPD2    H7 7776   3.231   3.185   9.793 -0.6219 -0.8404  0.3792
  524TMC3    C1 7777   3.031   3.929   9.765 -0.8756 -0.3351  1.3432
  524TMC3    C2 7778   2.959   3.952   9.651 -0.4324  0.4795 -0.0428
  524TMC3    C3 7779   2.922   4.086   9.641  0.0039  0.1081 -0.7330
  524TMC3    C4 7780   3.039   4.017   9.867  0.4971  0.4587  0.8023
  524TMC3    C5 7781   2.997   4.142   9.852  0.3425 -0.1039  0.9681
  524TMC3    C6 7782   2.930   4.177   9.738  1.0640  0.1593  0.0140
  524TMC3     C 7783   3.074   3.789   9.785 -1.1705 -0.0827  0.2066
  524TMC3     O 7784   3.116   3.765   9.897  1.0199  0.6617  0.3655
  524TMC3     H 7785   2.966   3.889   9.563  2.3940  0.9453 -0.1695
  524TMC3    H1 7786   3.093   3.986   9.956  0.0669 -2.1152  0.1444
  524TMC3    H2 7787   2.860   4.258   9.725  0.4788 -0.0029  2.1769
  524TMC3    C7 7788   2.967   4.216   9.977 -0.0467  0.0401 -0.0442
  524TMC3    C8 7789   2.844   4.131   9.527  0.1473 -0.2862  0.0134
  524TMC3    O1 7790   3.024   4.172  10.079  0.7585 -0.3050  0.2977
  524TMC3    O2 7791   2.761   4.054   9.481  0.5404 -0.4645  0.1582
  525MPD2     C 7792   1.349   1.258  14.344  0.4081 -0.3821  0.0168
  525MPD2    C1 7793   1.478   1.293  14.377  0.9929 -0.2207 -0.6220
  525MPD2    C2 7794   1.542   1.396  14.305  0.2842 -0.6049  0.4154
  525MPD2    C3 7795   1.476   1.472  14.217  0.2254  0.7556 -0.7094
  525MPD2    C4 7796   1.346   1.438  14.188  0.4261  0.0565  0.6217
  525MPD2    C5 7797   1.288   1.327  14.246 -0.0745  0.0832 -0.0057
  525MPD2     H 7798   1.643   1.426  14.334  0.8040 -3.0421  1.0790
  525MPD2    H1 7799   1.294   1.489  14.108  1.3392  1.0632  0.6671
  525MPD2    H2 7800   1.289   1.180  14.389  0.2458 -0.2082  0.1068
  525MPD2    H3 7801   1.185   1.298  14.228  0.1264 -1.3230  1.1212
  525MPD2     N 7802   1.514   1.582  14.145  0.3621  0.0715  0.3623
  525MPD2    H5 7803   1.447   1.632  14.087 -0.5654 -2.0417 -0.3741
  525MPD2    N1 7804   1.540   1.247  14.497  0.5810  0.0045 -0.1194
  525MPD2    H7 7805   1.639   1.262  14.510  0.3660 -0.3484  1.9972
  526TMC3    C1 7806   1.574   1.109  14.682  0.1498 -0.0082  0.5264
  526TMC3    C2 7807   1.529   1.118  14.813 -0.1135  0.4763  0.0396
  526TMC3    C3 7808   1.622   1.105  14.909  0.1848  0.1120  0.1495
  526TMC3    C4 7809   1.696   1.068  14.643  0.3974 -0.0029  0.7234
  526TMC3    C5 7810   1.780   1.057  14.748 -0.0048 -0.3093 -0.6052
  526TMC3    C6 7811   1.751   1.080  14.878 -0.2408  0.9901  0.3053
  526TMC3     C 7812   1.484   1.157  14.585  0.3044 -0.5928 -0.0119
  526TMC3     O 7813   1.365   1.135  14.612  0.6782 -0.0569  0.2206
  526TMC3     H 7814   1.426   1.133  14.842 -0.1759  1.2384 -0.5604
  526TMC3    H1 7815   1.727   1.052  14.540  1.9543  0.2032  1.1666
  526TMC3    H2 7816   1.821   1.065  14.960  0.6922  0.2038 -0.6305
  526TMC3    C7 7817   1.916   1.060  14.713  0.4744 -0.1147  0.0784
  526TMC3    C8 7818   1.584   1.119  15.053 -0.3860 -0.5038 -0.6505
  526TMC3    O1 7819   1.995   1.099  14.801  0.8993 -0.7710 -0.2913
  526TMC3    O2 7820   1.678   1.143  15.129 -0.5586  0.1917 -0.2393
  527MPD2     C 7821   0.474   0.060   0.146 -0.4101  0.2341 -0.2005
  527MPD2    C1 7822   0.508   4.675   0.235 -0.3971  0.3132  0.1083
  527MPD2    C2 7823   0.615   4.603   0.194  0.4963 -0.4633  0.3953
  527MPD2    C3 7824   0.692   4.635   0.079  0.4071 -0.1294  0.3522
  527MPD2    C4 7825   0.655   0.024  17.678 -0.0036 -0.3458  0.2983
  527MPD2    C5 7826   0.549   0.098   0.035 -0.0219 -0.4995  0.1241
  527MPD2     H 7827   0.651   4.523   0.257 -1.1631 -0.3357  1.4752
  527MPD2    H1 7828   0.711   0.062  17.593  0.2577 -0.7352  0.2981
  527MPD2    H2 7829   0.389   0.126   0.161  0.9617  2.4702 -2.3128
  527MPD2    H3 7830   0.522   0.181  17.651  1.1578 -0.9563 -0.9613
  527MPD2     N 7831   0.806   4.551   0.042 -0.0075 -0.4083 -0.3539
  527MPD2    H5 7832   0.834   4.478   0.106  0.3421  0.4244  0.4504
  527MPD2    N1 7833   0.437   4.637   0.348  0.1064 -0.3735  1.1910
  527MPD2    H7 7834   0.474   4.565   0.410 -2.1170 -1.6923  0.9916
  528TMC3    C1 7835   0.253   4.620   0.492 -0.4028 -0.2996 -0.8364
  528TMC3    C2 7836   0.327   4.533   0.568  0.4815 -0.4000 -0.0788
  528TMC3    C3 7837   0.275   4.486   0.686 -0.5937  0.4845 -0.2990
  528TMC3    C4 7838   0.142   4.681   0.548  0.8828 -0.3758  0.3157
  528TMC3    C5 7839   0.097   4.641   0.672 -0.2908  0.0859 -0.4171
  528TMC3    C6 7840   0.168   4.542   0.741 -0.0992  0.7632  0.4649
  528TMC3     C 7841   0.318   4.688   0.381 -0.2277 -0.1408 -0.3480
  528TMC3     O 7842   0.245   0.047   0.326 -0.2716  0.1176  0.6348
  528TMC3     H 7843   0.417   4.492   0.524  0.6639  0.3443 -0.3923
  528TMC3    H1 7844   0.084   0.033   0.491  0.5980 -2.0824 -1.5170
  528TMC3    H2 7845   0.135   4.511   0.839  2.0095 -2.1869  0.2487
  528TMC3    C7 7846   4.678   4.673   0.713  1.0516  0.3897 -0.1142
  528TMC3    C8 7847   0.349   4.391   0.773 -0.0546  0.2833  0.2443
  528TMC3    O1 7848   4.635   4.597   0.795  0.6647 -0.1324  0.4299
  528TMC3    O2 7849   0.312   4.381   0.886  0.2968 -0.3857  0.2368
  529MPD2     C 7850   1.095   2.361   0.915 -0.3865 -0.0735  0.0375
  529MPD2    C1 7851   1.204   2.443   0.900 -0.1660  0.3532 -0.1690
  529MPD2    C2 7852   1.193   2.556   0.819  0.3795 -0.8483  0.2217
  529MPD2    C3 7853   1.079   2.565   0.734 -0.0015  0.0985 -0.2690
  529MPD2    C4 7854   0.972   2.481   0.749 -0.6123  0.8463 -0.0664
  529MPD2    C5 7855   0.984   2.382   0.841 -0.3929 -0.2854 -0.3401
  529MPD2     H 7856   1.271   2.630   0.806 -1.6714  1.2253 -0.5063
  529MPD2    H1 7857   0.882   2.506   0.695 -0.6824  1.5608  0.3839
  529MPD2    H2 7858   1.084   2.275   0.980  0.8362  0.3935  0.8531
  529MPD2    H3 7859   0.902   2.313   0.855 -0.6809 -0.1725 -1.4589
  529MPD2     N 7860   1.064   2.662   0.633 -0.3911  0.8625 -0.3119
  529MPD2    H5 7861   1.000   2.634   0.560  1.3412  0.9884 -1.8962
  529MPD2    N1 7862   1.330   2.423   0.964 -0.1307 -0.3996 -0.3398
  529MPD2    H7 7863   1.402   2.492   0.941 -2.3794  1.7205 -1.0405
  530TMC3    C1 7864   1.496   2.353   1.113 -0.6688 -0.2104 -0.0190
  530TMC3    C2 7865   1.571   2.466   1.077  0.1848  0.0426  0.3346
  530TMC3    C3 7866   1.689   2.479   1.145 -0.5594  0.7482 -0.5091
  530TMC3    C4 7867   1.539   2.259   1.195 -0.1351  0.0371  0.4080
  530TMC3    C5 7868   1.658   2.274   1.259  0.1480 -0.6215 -0.7545
  530TMC3    C6 7869   1.737   2.373   1.218 -0.1277  0.4626  0.2561
  530TMC3     C 7870   1.356   2.329   1.056 -0.2637  0.4328  0.0620
  530TMC3     O 7871   1.292   2.231   1.091  0.7734 -0.2393 -0.1687
  530TMC3     H 7872   1.529   2.545   1.015 -0.4086  0.7983  1.7088
  530TMC3    H1 7873   1.475   2.174   1.214 -0.3873 -0.6116 -3.4656
  530TMC3    H2 7874   1.833   2.386   1.265  0.2724 -1.3840 -0.0566
  530TMC3    C7 7875   1.673   2.193   1.377 -0.2540  0.5536 -0.1907
  530TMC3    C8 7876   1.782   2.575   1.086 -0.8783 -0.4354 -0.7169
  530TMC3    O1 7877   1.601   2.098   1.395 -0.1398 -0.6195 -0.2153
  530TMC3    O2 7878   1.731   2.663   1.018  0.1776  0.3599  0.4023
  531MPD2     C 7879   1.008   4.248  12.813  0.4570  0.5564 -0.6577
  531MPD2    C1 7880   0.910   4.312  12.886 -0.2030  0.4750  0.0353
  531MPD2    C2 7881   0.785   4.260  12.895 -0.4415 -0.2310 -0.0449
  531MPD2    C3 7882   0.755   4.139  12.826 -0.7248 -0.1507 -0.1354
  531MPD2    C4 7883   0.850   4.083  12.745 -0.0442  0.1622  0.1303
  531MPD2    C5 7884   0.981   4.128  12.750  0.4109 -0.5280  0.0053
  531MPD2     H 7885   0.716   4.295  12.971 -0.4727 -0.5317  0.0645
  531MPD2    H1 7886   0.832   3.987  12.697 -0.0557  0.5595 -0.6618
  531MPD2    H2 7887   1.107   4.290  12.813  1.4585 -1.7518  4.2024
  531MPD2    H3 7888   1.060   4.077  12.696  2.5900  1.7643  1.0157
  531MPD2     N 7889   0.626   4.093  12.832 -0.7271  0.1837  0.6450
  531MPD2    H5 7890   0.575   4.156  12.892  0.7515  1.3463  0.6918
  531MPD2    N1 7891   0.942   4.434  12.945  0.1872  0.3211  0.5690
  531MPD2    H7 7892   1.040   4.463  12.947  0.3944 -0.4376  1.3192
  532TMC3    C1 7893   0.878   4.645  13.048 -0.3393 -0.1771  0.1521
  532TMC3    C2 7894   0.762   0.001  13.063 -0.6555 -0.3018 -0.2768
  532TMC3    C3 7895   0.742   0.062  13.183  0.3491 -0.4760 -0.2084
  532TMC3    C4 7896   0.981   4.650  13.138  0.1003 -0.0669  0.3093
  532TMC3    C5 7897   0.956   0.001  13.252 -0.0230 -0.7774  0.3066
  532TMC3    C6 7898   0.839   0.072  13.276 -0.8602 -0.4899 -0.2257
  532TMC3     C 7899   0.838   4.523  12.977 -0.1480 -0.1073 -0.4585
  532TMC3     O 7900   0.717   4.511  12.991 -0.4030 -0.4779  0.0897
  532TMC3     H 7901   0.693   0.023  12.983 -0.4956  0.2839 -0.2556
  532TMC3    H1 7902   1.062   4.579  13.123 -1.3093 -1.4939 -0.6698
  532TMC3    H2 7903   0.825   0.122  13.371  3.4547  1.1075 -0.4179
  532TMC3    C7 7904   1.047   0.015  13.359 -0.0734 -0.0321  0.7802
  532TMC3    C8 7905   0.610   0.060  13.239  0.5524  0.2101  0.0239
  532TMC3    O1 7906   1.025   0.115  13.425  0.2439 -0.8431  0.4627
  532TMC3    O2 7907   0.586   0.127  13.341 -0.2070 -0.0839  0.4735
  533TMC3    C1 7908   1.654   1.754  14.076 -1.0825 -0.2955 -0.1620
  533TMC3    C2 7909   1.787   1.783  14.043 -0.3311 -0.3505  0.2234
  533TMC3    C3 7910   1.845   1.896  14.094  0.2380  0.2471 -0.3230
  533TMC3    C4 7911   1.592   1.837  14.173 -0.8396  0.6958  0.3410
  533TMC3    C5 7912   1.656   1.939  14.236  0.0251 -0.4362 -0.4669
  533TMC3    C6 7913   1.788   1.967  14.194  0.0063  0.6255  0.6083
  533TMC3     C 7914   1.643   1.617  14.130 -0.5430  0.2715 -0.3356
  533TMC3     O 7915   1.745   1.549  14.144  0.3833 -0.1850  0.3660
  533TMC3     H 7916   1.828   1.714  13.970 -0.6081 -1.4446  1.1019
  533TMC3    H1 7917   1.496   1.801  14.205 -0.8243  0.8384  0.5438
  533TMC3    H2 7918   1.840   2.054  14.233 -0.3254  1.5047 -0.8900
  533TMC3    C7 7919   1.633   1.930  14.379  0.2036  0.6413  0.1859
  533TMC3    C8 7920   1.970   1.939  14.038  0.0032 -0.3450  0.3668
  533TMC3    O1 7921   1.610   1.820  14.425  0.2920  0.0901 -0.2855
  533TMC3    O2 7922   1.997   1.921  13.919 -0.7544 -0.1275  0.6949
  534MPD2     C 7923   4.054   3.898   1.141 -0.4101 -0.2293 -0.2546
  534MPD2    C1 7924   4.127   3.797   1.088 -0.6558 -0.6491  0.6550
  534MPD2    C2 7925   4.079   3.663   1.105 -0.1622  0.0239 -0.7495
  534MPD2    C3 7926   3.963   3.644   1.180  1.0764 -0.1287 -0.8429
  534MPD2    C4 7927   3.907   3.758   1.241 -0.3144  0.3438 -0.3310
  534MPD2    C5 7928   3.940   3.889   1.207 -0.0274 -0.6016  1.0715
  534MPD2     H 7929   4.136   3.578   1.069  0.0742  0.0934 -0.5430
  534MPD2    H1 7930   3.823   3.746   1.309 -0.9211 -0.6952 -1.2548
  534MPD2    H2 7931   4.081   3.999   1.113  0.6420 -0.8189 -1.3744
  534MPD2    H3 7932   3.882   3.972   1.245  0.6964 -0.6503  2.2956
  534MPD2     N 7933   3.906   3.511   1.192  0.2222  0.7862 -0.6094
  534MPD2    H5 7934   3.968   3.438   1.157 -1.0285 -1.2972  1.5422
  534MPD2    N1 7935   4.244   3.829   1.012  0.6709 -0.3027  0.1138
  534MPD2    H7 7936   4.260   3.928   0.993  1.6571 -0.3749  0.5247
  535TMC3    C1 7937   3.746   3.334   1.234  0.0896  0.4460  0.8499
  535TMC3    C2 7938   3.622   3.297   1.189 -0.0103  0.0583  0.3619
  535TMC3    C3 7939   3.602   3.164   1.162 -0.5900  0.4114 -0.3706
  535TMC3    C4 7940   3.849   3.247   1.265  0.3571 -0.3107  0.5471
  535TMC3    C5 7941   3.816   3.116   1.250  0.2854  0.8240  0.3903
  535TMC3    C6 7942   3.694   3.079   1.199 -0.6140  0.0459  0.0911
  535TMC3     C 7943   3.778   3.477   1.231  0.0813  0.6146 -0.0893
  535TMC3     O 7944   3.677   3.543   1.237  0.0112 -0.2741  0.0654
  535TMC3     H 7945   3.551   3.377   1.174  0.7593  0.8477  0.8892
  535TMC3    H1 7946   3.945   3.292   1.288 -0.8182  2.1034  0.7222
  535TMC3    H2 7947   3.674   2.974   1.180  1.6891  0.0060 -2.0966
  535TMC3    C7 7948   3.915   3.009   1.267 -0.8401  0.4781  0.4045
  535TMC3    C8 7949   3.470   3.108   1.173  0.5510 -0.3393  0.1718
  535TMC3    O1 7950   3.884   2.901   1.225  0.4922 -0.0551  0.0668
  535TMC3    O2 7951   3.443   3.013   1.247 -0.3965  0.1916  0.3735
  536MPD2     C 7952   3.264   1.366  16.975  0.0126  0.4750  0.0788
  536MPD2    C1 7953   3.241   1.233  16.940  0.1676 -0.2674  0.3186
  536MPD2    C2 7954   3.179   1.203  16.824  0.1608 -0.2073  0.0117
  536MPD2    C3 7955   3.120   1.304  16.746  0.1801 -0.4199  0.4901
  536MPD2    C4 7956   3.138   1.440  16.786 -0.0544  0.2428  0.2070
  536MPD2    C5 7957   3.203   1.467  16.900  0.5251  0.2532  0.3076
  536MPD2     H 7958   3.167   1.098  16.798 -3.2060 -0.4648  2.6178
  536MPD2    H1 7959   3.101   1.522  16.726 -2.2766 -1.3890 -0.6462
  536MPD2    H2 7960   3.334   1.401  17.050 -0.7182  3.2291 -0.5341
  536MPD2    H3 7961   3.215   1.570  16.930  0.8702 -0.3660  2.3034
  536MPD2     N 7962   3.063   1.284  16.618  0.4335  0.3296 -0.0629
  536MPD2    H5 7963   3.038   1.367  16.565  0.7920 -0.3649 -1.3202
  536MPD2    N1 7964   3.304   1.138  17.027  0.0547 -0.4338  0.0904
  536MPD2    H7 7965   3.354   1.181  17.104  0.9079 -2.1044  0.4754
  537TMC3    C1 7966   3.340   0.926  17.123  0.5543 -0.5013 -0.4061
  537TMC3    C2 7967   3.304   0.979  17.249  0.0934  0.1959 -0.2271
  537TMC3    C3 7968   3.297   0.899  17.356 -0.0839  0.3690  0.4016
  537TMC3    C4 7969   3.366   0.794  17.111 -0.5069  0.8480 -0.2417
  537TMC3    C5 7970   3.345   0.716  17.217 -0.7040 -0.3309  0.2947
  537TMC3    C6 7971   3.317   0.764  17.346  0.1244  0.2467 -0.1122
  537TMC3     C 7972   3.301   1.003  17.009 -1.2643  0.3641  0.1353
  537TMC3     O 7973   3.266   0.937  16.910 -0.0198 -0.3043  0.0950
  537TMC3     H 7974   3.289   1.084  17.271  3.4202  0.1724  2.0538
  537TMC3    H1 7975   3.405   0.742  17.025  0.1044  0.5205  0.2345
  537TMC3    H2 7976   3.323   0.687  17.422 -1.7307  1.1118  0.8881
  537TMC3    C7 7977   3.397   0.581  17.216 -0.4227  0.2639 -0.7142
  537TMC3    C8 7978   3.261   0.963  17.480  0.0036  0.7375 -0.6818
  537TMC3    O1 7979   3.478   0.545  17.131  0.3588 -0.7140 -0.4161
  537TMC3    O2 7980   3.281   1.086  17.501  0.2821  0.3903  0.0948
  538TMC3    C1 7981   4.154   3.513  10.502  0.3158  0.3241 -0.2296
  538TMC3    C2 7982   4.287   3.514  10.469  0.6492  0.0790  0.0430
  538TMC3    C3 7983   4.318   3.587  10.355 -0.4281 -0.2972 -0.7928
  538TMC3    C4 7984   4.059   3.569  10.425 -0.1751  0.2433 -0.0044
  538TMC3    C5 7985   4.082   3.629  10.308 -0.1688 -0.3099  0.1847
  538TMC3    C6 7986   4.217   3.648  10.276  0.4586 -0.5602 -0.1022
  538TMC3     C 7987   4.133   3.547  10.639  0.3291 -0.2621  0.0959
  538TMC3     O 7988   4.023   3.528  10.693  0.5566  0.0028  0.0305
  538TMC3     H 7989   4.356   3.468  10.539  2.4403  1.9505 -0.4834
  538TMC3    H1 7990   3.954   3.577  10.451 -0.2103 -1.4360  0.3681
  538TMC3    H2 7991   4.247   3.705  10.189  0.5716  0.1996  0.4397
  538TMC3    C7 7992   3.992   3.742  10.297  0.0123 -0.5886 -0.4513
  538TMC3    C8 7993   4.455   3.584  10.300 -0.0418 -0.5975 -0.4527
  538TMC3    O1 7994   3.878   3.724  10.256  0.2375 -0.5706  0.6025
  538TMC3    O2 7995   4.476   3.666  10.211 -0.7815  0.2237  0.3911
  539MPD2     C 7996   4.258   3.217  11.580  0.1782 -0.3174 -0.4657
  539MPD2    C1 7997   4.139   3.181  11.519  0.1405 -0.3875 -0.3023
  539MPD2    C2 7998   4.056   3.284  11.475  0.0653  0.2718  1.0734
  539MPD2    C3 7999   4.080   3.416  11.499 -0.3407  0.1474  0.3693
  539MPD2    C4 8000   4.200   3.447  11.561 -0.0647  0.1203 -0.1670
  539MPD2    C5 8001   4.287   3.350  11.593 -0.5561 -0.1963  0.2160
  539MPD2     H 8002   3.967   3.248  11.424  0.9413 -2.6266  1.5775
  539MPD2    H1 8003   4.225   3.548  11.589 -1.1314  0.4304 -0.3460
  539MPD2    H2 8004   4.333   3.144  11.608 -0.6339 -0.2308  1.9222
  539MPD2    H3 8005   4.379   3.387  11.635  0.2344  0.3119 -1.9593
  539MPD2     N 8006   3.989   3.519  11.456 -0.8497 -0.1805  0.3924
  539MPD2    H5 8007   4.023   3.615  11.459 -1.1578 -0.0508 -0.2798
  539MPD2    N1 8008   4.102   3.047  11.499  0.0765  0.3857 -0.0039
  539MPD2    H7 8009   4.011   3.024  11.460  0.0267  2.1559 -0.8936
  540TMC3    C1 8010   3.848   3.626  11.306  0.4365 -0.3138 -0.3285
  540TMC3    C2 8011   3.812   3.617  11.175  0.0566 -0.1419  0.3811
  540TMC3    C3 8012   3.809   3.734  11.107 -0.9702  0.4276  0.2453
  540TMC3    C4 8013   3.881   3.745  11.371  0.4163 -0.3954 -0.7914
  540TMC3    C5 8014   3.864   3.861  11.300 -0.4008 -0.1848  0.1986
  540TMC3    C6 8015   3.822   3.856  11.169 -0.2583  0.3928 -0.8153
  540TMC3     C 8016   3.888   3.500  11.367  0.4629  0.1414  0.3217
  540TMC3     O 8017   3.816   3.403  11.342 -0.2498  0.1865  0.1101
  540TMC3     H 8018   3.811   3.522  11.123 -0.6965  1.3332 -2.3041
  540TMC3    H1 8019   3.892   3.740  11.479  0.5914 -2.8061 -0.9248
  540TMC3    H2 8020   3.792   3.945  11.116  1.4026  1.5598  0.1917
  540TMC3    C7 8021   3.810   3.972  11.379  0.3316  0.2181 -0.0044
  540TMC3    C8 8022   3.751   3.736  10.971  0.9377 -0.3129 -0.0242
  540TMC3    O1 8023   3.754   3.931  11.480 -0.3347  0.4382  0.3154
  540TMC3    O2 8024   3.791   3.828  10.896 -0.0571 -0.5145 -0.0432
  541MPD2     C 8025   2.321   0.297  13.460 -0.2426  0.4599  0.7352
  541MPD2    C1 8026   2.239   0.237  13.371 -0.5804  0.6514  0.1859
  541MPD2    C2 8027   2.223   0.286  13.240 -0.9910  0.4409 -0.4057
  541MPD2    C3 8028   2.274   0.412  13.209  0.3050 -1.0306 -0.1787
  541MPD2    C4 8029   2.342   0.477  13.309  0.4709  0.2342  0.2623
  541MPD2    C5 8030   2.374   0.420  13.428  0.3079  0.9051 -0.5038
  541MPD2     H 8031   2.177   0.228  13.161  0.5217 -1.3641  0.0497
  541MPD2    H1 8032   2.388   0.574  13.291  2.9392 -1.0689 -0.5510
  541MPD2    H2 8033   2.352   0.257  13.556  1.1935 -0.2625 -0.0242
  541MPD2    H3 8034   2.424   0.485  13.499 -0.4589  1.3817 -0.4034
  541MPD2     N 8035   2.278   0.473  13.082  0.0361  0.3998  0.0019
  541MPD2    H5 8036   2.322   0.564  13.076  1.0720 -0.2571 -2.7188
  541MPD2    N1 8037   2.213   0.102  13.411  0.0147 -0.3857  0.5570
  541MPD2    H7 8038   2.269   0.051  13.479  0.6454  0.6150  0.7901
  542TMC3    C1 8039   2.286   0.483  12.850  0.6516 -0.1938  0.2694
  542TMC3    C2 8040   2.267   0.440  12.722 -0.0446  0.9766  0.8715
  542TMC3    C3 8041   2.341   0.492  12.617 -0.6431  0.2754  0.1053
  542TMC3    C4 8042   2.374   0.585  12.865 -0.1032 -0.4994 -0.0042
  542TMC3    C5 8043   2.434   0.648  12.758 -0.2650 -0.5261 -0.1053
  542TMC3    C6 8044   2.424   0.604  12.631  0.5077  0.2014 -0.1966
  542TMC3     C 8045   2.247   0.408  12.966  1.0726  0.1388 -0.2252
  542TMC3     O 8046   2.174   0.311  12.956 -0.1962 -0.1716  0.3050
  542TMC3     H 8047   2.210   0.348  12.712 -1.4783  1.7964  1.4555
  542TMC3    H1 8048   2.394   0.631  12.961 -3.8597 -1.7808  1.3821
  542TMC3    H2 8049   2.457   0.654  12.540  1.7319 -0.1206  0.0619
  542TMC3    C7 8050   2.488   0.776  12.782 -0.4581  1.1528  0.2315
  542TMC3    C8 8051   2.348   0.416  12.493 -0.1149  0.4799  0.7118
  542TMC3    O1 8052   2.469   0.824  12.896 -0.2345 -0.0175  0.1975
  542TMC3    O2 8053   2.255   0.334  12.467 -0.3072 -0.2125  0.8629
  543TMC3    C1 8054   1.417   1.900  17.418  0.1785 -0.7538  0.4331
  543TMC3    C2 8055   1.282   1.902  17.438  0.3943 -0.5343  0.4679
  543TMC3    C3 8056   1.238   1.978  17.540  0.2947  0.1112  0.5315
  543TMC3    C4 8057   1.509   1.959  17.496 -0.3606 -0.6846  0.2977
  543TMC3    C5 8058   1.460   2.032  17.601  0.0735 -0.1154  0.8447
  543TMC3    C6 8059   1.326   2.039  17.631 -0.7077 -0.4573  0.3972
  543TMC3     C 8060   1.473   1.800  17.318 -0.0315  0.3394  0.2278
  543TMC3     O 8061   1.596   1.765  17.335 -0.4933 -0.4351 -0.6287
  543TMC3     H 8062   1.217   1.846  17.373  0.7894  1.7002 -1.8413
  543TMC3    H1 8063   1.615   1.952  17.473  0.0729  0.1886  2.0234
  543TMC3    H2 8064   1.285   2.090   0.037 -0.5511 -0.6550  0.5877
  543TMC3    C7 8065   1.552   2.133  17.656  0.2324 -0.4823 -0.4199
  543TMC3    C8 8066   1.103   1.937  17.593  0.1454 -0.3053  0.0778
  543TMC3    O1 8067   1.672   2.100  17.653  0.1164 -0.0682  0.5031
  543TMC3    O2 8068   1.054   1.835  17.549 -0.2596  0.5581 -0.0186
  544MPD2     C 8069   0.838   1.880   0.353 -0.0827 -0.0704 -0.3205
  544MPD2    C1 8070   0.862   1.794   0.244 -0.2813 -0.1652  0.2636
  544MPD2    C2 8071   0.944   1.839   0.144 -0.6719 -0.3851 -0.1426
  544MPD2    C3 8072   0.990   1.969   0.130  0.0086  0.3071 -0.0804
  544MPD2    C4 8073   0.951   2.054   0.229  0.1600  0.5589  0.0580
  544MPD2    C5 8074   0.886   2.007   0.340 -0.6679  0.0888 -0.1792
  544MPD2     H 8075   0.979   1.772   0.067 -0.4957  1.1677 -1.4292
  544MPD2    H1 8076   0.986   2.155   0.211  2.5086 -0.1944  0.4612
  544MPD2    H2 8077   0.782   1.857   0.443  2.2578 -0.1088  1.1271
  544MPD2    H3 8078   0.852   2.071   0.420 -1.9871  1.3266 -1.7296
  544MPD2     N 8079   1.066   2.014   0.017 -0.5505 -0.3348  0.6669
  544MPD2    H5 8080   1.098   2.110   0.015 -2.1868  0.1948 -0.8773
  544MPD2    N1 8081   0.819   1.661   0.246  0.4592 -0.6803 -0.5026
  544MPD2    H7 8082   0.792   1.633   0.340 -0.5732 -2.1420 -1.2404
  545TMC3    C1 8083   0.850   1.437   0.177 -0.7636  0.1373 -0.5034
  545TMC3    C2 8084   0.836   1.341   0.075  0.1972  0.3695  0.5026
  545TMC3    C3 8085   0.878   1.217   0.105 -0.3398  0.1395 -0.8106
  545TMC3    C4 8086   0.896   1.408   0.300 -0.6048 -0.2269 -0.1860
  545TMC3    C5 8087   0.936   1.277   0.319  0.6468  0.0172  0.2862
  545TMC3    C6 8088   0.926   1.181   0.227 -0.8836  0.1390  1.0396
  545TMC3     C 8089   0.820   1.576   0.145  0.1291 -0.0907  0.3486
  545TMC3     O 8090   0.824   1.600   0.027  0.0417  0.1059  0.4977
  545TMC3     H 8091   0.787   1.368  17.662 -0.5547 -0.6590  0.6097
  545TMC3    H1 8092   0.915   1.482   0.377 -1.2433  0.1900 -0.4286
  545TMC3    H2 8093   0.951   1.076   0.244  0.5963  0.0537 -1.7239
  545TMC3    C7 8094   1.013   1.247   0.443 -0.2149  0.2752 -0.1532
  545TMC3    C8 8095   0.902   1.117  17.676  0.3523  0.3484  0.0060
  545TMC3    O1 8096   1.034   1.341   0.519 -0.4305  0.3815 -0.3170
  545TMC3    O2 8097   0.966   1.016   0.030  0.1657  0.4768  0.0251
  546MPD2     C 8098   2.766   1.331   0.230 -0.1792  0.5982  0.0187
  546MPD2    C1 8099   2.831   1.298   0.108  0.1691  0.3422 -0.1503
  546MPD2    C2 8100   2.896   1.398   0.043  0.1513 -0.2329 -0.4745
  546MPD2    C3 8101   2.887   1.531   0.088  0.1664 -0.8165 -0.3198
  546MPD2    C4 8102   2.805   1.558   0.193  0.2322  0.2027  0.2528
  546MPD2    C5 8103   2.757   1.460   0.275 -0.1770  0.2895 -0.6120
  546MPD2     H 8104   2.961   1.374  17.640  0.1690  0.4573 -0.6608
  546MPD2    H1 8105   2.780   1.660   0.221  1.2214 -0.0784  2.1519
  546MPD2    H2 8106   2.723   1.256   0.294 -1.4843  2.3930  1.2388
  546MPD2    H3 8107   2.688   1.490   0.353  1.1222  0.8302  0.3389
  546MPD2     N 8108   2.948   1.641   0.013 -0.0902 -0.5683 -0.1924
  546MPD2    H5 8109   2.937   1.734   0.053 -2.1465 -0.7322 -0.4004
  546MPD2    N1 8110   2.827   1.164   0.066  0.1098 -1.0001  0.0198
  546MPD2    H7 8111   2.790   1.101   0.136 -1.2335 -1.6712 -1.3036
  547TMC3    C1 8112   2.769   0.990  17.609 -0.2176  0.1768  0.0055
  547TMC3    C2 8113   2.656   1.005  17.537  0.2159 -0.6274  0.4349
  547TMC3    C3 8114   2.546   0.962  17.602 -0.1007 -0.6701  0.0240
  547TMC3    C4 8115   2.758   0.928   0.051 -0.0394 -0.1333  0.0735
  547TMC3    C5 8116   2.647   0.884   0.112 -0.2308  0.0323 -0.1836
  547TMC3    C6 8117   2.533   0.900   0.045 -0.4015 -0.0213  0.1640
  547TMC3     C 8118   2.838   1.119  17.614  0.0826  0.4569 -1.1707
  547TMC3     O 8119   2.847   1.178  17.508  0.0895 -0.4979  0.4166
  547TMC3     H 8120   2.658   1.077  17.455  1.2534  0.0663  1.0670
  547TMC3    H1 8121   2.849   0.909   0.106 -1.7610 -2.1725  2.1848
  547TMC3    H2 8122   2.437   0.870   0.085 -0.4584  2.5792  2.0441
  547TMC3    C7 8123   2.642   0.905   0.253  0.8172 -0.6591 -0.4182
  547TMC3    C8 8124   2.426   1.003  17.537 -0.2415 -0.1907 -0.3092
  547TMC3    O1 8125   2.734   0.977   0.288 -0.1370  0.4059 -0.7865
  547TMC3    O2 8126   2.428   1.023  17.414 -0.0506  0.0199 -0.1505
  548MPD2     C 8127   2.705   1.627  12.013  0.4584  0.3141  0.6816
  548MPD2    C1 8128   2.703   1.573  12.134  0.5067  0.1504  0.4188
  548MPD2    C2 8129   2.782   1.466  12.164 -0.4890  0.1126 -0.1376
  548MPD2    C3 8130   2.857   1.415  12.059  0.4547 -0.0956  0.4819
  548MPD2    C4 8131   2.852   1.468  11.931  0.0386 -0.1955 -0.1522
  548MPD2    C5 8132   2.775   1.578  11.910 -0.4478  0.3328  0.3681
  548MPD2     H 8133   2.798   1.443  12.268  1.5767  1.1842 -0.2298
  548MPD2    H1 8134   2.909   1.425  11.849  0.4020 -0.8654  0.4476
  548MPD2    H2 8135   2.643   1.712  11.989  2.7770  1.9259  0.4052
  548MPD2    H3 8136   2.770   1.628  11.813 -2.3095  2.0513  1.3524
  548MPD2     N 8137   2.958   1.322  12.099 -0.1036  0.1400  0.4683
  548MPD2    H5 8138   2.960   1.308  12.200 -1.2338 -1.3091  0.2919
  548MPD2    N1 8139   2.617   1.639  12.221 -0.9920  0.3374  0.7976
  548MPD2    H7 8140   2.590   1.730  12.187 -1.0630 -0.6785 -1.8279
  549TMC3    C1 8141   2.456   1.658  12.389  0.1392 -0.5877 -0.2106
  549TMC3    C2 8142   2.423   1.779  12.334  0.0886 -0.4227 -0.5414
  549TMC3    C3 8143   2.397   1.888  12.414 -0.0819 -0.1351  0.5320
  549TMC3    C4 8144   2.465   1.652  12.524 -0.4682 -0.3570  0.0387
  549TMC3    C5 8145   2.456   1.768  12.600  0.9113 -0.0294  0.1037
  549TMC3    C6 8146   2.411   1.886  12.550  0.8353 -0.2405 -0.8199
  549TMC3     C 8147   2.560   1.578  12.326  0.1495  0.1901  0.0158
  549TMC3     O 8148   2.565   1.458  12.358  0.6330  0.0248  0.2233
  549TMC3     H 8149   2.400   1.792  12.229  1.0616 -1.8355 -0.9244
  549TMC3    H1 8150   2.492   1.559  12.574 -1.5255  0.3082  1.8701
  549TMC3    H2 8151   2.381   1.972  12.608  1.0745 -0.4400 -0.4073
  549TMC3    C7 8152   2.498   1.757  12.737 -0.5626  0.2539  0.7639
  549TMC3    C8 8153   2.321   1.999  12.355  0.2337  0.1114  0.2452
  549TMC3    O1 8154   2.443   1.816  12.829 -0.5311  0.6151 -0.0065
  549TMC3    O2 8155   2.234   1.981  12.270 -0.9202  0.2116 -0.3841
  550TMC3    C1 8156   1.325   4.318  12.267  0.1985  0.1073 -0.1854
  550TMC3    C2 8157   1.296   4.396  12.376  0.0494 -0.0671 -0.5504
  550TMC3    C3 8158   1.196   4.492  12.372  0.3100  0.0085 -0.2735
  550TMC3    C4 8159   1.253   4.320  12.155 -0.2406  0.3208 -0.6222
  550TMC3    C5 8160   1.161   4.420  12.150  0.1719 -0.2205 -0.2953
  550TMC3    C6 8161   1.128   4.507  12.248  0.5705  0.6228 -0.3423
  550TMC3     C 8162   1.455   4.257  12.267  0.0004  0.9919 -0.4367
  550TMC3     O 8163   1.492   4.165  12.339 -0.0496  0.2650 -0.5612
  550TMC3     H 8164   1.374   4.406  12.451  1.2806 -1.1572 -1.6893
  550TMC3    H1 8165   1.291   4.265  12.070  0.2018 -2.8937  1.6549
  550TMC3    H2 8166   1.050   4.582  12.242 -0.6216 -0.6414 -0.6730
  550TMC3    C7 8167   1.053   4.390  12.055 -0.0748 -0.5587 -0.2624
  550TMC3    C8 8168   1.155   4.579  12.482 -0.4929  0.0130 -0.2005
  550TMC3    O1 8169   0.938   4.403  12.088  0.0572  0.1213  0.0733
  550TMC3    O2 8170   1.081   4.670  12.467 -0.3699 -0.2468 -0.0493
  551TMC3    C1 8171   4.149   2.565  13.256 -0.1559 -0.0821  0.4044
  551TMC3    C2 8172   4.213   2.576  13.135  0.1533  0.0094 -0.0718
  551TMC3    C3 8173   4.292   2.683  13.122  0.2147 -0.0887  0.4145
  551TMC3    C4 8174   4.173   2.648  13.361 -0.5191 -0.0515 -0.2819
  551TMC3    C5 8175   4.261   2.750  13.347  0.5092 -0.3614 -0.0945
  551TMC3    C6 8176   4.317   2.767  13.225  0.2646  1.0825 -0.0999
  551TMC3     C 8177   4.027   2.478  13.252 -0.7299  0.5501  0.2315
  551TMC3     O 8178   4.017   2.407  13.156  0.2699  0.0440  0.5151
  551TMC3     H 8179   4.170   2.535  13.045  0.6972  0.0778 -0.3667
  551TMC3    H1 8180   4.125   2.641  13.459 -0.1320 -2.0780 -0.2454
  551TMC3    H2 8181   4.386   2.849  13.209 -0.0416  1.2637 -0.4702
  551TMC3    C7 8182   4.285   2.847  13.455 -0.5465  0.0579  0.4795
  551TMC3    C8 8183   4.313   2.732  12.989  0.0127 -0.2863  0.2674
  551TMC3    O1 8184   4.284   2.805  13.566 -0.4450  0.3170  0.4389
  551TMC3    O2 8185   4.324   2.647  12.902  0.7035 -0.1131  0.0428
  552MPD2     C 8186   1.090   4.602  13.790 -0.1191  0.3008  0.8374
  552MPD2    C1 8187   1.126   4.471  13.812 -0.8298  0.7616  0.4073
  552MPD2    C2 8188   1.225   4.432  13.904  0.0482 -0.0594  0.7109
  552MPD2    C3 8189   1.280   4.530  13.974 -0.8663  0.7216  0.0716
  552MPD2    C4 8190   1.238   4.661  13.958  0.5622  0.2310  0.1525
  552MPD2    C5 8191   1.144   4.698  13.867 -0.7989  0.7690  0.0003
  552MPD2     H 8192   1.251   4.327  13.905 -0.1111 -0.1589 -3.3257
  552MPD2    H1 8193   1.300   0.019  14.001  0.2786  0.4238  0.2163
  552MPD2    H2 8194   1.023   4.637  13.712  0.0561 -0.6142  0.2737
  552MPD2    H3 8195   1.129   0.081  13.835 -0.4482  1.3364  1.6781
  552MPD2     N 8196   1.390   4.506  14.061 -0.4211  0.5651  0.1680
  552MPD2    H5 8197   1.426   4.590  14.106  0.7658 -0.6876  1.5501
  552MPD2    N1 8198   1.085   4.368  13.723 -0.9484 -0.0576 -0.1020
  552MPD2    H7 8199   1.115   4.273  13.740  0.7366  0.2847 -1.1250
  553TMC3    C1 8200   0.982   4.275  13.530  0.0903  0.3776  0.0810
  553TMC3    C2 8201   0.973   4.305  13.397  0.0907 -0.9024 -0.1695
  553TMC3    C3 8202   1.011   4.204  13.305  0.0137 -0.6178  0.3801
  553TMC3    C4 8203   1.019   4.156  13.572  0.1008  0.2129 -0.4676
  553TMC3    C5 8204   1.053   4.056  13.480 -0.8624 -0.0543 -0.7742
  553TMC3    C6 8205   1.042   4.075  13.342  0.5358  0.4781 -0.1778
  553TMC3     C 8206   1.006   4.391  13.613  0.0590  0.1167  1.0554
  553TMC3     O 8207   0.926   4.482  13.589  0.1314  0.6234 -0.1207
  553TMC3     H 8208   0.956   4.407  13.366  5.3151  0.6717  2.1406
  553TMC3    H1 8209   1.014   4.128  13.677 -1.5679  0.0889 -0.5759
  553TMC3    H2 8210   1.108   4.010  13.285 -0.9311 -1.0650 -0.1101
  553TMC3    C7 8211   1.116   3.935  13.516  0.5476 -0.5894 -0.3760
  553TMC3    C8 8212   1.102   4.256  13.202 -0.2983  0.1184 -0.3178
  553TMC3    O1 8213   1.070   3.837  13.463  0.3362 -0.0836 -0.6065
  553TMC3    O2 8214   1.158   4.362  13.223 -0.8128 -0.1777  0.0987
  554TMC3    C1 8215   2.871   3.327  11.644 -0.1048 -0.2632  0.2460
  554TMC3    C2 8216   2.762   3.368  11.578 -0.0090  0.2062 -0.0527
  554TMC3    C3 8217   2.778   3.477  11.494 -0.2017 -0.1774  1.2066
  554TMC3    C4 8218   2.984   3.393  11.656  0.7501  0.7716 -0.7035
  554TMC3    C5 8219   2.995   3.509  11.585  0.6401  0.2677  0.4297
  554TMC3    C6 8220   2.894   3.546  11.506 -0.1270 -0.6585 -0.3356
  554TMC3     C 8221   2.854   3.197  11.711 -0.2545  0.0005 -0.2029
  554TMC3     O 8222   2.752   3.138  11.682 -0.0337 -0.5214  0.6836
  554TMC3     H 8223   2.675   3.306  11.557 -0.5606  1.3548 -1.1781
  554TMC3    H1 8224   3.067   3.366  11.719 -1.5444 -1.6435  1.2996
  554TMC3    H2 8225   2.912   3.638  11.452  0.7817  1.0458  2.8529
  554TMC3    C7 8226   3.120   3.588  11.589  0.0726  0.4312 -0.4771
  554TMC3    C8 8227   2.672   3.513  11.405  0.3065 -0.2186  0.1581
  554TMC3    O1 8228   3.179   3.605  11.695 -0.3615  0.5526 -0.3775
  554TMC3    O2 8229   2.712   3.570  11.304 -0.1623 -0.0320  0.1002
  555TMC3    C1 8230   2.119   3.449  15.064  0.2842 -0.1471 -0.2432
  555TMC3    C2 8231   2.115   3.529  15.172  0.2003 -0.1993 -0.5398
  555TMC3    C3 8232   2.083   3.477  15.292 -0.2088 -0.1666  0.2406
  555TMC3    C4 8233   2.064   3.325  15.064 -0.0535 -0.2653 -0.4276
  555TMC3    C5 8234   2.023   3.275  15.187  0.1539  0.0989  0.1169
  555TMC3    C6 8235   2.038   3.349  15.298 -0.1184  0.1947 -0.1247
  555TMC3     C 8236   2.156   3.508  14.941  0.2250 -0.7785  0.1266
  555TMC3     O 8237   2.218   3.610  14.950 -0.2574 -0.4996  0.2545
  555TMC3     H 8238   2.152   3.630  15.159 -2.0643  0.8083  0.9050
  555TMC3    H1 8239   2.090   3.258  14.983 -0.5604 -0.5632 -0.3508
  555TMC3    H2 8240   1.996   3.315  15.393  0.8025 -0.4743  0.0407
  555TMC3    C7 8241   1.964   3.143  15.202 -0.3279 -0.0897  0.7988
  555TMC3    C8 8242   2.044   3.579  15.396 -0.2196 -0.8117  0.3190
  555TMC3    O1 8243   1.965   3.092  15.314 -0.3408 -0.1904 -0.0278
  555TMC3    O2 8244   2.062   3.699  15.367  0.5773 -0.0543  0.4283
  556MPD2     C 8245   0.415   4.534  10.437 -0.2811 -0.1796 -0.2921
  556MPD2    C1 8246   0.415   4.413  10.507  0.2771  0.1875  0.4519
  556MPD2    C2 8247   0.425   4.294  10.434 -0.0772  0.4013 -0.0164
  556MPD2    C3 8248   0.421   4.295  10.296 -0.0608  0.0068 -0.2538
  556MPD2    C4 8249   0.413   4.414  10.233  0.9893  0.2736  0.0942
  556MPD2    C5 8250   0.415   4.533  10.300  0.2860  0.3047  0.1824
  556MPD2     H 8251   0.431   4.201  10.489 -3.5924 -0.7384 -1.5742
  556MPD2    H1 8252   0.424   4.416  10.125 -0.1284  0.1846 -0.0226
  556MPD2    H2 8253   0.407   4.628  10.490  0.9905  0.6806 -1.5940
  556MPD2    H3 8254   0.425   4.627  10.247 -0.9973 -0.1138 -0.7871
  556MPD2     N 8255   0.431   4.164  10.229  0.2410 -0.3334 -0.0492
  556MPD2    H5 8256   0.447   4.087  10.293 -0.4721  0.0158  0.5511
  556MPD2    N1 8257   0.414   4.417  10.650 -0.1072  0.6736 -0.3214
  556MPD2    H7 8258   0.411   4.329  10.700  2.5381  0.4526 -0.5355
  557TMC3    C1 8259   0.439   4.004  10.055 -0.6140 -0.5100 -0.6409
  557TMC3    C2 8260   0.467   3.974   9.928 -0.0693 -0.3343 -0.0348
  557TMC3    C3 8261   0.443   3.851   9.888  0.1740  0.0260 -0.8659
  557TMC3    C4 8262   0.371   3.916  10.137  0.5504  0.1020  0.3948
  557TMC3    C5 8263   0.338   3.799  10.081  0.6565  0.4596 -0.2864
  557TMC3    C6 8264   0.375   3.754   9.961  0.3807 -0.0822 -0.1968
  557TMC3     C 8265   0.444   4.146  10.092  0.7767 -0.5772 -0.0727
  557TMC3     O 8266   0.457   4.231  10.007 -0.4611  0.0518 -0.0031
  557TMC3     H 8267   0.537   4.042   9.881  0.6996 -0.1079  1.4675
  557TMC3    H1 8268   0.343   3.944  10.238  0.5059 -0.2173  0.4719
  557TMC3    H2 8269   0.329   3.668   9.915  1.5916 -0.9526  0.2354
  557TMC3    C7 8270   0.235   3.727  10.151 -0.1724  0.4285  0.6508
  557TMC3    C8 8271   0.470   3.837   9.751  0.4034 -0.4564 -0.2913
  557TMC3    O1 8272   0.175   3.795  10.236 -0.0661 -0.0016 -0.2040
  557TMC3    O2 8273   0.529   3.927   9.691 -0.0158  0.0317 -0.6613
  558TMC3    C1 8274   3.003   2.099   9.971 -0.0243  0.4222  0.3768
  558TMC3    C2 8275   2.873   2.117  10.004  0.4403 -0.2348 -0.1791
  558TMC3    C3 8276   2.782   2.095   9.909 -0.4742 -0.0825 -0.0660
  558TMC3    C4 8277   3.041   2.105   9.839  0.4902  0.3642 -0.1433
  558TMC3    C5 8278   2.943   2.111   9.746  0.7418 -0.7402 -0.7911
  558TMC3    C6 8279   2.815   2.097   9.778 -0.0068 -0.1478  0.0077
  558TMC3     C 8280   3.109   2.112  10.074  0.5449 -0.3721  0.4617
  558TMC3     O 8281   3.224   2.131  10.028  0.3749  0.4784  0.1689
  558TMC3     H 8282   2.835   2.148  10.101  0.3285  1.9450 -0.9362
  558TMC3    H1 8283   3.145   2.094   9.808  0.2620  0.0746 -0.8300
  558TMC3    H2 8284   2.735   2.069   9.710 -1.6765 -1.1804  2.4134
  558TMC3    C7 8285   2.984   2.085   9.613 -0.1132  0.5725 -1.1520
  558TMC3    C8 8286   2.643   2.078   9.949 -0.1565 -0.0582 -0.0393
  558TMC3    O1 8287   3.107   2.078   9.588  0.0381 -0.0102  0.1478
  558TMC3    O2 8288   2.560   2.085   9.857  0.0614  0.7243 -0.0547
  559MPD2     C 8289   2.427   3.068  10.922 -0.7924 -0.2917 -0.1396
  559MPD2    C1 8290   2.408   2.936  10.905  0.3143 -0.7277 -0.5117
  559MPD2    C2 8291   2.507   2.849  10.946  0.1977 -0.5743 -0.1351
  559MPD2    C3 8292   2.628   2.892  10.983 -0.1817  0.1477  0.1277
  559MPD2    C4 8293   2.652   3.030  10.991  0.1862  0.4113 -0.0450
  559MPD2    C5 8294   2.549   3.119  10.960  0.1907  0.3263 -0.2111
  559MPD2     H 8295   2.500   2.741  10.948 -0.0566 -0.5178  2.0936
  559MPD2    H1 8296   2.740   3.070  11.040 -1.2445  1.7094  1.4636
  559MPD2    H2 8297   2.349   3.136  10.892 -0.1680  1.3348  1.8789
  559MPD2    H3 8298   2.563   3.224  10.984 -2.6561  0.1599  2.2064
  559MPD2     N 8299   2.723   2.795  11.014  0.4530  0.0335 -1.0700
  559MPD2    H5 8300   2.695   2.697  11.010 -0.4381  0.2730 -0.6221
  559MPD2    N1 8301   2.293   2.890  10.836 -0.8071 -0.1324 -0.3920
  559MPD2    H7 8302   2.235   2.955  10.784  2.1692 -0.4186 -4.0549
  560TMC3    C1 8303   2.937   2.704  11.077 -0.0004  0.6979  0.4615
  560TMC3    C2 8304   2.885   2.579  11.065 -0.0928  0.7187  0.8887
  560TMC3    C3 8305   2.958   2.476  11.120 -0.1836  0.1301  0.6468
  560TMC3    C4 8306   3.054   2.728  11.144 -0.2231 -0.2409  0.1397
  560TMC3    C5 8307   3.126   2.621  11.192  0.4430 -0.2588 -0.0911
  560TMC3    C6 8308   3.076   2.494  11.180  0.6364  0.3552 -0.6298
  560TMC3     C 8309   2.856   2.817  11.039 -0.5423  0.1098  0.1852
  560TMC3     O 8310   2.913   2.921  11.062  0.1664 -0.4143 -0.1276
  560TMC3     H 8311   2.788   2.560  11.021 -0.2731 -0.9397  2.0299
  560TMC3    H1 8312   3.082   2.831  11.161  0.1849  0.0204 -2.1667
  560TMC3    H2 8313   3.130   2.418  11.234 -1.1639  0.6525  1.6156
  560TMC3    C7 8314   3.238   2.648  11.281  1.0400  0.3841  0.0175
  560TMC3    C8 8315   2.920   2.341  11.095  0.1977  0.3579  0.9490
  560TMC3    O1 8316   3.284   2.557  11.349  0.3809 -0.9236  0.0258
  560TMC3    O2 8317   2.804   2.319  11.056 -0.0963 -0.0775  0.2276
  561TMC3    C1 8318   0.650   1.596  11.476 -0.3915  0.2540  0.1014
  561TMC3    C2 8319   0.598   1.558  11.593 -0.0597  0.0524  0.1120
  561TMC3    C3 8320   0.482   1.613  11.638  0.2799  0.2083  0.2236
  561TMC3    C4 8321   0.594   1.703  11.405 -0.6095  0.1964 -0.0988
  561TMC3    C5 8322   0.472   1.752  11.451 -0.0039  0.0697  0.1428
  561TMC3    C6 8323   0.416   1.713  11.567  0.4429  0.1372  0.3802
  561TMC3     C 8324   0.753   1.511  11.421 -0.2330  0.5618  0.0198
  561TMC3     O 8325   0.809   1.435  11.497 -0.2271 -0.4329 -0.4300
  561TMC3     H 8326   0.639   1.470  11.641 -0.6946 -0.6252 -0.5856
  561TMC3    H1 8327   0.627   1.726  11.304 -0.2910  0.6304  0.1058
  561TMC3    H2 8328   0.316   1.745  11.592 -0.9482 -1.6748 -2.8563
  561TMC3    C7 8329   0.405   1.855  11.377 -0.1626  0.0239 -0.3621
  561TMC3    C8 8330   0.433   1.561  11.760 -0.1725  0.3688 -0.3682
  561TMC3    O1 8331   0.283   1.862  11.361 -0.5175  0.1226  0.5051
  561TMC3    O2 8332   0.492   1.467  11.806  0.4334  0.9932  0.1151
  562TMC3    C1 8333   1.830   3.381  16.202  0.5234  0.4172 -0.3185
  562TMC3    C2 8334   1.826   3.473  16.097 -0.6362  1.3307  0.8411
  562TMC3    C3 8335   1.772   3.426  15.977  0.3202  0.8738  0.4836
  562TMC3    C4 8336   1.806   3.253  16.177 -0.4902  0.2306 -0.6069
  562TMC3    C5 8337   1.763   3.213  16.049  0.3627 -0.5028  0.1267
  562TMC3    C6 8338   1.750   3.299  15.942  0.5014 -0.6463  0.4487
  562TMC3     C 8339   1.862   3.436  16.335 -0.4751  0.3674  0.6272
  562TMC3     O 8340   1.895   3.554  16.336 -0.0302  0.6981 -0.2538
  562TMC3     H 8341   1.838   3.579  16.119  1.4556  1.1843  0.4340
  562TMC3    H1 8342   1.783   3.194  16.265 -0.3018 -1.5061 -1.7210
  562TMC3    H2 8343   1.702   3.261  15.853 -0.3698  1.8568 -0.1471
  562TMC3    C7 8344   1.737   3.067  16.022 -0.8170  0.4461 -1.0778
  562TMC3    C8 8345   1.712   3.526  15.893 -0.0041 -0.4003 -0.2278
  562TMC3    O1 8346   1.673   3.036  15.924  0.1723  0.3761  0.0494
  562TMC3    O2 8347   1.663   3.619  15.951 -0.0368  0.0058 -0.1590
  563MPD2     C 8348   3.536   0.014  15.585 -0.7791 -0.4516 -0.2103
  563MPD2    C1 8349   3.576   0.042  15.712 -0.0108 -0.2418  0.8825
  563MPD2    C2 8350   3.702   0.109  15.734 -0.5700 -0.5698 -0.1293
  563MPD2    C3 8351   3.773   0.160  15.632  0.6868  0.2871 -0.0180
  563MPD2    C4 8352   3.736   0.122  15.505 -0.1595  0.6511  0.0663
  563MPD2    C5 8353   3.622   0.054  15.482  0.5434  0.0322 -0.0114
  563MPD2     H 8354   3.729   0.128  15.837  1.1696 -0.1228 -0.6714
  563MPD2    H1 8355   3.793   0.169  15.425 -2.3219  2.3158 -0.4759
  563MPD2    H2 8356   3.447   4.675  15.566 -0.4818 -0.9354 -0.1233
  563MPD2    H3 8357   3.574   0.047  15.385  0.7125  2.0643 -0.2499
  563MPD2     N 8358   3.879   0.248  15.662  0.2606  0.0141 -0.0529
  563MPD2    H5 8359   3.882   0.262  15.762 -1.8226  1.8639 -0.2481
  563MPD2    N1 8360   3.504   4.707  15.820 -0.4978  0.1101 -0.0011
  563MPD2    H7 8361   3.429   4.642  15.800  0.0016 -0.5303  0.1976
  564TMC3    C1 8362   3.455   4.644  16.043 -0.1221 -0.0815  0.2443
  564TMC3    C2 8363   3.387   4.537  15.999  1.1331 -0.6402 -0.2230
  564TMC3    C3 8364   3.339   4.441  16.087  0.2801 -0.3072 -0.2367
  564TMC3    C4 8365   3.497   4.651  16.173  0.4711 -0.6463  0.2164
  564TMC3    C5 8366   3.467   4.548  16.256  0.2736  0.4617  0.8338
  564TMC3    C6 8367   3.379   4.450  16.218  0.4180  0.1220 -0.2691
  564TMC3     C 8368   3.531   0.008  15.956  0.0385 -0.1602 -0.0676
  564TMC3     O 8369   3.625   0.066  16.014  0.0098 -0.3126 -0.3557
  564TMC3     H 8370   3.370   4.513  15.895 -3.1071  3.8937 -0.5191
  564TMC3    H1 8371   3.548   0.018  16.214 -0.9376  0.7983 -1.0952
  564TMC3    H2 8372   3.326   4.395  16.294  1.5250  0.8640  1.0465
  564TMC3    C7 8373   3.579   4.494  16.317  0.1123 -0.3962 -0.8092
  564TMC3    C8 8374   3.330   4.305  16.044  0.4606  0.4095 -0.0747
  564TMC3    O1 8375   3.677   4.569  16.333 -0.1042  0.2730 -0.6919
  564TMC3    O2 8376   3.282   4.241  16.134  0.2316  0.0468  0.2057
  565TMC3    C1 8377   3.947   1.172  10.366  0.4086  0.2996  1.0545
  565TMC3    C2 8378   3.923   1.042  10.401 -0.0403  0.3969  0.1192
  565TMC3    C3 8379   3.876   0.959  10.306 -0.2775 -0.2947  0.2922
  565TMC3    C4 8380   3.912   1.218  10.243  0.3332  0.5106 -0.8818
  565TMC3    C5 8381   3.852   1.128  10.156  0.1883 -0.7814  0.2060
  565TMC3    C6 8382   3.840   0.997  10.181 -0.0266 -0.3655 -0.0619
  565TMC3     C 8383   4.082   1.209  10.389  0.2290  0.1406  0.3148
  565TMC3     O 8384   4.130   1.292  10.309  0.0415  0.6361 -0.1814
  565TMC3     H 8385   3.955   1.004  10.497 -2.6688  0.6904  1.1033
  565TMC3    H1 8386   3.928   1.322  10.219 -0.2217  0.3970 -1.7337
  565TMC3    H2 8387   3.846   0.927  10.099 -1.7742 -0.4751 -0.0912
  565TMC3    C7 8388   3.821   1.187  10.025 -0.2878  0.1163  0.0334
  565TMC3    C8 8389   3.893   0.815  10.331 -1.0933 -0.5564  0.0061
  565TMC3    O1 8390   3.874   1.291   9.989  0.4000  0.1548  0.4571
  565TMC3    O2 8391   3.987   0.785  10.403  0.1087 -0.0732 -0.2418
  566MPD2     C 8392   1.217   2.761  13.986  0.1871 -0.0607 -0.0196
  566MPD2    C1 8393   1.306   2.712  13.896 -0.4383 -0.4370  0.1821
  566MPD2    C2 8394   1.260   2.664  13.769  0.4530  0.4562 -0.3015
  566MPD2    C3 8395   1.123   2.665  13.741 -0.6191  0.9791  0.3298
  566MPD2    C4 8396   1.035   2.728  13.829  1.0571  0.2730 -0.8526
  566MPD2    C5 8397   1.087   2.771  13.946  0.4887  0.6886  0.3776
  566MPD2     H 8398   1.337   2.640  13.698 -1.1899  1.0815 -2.2875
  566MPD2    H1 8399   0.929   2.728  13.808  0.6519 -1.8631  1.2067
  566MPD2    H2 8400   1.245   2.786  14.088  1.3213 -0.3351 -0.2630
  566MPD2    H3 8401   1.015   2.806  14.019  1.0173  1.3903  0.5475
  566MPD2     N 8402   1.075   2.626  13.611 -0.0947 -0.2384 -0.4823
  566MPD2    H5 8403   0.979   2.654  13.595 -0.0389  0.6934  0.7884
  566MPD2    N1 8404   1.450   2.698  13.927  0.0161 -0.2814  0.6012
  566MPD2    H7 8405   1.475   2.767  13.997 -0.0257  1.3133 -0.9660
  567TMC3    C1 8406   1.670   2.644  13.896 -0.5468 -0.3696 -0.3010
  567TMC3    C2 8407   1.746   2.633  13.783  0.1577  0.9622 -0.0166
  567TMC3    C3 8408   1.873   2.691  13.786  0.5497  0.5168  0.5198
  567TMC3    C4 8409   1.717   2.680  14.017 -0.3541  0.5218  0.0323
  567TMC3    C5 8410   1.849   2.716  14.020 -0.2572 -0.5538 -0.0012
  567TMC3    C6 8411   1.928   2.727  13.910  0.3395  0.1796  0.2585
  567TMC3     C 8412   1.536   2.602  13.872  0.0069  0.3249  0.4327
  567TMC3     O 8413   1.511   2.517  13.782  0.2556  0.3955 -0.1676
  567TMC3     H 8414   1.690   2.629  13.690  0.4091  0.5681 -0.1493
  567TMC3    H1 8415   1.657   2.668  14.107 -0.0811 -0.8351  0.0345
  567TMC3    H2 8416   2.025   2.775  13.920  1.0120 -0.6363 -2.4502
  567TMC3    C7 8417   1.901   2.767  14.143 -0.3305 -0.3439 -0.0989
  567TMC3    C8 8418   1.896   2.776  13.674  0.4731  0.4717  0.0652
  567TMC3    O1 8419   2.020   2.805  14.137  0.1973  0.4468 -0.6298
  567TMC3    O2 8420   1.789   2.826  13.633  0.0142  0.5308  0.1618
  568MPD2     C 8421   4.036   3.371  16.904 -0.3717 -0.1032  0.7014
  568MPD2    C1 8422   3.901   3.394  16.931 -0.0729 -0.4067  0.6012
  568MPD2    C2 8423   3.838   3.478  16.840 -0.2180 -0.0166  0.3697
  568MPD2    C3 8424   3.905   3.526  16.729  0.6891 -0.3091 -0.2356
  568MPD2    C4 8425   4.040   3.491  16.709  0.4701 -0.0142 -0.4623
  568MPD2    C5 8426   4.107   3.409  16.794 -0.6096  0.7005 -0.5470
  568MPD2     H 8427   3.740   3.518  16.865  0.2349  1.4545 -0.2154
  568MPD2    H1 8428   4.091   3.526  16.619  1.9082 -0.8828  0.0071
  568MPD2    H2 8429   4.095   3.312  16.973 -1.1252  0.5450  1.8984
  568MPD2    H3 8430   4.211   3.382  16.780 -0.8507 -0.3012 -0.4052
  568MPD2     N 8431   3.828   3.601  16.635  0.2215 -0.0272 -0.4330
  568MPD2    H5 8432   3.735   3.621  16.668  0.1478 -1.3218  0.1331
  568MPD2    N1 8433   3.841   3.344  17.051  0.5489 -0.4430 -0.8351
  568MPD2    H7 8434   3.897   3.273  17.096 -0.7454 -0.2593  1.0625
  569TMC3    C1 8435   3.743   3.709  16.440 -0.2761  0.3154  0.9864
  569TMC3    C2 8436   3.661   3.786  16.521  0.4807  0.6703 -0.2087
  569TMC3    C3 8437   3.544   3.835  16.465  0.0738 -1.4037  0.0814
  569TMC3    C4 8438   3.710   3.678  16.311 -0.4542  0.4348 -0.5214
  569TMC3    C5 8439   3.591   3.718  16.261 -0.2892  0.3271 -0.6080
  569TMC3    C6 8440   3.505   3.795  16.341  0.3043 -0.0471 -0.4719
  569TMC3     C 8441   3.858   3.641  16.505  0.3563 -0.7508  0.1405
  569TMC3     O 8442   3.956   3.621  16.434 -0.2564 -0.3103 -0.5914
  569TMC3     H 8443   3.684   3.808  16.625  0.5101  2.3047 -0.5591
  569TMC3    H1 8444   3.778   3.613  16.257 -0.3909  2.6999 -3.1761
  569TMC3    H2 8445   3.405   3.821  16.310 -0.4021 -1.3374  0.7217
  569TMC3    C7 8446   3.599   3.751  16.121 -0.0334 -0.1026 -0.1656
  569TMC3    C8 8447   3.498   3.969  16.496 -0.1890 -0.9762  0.8577
  569TMC3    O1 8448   3.699   3.725  16.055 -0.3736  0.3638 -0.2022
  569TMC3    O2 8449   3.386   3.992  16.445 -0.2560 -0.3919  0.1924
  570TMC3    C1 8450   2.939   2.622  15.997  0.4190 -0.3683  0.0176
  570TMC3    C2 8451   3.047   2.602  15.917 -0.1863  0.0959  0.3182
  570TMC3    C3 8452   3.067   2.697  15.823 -0.2123  0.0761  0.5047
  570TMC3    C4 8453   2.863   2.734  15.996 -0.6142 -0.0240 -0.2912
  570TMC3    C5 8454   2.896   2.829  15.907  0.5360  0.1190 -0.1599
  570TMC3    C6 8455   3.003   2.820  15.824 -0.3699  0.2019  0.2215
  570TMC3     C 8456   2.933   2.553  16.126 -0.8369  0.2328  0.4913
  570TMC3     O 8457   2.992   2.449  16.143  0.3308  0.0244  0.2003
  570TMC3     H 8458   3.112   2.516  15.922 -1.5596 -0.9091  0.7904
  570TMC3    H1 8459   2.778   2.759  16.059 -0.0244 -2.0545  1.3197
  570TMC3    H2 8460   3.033   2.910  15.771  0.4683  0.7469  1.6112
  570TMC3    C7 8461   2.881   2.956  15.976 -0.3398 -0.8083  0.7282
  570TMC3    C8 8462   3.192   2.714  15.755  0.1143  0.0691  0.3195
  570TMC3    O1 8463   2.892   2.955  16.099  0.1388 -0.1065 -0.2352
  570TMC3    O2 8464   3.233   2.828  15.748 -0.4750 -0.4050 -0.0623
  571MPD2     C 8465   1.627   4.012  17.188  0.3282 -0.3015 -0.4935
  571MPD2    C1 8466   1.501   4.045  17.237  0.4349  0.2583 -0.6722
  571MPD2    C2 8467   1.487   4.151  17.314 -0.6810 -0.6336  0.3417
  571MPD2    C3 8468   1.593   4.214  17.371  0.6520 -0.5238  0.0608
  571MPD2    C4 8469   1.721   4.167  17.339  0.4001 -0.4064  0.4121
  571MPD2    C5 8470   1.735   4.076  17.241  0.9832 -0.6201 -0.3061
  571MPD2     H 8471   1.392   4.184  17.356 -0.3373  0.8917 -0.0824
  571MPD2    H1 8472   1.814   4.209  17.372  0.8637  0.0530 -1.4522
  571MPD2    H2 8473   1.636   3.933  17.114  2.6817 -2.0278  1.6594
  571MPD2    H3 8474   1.834   4.035  17.220  0.7470 -0.3294 -2.0191
  571MPD2     N 8475   1.592   4.332  17.455 -0.0752  0.0235 -0.2856
  571MPD2    H5 8476   1.684   4.364  17.485  0.1653  0.5818 -1.6046
  571MPD2    N1 8477   1.399   3.961  17.200 -0.2229 -1.1091 -0.1189
  571MPD2    H7 8478   1.418   3.905  17.117  1.2745  0.1692 -0.6436
  572TMC3    C1 8479   1.506   4.483  17.600 -0.1176  0.5363 -0.4499
  572TMC3    C2 8480   1.579   4.435   0.021  0.5183 -0.4159 -0.0954
  572TMC3    C3 8481   1.535   4.454   0.149 -0.2440  0.0149 -0.1078
  572TMC3    C4 8482   1.397   4.565  17.624 -0.2960 -0.3345 -0.2474
  572TMC3    C5 8483   1.362   4.599   0.071  0.8284 -0.0707  0.0214
  572TMC3    C6 8484   1.430   4.537   0.179  1.1433 -0.3170 -0.8148
  572TMC3     C 8485   1.480   4.391  17.498 -0.5324 -0.1184  0.1724
  572TMC3     O 8486   1.363   4.368  17.474 -0.1352 -0.3375 -0.2698
  572TMC3     H 8487   1.634   4.342   0.008  1.2600  0.0023  0.0313
  572TMC3    H1 8488   1.334   4.593  17.540  0.8535  2.3830 -0.2011
  572TMC3    H2 8489   1.408   4.561   0.283 -4.5635 -1.8539 -1.6436
  572TMC3    C7 8490   1.241   4.671   0.085  0.4592 -0.6631  0.1588
  572TMC3    C8 8491   1.590   4.367   0.257 -0.1627  0.2525 -0.1975
  572TMC3    O1 8492   1.193   0.017  17.670  0.5657  0.9533 -0.1402
  572TMC3    O2 8493   1.709   4.345   0.246  0.3002 -0.1449 -0.2489
  573MPD2     C 8494   1.863   4.568   0.977  0.4156  1.3930  0.4926
  573MPD2    C1 8495   1.757   4.628   1.032  0.5240  0.7329  0.5427
  573MPD2    C2 8496   1.702   0.014   0.965  0.3424 -1.0398  0.4039
  573MPD2    C3 8497   1.760   0.074   0.859 -0.1830  0.5087 -0.1161
  573MPD2    C4 8498   1.877   0.014   0.815  0.1802 -0.7494  0.3310
  573MPD2    C5 8499   1.937   4.626   0.875  0.2859  0.0539  0.0522
  573MPD2     H 8500   1.601   0.039   0.997  0.1212 -1.9385  0.4075
  573MPD2    H1 8501   1.934   0.048   0.729  0.5797 -2.0868  0.0646
  573MPD2    H2 8502   1.898   4.470   1.005 -0.5839  0.2304 -2.3130
  573MPD2    H3 8503   2.029   4.579   0.842  0.4621 -0.0738  0.7198
  573MPD2     N 8504   1.704   0.176   0.776 -0.5206 -0.8191  0.2193
  573MPD2    H5 8505   1.757   0.205   0.694 -0.5334  1.7994  1.1413
  573MPD2    N1 8506   1.688   4.575   1.147  0.2111  0.5083  0.3169
  573MPD2    H7 8507   1.613   4.629   1.191 -0.2271  0.2771 -0.1393
  574TMC3    C1 8508   1.541   0.332   0.702 -0.7089 -0.2352  0.0144
  574TMC3    C2 8509   1.454   0.427   0.737 -0.1391 -0.5035 -0.2349
  574TMC3    C3 8510   1.408   0.515   0.641 -0.0233  0.1174 -0.3612
  574TMC3    C4 8511   1.591   0.333   0.571  0.2069 -0.8473  0.9103
  574TMC3    C5 8512   1.545   0.420   0.478 -0.0504  0.4349 -0.2134
  574TMC3    C6 8513   1.452   0.509   0.510 -0.4377  0.5611  0.0150
  574TMC3     C 8514   1.581   0.238   0.800 -0.6067  0.1021 -0.0748
  574TMC3     O 8515   1.518   0.234   0.904  0.1258  0.2264  0.1110
  574TMC3     H 8516   1.428   0.433   0.842  1.7686 -1.9739  0.3267
  574TMC3    H1 8517   1.665   0.257   0.548  0.5697  0.0623 -0.9143
  574TMC3    H2 8518   1.416   0.579   0.435 -0.5634  1.6632  1.1071
  574TMC3    C7 8519   1.554   0.386   0.337 -0.9642 -0.0955  0.6404
  574TMC3    C8 8520   1.353   0.642   0.699  1.1312  0.5355  0.5175
  574TMC3    O1 8521   1.499   0.460   0.255 -0.8220  0.3502  0.2722
  574TMC3    O2 8522   1.358   0.659   0.818 -0.1453  0.0546 -0.1495
  575TMC3    C1 8523   4.208   0.142  10.789  0.8272  0.2932 -0.1542
  575TMC3    C2 8524   4.126   0.034  10.815  0.6067  0.6675 -0.0021
  575TMC3    C3 8525   4.016   0.015  10.743  0.3291  0.0988 -0.1305
  575TMC3    C4 8526   4.177   0.225  10.692  0.0021 -0.2708 -0.0819
  575TMC3    C5 8527   4.064   0.205  10.617 -0.4968 -0.2985 -0.4291
  575TMC3    C6 8528   3.981   0.102  10.645 -0.4642  0.4070  0.4627
  575TMC3     C 8529   4.300   0.183  10.897 -0.1446 -0.0239 -0.3557
  575TMC3     O 8530   4.282   0.127  11.005  0.5804 -0.1628 -0.2031
  575TMC3     H 8531   4.140   4.684  10.897  0.8824 -1.6239 -1.9906
  575TMC3    H1 8532   4.235   0.312  10.665 -0.7457 -0.2676 -1.7000
  575TMC3    H2 8533   3.900   0.072  10.580 -0.0517  1.0555 -0.3452
  575TMC3    C7 8534   4.029   0.312  10.530 -0.8218  0.6311  0.4599
  575TMC3    C8 8535   3.919   4.624  10.769 -0.4621  0.2902  0.1708
  575TMC3    O1 8536   4.103   0.411  10.522  0.1320  0.4264 -0.2505
  575TMC3    O2 8537   3.799   4.658  10.767 -0.3911 -0.1878  0.2703
  576MPD2     C 8538   4.097   2.007  12.692 -0.3212  0.4892  0.4318
  576MPD2    C1 8539   4.181   2.102  12.636  0.5093  0.1097  0.1207
  576MPD2    C2 8540   4.178   2.231  12.681  0.7295 -0.4242 -0.0556
  576MPD2    C3 8541   4.088   2.275  12.777 -0.0393 -0.1773 -0.1647
  576MPD2    C4 8542   4.009   2.174  12.836  0.1934  0.2239  0.1857
  576MPD2    C5 8543   4.009   2.049  12.784 -0.1906  0.3756 -0.1954
  576MPD2     H 8544   4.240   2.297  12.621  1.6410  1.0450  2.5140
  576MPD2    H1 8545   3.941   2.200  12.917 -0.3615  0.8545 -0.4794
  576MPD2    H2 8546   4.098   1.906  12.655  0.2935  0.0335  1.6948
  576MPD2    H3 8547   3.945   1.972  12.825  1.5244 -0.8303  0.2605
  576MPD2     N 8548   4.083   2.408  12.807  0.4806 -0.0783  0.1453
  576MPD2    H5 8549   4.165   2.463  12.784  0.7998 -0.7828 -0.4098
  576MPD2    N1 8550   4.271   2.066  12.529  0.1927  0.0905 -0.1924
  576MPD2    H7 8551   4.327   2.146  12.500 -1.2560  0.8534 -0.8732
  577TMC3    C1 8552   4.404   1.951  12.373 -0.1058 -0.2306  0.2077
  577TMC3    C2 8553   4.468   1.838  12.341  0.1064 -0.4257  0.0585
  577TMC3    C3 8554   4.519   1.825  12.221  0.0237 -0.7754  0.2144
  577TMC3    C4 8555   4.397   2.060  12.289 -0.2183 -0.1365 -1.0951
  577TMC3    C5 8556   4.445   2.043  12.160 -0.2526  0.2711 -0.2761
  577TMC3    C6 8557   4.510   1.928  12.125 -0.2307 -0.3381 -0.3705
  577TMC3     C 8558   4.312   1.946  12.486  0.5246  0.0041 -0.1418
  577TMC3     O 8559   4.270   1.835  12.522 -0.3224 -0.2882 -0.4439
  577TMC3     H 8560   4.488   1.758  12.412  1.8101  1.5051  1.7303
  577TMC3    H1 8561   4.358   2.156  12.321  1.1796 -0.2194  0.8422
  577TMC3    H2 8562   4.531   1.902  12.022 -0.4649  0.9411 -0.7380
  577TMC3    C7 8563   4.421   2.142  12.060  0.3106  0.4483  0.1338
  577TMC3    C8 8564   4.601   1.709  12.203 -0.5252 -0.0705  0.1312
  577TMC3    O1 8565   4.326   2.216  12.073 -0.2605 -0.3527 -0.1963
  577TMC3    O2 8566   4.586   1.619  12.282 -0.4016 -0.3662  0.3071
  578MPD2     C 8567   2.265   2.598   0.542  0.1874  0.3918 -0.1513
  578MPD2    C1 8568   2.343   2.702   0.565 -0.3870 -0.3547  0.3587
  578MPD2    C2 8569   2.416   2.712   0.681 -0.1718 -0.0323  0.2951
  578MPD2    C3 8570   2.427   2.601   0.763  0.3406  0.1051  0.0633
  578MPD2    C4 8571   2.353   2.487   0.734 -0.3538 -0.3374  0.0535
  578MPD2    C5 8572   2.271   2.493   0.625  1.1593  0.8662 -0.0548
  578MPD2     H 8573   2.462   2.808   0.702  0.0735 -0.1949  0.5163
  578MPD2    H1 8574   2.363   2.393   0.786 -0.8408  1.1326  2.7695
  578MPD2    H2 8575   2.195   2.588   0.460 -0.8579 -0.6080  0.8805
  578MPD2    H3 8576   2.214   2.404   0.600  1.4988  0.8365 -0.6945
  578MPD2     N 8577   2.508   2.614   0.878  0.5539  0.4492 -0.3208
  578MPD2    H5 8578   2.547   2.707   0.888 -0.8511  0.8709  1.1445
  578MPD2    N1 8579   2.362   2.813   0.474 -0.4120 -0.1566  0.1497
  578MPD2    H7 8580   2.423   2.889   0.502 -1.7034  0.8130  0.3801
  579TMC3    C1 8581   2.627   2.561   1.080  0.5336 -0.5987 -0.0115
  579TMC3    C2 8582   2.673   2.688   1.068 -0.1762  0.5756  0.1657
  579TMC3    C3 8583   2.802   2.720   1.105 -0.3722 -0.1922 -0.3699
  579TMC3    C4 8584   2.709   2.462   1.130  0.6178 -0.4376 -0.3673
  579TMC3    C5 8585   2.824   2.501   1.191 -0.6429 -0.0716  0.2169
  579TMC3    C6 8586   2.879   2.628   1.181 -0.0486  0.1325  0.0214
  579TMC3     C 8587   2.539   2.516   0.966  0.2178 -0.1068 -0.3396
  579TMC3     O 8588   2.514   2.400   0.956 -0.0941 -0.2792  0.6193
  579TMC3     H 8589   2.608   2.760   1.018 -0.4993  0.1150 -0.0774
  579TMC3    H1 8590   2.689   2.359   1.103 -2.1943  0.2591 -0.9647
  579TMC3    H2 8591   2.974   2.651   1.228 -0.0911  0.1344  0.1059
  579TMC3    C7 8592   2.872   2.417   1.300 -0.4312  0.9253  0.0778
  579TMC3    C8 8593   2.856   2.851   1.082 -0.0603  0.3334 -0.0588
  579TMC3    O1 8594   2.975   2.446   1.366 -0.4490 -0.0076 -0.3212
  579TMC3    O2 8595   2.763   2.927   1.062  0.0706 -0.6339 -0.6982
  580TMC3    C1 8596   2.515   1.270  11.743  0.0024 -0.0533 -0.4941
  580TMC3    C2 8597   2.576   1.235  11.626  0.6687  0.1345 -0.0943
  580TMC3    C3 8598   2.699   1.180  11.638  0.0105  0.7803 -0.1910
  580TMC3    C4 8599   2.558   1.234  11.860  0.7600 -0.8944  0.4899
  580TMC3    C5 8600   2.662   1.146  11.869 -0.1691 -0.1830 -0.1497
  580TMC3    C6 8601   2.745   1.131  11.758  0.1245 -0.2875  0.2415
  580TMC3     C 8602   2.465   1.404  11.729 -0.1423 -0.1808  0.2318
  580TMC3     O 8603   2.454   1.449  11.615 -0.3991 -0.9907  0.0874
  580TMC3     H 8604   2.544   1.265  11.527  0.8989  0.1426 -0.1666
  580TMC3    H1 8605   2.504   1.269  11.948  0.7191  3.9903 -1.4592
  580TMC3    H2 8606   2.835   1.071  11.762  0.8808  0.7199 -1.3449
  580TMC3    C7 8607   2.705   1.096  12.000 -0.2683 -0.6938  0.5407
  580TMC3    C8 8608   2.800   1.247  11.560 -0.1175  0.0837 -0.1022
  580TMC3    O1 8609   2.661   1.140  12.104  0.3883  0.1754  0.2226
  580TMC3    O2 8610   2.765   1.277  11.448  0.7224 -0.4629  0.8122
  581MPD2     C 8611   0.350   2.126  15.218 -0.4949 -0.6514  0.3603
  581MPD2    C1 8612   0.325   2.002  15.161 -0.2730  0.3414  0.4730
  581MPD2    C2 8613   0.215   1.988  15.075 -0.3906  0.1569  0.5108
  581MPD2    C3 8614   0.135   2.092  15.047  0.0529  0.4557  0.9485
  581MPD2    C4 8615   0.154   2.210  15.112 -0.0316  0.2899  0.3005
  581MPD2    C5 8616   0.261   2.225  15.198  0.1607  0.3014  0.4079
  581MPD2     H 8617   0.192   1.894  15.027  2.1299  0.6967 -1.7351
  581MPD2    H1 8618   0.079   2.288  15.109  0.6964  0.9962  0.5163
  581MPD2    H2 8619   0.439   2.137  15.278  0.1734  1.7049 -1.0285
  581MPD2    H3 8620   0.284   2.308  15.265 -0.2199  0.3974  0.4209
  581MPD2     N 8621   0.027   2.072  14.961  0.0778  0.4994 -0.2858
  581MPD2    H5 8622   0.014   1.979  14.924  6.0064 -0.8507  1.1148
  581MPD2    N1 8623   0.418   1.900  15.197  0.1992 -0.6073  0.2628
  581MPD2    H7 8624   0.481   1.926  15.272  0.4627 -1.6238  0.4003
  582TMC3    C1 8625   0.518   1.700  15.226 -0.0731  0.6090  0.3354
  582TMC3    C2 8626   0.533   1.728  15.358 -0.1143  0.3464  0.3572
  582TMC3    C3 8627   0.574   1.624  15.441 -0.0895  0.2871 -0.3741
  582TMC3    C4 8628   0.545   1.575  15.175  0.2219 -0.0548 -0.5586
  582TMC3    C5 8629   0.567   1.476  15.260  0.5600 -0.5634  0.4535
  582TMC3    C6 8630   0.589   1.496  15.395 -0.6894  0.0985 -0.4500
  582TMC3     C 8631   0.417   1.775  15.163  0.7951  0.7772  0.1707
  582TMC3     O 8632   0.329   1.724  15.098 -0.0344 -0.0346  0.0856
  582TMC3     H 8633   0.518   1.824  15.406 -0.2466 -0.1045  1.2213
  582TMC3    H1 8634   0.517   1.563  15.071 -0.9241  1.4180 -0.4154
  582TMC3    H2 8635   0.615   1.415  15.462 -0.0694  1.2631  0.7148
  582TMC3    C7 8636   0.625   1.360  15.207 -0.7489 -0.8003  0.5377
  582TMC3    C8 8637   0.531   1.652  15.576 -1.3165  0.6906  0.2067
  582TMC3    O1 8638   0.719   1.307  15.264 -1.0599 -0.4911  0.0187
  582TMC3    O2 8639   0.511   1.766  15.614  0.6120 -0.0058  0.7212
  583MPD2     C 8640   0.085   2.959  16.403 -0.2406 -0.0871 -0.3273
  583MPD2    C1 8641   0.092   3.091  16.376  0.5824 -0.6229 -0.2731
  583MPD2    C2 8642   0.047   3.184  16.470 -0.4900  0.0603  0.4860
  583MPD2    C3 8643   4.710   3.140  16.589  0.4546  0.0688 -0.3161
  583MPD2    C4 8644   4.716   3.004  16.622 -0.3102  0.8800  0.3346
  583MPD2    C5 8645   0.043   2.917  16.529 -0.5247  0.8805 -0.0915
  583MPD2     H 8646   0.040   3.289  16.444  0.6414  0.3262  1.2929
  583MPD2    H1 8647   4.698   2.962  16.720  0.0511  1.0091  0.4530
  583MPD2    H2 8648   0.112   2.882  16.332  2.0157  2.2891 -2.0030
  583MPD2    H3 8649   0.042   2.810  16.550  0.1415  1.2366  1.7741
  583MPD2     N 8650   4.657   3.237  16.674 -0.0103  0.0427 -0.2021
  583MPD2    H5 8651   4.656   3.329  16.631  1.4100  0.5575  0.8770
  583MPD2    N1 8652   0.152   3.135  16.255  0.0186 -0.2866 -0.8477
  583MPD2    H7 8653   0.164   3.235  16.246  1.4685 -0.4189 -0.5161
  584TMC3    C1 8654   4.554   3.332  16.871  0.5044 -0.3718 -0.0224
  584TMC3    C2 8655   4.522   3.449  16.803 -0.2467  0.6008 -0.0958
  584TMC3    C3 8656   4.507   3.565  16.872  0.5584  0.0897  0.1497
  584TMC3    C4 8657   4.552   3.317  17.006  0.6390  0.2675  0.0416
  584TMC3    C5 8658   4.531   3.437  17.076 -0.8979 -0.1450  1.2727
  584TMC3    C6 8659   4.518   3.560  17.012 -0.4772  0.1426 -0.2683
  584TMC3     C 8660   4.589   3.215  16.792 -0.0714 -0.8651 -0.1229
  584TMC3     O 8661   4.599   3.113  16.859 -0.3966  0.0402  0.3884
  584TMC3     H 8662   4.496   3.449  16.698 -0.3705 -0.5852 -0.0680
  584TMC3    H1 8663   4.567   3.221  17.053  1.1706  0.2751 -0.1107
  584TMC3    H2 8664   4.553   3.646  17.068  2.0461  0.3850 -2.2139
  584TMC3    C7 8665   4.538   3.439  17.221 -0.4791  0.8838 -0.5325
  584TMC3    C8 8666   4.511   3.690  16.793  0.2543 -0.9236  0.2027
  584TMC3    O1 8667   4.570   3.549  17.278 -0.0451 -0.5519 -0.5265
  584TMC3    O2 8668   4.513   3.670  16.673 -0.4098 -0.4633  0.5443
  585MPD2     C 8669   3.938   2.274   0.997 -0.8661  0.3087 -0.0967
  585MPD2    C1 8670   4.048   2.269   0.916  0.0071 -0.5367 -0.2499
  585MPD2    C2 8671   4.034   2.232   0.782  0.6897  0.1192 -0.0772
  585MPD2    C3 8672   3.908   2.198   0.727  0.2748  0.3421  0.0045
  585MPD2    C4 8673   3.797   2.212   0.811  0.3653 -0.2341 -0.6074
  585MPD2    C5 8674   3.814   2.246   0.941 -0.4026  0.3643 -0.0278
  585MPD2     H 8675   4.120   2.237   0.716 -0.1968 -1.8655 -1.4049
  585MPD2    H1 8676   3.697   2.193   0.773  0.0322  0.5174 -0.0861
  585MPD2    H2 8677   3.947   2.289   1.104  1.3547 -1.2832 -0.0503
  585MPD2    H3 8678   3.730   2.239   1.009  0.7253  1.6882  1.5068
  585MPD2     N 8679   3.886   2.175   0.588 -0.5129 -0.2508  0.3240
  585MPD2    H5 8680   3.789   2.159   0.561 -0.7124 -1.9758  2.0435
  585MPD2    N1 8681   4.169   2.315   0.966 -0.3061 -0.4536 -0.3082
  585MPD2    H7 8682   4.165   2.355   1.060  0.5559 -0.4237 -0.2824
  586TMC3    C1 8683   3.956   2.146   0.356 -0.4704 -0.0696  0.6379
  586TMC3    C2 8684   4.053   2.116   0.269 -0.4405  0.6558  0.4564
  586TMC3    C3 8685   4.032   2.047   0.155  0.2578 -0.2928 -0.1151
  586TMC3    C4 8686   3.826   2.110   0.320  0.0788  0.1082 -0.4497
  586TMC3    C5 8687   3.806   2.049   0.203 -0.3306  0.2493  0.5490
  586TMC3    C6 8688   3.902   2.021   0.110  0.1979 -0.5490 -0.3559
  586TMC3     C 8689   3.990   2.164   0.499  0.6421 -0.1855 -0.2425
  586TMC3     O 8690   4.107   2.154   0.529 -0.2834  0.2635  0.0528
  586TMC3     H 8691   4.151   2.150   0.299  1.2711 -2.0337 -2.0984
  586TMC3    H1 8692   3.737   2.130   0.378  0.1425  0.5801 -0.5157
  586TMC3    H2 8693   3.884   1.957   0.024 -1.9745  1.8061 -1.6581
  586TMC3    C7 8694   3.667   1.999   0.184 -0.4455  0.2151 -0.0535
  586TMC3    C8 8695   4.141   2.019   0.060 -0.3619 -0.1361  0.4638
  586TMC3    O1 8696   3.653   1.889   0.144  0.0891 -0.3506 -0.4403
  586TMC3    O2 8697   4.257   2.039   0.095 -0.2651  0.2244 -0.3932
  587TMC3    C1 8698   1.947   0.503  16.653 -0.3538  0.6584  0.6619
  587TMC3    C2 8699   1.913   0.613  16.588 -0.0949 -0.5275 -0.1077
  587TMC3    C3 8700   2.003   0.711  16.583  0.0143  0.1203 -0.1847
  587TMC3    C4 8701   2.068   0.481  16.715  0.2197 -0.0111  0.3236
  587TMC3    C5 8702   2.154   0.581  16.705 -0.1300  0.0885 -1.1070
  587TMC3    C6 8703   2.123   0.700  16.649  0.5867  0.1202  0.0596
  587TMC3     C 8704   1.842   0.409  16.692 -0.3000 -0.0220  0.3657
  587TMC3     O 8705   1.878   0.294  16.728 -0.0426 -0.0427 -0.0773
  587TMC3     H 8706   1.830   0.622  16.518 -0.8970 -3.0100  0.5305
  587TMC3    H1 8707   2.082   0.392  16.776 -0.2051 -0.2313  0.0991
  587TMC3    H2 8708   2.193   0.782  16.637 -1.5391  2.2766  2.2361
  587TMC3    C7 8709   2.289   0.547  16.742 -0.1057 -0.0205 -0.2156
  587TMC3    C8 8710   1.970   0.833  16.516  0.0426  0.2539 -0.5870
  587TMC3    O1 8711   2.308   0.447  16.815  0.2079  0.1744 -0.1267
  587TMC3    O2 8712   2.058   0.892  16.453  0.0491  0.2797 -0.1177
  588TMC3    C1 8713   4.182   3.452   9.801 -0.3965  0.1322  0.9232
  588TMC3    C2 8714   4.128   3.326   9.802 -0.0820 -0.2402 -0.0255
  588TMC3    C3 8715   4.203   3.222   9.755 -0.6800 -0.1929 -0.3963
  588TMC3    C4 8716   4.302   3.477   9.742 -0.3194  0.3449  0.1689
  588TMC3    C5 8717   4.373   3.376   9.681  0.4030 -0.2700 -0.1975
  588TMC3    C6 8718   4.328   3.247   9.697  0.5869 -0.8191 -0.1174
  588TMC3     C 8719   4.110   3.564   9.855  0.8294  0.6317 -0.3019
  588TMC3     O 8720   3.991   3.550   9.876  0.1861 -0.4203 -0.0998
  588TMC3     H 8721   4.032   3.311   9.849 -1.0302  0.0017 -1.9053
  588TMC3    H1 8722   4.303   3.578   9.703  0.9677 -0.0999 -0.9494
  588TMC3    H2 8723   4.396   3.171   9.661  0.3790 -1.1659  0.2297
  588TMC3    C7 8724   4.495   3.405   9.608 -0.2538 -0.1068  0.1797
  588TMC3    C8 8725   4.133   3.093   9.736  0.8203 -0.8770 -0.7688
  588TMC3    O1 8726   4.534   3.324   9.528 -0.0571  0.0858 -0.6535
  588TMC3    O2 8727   4.014   3.091   9.771  0.7329 -0.2138 -0.5190
  589TMC3    C1 8728   2.623   0.722   1.346  0.0732 -0.4594 -0.5396
  589TMC3    C2 8729   2.711   0.758   1.441 -0.7460 -0.2412  0.2876
  589TMC3    C3 8730   2.815   0.672   1.466 -0.4438 -0.3533  0.4463
  589TMC3    C4 8731   2.635   0.611   1.267 -0.0845 -0.1969  0.5354
  589TMC3    C5 8732   2.751   0.532   1.281  0.5835  0.3334  0.1725
  589TMC3    C6 8733   2.833   0.557   1.390 -0.0224 -0.2570 -0.3669
  589TMC3     C 8734   2.502   0.804   1.336 -0.1612  0.1954 -0.4520
  589TMC3     O 8735   2.438   0.791   1.234 -0.3258  0.0450 -0.5053
  589TMC3     H 8736   2.708   0.855   1.490 -1.4119 -0.7781  1.3059
  589TMC3    H1 8737   2.555   0.583   1.200 -0.1550  0.0117  0.5327
  589TMC3    H2 8738   2.920   0.496   1.412  0.4141  0.1905 -0.8660
  589TMC3    C7 8739   2.779   0.415   1.201 -0.1877  0.7137  0.5708
  589TMC3    C8 8740   2.904   0.704   1.576 -0.3292  0.2910  0.7771
  589TMC3    O1 8741   2.680   0.356   1.150 -0.2240  0.4864 -0.7104
  589TMC3    O2 8742   2.859   0.772   1.667  0.0296 -0.9256 -0.4787
  590MPD2     C 8743   2.510   4.076  16.763 -0.3662 -0.3628 -0.9123
  590MPD2    C1 8744   2.419   4.173  16.744  0.1430 -0.6481  1.0226
  590MPD2    C2 8745   2.450   4.289  16.677  0.1351  0.4131  0.1941
  590MPD2    C3 8746   2.581   4.312  16.634 -1.0725 -0.0416  0.1470
  590MPD2    C4 8747   2.670   4.207  16.651 -0.5122 -0.2616  0.0816
  590MPD2    C5 8748   2.634   4.091  16.713 -0.2033  0.1186  0.1566
  590MPD2     H 8749   2.374   4.363  16.656 -3.8317 -3.8028 -0.1892
  590MPD2    H1 8750   2.775   4.209  16.623 -0.6341  0.0028 -0.3606
  590MPD2    H2 8751   2.487   3.985  16.818  0.2161 -1.0574 -1.8275
  590MPD2    H3 8752   2.708   4.014  16.727 -0.7022 -0.1027  1.6176
  590MPD2     N 8753   2.612   4.426  16.550 -0.0261  0.4975  0.5236
  590MPD2    H5 8754   2.535   4.483  16.515  0.7890  0.2019 -1.7377
  590MPD2    N1 8755   2.288   4.145  16.787 -0.3968 -0.4313 -0.2195
  590MPD2    H7 8756   2.269   4.047  16.807  2.1470 -0.8659  0.0209
  591TMC3    C1 8757   2.736   4.530  16.375 -0.4654 -0.3862  0.4166
  591TMC3    C2 8758   2.861   4.526  16.303 -0.1651  0.8184  0.1089
  591TMC3    C3 8759   2.872   4.588  16.182  0.2140  0.0401 -0.1889
  591TMC3    C4 8760   2.637   4.609  16.327  0.3998 -0.3800  0.1307
  591TMC3    C5 8761   2.648   4.672  16.206  0.7315  0.2510  0.0279
  591TMC3    C6 8762   2.766   4.668  16.136 -0.1128 -0.3314 -0.2969
  591TMC3     C 8763   2.733   4.455  16.496 -0.0319 -0.9304  0.6923
  591TMC3     O 8764   2.842   4.417  16.545  0.0763 -0.7150  0.0764
  591TMC3     H 8765   2.938   4.462  16.346 -1.4173 -2.1598 -2.0660
  591TMC3    H1 8766   2.542   4.616  16.378  1.7667  0.8245  2.4951
  591TMC3    H2 8767   2.772   4.705  16.034 -0.2297  1.4804  0.3428
  591TMC3    C7 8768   2.557   0.060  16.166  0.0098 -0.4322  0.0055
  591TMC3    C8 8769   2.952   4.517  16.087 -0.4201  0.2728  0.3662
  591TMC3    O1 8770   2.443   0.054  16.207  0.3646 -0.7910 -0.1735
  591TMC3    O2 8771   2.988   4.404  16.117 -0.6310 -0.0157  0.5470
  592MPD2     C 8772   3.377   0.634  11.204  0.4360  0.0647  0.4456
  592MPD2    C1 8773   3.390   0.624  11.337  0.0976 -0.5151 -0.5591
  592MPD2    C2 8774   3.332   0.518  11.407 -0.0294 -0.0403 -0.2394
  592MPD2    C3 8775   3.242   0.437  11.342 -0.3706  0.2116 -0.2388
  592MPD2    C4 8776   3.209   0.459  11.210  0.2668 -0.7772 -0.6879
  592MPD2    C5 8777   3.287   0.553  11.144 -0.2593  0.0322  0.8379
  592MPD2     H 8778   3.336   0.511  11.515  0.5897  2.9097 -0.0598
  592MPD2    H1 8779   3.136   0.392  11.164  0.5521 -0.2626 -1.8905
  592MPD2    H2 8780   3.414   0.720  11.149 -0.7863  0.5415  0.3672
  592MPD2    H3 8781   3.248   0.569  11.044  1.2807  0.5743  0.3238
  592MPD2     N 8782   3.166   0.356  11.434 -0.1621 -0.6923 -0.1303
  592MPD2    H5 8783   3.198   0.359  11.531  0.3025  1.2691 -0.3532
  592MPD2    N1 8784   3.465   0.728  11.404 -0.5393  0.6475  0.1359
  592MPD2    H7 8785   3.526   0.791  11.351 -0.2972 -0.0070 -0.3680
  593TMC3    C1 8786   3.542   0.851  11.595 -1.1314  0.4233 -1.0324
  593TMC3    C2 8787   3.492   0.907  11.712 -0.0017  0.7418  0.2686
  593TMC3    C3 8788   3.561   1.020  11.759  0.1759 -0.2531 -0.5844
  593TMC3    C4 8789   3.649   0.899  11.515 -0.2434  0.1700 -0.2794
  593TMC3    C5 8790   3.724   0.999  11.578  0.2794 -0.8372  0.0086
  593TMC3    C6 8791   3.668   1.069  11.689  0.1150  0.4776  0.5294
  593TMC3     C 8792   3.459   0.749  11.541 -0.0222  0.0254 -0.8093
  593TMC3     O 8793   3.376   0.705  11.620 -0.5168  0.1190  0.1453
  593TMC3     H 8794   3.399   0.872  11.757 -0.1178 -0.6072 -1.0333
  593TMC3    H1 8795   3.701   0.839  11.441  0.0912  0.5005 -0.3153
  593TMC3    H2 8796   3.724   1.152  11.730  0.0502  0.5774  0.4139
  593TMC3    C7 8797   3.815   1.079  11.495  0.6559 -0.0474 -0.2329
  593TMC3    C8 8798   3.495   1.110  11.845  0.3972 -0.2261  0.2711
  593TMC3    O1 8799   3.891   1.152  11.560  0.1956  0.5990  0.1851
  593TMC3    O2 8800   3.375   1.119  11.829  0.3607  0.3304 -0.3243
  594MPD2     C 8801   1.982   4.662  13.836  0.3594 -0.0754 -0.3969
  594MPD2    C1 8802   1.996   4.655  13.969 -0.7060  0.8725 -0.0513
  594MPD2    C2 8803   2.084   0.021  14.027  0.1201 -0.0955  0.1429
  594MPD2    C3 8804   2.157   0.104  13.948  0.4823 -0.4565 -0.1062
  594MPD2    C4 8805   2.145   0.117  13.807 -0.2869 -0.4972  0.3190
  594MPD2    C5 8806   2.044   0.042  13.757 -0.2035 -0.6729  0.5233
  594MPD2     H 8807   2.095   0.028  14.135  2.1748 -2.0119  0.0538
  594MPD2    H1 8808   2.203   0.179  13.739 -1.9173  0.0719 -0.5376
  594MPD2    H2 8809   1.909   4.614  13.771 -0.3237 -0.3847  0.6013
  594MPD2    H3 8810   2.012   0.057  13.654  0.8990  0.5184  0.3451
  594MPD2     N 8811   2.235   0.193  14.029  0.1511 -0.5372 -0.0745
  594MPD2    H5 8812   2.221   0.189  14.130  0.9018 -1.6416 -0.0111
  594MPD2    N1 8813   1.903   4.569  14.040 -0.2299 -0.0018 -0.3224
  594MPD2    H7 8814   1.838   4.522  13.978 -1.1295  0.7279  0.0664
  595TMC3    C1 8815   2.556   0.487  14.194  0.1107  0.4161 -0.3847
  595TMC3    C2 8816   2.506   0.400  14.095  0.3173 -0.1263  0.1262
  595TMC3    C3 8817   2.375   0.375  14.091 -0.8932 -0.4298  0.2634
  595TMC3    C4 8818   2.470   0.551  14.280 -1.2204  0.6564 -0.0180
  595TMC3    C5 8819   2.339   0.523  14.272 -0.3087  0.3228  0.7404
  595TMC3    C6 8820   2.287   0.433  14.181  0.2253 -0.4757 -0.2174
  595TMC3     C 8821   2.697   0.473  14.243  0.1036  0.6268 -0.1497
  595TMC3     O 8822   2.707   0.501  14.362 -0.1071 -0.3136 -0.3179
  595TMC3     H 8823   2.579   0.344  14.038  2.8407  0.3175  2.9063
  595TMC3    H1 8824   2.510   0.609  14.362  1.3203 -0.6415 -0.3352
  595TMC3    H2 8825   2.180   0.416  14.183  0.1838 -0.0935  1.0378
  595TMC3    C7 8826   2.257   0.614  14.345  0.2092 -0.2666  0.3287
  595TMC3    C8 8827   2.333   0.277  13.991 -0.6772 -0.6916  0.2643
  595TMC3    O1 8828   2.149   0.568  14.378  0.3467  0.2246  0.7146
  595TMC3    O2 8829   2.405   0.275  13.897 -0.2355  0.3192 -0.2680
  596MPD2     C 8830   0.897   3.013  16.554 -0.4780  0.2986 -0.1036
  596MPD2    C1 8831   0.923   3.126  16.474 -0.3192 -0.2106 -0.0085
  596MPD2    C2 8832   0.974   3.107  16.347 -0.0768  0.4770 -0.0500
  596MPD2    C3 8833   0.983   2.981  16.294  0.4102 -0.4486  0.7805
  596MPD2    C4 8834   0.957   2.870  16.371 -0.4983 -0.2518 -0.4432
  596MPD2    C5 8835   0.921   2.888  16.503 -0.1019  0.3169  0.5408
  596MPD2     H 8836   0.970   3.192  16.280  0.9181  0.7597  0.2492
  596MPD2    H1 8837   0.966   2.771  16.328 -1.9585 -1.3217  1.7111
  596MPD2    H2 8838   0.879   3.032  16.659  1.2805 -3.8316  0.9226
  596MPD2    H3 8839   0.903   2.800  16.564 -2.2009 -0.7173 -1.5490
  596MPD2     N 8840   1.013   2.967  16.152 -0.1082 -0.3930 -0.4064
  596MPD2    H5 8841   1.018   2.873  16.112  1.0127 -1.0531  1.2747
  596MPD2    N1 8842   0.897   3.259  16.515 -0.6265  0.1185  0.0063
  596MPD2    H7 8843   0.932   3.333  16.454  1.4305 -0.1279  0.8902
  597TMC3    C1 8844   0.786   3.442  16.611  0.0831 -0.0806  0.9565
  597TMC3    C2 8845   0.879   3.529  16.564  0.2396 -0.0250 -0.5001
  597TMC3    C3 8846   0.850   3.661  16.577  0.4016  0.3007  0.0125
  597TMC3    C4 8847   0.674   3.484  16.667  0.0835  0.0907 -0.2732
  597TMC3    C5 8848   0.635   3.611  16.672  0.0428  0.5916  0.4353
  597TMC3    C6 8849   0.728   3.705  16.628  0.1376 -0.4423  0.2855
  597TMC3     C 8850   0.819   3.301  16.621 -0.8798  1.2698  0.2261
  597TMC3     O 8851   0.750   3.232  16.693  0.2744  0.2985  0.4046
  597TMC3     H 8852   0.983   3.501  16.549 -0.2751 -1.1282 -2.0808
  597TMC3    H1 8853   0.608   3.410  16.712 -0.3873  0.1300 -0.9139
  597TMC3    H2 8854   0.704   3.810  16.613  0.4054 -0.1891  1.6857
  597TMC3    C7 8855   0.533   3.643  16.762  0.9110 -0.2706 -0.0801
  597TMC3    C8 8856   0.943   3.758  16.523  0.0222 -0.3836 -0.0914
  597TMC3    O1 8857   0.505   3.565  16.852  0.4999 -0.3026 -0.4218
  597TMC3    O2 8858   0.920   3.873  16.557  0.7056 -0.1815  0.0954
  598TMC3    C1 8859   3.577   4.440  15.496  1.1794 -0.4896 -0.1492
  598TMC3    C2 8860   3.451   4.405  15.458 -0.0887  0.0956  0.2536
  598TMC3    C3 8861   3.430   4.393  15.321 -0.0008 -0.7647  0.0859
  598TMC3    C4 8862   3.672   4.485  15.415  0.1931 -0.3992  0.1583
  598TMC3    C5 8863   3.639   4.500  15.286 -0.4251 -0.3084 -0.5104
  598TMC3    C6 8864   3.520   4.456  15.238 -0.4563 -0.2657  0.2198
  598TMC3     C 8865   3.624   4.425  15.633 -0.0018 -0.1010  0.2955
  598TMC3     O 8866   3.530   4.429  15.710  0.4000  0.0167 -0.3605
  598TMC3     H 8867   3.397   4.350  15.534  0.8994 -0.5922  0.4625
  598TMC3    H1 8868   3.769   4.522  15.447 -0.5429  1.5343  0.1528
  598TMC3    H2 8869   3.496   4.477  15.134 -1.4579  2.9383  1.0925
  598TMC3    C7 8870   3.737   4.536  15.187 -0.3384  0.3164  0.0735
  598TMC3    C8 8871   3.303   4.346  15.279  0.0054  0.2885  0.2106
  598TMC3    O1 8872   3.724   4.502  15.074 -0.0119  0.0227  0.2295
  598TMC3    O2 8873   3.227   4.303  15.369  0.3964  0.5933  0.2973
  599MPD2     C 8874   3.839   2.547  15.573 -0.4591  0.3666 -0.7160
  599MPD2    C1 8875   3.899   2.443  15.647 -0.3143 -0.2100  0.4794
  599MPD2    C2 8876   3.863   2.434  15.782  1.0417  0.3209 -0.1183
  599MPD2    C3 8877   3.781   2.523  15.845  0.0737 -0.0468  0.2345
  599MPD2    C4 8878   3.729   2.623  15.765  0.1986  0.0044  0.1577
  599MPD2    C5 8879   3.754   2.634  15.634 -0.3134 -0.0150  0.0767
  599MPD2     H 8880   3.919   2.362  15.841 -0.0920  1.1759  1.9692
  599MPD2    H1 8881   3.653   2.691  15.803 -1.7311 -2.8940  1.5229
  599MPD2    H2 8882   3.844   2.547  15.465 -0.6618 -1.5816 -0.7345
  599MPD2    H3 8883   3.701   2.708  15.574 -0.5042  0.9332  1.4352
  599MPD2     N 8884   3.748   2.519  15.982  0.0530  0.2358  0.4554
  599MPD2    H5 8885   3.725   2.611  16.017  4.4398  1.5616 -0.1526
  599MPD2    N1 8886   3.995   2.351  15.596  0.3262  0.1297 -0.8814
  599MPD2    H7 8887   4.032   2.276  15.653  1.4712 -0.4294 -2.3496
  600TMC3    C1 8888   3.729   2.458  16.208  0.1032  0.1829  0.5250
  600TMC3    C2 8889   3.638   2.388  16.282 -0.6976  0.8730 -0.1678
  600TMC3    C3 8890   3.590   2.445  16.395 -0.7040  0.3126 -0.3848
  600TMC3    C4 8891   3.762   2.585  16.233  0.3383  0.0687 -0.7923
  600TMC3    C5 8892   3.726   2.628  16.356  0.7627  0.6574 -0.0366
  600TMC3    C6 8893   3.641   2.564  16.440  0.5362  0.3239  0.1663
  600TMC3     C 8894   3.759   2.411  16.071 -0.4830 -0.3231 -0.1161
  600TMC3     O 8895   3.792   2.295  16.047  0.6420 -0.3100  0.4544
  600TMC3     H 8896   3.611   2.287  16.252 -3.1244  1.1415  1.0508
  600TMC3    H1 8897   3.843   2.635  16.183 -2.0808  1.1766 -3.5891
  600TMC3    H2 8898   3.613   2.607  16.535 -1.4966  1.9763 -1.1679
  600TMC3    C7 8899   3.776   2.756  16.392  0.4828  0.3128  0.3737
  600TMC3    C8 8900   3.564   2.355  16.501 -0.3568  0.5289  0.0857
  600TMC3    O1 8901   3.889   2.795  16.357  0.4909  0.3164  0.8384
  600TMC3    O2 8902   3.651   2.335  16.586 -0.3567 -0.4116  0.8807
  601MPD2     C 8903   0.906   0.170   0.405  0.7581 -0.5307  0.5478
  601MPD2    C1 8904   0.950   0.204   0.280  0.0113  0.2927  0.4303
  601MPD2    C2 8905   1.039   0.118   0.219 -0.2409 -0.7316 -0.4174
  601MPD2    C3 8906   1.095   0.006   0.270  0.7307  0.3634 -0.2964
  601MPD2    C4 8907   1.049   4.688   0.393 -0.0541  0.1504 -0.4051
  601MPD2    C5 8908   0.958   0.050   0.456  0.4983 -0.4183  0.3505
  601MPD2     H 8909   1.065   0.149   0.118  0.2181  1.0618  0.2578
  601MPD2    H1 8910   1.088   4.599   0.440  0.0029  0.3037 -0.1627
  601MPD2    H2 8911   0.848   0.232   0.473  0.0773  3.2977 -3.5020
  601MPD2    H3 8912   0.915   0.014   0.549  0.2681 -0.0138  0.4029
  601MPD2     N 8913   1.183   4.644   0.205 -0.7045  0.7207  0.2208
  601MPD2    H5 8914   1.226   4.568   0.257 -1.2624  1.1488  1.3146
  601MPD2    N1 8915   0.913   0.323   0.213  0.1552  0.1505 -0.3651
  601MPD2    H7 8916   0.958   0.332   0.122  0.6920 -0.6989 -0.1756
  602TMC3    C1 8917   0.815   0.512   0.137 -0.1948  0.9880 -0.0663
  602TMC3    C2 8918   0.769   0.638   0.170  0.2205  0.0353  0.2167
  602TMC3    C3 8919   0.759   0.728   0.069  0.2932  0.5317 -0.2817
  602TMC3    C4 8920   0.841   0.479   0.005  0.1198 -0.5850  0.3580
  602TMC3    C5 8921   0.833   0.583  17.591  0.8180  0.6018  0.3874
  602TMC3    C6 8922   0.770   0.700  17.615 -0.1388 -0.1832 -0.0782
  602TMC3     C 8923   0.831   0.422   0.251  0.0570 -0.0938 -0.5448
  602TMC3     O 8924   0.762   0.441   0.354  0.0866 -0.1730  0.1708
  602TMC3     H 8925   0.746   0.665   0.272 -2.5079  0.2388 -0.4370
  602TMC3    H1 8926   0.873   0.381  17.652 -0.2423 -0.3944 -0.5450
  602TMC3    H2 8927   0.767   0.780  17.542 -1.9372  0.7310  0.9882
  602TMC3    C7 8928   0.823   0.544  17.449  0.4715 -0.2580 -0.4207
  602TMC3    C8 8929   0.678   0.847   0.108 -0.2158  0.4301  0.2029
  602TMC3    O1 8930   0.909   0.472  17.394 -0.0211 -0.4393 -0.1384
  602TMC3    O2 8931   0.724   0.920   0.190 -0.3662  0.2860  0.4858
  603TMC3    C1 8932   3.599   0.265  10.646  0.0421  0.3864  0.6075
  603TMC3    C2 8933   3.687   0.235  10.746  0.1718 -0.0712 -0.6048
  603TMC3    C3 8934   3.768   0.331  10.801 -0.2488  0.2081 -0.2067
  603TMC3    C4 8935   3.581   0.395  10.613  0.0223  0.2482  0.2903
  603TMC3    C5 8936   3.665   0.495  10.666  0.1332  0.3690  0.8142
  603TMC3    C6 8937   3.759   0.463  10.768  0.3486 -0.1940 -0.3564
  603TMC3     C 8938   3.511   0.154  10.608  0.0780 -0.4811  0.0133
  603TMC3     O 8939   3.555   0.037  10.615  0.8664 -0.4740  0.7181
  603TMC3     H 8940   3.689   0.130  10.773 -1.1512  0.1906  0.4860
  603TMC3    H1 8941   3.514   0.413  10.530 -0.2534  1.1000  0.6990
  603TMC3    H2 8942   3.789   0.545  10.833  0.0056  0.7897 -1.4486
  603TMC3    C7 8943   3.647   0.635  10.636 -0.6606 -0.1888  0.6694
  603TMC3    C8 8944   3.853   0.286  10.908  0.0832  0.3637 -0.4791
  603TMC3    O1 8945   3.719   0.720  10.686  0.1737  0.0617  0.1993
  603TMC3    O2 8946   3.843   0.171  10.950  0.3707 -0.3406  0.1656
  604MPD2     C 8947   4.546   3.974  16.214  0.2307 -0.1682 -0.6714
  604MPD2    C1 8948   4.584   4.106  16.254 -0.0822 -0.2040 -0.0970
  604MPD2    C2 8949   4.688   4.168  16.183 -0.5216  0.3673  0.4862
  604MPD2    C3 8950   0.042   4.102  16.083  0.4844 -0.3291  0.2667
  604MPD2    C4 8951   0.004   3.971  16.055  0.4849 -0.9208  0.3240
  604MPD2    C5 8952   4.616   3.909  16.115  0.4182  0.9649  0.0692
  604MPD2     H 8953   4.711   4.272  16.199 -2.7516  1.0525 -0.8578
  604MPD2    H1 8954   0.053   3.919  15.974 -1.0527  0.3409 -1.4064
  604MPD2    H2 8955   4.457   3.932  16.258  0.2293  0.4018 -0.1232
  604MPD2    H3 8956   4.571   3.817  16.078  2.0237 -0.1092  0.7819
  604MPD2     N 8957   0.125   4.176  15.993 -0.2771  0.2042 -0.1830
  604MPD2    H5 8958   0.110   4.276  16.006 -0.6941  0.1854 -0.5232
  604MPD2    N1 8959   4.509   4.164  16.359  0.5510  0.5634 -0.3724
  604MPD2    H7 8960   4.434   4.104  16.392  2.2102 -0.7034  1.0451
  605TMC3    C1 8961   4.436   4.316  16.511 -0.4996  0.1756  0.0645
  605TMC3    C2 8962   4.475   4.402  16.611  0.0291 -0.2253  0.3286
  605TMC3    C3 8963   4.378   4.464  16.686 -0.0204  0.0422  0.4024
  605TMC3    C4 8964   4.307   4.310  16.482  0.9782  0.7210 -0.6430
  605TMC3    C5 8965   4.216   4.377  16.550  0.0180  0.3416  0.5169
  605TMC3    C6 8966   4.245   4.462  16.652  0.0679  0.5168 -0.4123
  605TMC3     C 8967   4.538   4.287  16.413 -0.2050 -0.1037  0.7860
  605TMC3     O 8968   4.644   4.347  16.421 -0.2612  0.2367  0.0740
  605TMC3     H 8969   4.580   4.410  16.635 -0.0698 -0.9383  0.9977
  605TMC3    H1 8970   4.271   4.255  16.395 -2.3878  1.4239  0.3323
  605TMC3    H2 8971   4.171   4.525  16.700  1.5116  2.0922 -0.2321
  605TMC3    C7 8972   4.077   4.374  16.513  0.3158  0.5542 -0.6759
  605TMC3    C8 8973   4.416   4.566  16.773 -0.2975  0.2542 -0.4141
  605TMC3    O1 8974   4.002   4.458  16.558 -0.1327 -0.7751 -0.9480
  605TMC3    O2 8975   4.356   4.599  16.876  0.0057  0.1283  0.0773
  606TMC3    C1 8976   1.155   2.343  17.134 -0.1704  0.9798 -0.4134
  606TMC3    C2 8977   1.082   2.408  17.230  0.0891 -0.2438 -0.2807
  606TMC3    C3 8978   1.027   2.331  17.333 -0.0487 -0.0837  0.1273
  606TMC3    C4 8979   1.161   2.206  17.139  0.8687  0.5014  0.5012
  606TMC3    C5 8980   1.111   2.144  17.250 -0.1094  0.3627 -0.3274
  606TMC3    C6 8981   1.036   2.202  17.348  1.0703 -0.6008  0.5063
  606TMC3     C 8982   1.200   2.425  17.022 -0.1642  0.1133 -0.0108
  606TMC3     O 8983   1.157   2.541  17.010  0.3773  0.1955 -0.0810
  606TMC3     H 8984   1.084   2.516  17.240 -1.1079 -0.1698 -0.8192
  606TMC3    H1 8985   1.188   2.151  17.049  0.7121  0.1103  0.6970
  606TMC3    H2 8986   1.002   2.152  17.438 -3.3701 -0.6376 -1.1780
  606TMC3    C7 8987   1.063   2.011  17.213 -0.1716 -0.7714  0.4408
  606TMC3    C8 8988   0.948   2.405  17.427  0.0615 -0.2537  0.4625
  606TMC3    O1 8989   1.134   1.940  17.148 -0.5521  0.2239 -0.0035
  606TMC3    O2 8990   0.967   2.375  17.548  0.2031  0.6173  0.3153
  607MPD2     C 8991   3.817   0.481  11.327 -1.2605  0.4129 -0.2814
  607MPD2    C1 8992   3.876   0.524  11.444  0.0349  0.9101 -0.3904
  607MPD2    C2 8993   3.829   0.479  11.562  0.5123  0.3162 -0.1437
  607MPD2    C3 8994   3.710   0.414  11.564 -0.3769 -0.5778  0.1063
  607MPD2    C4 8995   3.651   0.363  11.449  0.0133 -0.4299  0.0183
  607MPD2    C5 8996   3.706   0.398  11.328  0.5047 -0.7465 -0.6976
  607MPD2     H 8997   3.871   0.508  11.658  0.1746 -1.1878  0.4722
  607MPD2    H1 8998   3.558   0.309  11.457  0.2461 -0.7212  0.7468
  607MPD2    H2 8999   3.868   0.507  11.235  0.4862 -0.5852  0.4118
  607MPD2    H3 9000   3.662   0.373  11.233 -1.0350  1.7478 -0.6413
  607MPD2     N 9001   3.641   0.397  11.685  0.2653  0.1747  0.3160
  607MPD2    H5 9002   3.674   0.453  11.763  0.0204 -0.5193  0.9146
  607MPD2    N1 9003   3.983   0.612  11.445  0.4181  0.1495 -0.7182
  607MPD2    H7 9004   4.033   0.614  11.533 -0.8746 -0.0068  0.0172
  608TMC3    C1 9005   4.112   0.806  11.403  0.1413 -0.1887  0.0669
  608TMC3    C2 9006   4.104   0.852  11.529 -0.0499 -0.1364 -0.2062
  608TMC3    C3 9007   4.174   0.965  11.567  0.2081  0.3086 -0.1518
  608TMC3    C4 9008   4.186   0.870  11.308  1.0140 -0.4802  0.3082
  608TMC3    C5 9009   4.253   0.984  11.336  0.0749  0.3264  0.0764
  608TMC3    C6 9010   4.242   1.032  11.465 -0.1230  0.1523  0.2714
  608TMC3     C 9011   4.017   0.706  11.349 -0.0511 -0.7966 -0.2026
  608TMC3     O 9012   3.958   0.734  11.248 -0.0277 -0.0634 -0.4994
  608TMC3     H 9013   4.039   0.799  11.598 -0.4902  2.0143  1.0626
  608TMC3    H1 9014   4.183   0.836  11.205  0.6751  0.5266 -0.0187
  608TMC3    H2 9015   4.268   1.135  11.485 -0.4476  0.5565 -1.3481
  608TMC3    C7 9016   4.294   1.069  11.230  0.6119 -0.2907  1.1528
  608TMC3    C8 9017   4.139   1.028  11.693  0.2539 -0.2663 -0.6117
  608TMC3    O1 9018   4.258   1.040  11.116  0.4016 -0.3027 -0.3258
  608TMC3    O2 9019   4.159   1.145  11.719  0.0536  0.2052 -0.2103
  609TMC3    C1 9020   2.129   3.655   8.883 -0.6145  0.8240 -0.3809
  609TMC3    C2 9021   2.178   3.691   8.760  0.2317  0.1063 -0.0520
  609TMC3    C3 9022   2.303   3.664   8.724  0.2026 -0.6404  0.0792
  609TMC3    C4 9023   2.208   3.592   8.972  0.7961 -0.1258  0.3711
  609TMC3    C5 9024   2.333   3.553   8.922 -0.4660  0.8367  0.0108
  609TMC3    C6 9025   2.385   3.582   8.797 -0.2082 -0.4616 -0.1827
  609TMC3     C 9026   1.998   3.705   8.927 -0.0829 -0.4969  0.1870
  609TMC3     O 9027   1.969   3.692   9.046 -0.3371  0.5164  0.0488
  609TMC3     H 9028   2.113   3.747   8.693 -1.8086  0.1088  1.9128
  609TMC3    H1 9029   2.172   3.561   9.070 -1.0729 -1.4963 -0.7432
  609TMC3    H2 9030   2.489   3.567   8.772  0.3759 -0.4458  2.2201
  609TMC3    C7 9031   2.405   3.471   9.019 -0.2116 -0.0315  0.9408
  609TMC3    C8 9032   2.340   3.701   8.592  0.1722  0.4626 -0.2097
  609TMC3    O1 9033   2.370   3.496   9.136  0.2942  0.1214  0.5453
  609TMC3    O2 9034   2.282   3.790   8.529 -0.0201  0.0626 -0.0318
  610TMC3    C1 9035   3.860   0.663  12.519  0.1719 -0.6785  0.1710
  610TMC3    C2 9036   3.901   0.616  12.393 -0.0922  0.3747 -0.7688
  610TMC3    C3 9037   3.922   0.486  12.373  0.3405  0.0566  0.0681
  610TMC3    C4 9038   3.859   0.575  12.622 -0.0317 -0.1576  0.0783
  610TMC3    C5 9039   3.873   0.442  12.600  0.0424  0.2557  0.4414
  610TMC3    C6 9040   3.909   0.396  12.474 -0.3657  0.1544  0.3899
  610TMC3     C 9041   3.807   0.801  12.519 -0.3228  0.3665 -0.3390
  610TMC3     O 9042   3.722   0.831  12.602  0.4417 -0.3121  0.1558
  610TMC3     H 9043   3.882   0.681  12.308  0.2975 -2.0479 -2.6910
  610TMC3    H1 9044   3.857   0.615  12.723  2.2030 -2.1000  0.8734
  610TMC3    H2 9045   3.932   0.291  12.462 -1.0079  0.0398  0.1404
  610TMC3    C7 9046   3.900   0.350  12.707 -0.2454 -0.1219 -0.1526
  610TMC3    C8 9047   3.982   0.437  12.258  0.4900 -0.1733 -0.3219
  610TMC3    O1 9048   3.958   0.245  12.678  0.9284  0.0663  0.2379
  610TMC3    O2 9049   4.009   0.320  12.244 -0.2625  0.1345 -0.6032
  611MPD2     C 9050   2.412   0.537   9.900  0.0911  0.2142  0.0842
  611MPD2    C1 9051   2.506   0.496   9.994  0.2576 -0.6248  1.1319
  611MPD2    C2 9052   2.617   0.578  10.014 -0.0927  0.0151  0.6865
  611MPD2    C3 9053   2.637   0.688   9.931 -0.7011  0.3248 -0.2355
  611MPD2    C4 9054   2.547   0.720   9.840  0.0535 -0.6501 -0.1886
  611MPD2    C5 9055   2.435   0.645   9.827 -0.3324  0.0722  0.9543
  611MPD2     H 9056   2.695   0.539  10.079  0.8292  0.6193 -0.0672
  611MPD2    H1 9057   2.570   0.798   9.769  0.8784 -0.5623  0.1767
  611MPD2    H2 9058   2.335   0.466   9.874 -1.1800  1.1099  1.4040
  611MPD2    H3 9059   2.362   0.680   9.755 -1.4306 -2.2331  0.9593
  611MPD2     N 9060   2.755   0.770   9.934  0.5158  0.0876 -0.0631
  611MPD2    H5 9061   2.761   0.858   9.883  0.3617 -1.1792 -2.2534
  611MPD2    N1 9062   2.486   0.371  10.060  0.6426  0.1943  0.1254
  611MPD2    H7 9063   2.412   0.317  10.016  1.2175 -0.4385 -0.0647
  612TMC3    C1 9064   2.982   0.792   9.937 -0.0467 -0.1002  0.3420
  612TMC3    C2 9065   3.094   0.805  10.013  0.2268  0.5680 -0.1959
  612TMC3    C3 9066   3.196   0.892   9.981  0.7431  0.7168  0.8517
  612TMC3    C4 9067   2.976   0.861   9.820 -0.1682 -0.2296 -0.0971
  612TMC3    C5 9068   3.079   0.938   9.782  0.0061 -0.2348 -0.8431
  612TMC3    C6 9069   3.190   0.960   9.863  0.4037  0.3234  0.3027
  612TMC3     C 9070   2.866   0.738  10.007  0.5473  0.5601 -0.4242
  612TMC3     O 9071   2.883   0.656  10.094 -0.1503 -0.5643 -0.1505
  612TMC3     H 9072   3.100   0.754  10.109 -1.5016  1.0141  0.1571
  612TMC3    H1 9073   2.894   0.844   9.750 -0.3607  1.8450 -0.3568
  612TMC3    H2 9074   3.256   1.044   9.845  0.0256 -0.1509 -3.2619
  612TMC3    C7 9075   3.068   0.987   9.645 -0.1773  0.3388  0.1111
  612TMC3    C8 9076   3.287   0.936  10.083 -0.4285 -0.4337 -0.5934
  612TMC3    O1 9077   3.001   0.932   9.556 -0.5476 -0.6295  0.5188
  612TMC3    O2 9078   3.352   1.037  10.050 -0.0077  0.0221  0.4564
  613MPD2     C 9079   2.166   3.130  16.668  0.2720 -0.5203  0.7427
  613MPD2    C1 9080   2.281   3.117  16.599 -0.5409  0.4812  0.1970
  613MPD2    C2 9081   2.325   2.990  16.564 -0.6101 -0.2142 -0.6977
  613MPD2    C3 9082   2.270   2.875  16.620  0.1756  0.1473 -0.1698
  613MPD2    C4 9083   2.168   2.888  16.716 -0.3696  0.7345 -0.4644
  613MPD2    C5 9084   2.120   3.017  16.733 -0.5610 -0.3404  0.0025
  613MPD2     H 9085   2.403   2.984  16.489 -1.0116  1.1975 -1.2226
  613MPD2    H1 9086   2.113   2.806  16.761  0.1000 -0.5404 -2.1636
  613MPD2    H2 9087   2.102   3.217  16.678 -1.3270 -1.6265  0.0067
  613MPD2    H3 9088   2.033   3.028  16.796 -1.4628 -0.5886 -1.1998
  613MPD2     N 9089   2.301   2.749  16.572  0.3866  0.2540  0.0810
  613MPD2    H5 9090   2.248   2.673  16.613  1.7372 -1.6819 -1.7935
  613MPD2    N1 9091   2.348   3.220  16.530  0.6208  0.5248 -0.0028
  613MPD2    H7 9092   2.413   3.182  16.463  1.1831 -0.6131  1.1943
  614TMC3    C1 9093   2.362   3.417  16.409  0.2008 -0.4536  0.3605
  614TMC3    C2 9094   2.472   3.355  16.351 -0.0393  0.1375 -0.2745
  614TMC3    C3 9095   2.471   3.328  16.215  0.6423 -0.9624 -0.6452
  614TMC3    C4 9096   2.259   3.460  16.331 -0.3098 -0.0295 -0.1585
  614TMC3    C5 9097   2.258   3.441  16.196  0.1823  0.4317  0.5653
  614TMC3    C6 9098   2.364   3.369  16.144  0.5638 -0.2066  0.4277
  614TMC3     C 9099   2.310   3.347  16.524  0.1883  0.9149 -0.1924
  614TMC3     O 9100   2.229   3.410  16.591 -0.3832 -0.2479 -0.4091
  614TMC3     H 9101   2.548   3.307  16.412  0.6377  0.8491 -0.5479
  614TMC3    H1 9102   2.177   3.508  16.384  0.0635  1.1461 -0.6458
  614TMC3    H2 9103   2.351   3.339  16.041 -0.1291 -2.0682  1.0521
  614TMC3    C7 9104   2.181   3.546  16.126 -0.4938 -0.2955 -0.2942
  614TMC3    C8 9105   2.499   3.186  16.198  0.6260  0.0719 -0.6515
  614TMC3    O1 9106   2.146   3.644  16.190  0.0734  0.2026  0.4578
  614TMC3    O2 9107   2.486   3.124  16.303  0.1773  0.3465  0.3385
  615MPD2     C 9108   1.610   4.389  16.420  0.2275 -0.2872 -0.2439
  615MPD2    C1 9109   1.582   4.456  16.301  0.7530 -0.2175  0.5459
  615MPD2    C2 9110   1.568   4.387  16.185  0.1245 -0.0298 -0.1784
  615MPD2    C3 9111   1.588   4.250  16.174 -0.3372  0.4198  0.5337
  615MPD2    C4 9112   1.605   4.185  16.298  0.0276  0.2874 -0.8785
  615MPD2    C5 9113   1.614   4.251  16.417 -0.8446 -0.0248  0.7029
  615MPD2     H 9114   1.540   4.441  16.095 -1.0125  0.4853  0.4755
  615MPD2    H1 9115   1.616   4.077  16.292  2.6932  0.5534 -0.8058
  615MPD2    H2 9116   1.627   4.441  16.514  1.0252  2.4901 -1.9249
  615MPD2    H3 9117   1.631   4.199  16.511 -2.0730 -1.5170  0.1110
  615MPD2     N 9118   1.591   4.175  16.052 -0.2070 -0.4465 -0.7121
  615MPD2    H5 9119   1.601   4.074  16.063 -1.8613 -0.3156  1.9670
  615MPD2    N1 9120   1.554   4.590  16.300  0.5475  0.1557 -0.7431
  615MPD2    H7 9121   1.516   4.624  16.212 -0.1978  0.8269 -0.1611
  616TMC3    C1 9122   1.559   0.097  16.361 -0.5651  0.1200 -0.0047
  616TMC3    C2 9123   1.646   0.208  16.374  0.3273  0.0241 -0.8029
  616TMC3    C3 9124   1.602   0.321  16.318 -0.7631  0.1403  0.5756
  616TMC3    C4 9125   1.436   0.109  16.292 -0.9593 -0.9479  0.8506
  616TMC3    C5 9126   1.405   0.233  16.234  0.1629  0.1459  0.6446
  616TMC3    C6 9127   1.482   0.341  16.253  0.0345 -0.4109  0.2063
  616TMC3     C 9128   1.604   4.679  16.392 -0.0338 -0.3265 -0.0535
  616TMC3     O 9129   1.686   4.665  16.478 -0.7462 -0.2154 -0.2321
  616TMC3     H 9130   1.720   0.205  16.452 -0.7209 -0.0442  0.1828
  616TMC3    H1 9131   1.360   0.031  16.299  0.1610 -1.9722  1.5835
  616TMC3    H2 9132   1.447   0.436  16.215  0.3819  0.1320  1.2563
  616TMC3    C7 9133   1.292   0.257  16.136  0.0149 -0.5449 -0.1764
  616TMC3    C8 9134   1.699   0.432  16.303 -0.1634  0.4424 -0.2004
  616TMC3    O1 9135   1.310   0.344  16.056  0.2868 -0.6154 -0.1259
  616TMC3    O2 9136   1.656   0.534  16.257 -0.0021 -0.4197 -0.0522
  617MPD2     C 9137   0.082   2.589  13.400 -0.1709  0.4509 -0.4820
  617MPD2    C1 9138   0.090   2.544  13.533 -0.1281  0.8834  0.8653
  617MPD2    C2 9139   4.709   2.577  13.611 -0.4745 -0.2523 -0.1555
  617MPD2    C3 9140   4.603   2.646  13.561  0.3577 -0.2475  0.1770
  617MPD2    C4 9141   4.593   2.677  13.427 -0.0437 -0.1967  0.0660
  617MPD2    C5 9142   4.697   2.653  13.345 -0.0330  0.4839 -0.7239
  617MPD2     H 9143   4.719   2.541  13.713 -1.4520  2.2427  0.8231
  617MPD2    H1 9144   4.505   2.725  13.385  1.4609  2.2499 -0.2452
  617MPD2    H2 9145   0.168   2.569  13.338  1.0980  0.1267  1.3819
  617MPD2    H3 9146   4.699   2.688  13.242 -1.8193 -1.7487 -1.5443
  617MPD2     N 9147   4.495   2.676  13.646  0.1680  0.0249 -0.0817
  617MPD2    H5 9148   4.410   2.715  13.606  1.9008  3.4087 -0.4336
  617MPD2    N1 9149   0.218   2.485  13.575  0.1042 -0.3772  0.1035
  617MPD2    H7 9150   0.286   2.470  13.501 -1.6939 -0.0025 -1.6374
  618TMC3    C1 9151   0.389   2.403  13.704  0.5172 -0.0698 -0.1750
  618TMC3    C2 9152   0.484   2.472  13.776 -0.0158  0.2139 -0.1770
  618TMC3    C3 9153   0.606   2.475  13.706  0.1877 -0.2920  0.7360
  618TMC3    C4 9154   0.413   2.341  13.582  0.1128 -0.2783 -0.4160
  618TMC3    C5 9155   0.533   2.361  13.521 -0.1933 -0.4775  0.3609
  618TMC3    C6 9156   0.636   2.415  13.584  0.0364  0.4679  0.9700
  618TMC3     C 9157   0.256   2.462  13.702  0.0574  0.4848  0.3153
  618TMC3     O 9158   0.206   2.498  13.810 -0.0200  0.0478 -0.3697
  618TMC3     H 9159   0.458   2.531  13.863 -1.5295  0.8305 -1.0420
  618TMC3    H1 9160   0.334   2.278  13.543  0.5129  0.0585 -1.7371
  618TMC3    H2 9161   0.728   2.434  13.529  0.1118  1.1376  1.3224
  618TMC3    C7 9162   0.512   2.410  13.384 -0.3014 -0.7222 -0.2422
  618TMC3    C8 9163   0.713   2.468  13.803 -0.3373  0.2209  0.9875
  618TMC3    O1 9164   0.404   2.460  13.355 -0.4081  0.2478 -0.1328
  618TMC3    O2 9165   0.713   2.526  13.911 -0.0456  0.2834  0.4013
  619MPD2     C 9166   1.688   3.885  13.549 -0.0621 -0.0716 -0.4609
  619MPD2    C1 9167   1.668   3.917  13.415  0.2897  0.2142 -0.0850
  619MPD2    C2 9168   1.570   3.851  13.342  0.1737  0.1761  0.6385
  619MPD2    C3 9169   1.488   3.754  13.406  0.4100  0.1947  0.2983
  619MPD2    C4 9170   1.529   3.708  13.530  0.6277 -0.1549  0.4240
  619MPD2    C5 9171   1.618   3.784  13.600  0.1270 -0.4086 -0.1586
  619MPD2     H 9172   1.562   3.862  13.235  2.8473 -1.1358  0.3109
  619MPD2    H1 9173   1.484   3.619  13.573  1.5950 -1.3906 -1.0819
  619MPD2    H2 9174   1.750   3.945  13.614  0.6688 -0.3577 -0.8945
  619MPD2    H3 9175   1.636   3.748  13.701  0.4160 -3.2470 -1.2138
  619MPD2     N 9176   1.379   3.684  13.338  0.0134 -0.1331  0.4843
  619MPD2    H5 9177   1.342   3.608  13.394 -0.0932  2.3340  3.8160
  619MPD2    N1 9178   1.741   4.024  13.348  0.9461  0.4225 -0.0917
  619MPD2    H7 9179   1.714   4.050  13.253 -0.3139  0.2189  0.2157
  620TMC3    C1 9180   1.861   4.218  13.327 -0.9655 -0.3785 -0.1570
  620TMC3    C2 9181   1.823   4.224  13.196 -0.0372  0.2656 -0.1464
  620TMC3    C3 9182   1.769   4.343  13.151 -0.0692 -0.8144 -0.9012
  620TMC3    C4 9183   1.865   4.327  13.407  0.4506 -0.0294 -0.5862
  620TMC3    C5 9184   1.819   4.449  13.357 -0.0952  0.5659 -0.2484
  620TMC3    C6 9185   1.771   4.454  13.227 -0.5407 -0.6860  0.6351
  620TMC3     C 9186   1.842   4.097  13.402 -0.0792  0.2081  0.1042
  620TMC3     O 9187   1.903   4.092  13.505  0.3862 -0.2684 -0.5573
  620TMC3     H 9188   1.821   4.129  13.144 -0.5309  0.8484 -1.2038
  620TMC3    H1 9189   1.885   4.325  13.513 -1.5129  1.8532 -0.1877
  620TMC3    H2 9190   1.746   4.550  13.183  1.6018 -0.4130  0.0131
  620TMC3    C7 9191   1.736   4.516  13.458  0.7877  0.3780 -0.1090
  620TMC3    C8 9192   1.630   4.335  13.103  0.2298  0.6759  0.5523
  620TMC3    O1 9193   1.781   4.551  13.564  0.2693  0.3300 -0.0588
  620TMC3    O2 9194   1.558   4.405  13.169  0.1833  0.2100  0.9110
  621MPD2     C 9195   1.769   3.390  10.722  0.4685  0.6571 -0.1838
  621MPD2    C1 9196   1.715   3.360  10.595  0.2308 -0.1119  0.1387
  621MPD2    C2 9197   1.741   3.442  10.492 -0.3097 -0.1904  0.2481
  621MPD2    C3 9198   1.829   3.548  10.503 -0.3978 -0.2677 -0.3222
  621MPD2    C4 9199   1.882   3.579  10.626  0.2234 -0.4221 -0.4776
  621MPD2    C5 9200   1.857   3.493  10.735 -0.4738  0.9560  0.1005
  621MPD2     H 9201   1.690   3.423  10.399 -0.6560 -0.0447  0.4087
  621MPD2    H1 9202   1.959   3.653  10.643 -0.8811 -0.0665  2.9996
  621MPD2    H2 9203   1.747   3.329  10.809 -0.7256 -0.7743 -1.4802
  621MPD2    H3 9204   1.905   3.528  10.825  0.4041  0.7986 -0.3091
  621MPD2     N 9205   1.838   3.633  10.387 -0.0469  0.1489  0.8419
  621MPD2    H5 9206   1.796   3.606  10.298 -1.6518  0.2726  1.5621
  621MPD2    N1 9207   1.625   3.251  10.588  0.0170 -0.0943 -0.4438
  621MPD2    H7 9208   1.554   3.254  10.516 -0.4825 -0.5337  0.0312
  622TMC3    C1 9209   1.539   3.043  10.623  0.4691  0.3854 -0.0215
  622TMC3    C2 9210   1.421   3.090  10.561  1.2731  1.0997 -0.5228
  622TMC3    C3 9211   1.356   3.002  10.482  0.4136 -0.0356 -0.2222
  622TMC3    C4 9212   1.588   2.920  10.599 -0.3754 -0.0053  0.0327
  622TMC3    C5 9213   1.517   2.841  10.517 -0.3404 -0.0808  0.2140
  622TMC3    C6 9214   1.404   2.877  10.456  0.0587  0.8932 -0.5646
  622TMC3     C 9215   1.642   3.136  10.664 -0.5465 -0.1835  0.3237
  622TMC3     O 9216   1.736   3.099  10.736 -0.1079  0.6811 -0.1429
  622TMC3     H 9217   1.389   3.193  10.571 -1.7097  0.3130 -2.0990
  622TMC3    H1 9218   1.690   2.896  10.627 -0.8277 -0.8126  0.9874
  622TMC3    H2 9219   1.349   2.801  10.403  1.9351 -1.0826  0.3249
  622TMC3    C7 9220   1.585   2.716  10.475  0.0918  0.1380  0.7171
  622TMC3    C8 9221   1.214   3.019  10.441  0.9026 -0.3060 -0.3323
  622TMC3    O1 9222   1.665   2.676  10.558  0.0239 -0.3305  0.0039
  622TMC3    O2 9223   1.148   2.919  10.403 -0.2851  0.2174  0.2373
  623MPD2     C 9224   0.009   0.342  15.673  0.3575 -0.4280  0.2116
  623MPD2    C1 9225   4.652   0.392  15.782  0.6623 -0.4119  0.6009
  623MPD2    C2 9226   4.719   0.411  15.907  0.5887  0.2473 -0.0118
  623MPD2    C3 9227   0.135   0.395  15.913 -0.3961 -0.0170  0.8151
  623MPD2    C4 9228   0.208   0.359  15.805 -0.2603 -0.4135 -0.4465
  623MPD2    C5 9229   0.144   0.324  15.688 -0.1267 -0.2991  0.2045
  623MPD2     H 9230   4.663   0.448  15.992 -0.5199  0.3986 -0.8046
  623MPD2    H1 9231   0.315   0.348  15.794  0.0339 -0.6664  2.4697
  623MPD2    H2 9232   4.677   0.320  15.580 -1.5291  1.1667  0.8762
  623MPD2    H3 9233   0.194   0.283  15.601 -0.9447  2.0114 -1.3566
  623MPD2     N 9234   0.193   0.409  16.043  0.3234  0.3443 -0.0657
  623MPD2    H5 9235   0.133   0.445  16.118 -0.5320  1.2167 -1.1674
  623MPD2    N1 9236   4.512   0.410  15.777  0.4351 -0.8037  0.4738
  623MPD2    H7 9237   4.458   0.436  15.859  0.3807  0.4401  0.0477
  624TMC3    C1 9238   0.450   0.335  16.422 -0.9854  0.0938  0.3584
  624TMC3    C2 9239   0.344   0.348  16.506  0.3611 -0.1820 -0.1555
  624TMC3    C3 9240   0.219   0.349  16.443 -0.2375  0.3190 -1.0076
  624TMC3    C4 9241   0.449   0.339  16.287  0.5225 -0.4517 -1.1527
  624TMC3    C5 9242   0.328   0.366  16.227 -0.4113  0.0236 -0.6466
  624TMC3    C6 9243   0.210   0.352  16.301  0.2800 -0.0894 -0.7260
  624TMC3     C 9244   0.571   0.284  16.475  0.7321  0.0988  0.5840
  624TMC3     O 9245   0.603   0.317  16.586  0.3648 -0.0834  0.0213
  624TMC3     H 9246   0.356   0.311  16.607  0.4381 -2.2160 -0.9081
  624TMC3    H1 9247   0.545   0.353  16.240  0.4956 -0.9273 -1.3447
  624TMC3    H2 9248   0.117   0.330  16.251 -0.9513 -1.1290  2.0196
  624TMC3    C7 9249   0.321   0.379  16.082  0.1660 -0.1789 -0.3860
  624TMC3    C8 9250   0.112   0.272  16.496 -0.0120  0.3964  0.3422
  624TMC3    O1 9251   0.412   0.341  16.016 -0.0694  0.3319  1.0415
  624TMC3    O2 9252   0.045   0.200  16.419 -0.0671 -0.0551  0.1980
  625MPD2     C 9253   0.938   1.643   1.323  0.1428 -0.8649  0.4427
  625MPD2    C1 9254   0.938   1.652   1.187  0.0474  0.8302 -0.0460
  625MPD2    C2 9255   1.031   1.573   1.124 -0.4092  0.1175 -0.7567
  625MPD2    C3 9256   1.123   1.499   1.186  0.0580  0.3446 -1.2141
  625MPD2    C4 9257   1.135   1.506   1.321  0.3531  0.4972  0.3743
  625MPD2    C5 9258   1.039   1.578   1.384 -0.3343  0.5030 -0.2631
  625MPD2     H 9259   1.029   1.584   1.016  3.1164  1.6648 -0.6539
  625MPD2    H1 9260   1.212   1.473   1.389 -0.0694  1.3116  1.2417
  625MPD2    H2 9261   0.868   1.695   1.388  0.6089  2.1075 -1.4004
  625MPD2    H3 9262   1.045   1.590   1.492 -1.7300  0.0014 -0.1304
  625MPD2     N 9263   1.215   1.424   1.110  0.7284  0.1492  0.4700
  625MPD2    H5 9264   1.211   1.430   1.009 -1.2139  0.1645  0.5405
  625MPD2    N1 9265   0.833   1.714   1.105  0.3523 -0.4272 -0.3023
  625MPD2    H7 9266   0.833   1.694   1.005 -1.7599 -0.1001 -0.3682
  626TMC3    C1 9267   0.631   1.842   1.071  0.5511  0.4886  0.3585
  626TMC3    C2 9268   0.624   1.822   0.934 -0.3541 -0.9365 -0.4563
  626TMC3    C3 9269   0.517   1.863   0.861  1.2406 -0.5999 -0.6157
  626TMC3    C4 9270   0.529   1.904   1.134  0.2274 -0.1910  0.0742
  626TMC3    C5 9271   0.420   1.949   1.057  0.2240  0.0168  0.7754
  626TMC3    C6 9272   0.414   1.932   0.915  0.4531 -0.8295 -0.1867
  626TMC3     C 9273   0.735   1.792   1.159  0.7251 -0.9442  0.2001
  626TMC3     O 9274   0.726   1.835   1.269  0.0323  0.4129 -0.3409
  626TMC3     H 9275   0.702   1.767   0.882  0.6575 -1.1293  1.2291
  626TMC3    H1 9276   0.523   1.910   1.242 -1.5251  2.1279 -0.1377
  626TMC3    H2 9277   0.335   1.967   0.850 -1.4530 -1.7457  1.5871
  626TMC3    C7 9278   0.305   2.006   1.128 -0.0564  0.4471 -0.2888
  626TMC3    C8 9279   0.520   1.815   0.718  0.6546 -0.5985 -0.6939
  626TMC3    O1 9280   0.323   2.017   1.246 -0.1242 -0.2406 -0.0347
  626TMC3    O2 9281   0.628   1.790   0.664 -0.2850  0.0538  0.1247
  627MPD2     C 9282   4.614   1.558  14.726  0.1812  0.7154  0.4722
  627MPD2    C1 9283   4.489   1.591  14.758  0.5873 -0.0370 -0.4073
  627MPD2    C2 9284   4.395   1.490  14.768 -0.3061  0.2513 -0.6350
  627MPD2    C3 9285   4.421   1.363  14.745  0.1613 -1.1929  0.3623
  627MPD2    C4 9286   4.546   1.323  14.710 -0.4862 -0.6333  0.0847
  627MPD2    C5 9287   4.640   1.423  14.706 -0.3715  0.9854 -0.1649
  627MPD2     H 9288   4.301   1.516  14.816  0.1301  0.4442  0.1243
  627MPD2    H1 9289   4.575   1.220  14.689 -0.2378 -0.3712 -0.8751
  627MPD2    H2 9290   4.689   1.634  14.709  0.0170  0.8823  0.4996
  627MPD2    H3 9291   0.020   1.393  14.676 -0.6180  0.2950 -0.2976
  627MPD2     N 9292   4.312   1.278  14.749  0.0509 -0.4792  0.0205
  627MPD2    H5 9293   4.226   1.323  14.778  1.2174  1.5796  0.2500
  627MPD2    N1 9294   4.477   1.723  14.792  0.5123 -0.1665  0.0864
  627MPD2    H7 9295   4.560   1.779  14.804  0.8480 -0.2672 -1.7309
  628TMC3    C1 9296   4.391   1.929  14.843 -0.2969  0.0012 -0.5114
  628TMC3    C2 9297   4.514   1.970  14.873  0.2234  0.5376  0.5882
  628TMC3    C3 9298   4.534   2.105  14.861  0.3679 -0.0205  0.4673
  628TMC3    C4 9299   4.289   2.013  14.814 -0.0016  0.4637 -0.0279
  628TMC3    C5 9300   4.314   2.146  14.815  0.4160 -0.0216 -0.0051
  628TMC3    C6 9301   4.443   2.196  14.815 -0.7680 -0.3719  0.1640
  628TMC3     C 9302   4.363   1.793  14.816 -0.0933  0.6511 -0.1705
  628TMC3     O 9303   4.249   1.746  14.812 -0.2881 -0.2075  0.1315
  628TMC3     H 9304   4.591   1.901  14.904 -0.1052 -0.4665 -0.8223
  628TMC3    H1 9305   4.191   1.975  14.785  1.4965 -2.7761 -0.8188
  628TMC3    H2 9306   4.464   2.303  14.814 -2.3505 -0.0571  0.6967
  628TMC3    C7 9307   4.207   2.218  14.756 -0.2236  0.0569 -0.3585
  628TMC3    C8 9308   4.654   2.166  14.923 -0.3350 -0.8918  0.4201
  628TMC3    O1 9309   4.089   2.192  14.789  0.5082  0.2096 -0.7019
  628TMC3    O2 9310   4.652   2.288  14.936 -0.1784 -0.1746 -0.0084
  629MPD2     C 9311   2.170   0.601  16.217 -0.0084  0.4985  0.0026
  629MPD2    C1 9312   2.186   0.488  16.295  0.1303 -0.0057  0.5165
  629MPD2    C2 9313   2.067   0.408  16.323 -0.6663 -0.6369 -0.2432
  629MPD2    C3 9314   1.941   0.461  16.294  0.3921 -0.1612  0.1210
  629MPD2    C4 9315   1.935   0.583  16.235  0.7999 -0.2364  0.5794
  629MPD2    C5 9316   2.046   0.651  16.191 -0.4303 -0.4001  0.0230
  629MPD2     H 9317   2.077   0.313  16.373 -0.1439  0.6151  2.0021
  629MPD2    H1 9318   1.846   0.640  16.212 -0.3248 -1.7272  1.1739
  629MPD2    H2 9319   2.254   0.662  16.186  0.6074 -0.5054 -0.2913
  629MPD2    H3 9320   2.031   0.739  16.129  1.0086  0.6190  1.1363
  629MPD2     N 9321   1.827   0.388  16.325 -0.0539  0.1441 -0.3423
  629MPD2    H5 9322   1.828   0.289  16.348  0.9948 -0.1628 -1.7207
  629MPD2    N1 9323   2.311   0.459  16.335 -0.7726 -0.5588  0.6307
  629MPD2    H7 9324   2.380   0.530  16.310 -0.5836 -1.0620 -0.2966
  630TMC3    C1 9325   2.502   0.342  16.421 -0.3405 -0.3600 -0.2309
  630TMC3    C2 9326   2.576   0.421  16.342 -0.0502  0.3657  0.4613
  630TMC3    C3 9327   2.711   0.404  16.353 -0.2291  0.0659 -0.0705
  630TMC3    C4 9328   2.557   0.253  16.511 -0.0761  0.0470 -0.4338
  630TMC3    C5 9329   2.694   0.256  16.532 -0.4493 -0.1323  0.4046
  630TMC3    C6 9330   2.776   0.334  16.451 -0.0171  0.7964 -0.2318
  630TMC3     C 9331   2.352   0.343  16.401 -0.1485  0.0615  0.1180
  630TMC3     O 9332   2.285   0.268  16.468  0.3834  0.3497  0.3141
  630TMC3     H 9333   2.537   0.477  16.258  0.2673 -1.0900 -0.6614
  630TMC3    H1 9334   2.493   0.210  16.587  2.8096 -0.0820  1.9056
  630TMC3    H2 9335   2.884   0.321  16.449  0.1778  2.5771 -1.5102
  630TMC3    C7 9336   2.745   0.193  16.650  0.3247 -0.3394 -1.1241
  630TMC3    C8 9337   2.801   0.505  16.297 -0.4357 -0.0002 -0.5371
  630TMC3    O1 9338   2.675   0.129  16.728  0.0584  0.4411  0.2270
  630TMC3    O2 9339   2.921   0.472  16.280 -0.3561 -0.5237 -0.7253
  631MPD2     C 9340   1.080   4.582  15.481  0.5427  0.1870  0.9081
  631MPD2    C1 9341   1.203   4.615  15.430  0.1272  0.0341  0.7184
  631MPD2    C2 9342   1.304   4.524  15.453 -0.2763 -0.4450 -0.8206
  631MPD2    C3 9343   1.280   4.412  15.522  0.0304  0.3972  0.4769
  631MPD2    C4 9344   1.153   4.377  15.562 -0.3601  0.1070  0.2766
  631MPD2    C5 9345   1.052   4.465  15.548 -0.5094 -0.4379  0.3042
  631MPD2     H 9346   1.409   4.539  15.427 -0.0884 -0.0514  0.1775
  631MPD2    H1 9347   1.137   4.277  15.602 -1.1145 -0.1257 -0.6206
  631MPD2    H2 9348   0.989   4.634  15.456 -0.3139 -2.0653 -0.6045
  631MPD2    H3 9349   0.951   4.448  15.582 -0.3272  2.3257  2.2132
  631MPD2     N 9350   1.390   4.316  15.534 -0.3761  0.0590 -0.1893
  631MPD2    H5 9351   1.482   4.344  15.501  0.6712 -0.1442  2.5900
  631MPD2    N1 9352   1.219   0.023  15.363  0.1209 -0.0605 -0.5649
  631MPD2    H7 9353   1.131   0.066  15.337 -0.9760 -3.0589 -1.7834
  632TMC3    C1 9354   1.323   0.211  15.259 -0.5956  0.4383  0.0034
  632TMC3    C2 9355   1.219   0.291  15.299 -0.0291 -0.9053  0.6913
  632TMC3    C3 9356   1.194   0.408  15.233  0.2115 -0.3342 -0.1295
  632TMC3    C4 9357   1.398   0.228  15.148 -0.2203 -0.4587 -0.7012
  632TMC3    C5 9358   1.371   0.347  15.081 -0.1602  0.1088 -0.6427
  632TMC3    C6 9359   1.273   0.438  15.122  0.1177  0.2929 -0.0273
  632TMC3     C 9360   1.338   0.075  15.311  0.2815 -0.2430  0.3068
  632TMC3     O 9361   1.439   0.010  15.286 -0.0683 -0.7650 -0.3417
  632TMC3     H 9362   1.163   0.273  15.391  0.2137  0.0840  1.0374
  632TMC3    H1 9363   1.460   0.151  15.105 -0.6958 -1.7495  0.9214
  632TMC3    H2 9364   1.278   0.531  15.067  1.3416 -0.1230 -0.6298
  632TMC3    C7 9365   1.392   0.359  14.939 -0.3214  1.3618  0.2588
  632TMC3    C8 9366   1.057   0.466  15.234 -0.9944  0.2778 -0.0672
  632TMC3    O1 9367   1.309   0.422  14.873 -0.7544 -0.2987 -0.1887
  632TMC3    O2 9368   0.963   0.401  15.281  0.2061 -0.1863  0.0784
  633MPD2     C 9369   0.328   2.820  17.121 -0.7275 -0.5923  0.6771
  633MPD2    C1 9370   0.297   2.768  16.993  0.4868 -0.8779 -0.7519
  633MPD2    C2 9371   0.285   2.630  16.972  0.7926  0.1185  0.4526
  633MPD2    C3 9372   0.311   2.548  17.085 -0.2026  0.4869  1.2592
  633MPD2    C4 9373   0.359   2.601  17.202  0.0008 -0.1667 -0.3085
  633MPD2    C5 9374   0.372   2.727  17.215  0.1185  0.5673  0.5417
  633MPD2     H 9375   0.254   2.589  16.877 -1.9660  1.8511  0.5927
  633MPD2    H1 9376   0.390   2.538  17.284  1.8327  0.2003 -0.7060
  633MPD2    H2 9377   0.337   2.925  17.146 -2.5028 -0.1074 -0.7961
  633MPD2    H3 9378   0.402   2.771  17.309  0.4568 -0.1373  0.7615
  633MPD2     N 9379   0.280   2.412  17.080  0.3864  0.0575 -0.6604
  633MPD2    H5 9380   0.282   2.355  17.164 -0.7993  0.3565 -0.4244
  633MPD2    N1 9381   0.282   2.848  16.881  0.3270  0.4496  0.3053
  633MPD2    H7 9382   0.268   2.802  16.791  1.7543  3.0517 -1.2421
  634TMC3    C1 9383   0.346   3.033  16.747  0.0936  0.7729  0.2053
  634TMC3    C2 9384   0.420   2.946  16.671 -0.3752 -0.5383 -0.3773
  634TMC3    C3 9385   0.471   2.997  16.552 -0.4080  0.2860  0.3077
  634TMC3    C4 9386   0.317   3.161  16.704 -0.2040  0.0534  0.3247
  634TMC3    C5 9387   0.356   3.201  16.579 -0.4479 -0.1580 -0.3924
  634TMC3    C6 9388   0.439   3.121  16.504 -0.1409 -0.2931  0.2600
  634TMC3     C 9389   0.303   2.981  16.876  0.2709  0.1236 -0.5873
  634TMC3     O 9390   0.274   3.056  16.965  0.0846 -0.2723  0.3533
  634TMC3     H 9391   0.450   2.847  16.703  1.0576  0.3222  0.8872
  634TMC3    H1 9392   0.258   3.228  16.766  0.8863 -0.6137  2.0748
  634TMC3    H2 9393   0.485   3.157  16.412 -0.2247  1.0244  0.7305
  634TMC3    C7 9394   0.349   3.339  16.525 -0.6598 -0.3714  0.0272
  634TMC3    C8 9395   0.569   2.906  16.487 -0.3846 -0.1025 -0.6130
  634TMC3    O1 9396   0.422   3.358  16.427 -0.0389 -0.1610  0.6498
  634TMC3    O2 9397   0.620   2.814  16.549 -0.1331  1.0795 -0.4774
  635TMC3    C1 9398   1.176   3.883  17.177  0.0732  0.1023 -0.5836
  635TMC3    C2 9399   1.191   3.857  17.047  0.3023 -0.1851  0.0690
  635TMC3    C3 9400   1.113   3.764  16.987  0.1376 -0.1404  0.1333
  635TMC3    C4 9401   1.075   3.816  17.247  0.9618 -0.1441 -0.1316
  635TMC3    C5 9402   1.000   3.725  17.176  0.5639 -1.2960 -0.2422
  635TMC3    C6 9403   1.012   3.690  17.046 -0.5890 -0.3384 -0.7085
  635TMC3     C 9404   1.273   3.958  17.251 -0.0786  0.8932  0.2206
  635TMC3     O 9405   1.236   3.987  17.364 -1.0399  0.5353 -0.5312
  635TMC3     H 9406   1.278   3.904  17.001  0.5160  0.1878  0.8438
  635TMC3    H1 9407   1.054   3.853  17.347  0.4522  1.1919 -0.7218
  635TMC3    H2 9408   0.937   3.625  17.003 -0.5408 -0.9104  0.0548
  635TMC3    C7 9409   0.908   3.649  17.259 -0.7712 -0.4937 -0.0966
  635TMC3    C8 9410   1.154   3.720  16.859 -0.4295 -0.0664  0.4723
  635TMC3    O1 9411   0.816   3.595  17.202 -0.4354  0.5732  0.4600
  635TMC3    O2 9412   1.197   3.806  16.782  0.1061 -0.3636 -0.6028
  636MPD2     C 9413   1.718   2.771  16.042  0.5683 -0.5900  0.4817
  636MPD2    C1 9414   1.817   2.850  16.096  0.4166 -0.6611 -0.6675
  636MPD2    C2 9415   1.916   2.786  16.162 -0.4152  0.4537 -0.2211
  636MPD2    C3 9416   1.929   2.646  16.169 -0.0938 -0.2606  0.9869
  636MPD2    C4 9417   1.833   2.568  16.106 -0.6167 -0.0523  0.4567
  636MPD2    C5 9418   1.729   2.635  16.046 -0.7581  0.1916  0.5506
  636MPD2     H 9419   1.996   2.849  16.198  0.0668 -0.3084  0.0474
  636MPD2    H1 9420   1.841   2.460  16.100 -0.1429  0.0701 -1.2715
  636MPD2    H2 9421   1.628   2.813  15.999  1.3009 -0.4720 -0.9528
  636MPD2    H3 9422   1.649   2.581  15.997  0.8062 -0.4654 -1.2763
  636MPD2     N 9423   2.050   2.602  16.226  0.4148 -0.2943  0.2402
  636MPD2    H5 9424   2.117   2.676  16.246 -0.4074  0.3931  0.4561
  636MPD2    N1 9425   1.812   2.990  16.108  0.1996 -0.4774 -0.2728
  636MPD2    H7 9426   1.883   3.032  16.167  0.4017 -1.2954  0.0660
  637TMC3    C1 9427   2.220   2.469  16.298  0.1716  0.4935  0.1212
  637TMC3    C2 9428   2.241   2.549  16.405 -1.0540 -0.2606  0.3234
  637TMC3    C3 9429   2.374   2.586  16.427 -0.0992  0.2750  0.8670
  637TMC3    C4 9430   2.318   2.428  16.209 -0.4886 -0.0064  0.4012
  637TMC3    C5 9431   2.450   2.472  16.243  0.0523 -0.1707  0.1076
  637TMC3    C6 9432   2.478   2.547  16.349  0.5062  0.3792 -0.2454
  637TMC3     C 9433   2.089   2.470  16.235 -0.1154 -0.0744  0.3881
  637TMC3     O 9434   2.051   2.372  16.177  0.0854 -0.4192  0.4484
  637TMC3     H 9435   2.163   2.597  16.462  0.4585  0.2203  2.0117
  637TMC3    H1 9436   2.283   2.373  16.122 -1.5811  0.9683  0.2197
  637TMC3    H2 9437   2.580   2.579  16.369  1.0824 -1.2311 -0.5754
  637TMC3    C7 9438   2.496   2.531  16.116  0.0757 -0.1961  0.2600
  637TMC3    C8 9439   2.395   2.716  16.478 -0.4156 -0.0231  0.2796
  637TMC3    O1 9440   2.463   2.472  16.016 -0.1337  0.7083  0.4353
  637TMC3    O2 9441   2.471   2.779  16.409  0.6551  0.3268 -0.3745
  638MPD2     C 9442   1.762   2.168  14.634  0.2278  0.6769 -0.2683
  638MPD2    C1 9443   1.696   2.055  14.595 -0.9038 -0.4863  0.1521
  638MPD2    C2 9444   1.662   1.954  14.686 -0.3612  0.0235 -0.0110
  638MPD2    C3 9445   1.701   1.973  14.821  0.9852 -0.5592  0.1821
  638MPD2    C4 9446   1.770   2.091  14.862 -0.0460  0.3803 -0.3127
  638MPD2    C5 9447   1.796   2.188  14.769  0.2232 -0.4626 -0.0753
  638MPD2     H 9448   1.614   1.863  14.652  0.3774 -1.0039  1.6884
  638MPD2    H1 9449   1.807   2.102  14.963  0.0124 -1.9155 -0.0791
  638MPD2    H2 9450   1.792   2.248  14.567  0.9161  1.6525  1.2011
  638MPD2    H3 9451   1.853   2.276  14.798 -0.9338  0.7726 -1.5692
  638MPD2     N 9452   1.667   1.867  14.912 -0.1233  0.6408 -0.1351
  638MPD2    H5 9453   1.604   1.798  14.874  1.2937 -0.8220  0.2014
  638MPD2    N1 9454   1.684   2.041  14.453  0.0987  0.2980 -0.2716
  638MPD2    H7 9455   1.719   2.115  14.394 -0.5785  0.5043 -0.4110
  639TMC3    C1 9456   1.681   1.715  15.089  0.3839 -0.2979  0.2572
  639TMC3    C2 9457   1.580   1.643  15.029  0.4948  0.2738 -0.6708
  639TMC3    C3 9458   1.537   1.526  15.089  0.3527 -0.8404 -0.0742
  639TMC3    C4 9459   1.728   1.679  15.212 -0.1854  0.2966 -0.2920
  639TMC3    C5 9460   1.676   1.561  15.274  0.3200 -0.0944  0.0753
  639TMC3    C6 9461   1.574   1.486  15.221 -0.2966  0.3572 -0.0984
  639TMC3     C 9462   1.733   1.836  15.029  0.6452 -0.0044 -0.0839
  639TMC3     O 9463   1.819   1.893  15.086  0.3958 -0.4723  0.3928
  639TMC3     H 9464   1.545   1.667  14.929 -3.0275  3.2241  1.3100
  639TMC3    H1 9465   1.793   1.745  15.268  1.1765 -0.4667 -0.9787
  639TMC3    H2 9466   1.542   1.392  15.264 -1.4911  2.0539  2.6583
  639TMC3    C7 9467   1.740   1.492  15.379  0.4037  0.3164 -0.1244
  639TMC3    C8 9468   1.453   1.439  15.004  0.0988 -0.2168  0.1294
  639TMC3    O1 9469   1.682   1.393  15.424  0.2244 -0.0521  0.6045
  639TMC3    O2 9470   1.492   1.405  14.893  0.0472 -0.6277 -0.3236
  640MPD2     C 9471   1.894   4.396   9.716  0.4382  0.3859 -0.2146
  640MPD2    C1 9472   1.968   4.489   9.639  0.1848 -0.0087  0.1112
  640MPD2    C2 9473   1.911   4.600   9.585  0.0458 -1.0958  0.3090
  640MPD2    C3 9474   1.782   4.634   9.612 -0.1716 -0.1903 -0.1736
  640MPD2    C4 9475   1.706   4.552   9.694 -0.8249  0.7547  0.1964
  640MPD2    C5 9476   1.764   4.433   9.746 -0.6726  0.1452 -0.1902
  640MPD2     H 9477   1.972   4.668   9.528  0.3116 -2.6851 -1.3192
  640MPD2    H1 9478   1.606   4.574   9.730 -0.5640  0.4465  1.1158
  640MPD2    H2 9479   1.940   4.303   9.748 -1.4032 -0.5088 -0.1988
  640MPD2    H3 9480   1.704   4.366   9.806 -0.8559 -1.4828 -2.1897
  640MPD2     N 9481   1.719   0.036   9.566 -0.3538 -0.0617  1.0136
  640MPD2    H5 9482   1.618   0.027   9.576 -0.1933  0.8818  3.3268
  640MPD2    N1 9483   2.102   4.458   9.623  0.3155 -0.3754  0.3061
  640MPD2    H7 9484   2.137   4.365   9.640 -2.0615 -1.1594  0.9926
  641TMC3    C1 9485   2.342   4.490   9.584  0.1239 -0.0050  0.3140
  641TMC3    C2 9486   2.348   4.356   9.612  0.3874  0.1459 -0.3223
  641TMC3    C3 9487   2.470   4.301   9.639 -0.1169  0.5060  0.2686
  641TMC3    C4 9488   2.450   4.572   9.603 -0.0096  0.1588  0.1688
  641TMC3    C5 9489   2.573   4.515   9.622  0.2105  0.1368 -0.0352
  641TMC3    C6 9490   2.578   4.381   9.650  0.0607 -0.5748  0.1511
  641TMC3     C 9491   2.207   4.549   9.586  0.2429 -0.9510 -0.4776
  641TMC3     O 9492   2.202   4.670   9.587  0.0174 -1.0495 -0.2646
  641TMC3     H 9493   2.267   4.286   9.599 -2.0288  2.6378  1.3984
  641TMC3    H1 9494   2.442   4.680   9.593 -1.4360  0.1084  0.6823
  641TMC3    H2 9495   2.677   4.340   9.665  1.5355  3.2315  0.6997
  641TMC3    C7 9496   2.701   4.586   9.628  0.0977 -0.4876 -0.7710
  641TMC3    C8 9497   2.481   4.170   9.698  0.3426 -0.2972 -0.5125
  641TMC3    O1 9498   2.790   4.524   9.679 -0.4633  0.0875  0.0345
  641TMC3    O2 9499   2.386   4.092   9.694  0.6458 -0.1691  0.9453
  642TMC3    C1 9500   3.109   1.142  12.105  0.0984 -0.1652  0.0759
  642TMC3    C2 9501   3.170   1.185  12.225  0.4312 -0.0438 -0.7584
  642TMC3    C3 9502   3.253   1.099  12.287 -0.1153 -1.1170 -0.0189
  642TMC3    C4 9503   3.131   1.019  12.057  0.4276 -1.0441 -0.3782
  642TMC3    C5 9504   3.224   0.939  12.115  0.2503 -0.2663  0.2996
  642TMC3    C6 9505   3.274   0.971  12.240 -0.3505  0.5101  0.1118
  642TMC3     C 9506   3.022   1.225  12.028  0.1761 -0.6031  0.1800
  642TMC3     O 9507   3.006   1.191  11.911 -0.0851  0.5138  0.1687
  642TMC3     H 9508   3.135   1.278  12.268  1.9921  0.0017  0.3888
  642TMC3    H1 9509   3.081   0.982  11.969  1.6617  0.5235 -1.7557
  642TMC3    H2 9510   3.334   0.899  12.294 -1.3695  1.0879  2.0211
  642TMC3    C7 9511   3.239   0.810  12.056  0.2017  0.1366  0.4095
  642TMC3    C8 9512   3.308   1.111  12.418 -0.1749  0.4050 -0.4353
  642TMC3    O1 9513   3.219   0.798  11.939  0.4919  0.4278 -0.0028
  642TMC3    O2 9514   3.344   1.008  12.479 -0.5116 -0.5720 -0.0035
  643TMC3    C1 9515   2.568   1.368   1.033 -0.1383 -0.4427  0.4960
  643TMC3    C2 9516   2.567   1.497   0.991  0.5383  0.2070 -0.5974
  643TMC3    C3 9517   2.591   1.518   0.858 -0.0539  0.5825 -0.6811
  643TMC3    C4 9518   2.603   1.261   0.956 -0.1439  0.7968 -0.1630
  643TMC3    C5 9519   2.635   1.283   0.827 -0.0141 -0.1084  0.2565
  643TMC3    C6 9520   2.626   1.409   0.777 -0.4488 -0.2412 -0.3205
  643TMC3     C 9521   2.497   1.338   1.153  0.0176 -0.1286  0.0638
  643TMC3     O 9522   2.466   1.218   1.160  0.1307 -1.2372 -0.3049
  643TMC3     H 9523   2.532   1.586   1.041  2.4305 -0.1498  1.3264
  643TMC3    H1 9524   2.599   1.160   0.995  2.3778  0.4481 -0.8371
  643TMC3    H2 9525   2.632   1.433   0.671 -0.8984  0.4262 -0.1962
  643TMC3    C7 9526   2.648   1.180   0.728  0.5075  0.4209  0.0395
  643TMC3    C8 9527   2.551   1.640   0.796  0.0063  1.0522 -0.4507
  643TMC3    O1 9528   2.704   1.201   0.618 -0.3994  0.4616 -0.1598
  643TMC3    O2 9529   2.634   1.690   0.720 -1.1529  0.2627 -0.0005
  644MPD2     C 9530   2.436   0.562   9.481 -0.6965 -0.0061  0.5004
  644MPD2    C1 9531   2.456   0.438   9.533 -1.0914 -0.3419 -0.0562
  644MPD2    C2 9532   2.377   0.335   9.502 -0.1958  0.4039 -0.6337
  644MPD2    C3 9533   2.278   0.353   9.406 -0.4774  0.0242  0.1621
  644MPD2    C4 9534   2.244   0.478   9.361 -0.0648  0.1167 -0.4062
  644MPD2    C5 9535   2.334   0.584   9.390 -0.5933 -0.3448  0.6546
  644MPD2     H 9536   2.410   0.235   9.528  0.1273  0.5475 -0.4956
  644MPD2    H1 9537   2.173   0.492   9.281 -0.7167  0.3646  0.2227
  644MPD2    H2 9538   2.498   0.642   9.521  0.4629 -2.1072  2.9084
  644MPD2    H3 9539   2.314   0.680   9.344  0.4570 -0.2077  0.4864
  644MPD2     N 9540   2.196   0.235   9.372 -0.6833 -0.3321  0.2377
  644MPD2    H5 9541   2.224   0.147   9.414  1.4064  0.6972  0.9762
  644MPD2    N1 9542   2.570   0.425   9.618  0.7321 -0.4394  0.0931
  644MPD2    H7 9543   2.633   0.504   9.617 -2.0703  1.7899  0.4523
  645TMC3    C1 9544   2.053   0.097   9.238 -0.9353  0.8540  0.0930
  645TMC3    C2 9545   2.135   4.715   9.258  1.0109 -0.5696 -0.2050
  645TMC3    C3 9546   2.090   4.590   9.235 -0.5676  0.9933 -0.3778
  645TMC3    C4 9547   1.917   0.073   9.208  0.1539 -0.2238 -0.4696
  645TMC3    C5 9548   1.873   4.662   9.198  0.1567  0.0685 -0.1065
  645TMC3    C6 9549   1.961   4.560   9.194 -0.8297  0.2784 -0.2415
  645TMC3     C 9550   2.090   0.232   9.284  0.6513 -0.1523 -0.2578
  645TMC3     O 9551   2.023   0.318   9.227 -0.0254  0.9436  0.5661
  645TMC3     H 9552   2.240   4.719   9.282  0.8884  2.9329 -0.2403
  645TMC3    H1 9553   1.847   0.156   9.208 -1.9776 -2.0331  2.3900
  645TMC3    H2 9554   1.922   4.462   9.169  0.4676 -0.6259  1.3050
  645TMC3    C7 9555   1.737   4.644   9.175  0.3140 -0.6687  0.1647
  645TMC3    C8 9556   2.180   4.479   9.256  0.3785 -0.2841 -0.0336
  645TMC3    O1 9557   1.683   0.013   9.112 -0.1782  0.2777  0.3948
  645TMC3    O2 9558   2.302   4.498   9.268 -0.3052 -0.3340  0.1046
  646MPD2     C 9559   1.791   0.710  14.710  0.3363 -0.4509  0.0626
  646MPD2    C1 9560   1.701   0.714  14.810 -0.1340  0.3707 -0.4266
  646MPD2    C2 9561   1.563   0.746  14.776 -0.5208 -1.1293  0.3700
  646MPD2    C3 9562   1.528   0.752  14.642 -0.4152  0.3454  0.7872
  646MPD2    C4 9563   1.614   0.723  14.548  0.0904  0.3518 -0.2698
  646MPD2    C5 9564   1.751   0.714  14.578 -0.2517  0.3750 -0.3620
  646MPD2     H 9565   1.491   0.755  14.856  0.3798  1.1936  0.9255
  646MPD2    H1 9566   1.603   0.720  14.441  0.1455 -0.6730 -0.2398
  646MPD2    H2 9567   1.894   0.684  14.731  0.0137 -2.0321 -0.3596
  646MPD2    H3 9568   1.820   0.697  14.496  0.4496 -0.4753  0.3941
  646MPD2     N 9569   1.392   0.791  14.611 -0.2403  0.1241  0.4136
  646MPD2    H5 9570   1.327   0.811  14.686 -1.5171  1.4587 -1.0555
  646MPD2    N1 9571   1.738   0.684  14.943 -0.0743 -0.3982 -0.5009
  646MPD2    H7 9572   1.838   0.668  14.953 -0.1309  0.5877  1.6896
  647TMC3    C1 9573   1.747   0.671  15.165 -0.0408  0.0455 -0.2412
  647TMC3    C2 9574   1.685   0.638  15.283  0.3983  0.9684  0.8123
  647TMC3    C3 9575   1.760   0.584  15.380 -0.8404  0.8642  0.4151
  647TMC3    C4 9576   1.886   0.656  15.150 -0.2158  0.3798 -0.5207
  647TMC3    C5 9577   1.958   0.633  15.263 -0.2856 -0.2570  0.3646
  647TMC3    C6 9578   1.897   0.602  15.379  1.0255 -0.0159  0.2823
  647TMC3     C 9579   1.655   0.682  15.049 -0.6886 -0.5152 -0.2205
  647TMC3     O 9580   1.536   0.701  15.076 -0.0870  0.1714  0.3337
  647TMC3     H 9581   1.578   0.621  15.288 -0.0558  3.4932  0.0869
  647TMC3    H1 9582   1.930   0.676  15.053  0.2064 -0.8150 -0.5800
  647TMC3    H2 9583   1.949   0.587  15.473 -1.3217  0.8887  1.7486
  647TMC3    C7 9584   2.093   0.587  15.250  0.3746 -0.2868 -0.3143
  647TMC3    C8 9585   1.704   0.527  15.493  0.5503 -0.1554 -0.3557
  647TMC3    O1 9586   2.133   0.511  15.338  0.5849  0.7662 -0.2336
  647TMC3    O2 9587   1.589   0.557  15.514 -0.5447 -0.7370 -0.4993
  648TMC3    C1 9588   1.059   3.024  15.917 -0.3911  0.9598  0.4160
  648TMC3    C2 9589   1.037   2.894  15.883 -0.4941  0.7560  0.2453
  648TMC3    C3 9590   0.965   2.875  15.767 -0.1772  0.0043 -0.3716
  648TMC3    C4 9591   1.026   3.131  15.838 -0.6438  0.2010 -0.3138
  648TMC3    C5 9592   0.958   3.100  15.720  0.1249  0.2656  0.4262
  648TMC3    C6 9593   0.932   2.974  15.682  0.6826 -0.2966  0.3213
  648TMC3     C 9594   1.048   3.063  16.062 -0.0310 -0.4497 -0.5890
  648TMC3     O 9595   1.069   3.184  16.083 -0.3090  0.0893 -0.0945
  648TMC3     H 9596   1.068   2.808  15.941  0.9616  1.4373  0.4893
  648TMC3    H1 9597   1.055   3.232  15.865  1.2781 -0.1519 -1.0610
  648TMC3    H2 9598   0.886   2.948  15.587  0.6277  0.0941  0.2412
  648TMC3    C7 9599   0.924   3.206  15.627  0.3821 -0.1545  0.1597
  648TMC3    C8 9600   0.950   2.737  15.730  0.1610  0.0822  0.4155
  648TMC3    O1 9601   0.911   3.183  15.505 -0.3074  0.2898  0.2041
  648TMC3    O2 9602   0.836   2.690  15.720 -0.5965 -0.1498  0.2408
  649TMC3    C1 9603   4.207   4.299  12.809  0.0019 -0.6041 -0.1709
  649TMC3    C2 9604   4.178   4.313  12.678 -0.1851  0.0142  0.2410
  649TMC3    C3 9605   4.240   4.239  12.584 -0.2003 -0.0594 -0.1710
  649TMC3    C4 9606   4.307   4.213  12.846 -0.3966  0.4567  0.1344
  649TMC3    C5 9607   4.380   4.148  12.753 -0.5321  0.6196 -0.2241
  649TMC3    C6 9608   4.345   4.154  12.612 -0.3280  0.4365  0.0736
  649TMC3     C 9609   4.150   4.386  12.910  0.3534  0.5605 -0.5830
  649TMC3     O 9610   4.187   4.356  13.022 -0.0630  0.1136  0.3670
  649TMC3     H 9611   4.101   4.383  12.646  0.4924  0.4458 -0.4570
  649TMC3    H1 9612   4.348   4.213  12.946 -1.4990  1.5601  0.5879
  649TMC3    H2 9613   4.415   4.120  12.537 -0.9561 -1.6234  0.4304
  649TMC3    C7 9614   4.485   4.059  12.800  0.6667  0.5725  0.0028
  649TMC3    C8 9615   4.216   4.289  12.449  0.0478  0.7139  0.6052
  649TMC3    O1 9616   4.531   4.080  12.911 -0.0862 -0.6317  0.1622
  649TMC3    O2 9617   4.153   4.393  12.437  0.1496 -0.8360  0.5304
  650TMC3    C1 9618   2.900   0.891  12.864 -0.4711 -0.2407 -0.1914
  650TMC3    C2 9619   2.895   1.026  12.887 -0.2594  0.0575  0.1686
  650TMC3    C3 9620   2.962   1.109  12.799  0.4171 -0.1629 -0.3004
  650TMC3    C4 9621   2.966   0.833  12.758 -0.3049  0.5773  0.1860
  650TMC3    C5 9622   3.005   0.918  12.662 -0.3808 -0.3862 -0.2161
  650TMC3    C6 9623   3.006   1.051  12.680 -0.4039  0.4591 -0.6240
  650TMC3     C 9624   2.831   0.809  12.960  0.2638 -0.4379 -0.1113
  650TMC3     O 9625   2.814   0.851  13.071  1.3872  0.1295  0.1961
  650TMC3     H 9626   2.845   1.059  12.977 -1.8090  0.3021 -0.7737
  650TMC3    H1 9627   2.950   0.729  12.734 -0.0478  0.9260 -1.4836
  650TMC3    H2 9628   3.056   1.109  12.603 -0.9045 -1.5972 -2.4802
  650TMC3    C7 9629   3.023   0.859  12.527 -0.7450 -0.1106 -0.3364
  650TMC3    C8 9630   2.919   1.242  12.799 -0.0350 -0.7758 -0.3109
  650TMC3    O1 9631   3.107   0.769  12.521  0.0693 -0.6039  0.1045
  650TMC3    O2 9632   2.937   1.309  12.700 -0.2848 -0.1621  0.7445
  651MPD2     C 9633   1.525   2.187  10.814  0.4973 -0.0545 -0.0455
  651MPD2    C1 9634   1.484   2.317  10.790  0.2040  0.0313 -0.0401
  651MPD2    C2 9635   1.572   2.397  10.716 -0.5943 -0.0955  0.1351
  651MPD2    C3 9636   1.702   2.355  10.691 -0.2537  0.8656  0.8935
  651MPD2    C4 9637   1.734   2.225  10.708  0.0881 -0.3410 -0.4815
  651MPD2    C5 9638   1.651   2.142  10.777  0.8189 -0.1443  0.4430
  651MPD2     H 9639   1.537   2.496  10.692  1.3731 -0.2125 -3.3217
  651MPD2    H1 9640   1.828   2.185  10.673 -1.6186 -2.6936 -2.3919
  651MPD2    H2 9641   1.451   2.121  10.858 -0.5597  0.8478 -0.4779
  651MPD2    H3 9642   1.674   2.038  10.799  0.7755  0.1478  1.8765
  651MPD2     N 9643   1.794   2.452  10.648  0.0876 -0.0530  0.6936
  651MPD2    H5 9644   1.749   2.535  10.611 -1.8652 -1.3337  0.1668
  651MPD2    N1 9645   1.353   2.366  10.823  0.3935 -0.1235  0.2255
  651MPD2    H7 9646   1.322   2.457  10.791  0.2304  0.2344  1.3988
  652TMC3    C1 9647   2.115   2.744  10.761 -0.9381  0.2385 -0.4160
  652TMC3    C2 9648   2.071   2.617  10.756  0.0879 -0.6609 -0.0198
  652TMC3    C3 9649   2.002   2.569  10.647 -0.3930 -0.3241  0.2435
  652TMC3    C4 9650   2.091   2.832  10.659 -0.2337  0.8335 -0.7371
  652TMC3    C5 9651   2.034   2.778  10.542  0.0273 -0.2062  0.0013
  652TMC3    C6 9652   1.976   2.650  10.538  0.2471 -0.0947  0.0713
  652TMC3     C 9653   2.239   2.760  10.840 -0.3135 -0.0887  0.5863
  652TMC3     O 9654   2.296   2.660  10.883 -0.0666 -0.5494 -0.2233
  652TMC3     H 9655   2.086   2.548  10.838 -0.4246 -1.8079 -0.9008
  652TMC3    H1 9656   2.132   2.932  10.657  1.9492 -0.0246  1.1881
  652TMC3    H2 9657   1.912   2.614  10.458 -1.2600  2.2766  0.1985
  652TMC3    C7 9658   1.943   2.873  10.487 -0.5963 -0.7799 -0.3399
  652TMC3    C8 9659   1.928   2.446  10.667  0.1047  0.2450 -0.6553
  652TMC3    O1 9660   1.908   2.973  10.552  0.1971 -0.1709  0.2615
  652TMC3    O2 9661   1.989   2.362  10.734  0.1284  0.2968 -0.4232
  653MPD2     C 9662   0.262   3.073  17.593  0.1291  0.0570 -0.1816
  653MPD2    C1 9663   0.222   3.121  17.474  0.4143  0.0870  0.4636
  653MPD2    C2 9664   0.149   3.034  17.388 -0.3699  0.0762  0.0709
  653MPD2    C3 9665   0.126   2.904  17.419 -0.0498 -0.5475  0.4764
  653MPD2    C4 9666   0.186   2.855  17.534 -0.3006  0.4536  0.4181
  653MPD2    C5 9667   0.245   2.941  17.629  0.2747  0.3437  0.3126
  653MPD2     H 9668   0.124   3.082  17.294  2.6515  1.2321 -0.1311
  653MPD2    H1 9669   0.164   2.752  17.563 -3.0072  0.2292 -2.3637
  653MPD2    H2 9670   0.307   3.137  17.668 -0.1184 -0.5069  0.4400
  653MPD2    H3 9671   0.287   2.906   0.042 -1.0614 -0.2847  0.6734
  653MPD2     N 9672   0.056   2.825  17.332  0.1353 -0.1367 -0.5023
  653MPD2    H5 9673   0.027   2.865  17.243 -0.1373  0.7088 -0.0332
  653MPD2    N1 9674   0.251   3.249  17.427 -0.8817  0.5141  0.2800
  653MPD2    H7 9675   0.215   3.270  17.334 -2.0558 -2.3691  0.0676
  654TMC3    C1 9676   4.679   2.642  17.232  0.5246  0.2604 -0.6083
  654TMC3    C2 9677   4.563   2.713  17.209 -0.1828  0.1636 -0.0066
  654TMC3    C3 9678   4.453   2.652  17.153 -0.2953 -0.1842 -0.2990
  654TMC3    C4 9679   4.683   2.507  17.203  0.8479 -0.5283  0.3377
  654TMC3    C5 9680   4.571   2.449  17.153  0.3025  0.6111 -0.2603
  654TMC3    C6 9681   4.452   2.516  17.125  0.1636 -0.1451  1.0413
  654TMC3     C 9682   0.046   2.687  17.334  0.0463  0.1303 -0.6746
  654TMC3     O 9683   0.085   2.607  17.418  0.4338  0.5234  0.0246
  654TMC3     H 9684   4.558   2.820  17.223 -2.3777  0.1135 -0.4388
  654TMC3    H1 9685   0.051   2.443  17.212 -0.1060 -1.8769 -0.0092
  654TMC3    H2 9686   4.362   2.460  17.103  0.6452 -1.0689  1.4137
  654TMC3    C7 9687   4.580   2.309  17.110  0.8341  0.1318  0.1016
  654TMC3    C8 9688   4.328   2.716  17.188 -0.3902 -0.3165 -0.5442
  654TMC3    O1 9689   4.500   2.275  17.030 -0.1273  0.4422  0.1562
  654TMC3    O2 9690   4.328   2.822  17.243  0.1512 -0.6224 -0.3104
  655MPD2     C 9691   1.515   3.202  15.499 -0.2187  0.5642  0.1004
  655MPD2    C1 9692   1.431   3.288  15.428 -0.3557 -0.4005 -0.4789
  655MPD2    C2 9693   1.428   3.293  15.294 -1.1309 -0.2768  0.2527
  655MPD2    C3 9694   1.496   3.195  15.222  0.2099 -0.2280  0.1516
  655MPD2    C4 9695   1.577   3.110  15.291 -0.0283  0.2335  0.0164
  655MPD2    C5 9696   1.591   3.119  15.428  0.9584 -0.3528  0.1146
  655MPD2     H 9697   1.361   3.367  15.252  0.6027  1.0480 -0.1693
  655MPD2    H1 9698   1.629   3.031  15.239 -0.8423 -0.8384  0.8395
  655MPD2    H2 9699   1.531   3.212  15.606  1.2221  1.6084 -0.2011
  655MPD2    H3 9700   1.665   3.055  15.473  1.4640 -0.0595 -0.2874
  655MPD2     N 9701   1.490   3.187  15.083 -0.0865 -0.5271  0.0367
  655MPD2    H5 9702   1.554   3.120  15.041 -0.8570 -0.9258 -0.5016
  655MPD2    N1 9703   1.357   3.396  15.495 -0.2377 -0.1201  0.2476
  655MPD2    H7 9704   1.304   3.458  15.434  1.3725  1.1719  0.1886
  656TMC3    C1 9705   1.264   3.523  15.676 -0.5330 -0.7718 -0.2566
  656TMC3    C2 9706   1.216   3.511  15.809  0.4748  0.1063 -0.2880
  656TMC3    C3 9707   1.134   3.618  15.854 -0.3363 -0.8045 -0.4769
  656TMC3    C4 9708   1.221   3.621  15.591 -0.6754 -0.5493  0.2888
  656TMC3    C5 9709   1.132   3.721  15.639 -0.2852 -0.4023 -0.2789
  656TMC3    C6 9710   1.098   3.726  15.777 -0.5698  0.1575  0.2002
  656TMC3     C 9711   1.337   3.404  15.631  0.1363  0.4272  0.0057
  656TMC3     O 9712   1.376   3.326  15.715 -0.0678 -0.5011 -0.6618
  656TMC3     H 9713   1.248   3.423  15.862 -1.3635  0.1118  0.8158
  656TMC3    H1 9714   1.250   3.630  15.486 -0.8472 -0.7285  0.2262
  656TMC3    H2 9715   1.041   3.806  15.821  1.8935  2.8178 -1.4159
  656TMC3    C7 9716   1.104   3.833  15.558  0.3225 -0.3963  0.8932
  656TMC3    C8 9717   1.049   3.574  15.964 -1.1602  0.1119  0.0245
  656TMC3    O1 9718   1.196   3.873  15.482  0.0266 -0.3620 -0.3291
  656TMC3    O2 9719   1.064   3.458  15.999  0.0596 -0.1264  0.1149
  657TMC3    C1 9720   0.253   2.803  14.791 -0.3308  0.4113  0.0883
  657TMC3    C2 9721   0.274   2.887  14.891 -0.0143  0.2649 -0.4618
  657TMC3    C3 9722   0.263   3.017  14.861 -0.1913 -0.3888 -0.0012
  657TMC3    C4 9723   0.228   2.855  14.665 -0.2387 -0.3007 -0.2257
  657TMC3    C5 9724   0.216   2.988  14.640  0.1162  0.0270 -0.2849
  657TMC3    C6 9725   0.235   3.077  14.740  0.3763 -0.3341  0.3539
  657TMC3     C 9726   0.257   2.660  14.808  0.1163  0.7060 -0.3168
  657TMC3     O 9727   0.160   2.600  14.770  0.0145  0.0342  0.2673
  657TMC3     H 9728   0.291   2.841  14.988  2.6265  1.7232 -0.2474
  657TMC3    H1 9729   0.199   2.787  14.586  0.2862  0.3749 -1.0086
  657TMC3    H2 9730   0.243   3.185  14.730  0.7112 -0.4754 -0.8689
  657TMC3    C7 9731   0.220   3.029  14.500 -0.2744  0.3285 -0.2876
  657TMC3    C8 9732   0.289   3.106  14.975 -0.0766 -0.0049 -0.6790
  657TMC3    O1 9733   0.267   2.947  14.424  0.1793  0.3007  0.2424
  657TMC3    O2 9734   0.268   3.222  14.951 -0.2233  0.3176  0.0358
  658MPD2     C 9735   1.859   3.029  14.588 -0.0363 -0.5572  0.0461
  658MPD2    C1 9736   1.730   2.990  14.552 -0.5824  0.0339 -0.2874
  658MPD2    C2 9737   1.726   2.919  14.435  0.6545  0.1076  0.8650
  658MPD2    C3 9738   1.830   2.880  14.351  0.2855  0.1224  0.3442
  658MPD2    C4 9739   1.954   2.921  14.392 -0.5635  0.3832 -0.0371
  658MPD2    C5 9740   1.964   2.997  14.507 -0.2914 -0.0956  0.1212
  658MPD2     H 9741   1.626   2.894  14.402  1.1917 -3.2980  1.8555
  658MPD2    H1 9742   2.046   2.892  14.342 -0.3668 -0.8534  1.0477
  658MPD2    H2 9743   1.872   3.089  14.677 -2.6182  0.6219 -0.3834
  658MPD2    H3 9744   2.064   3.026  14.537  0.6490 -2.5740 -0.5704
  658MPD2     N 9745   1.807   2.798  14.239  0.5032 -0.0124  0.2515
  658MPD2    H5 9746   1.712   2.769  14.220  1.7800 -3.9470 -0.1548
  658MPD2    N1 9747   1.625   3.026  14.639  0.1172 -0.3523 -0.4058
  658MPD2    H7 9748   1.638   3.103  14.703  0.7690 -0.2218 -0.7028
  659TMC3    C1 9749   1.407   3.046  14.711  0.0072  0.3399  0.0741
  659TMC3    C2 9750   1.457   3.121  14.816 -0.3964  0.5287  0.0631
  659TMC3    C3 9751   1.373   3.210  14.875 -0.1924 -0.0688 -0.3863
  659TMC3    C4 9752   1.279   3.054  14.663  0.3083 -0.3209  0.4009
  659TMC3    C5 9753   1.203   3.153  14.723  0.2890 -0.1296 -0.7023
  659TMC3    C6 9754   1.244   3.225  14.831 -0.0492  0.1781  0.5381
  659TMC3     C 9755   1.499   2.972  14.630 -0.4988 -0.6952 -0.5469
  659TMC3     O 9756   1.451   2.888  14.550  0.3283  0.5129  0.8772
  659TMC3     H 9757   1.559   3.116  14.852 -0.2786 -1.1761 -0.5296
  659TMC3    H1 9758   1.251   2.985  14.585  0.6425 -0.2431  0.2122
  659TMC3    H2 9759   1.187   3.305  14.878  0.5308  0.2673  1.0913
  659TMC3    C7 9760   1.070   3.185  14.672  0.1231 -0.2986 -0.1265
  659TMC3    C8 9761   1.405   3.270  15.000  0.1259  0.5594 -0.1622
  659TMC3    O1 9762   1.007   3.242  14.760 -0.3632 -0.5323  0.4580
  659TMC3    O2 9763   1.341   3.367  15.030  0.1464  0.5365 -0.0730
  660MPD2     C 9764   4.327   1.630  12.821  0.1909 -0.3147  0.2000
  660MPD2    C1 9765   4.193   1.603  12.809 -0.0146 -0.7434  0.4587
  660MPD2    C2 9766   4.125   1.553  12.919  0.2599  0.6911 -0.2522
  660MPD2    C3 9767   4.183   1.519  13.037 -0.6968 -0.7657  0.7195
  660MPD2    C4 9768   4.321   1.542  13.048 -0.2628 -0.3588 -0.1276
  660MPD2    C5 9769   4.385   1.602  12.942 -0.0339  0.1900 -0.4084
  660MPD2     H 9770   4.020   1.530  12.911  0.8496 -1.8212 -0.6750
  660MPD2    H1 9771   4.376   1.511  13.135  2.0362 -0.1136 -1.5067
  660MPD2    H2 9772   4.386   1.666  12.738  0.8788 -0.4981  0.6081
  660MPD2    H3 9773   4.493   1.608  12.954  0.0377 -1.9898  0.1698
  660MPD2     N 9774   4.101   1.469  13.146  0.1518 -0.3319  0.2608
  660MPD2    H5 9775   4.000   1.472  13.141  0.1131 -2.0500  0.0141
  660MPD2    N1 9776   4.139   1.642  12.682 -0.6621 -0.0238 -0.3135
  660MPD2    H7 9777   4.209   1.680  12.619  1.9309 -1.1504  1.9291
  661TMC3    C1 9778   3.986   1.659  12.496  0.0156 -0.4399 -0.1741
  661TMC3    C2 9779   4.094   1.646  12.414  0.3519 -0.2088  0.1588
  661TMC3    C3 9780   4.071   1.690  12.288 -0.7598  0.7401 -0.1235
  661TMC3    C4 9781   3.862   1.698  12.462 -0.3360  0.6668  0.2664
  661TMC3    C5 9782   3.838   1.711  12.327  0.0055  0.5009  0.2501
  661TMC3    C6 9783   3.947   1.723  12.242 -0.2809  0.3350  0.7056
  661TMC3     C 9784   4.009   1.638  12.639 -0.7759  0.1515 -0.4847
  661TMC3     O 9785   3.912   1.616  12.710  0.0785 -0.2152  0.3998
  661TMC3     H 9786   4.199   1.626  12.433  0.5450  0.1028 -0.6198
  661TMC3    H1 9787   3.776   1.695  12.527 -2.2413 -2.1640 -2.3868
  661TMC3    H2 9788   3.924   1.730  12.136 -0.3713 -0.9034  0.6467
  661TMC3    C7 9789   3.714   1.668  12.280  0.4347  0.0634  0.1769
  661TMC3    C8 9790   4.176   1.661  12.187 -0.2287 -0.1901 -0.1778
  661TMC3    O1 9791   3.619   1.721  12.338 -0.4918  0.3958 -0.1545
  661TMC3    O2 9792   4.260   1.576  12.207 -0.0466  0.0536  0.0028
  662MPD2     C 9793   4.338   1.869  17.293 -0.3318  0.3085 -0.3888
  662MPD2    C1 9794   4.365   1.837  17.421  0.0044 -0.4401 -0.0532
  662MPD2    C2 9795   4.294   1.894  17.524  0.7440 -0.1449 -0.8446
  662MPD2    C3 9796   4.187   1.975  17.507  0.5034 -0.4948  0.0933
  662MPD2    C4 9797   4.152   1.993  17.380 -0.6450 -0.6800  0.4660
  662MPD2    C5 9798   4.230   1.943  17.279 -0.1460 -0.1271 -0.5734
  662MPD2     H 9799   4.315   1.861  17.625 -1.3805  1.6459  0.1790
  662MPD2    H1 9800   4.060   2.047  17.358 -1.0702 -1.7589 -0.3797
  662MPD2    H2 9801   4.388   1.845  17.199 -1.3350 -0.2630 -0.7803
  662MPD2    H3 9802   4.221   1.978  17.177 -0.1328 -1.1294 -0.9176
  662MPD2     N 9803   4.100   2.004  17.612 -0.2174 -0.3274 -0.3139
  662MPD2    H5 9804   4.004   2.020  17.583  0.6413  1.7140 -2.0390
  662MPD2    N1 9805   4.458   1.746  17.451 -0.0369  0.1733 -0.3120
  662MPD2    H7 9806   4.479   1.722  17.547 -0.1627 -1.7397 -0.7467
  663TMC3    C1 9807   4.519   1.515  17.430 -0.3739  0.1114  0.2973
  663TMC3    C2 9808   4.483   1.487  17.557  0.1244 -0.5083 -0.3157
  663TMC3    C3 9809   4.520   1.369  17.611 -0.4885 -0.2425  0.4462
  663TMC3    C4 9810   4.593   1.431  17.345  0.0016  0.3226  0.0351
  663TMC3    C5 9811   4.618   1.305  17.393 -0.1969 -0.1856 -0.3269
  663TMC3    C6 9812   4.585   1.283  17.525 -0.2216  0.1544 -0.3729
  663TMC3     C 9813   4.492   1.641  17.368 -0.2938  0.2715  1.0500
  663TMC3     O 9814   4.498   1.633  17.246 -0.4713 -0.6566 -0.3394
  663TMC3     H 9815   4.469   1.572  17.624 -1.4192 -2.3496  1.7164
  663TMC3    H1 9816   4.627   1.456  17.246 -0.9208  1.6873  0.0552
  663TMC3    H2 9817   4.645   1.212  17.580  0.0173  1.1343  0.6146
  663TMC3    C7 9818   4.649   1.194  17.299  0.4075  0.1369 -0.8627
  663TMC3    C8 9819   4.585   1.389   0.057  0.1754  0.2171  0.4908
  663TMC3    O1 9820   4.653   1.224  17.180  0.0544  0.1709 -0.8632
  663TMC3    O2 9821   4.710   1.386   0.067  0.1374  0.1164  0.5107
  664MPD2     C 9822   2.506   0.489  17.453 -0.2956 -0.6252  0.0022
  664MPD2    C1 9823   2.514   0.373  17.531 -0.3516  0.2531  0.0262
  664MPD2    C2 9824   2.433   0.367  17.642  0.7261 -0.3259  0.4900
  664MPD2    C3 9825   2.359   0.476   0.010  1.1665 -0.8114  0.4887
  664MPD2    C4 9826   2.364   0.592  17.614  0.3946  0.1715 -0.6457
  664MPD2    C5 9827   2.429   0.589  17.493  0.0027 -0.4643  0.2136
  664MPD2     H 9828   2.420   0.273   0.015  0.3440  0.5681  1.9701
  664MPD2    H1 9829   2.314   0.681  17.651  0.0427  1.7777 -5.0310
  664MPD2    H2 9830   2.564   0.501  17.362  0.1771  1.5608  0.5967
  664MPD2    H3 9831   2.435   0.681  17.436 -0.4691 -0.6107 -0.0698
  664MPD2     N 9832   2.295   0.465   0.141  0.0648 -0.5060  0.2713
  664MPD2    H5 9833   2.280   0.373   0.182  1.6100 -0.8382  0.1063
  664MPD2    N1 9834   2.596   0.267  17.479  0.5151  0.5504  0.0817
  664MPD2    H7 9835   2.626   0.272  17.383 -0.2420 -2.3810 -0.3235
  665TMC3    C1 9836   2.177   0.545   0.330 -0.1871 -0.1322  0.1716
  665TMC3    C2 9837   2.116   0.423   0.335 -0.4384 -0.9106  0.0756
  665TMC3    C3 9838   2.089   0.376   0.462  0.3584 -0.4249 -0.7621
  665TMC3    C4 9839   2.182   0.632   0.434 -0.2857  0.2799 -0.8934
  665TMC3    C5 9840   2.134   0.589   0.555  0.3372 -0.4220 -0.2858
  665TMC3    C6 9841   2.081   0.456   0.570  0.0730  0.3111 -0.1331
  665TMC3     C 9842   2.252   0.579   0.214  0.0896 -0.1874  0.3965
  665TMC3     O 9843   2.285   0.693   0.197  0.2645 -0.0423  0.7417
  665TMC3     H 9844   2.096   0.368   0.244 -1.2538 -0.0606 -0.2440
  665TMC3    H1 9845   2.226   0.731   0.439  0.8527 -0.3648  1.8691
  665TMC3    H2 9846   2.036   0.418   0.661 -1.5205  0.0367 -1.0319
  665TMC3    C7 9847   2.101   0.688   0.654 -0.0490 -0.6426 -0.6291
  665TMC3    C8 9848   2.004   0.260   0.471 -0.0714  0.1893  0.0238
  665TMC3    O1 9849   2.095   0.806   0.629  0.5073 -0.1349 -0.8625
  665TMC3    O2 9850   1.937   0.258   0.574 -0.1763  0.2568 -0.0524
  666TMC3    C1 9851   1.934   3.815  10.279 -0.0947  0.2937  0.0081
  666TMC3    C2 9852   1.921   3.736  10.167  0.7716 -0.4173 -0.3524
  666TMC3    C3 9853   1.947   3.790  10.049  0.2798 -0.6373 -0.2327
  666TMC3    C4 9854   1.957   3.952  10.270  0.5003 -0.0942 -0.0357
  666TMC3    C5 9855   1.955   4.005  10.146  0.4022 -0.3011 -0.0339
  666TMC3    C6 9856   1.967   3.925  10.032 -0.2645 -0.3731 -0.2599
  666TMC3     C 9857   1.901   3.755  10.403  0.2224 -0.4548 -0.0088
  666TMC3     O 9858   1.920   3.823  10.504  1.0128 -0.2133 -0.4862
  666TMC3     H 9859   1.897   3.631  10.165  1.0988 -0.4928 -0.3537
  666TMC3    H1 9860   1.946   4.006  10.364 -1.2416 -1.6593  0.6673
  666TMC3    H2 9861   1.960   3.963   9.931  0.0016 -1.0428 -0.5287
  666TMC3    C7 9862   1.981   4.149  10.146  1.1338  0.6598  0.3662
  666TMC3    C8 9863   1.982   3.695   9.939 -0.0762  0.1433 -0.6407
  666TMC3    O1 9864   1.928   4.215  10.237 -0.4657  0.1780 -0.3483
  666TMC3    O2 9865   1.938   3.583   9.938 -0.0800 -0.1054  0.0139
  667MPD2     C 9866   4.061   4.538  14.686 -0.1823 -0.1486 -0.2926
  667MPD2    C1 9867   3.932   4.557  14.730 -0.0693 -0.5186  0.0967
  667MPD2    C2 9868   3.836   4.460  14.719 -0.4432  0.2516  0.2039
  667MPD2    C3 9869   3.871   4.341  14.656  0.6265 -0.3541  0.0402
  667MPD2    C4 9870   4.002   4.318  14.619 -0.0238  0.8990 -0.3507
  667MPD2    C5 9871   4.095   4.411  14.638  0.5261  0.5325 -0.0343
  667MPD2     H 9872   3.733   4.467  14.750  0.4093  3.1036  2.3331
  667MPD2    H1 9873   4.030   4.220  14.583 -2.3946 -0.0102  0.3080
  667MPD2    H2 9874   4.139   4.609  14.709  0.5258 -1.8109  2.4849
  667MPD2    H3 9875   4.200   4.402  14.615  0.6355  0.9916  0.2784
  667MPD2     N 9876   3.777   4.238  14.646  0.2716 -0.7421  0.1021
  667MPD2    H5 9877   3.695   4.255  14.703  0.8275  1.2696  0.3129
  667MPD2    N1 9878   3.885   4.670  14.796  0.3646 -0.1173 -0.6384
  667MPD2    H7 9879   3.807   4.659  14.860 -0.7355  0.1385 -1.9115
  668TMC3    C1 9880   3.894   0.168  14.893  0.6899  0.6301  0.4302
  668TMC3    C2 9881   3.957   0.287  14.907  0.5903  0.5171  0.5109
  668TMC3    C3 9882   3.910   0.365  15.013  0.1416 -0.3284 -0.4381
  668TMC3    C4 9883   3.777   0.144  14.957 -0.5532  0.4408 -0.6803
  668TMC3    C5 9884   3.715   0.240  15.032 -0.0221 -0.3387 -0.7854
  668TMC3    C6 9885   3.793   0.343  15.074  0.0492  0.5203  0.0190
  668TMC3     C 9886   3.953   0.069  14.808 -0.6829  1.0455 -0.5835
  668TMC3     O 9887   4.057   0.099  14.754  0.4050  0.0965  0.0210
  668TMC3     H 9888   4.049   0.304  14.853  0.4358  2.5216  0.8712
  668TMC3    H1 9889   3.715   0.057  14.938 -0.1087 -0.0143 -0.0667
  668TMC3    H2 9890   3.755   0.408  15.152  0.3192 -1.0518  1.4876
  668TMC3    C7 9891   3.585   0.220  15.095 -0.6144  0.5354 -0.3843
  668TMC3    C8 9892   3.990   0.484  15.064 -0.7725  0.1435  0.0201
  668TMC3    O1 9893   3.573   0.291  15.193  0.0414  0.1489 -0.2657
  668TMC3    O2 9894   3.953   0.532  15.170 -0.6203  0.2891  0.1553
  669TMC3    C1 9895   1.667   4.319  14.362 -0.0831 -0.0501 -0.8907
  669TMC3    C2 9896   1.546   4.317  14.294 -0.3935  0.0747 -0.5112
  669TMC3    C3 9897   1.552   4.388  14.175  0.2049 -0.0452 -0.3138
  669TMC3    C4 9898   1.784   4.386  14.332  0.3108  0.8237 -0.6194
  669TMC3    C5 9899   1.785   4.447  14.208 -0.3827 -0.0933 -0.1024
  669TMC3    C6 9900   1.665   4.455  14.131 -0.3458  0.6111 -0.0587
  669TMC3     C 9901   1.671   4.223  14.474 -0.9010  0.8486  0.4799
  669TMC3     O 9902   1.600   4.120  14.466  0.3728 -0.0812  0.3734
  669TMC3     H 9903   1.458   4.266  14.332 -1.1051  1.7320  0.0585
  669TMC3    H1 9904   1.875   4.384  14.391  0.1825 -0.7924 -0.4745
  669TMC3    H2 9905   1.665   4.512  14.039 -0.1527 -3.4281 -2.5486
  669TMC3    C7 9906   1.902   4.532  14.170  0.4065  0.2571 -0.2916
  669TMC3    C8 9907   1.437   4.382  14.086  0.3224 -0.1674  0.1628
  669TMC3    O1 9908   1.985   4.549  14.257  0.5668  0.1176  0.3506
  669TMC3    O2 9909   1.388   4.270  14.073 -0.0539 -0.0825 -0.3823
  670MPD2     C 9910   4.429   2.341  12.987  0.0261  0.1802 -0.2435
  670MPD2    C1 9911   4.544   2.390  13.031  0.4132 -0.4903 -0.9270
  670MPD2    C2 9912   4.565   2.385  13.168 -0.0999 -0.2341  0.6633
  670MPD2    C3 9913   4.482   2.331  13.265 -0.3462  0.3588  0.1121
  670MPD2    C4 9914   4.365   2.276  13.215 -0.6177  0.3053 -0.2957
  670MPD2    C5 9915   4.341   2.283  13.079 -0.2582  0.2882  0.0478
  670MPD2     H 9916   4.658   2.435  13.192  0.1148 -0.4731  0.3277
  670MPD2    H1 9917   4.281   2.248  13.278  1.4402  1.5112  2.9616
  670MPD2    H2 9918   4.392   2.349  12.886 -0.2492  0.5815 -0.1083
  670MPD2    H3 9919   4.248   2.240  13.042  0.0815 -0.0886 -0.3789
  670MPD2     N 9920   4.505   2.340  13.402  0.1823 -0.4313  0.5427
  670MPD2    H5 9921   4.596   2.374  13.431 -0.2078  0.1038  1.1547
  670MPD2    N1 9922   4.640   2.456  12.946  0.6309  0.3406  0.2038
  670MPD2    H7 9923   4.717   2.498  12.996 -0.4821  1.0105  1.3669
  671TMC3    C1 9924   4.501   2.270  13.626  0.3170 -0.2701  0.1147
  671TMC3    C2 9925   4.635   2.271  13.629  0.5829  0.8912 -0.0319
  671TMC3    C3 9926   4.705   2.263  13.742 -0.6764 -0.9740 -0.1309
  671TMC3    C4 9927   4.437   2.283  13.745  0.2974  0.2873  0.0015
  671TMC3    C5 9928   4.507   2.281  13.864 -0.7120 -0.6805  0.7252
  671TMC3    C6 9929   4.642   2.269  13.863 -0.0718 -0.0132  0.7431
  671TMC3     C 9930   4.428   2.297  13.503 -0.4114  0.9371 -0.2711
  671TMC3     O 9931   4.313   2.253  13.502  0.1846  0.0217  0.1439
  671TMC3     H 9932   4.692   2.245  13.541  0.2848  0.0419  0.0282
  671TMC3    H1 9933   4.329   2.296  13.745  0.2230 -0.3694  0.9117
  671TMC3    H2 9934   4.694   2.251  13.957  2.6984  0.6690 -0.6591
  671TMC3    C7 9935   4.423   2.218  13.964  0.4029 -0.9448  0.0787
  671TMC3    C8 9936   0.103   2.173  13.730 -0.0384 -0.4445  0.0379
  671TMC3    O1 9937   4.329   2.145  13.928 -0.0630  0.6282  0.3024
  671TMC3    O2 9938   0.124   2.104  13.633 -0.1026 -0.0907  0.7091
  672MPD2     C 9939   0.740   3.505   0.927 -0.3168 -0.8934 -0.4943
  672MPD2    C1 9940   0.848   3.418   0.905 -0.3254  0.8858  0.0580
  672MPD2    C2 9941   0.967   3.467   0.864 -0.3949  0.1970  0.1430
  672MPD2    C3 9942   0.990   3.608   0.849 -0.0041  0.8970  0.3848
  672MPD2    C4 9943   0.883   3.696   0.869  0.5985  0.0938 -0.5390
  672MPD2    C5 9944   0.760   3.639   0.897 -0.1657  0.5316  0.0125
  672MPD2     H 9945   1.043   3.394   0.841  2.0730  2.1925  2.0765
  672MPD2    H1 9946   0.883   3.802   0.850  0.4593  0.3141  0.6885
  672MPD2    H2 9947   0.637   3.483   0.952  0.1085  0.1420  2.1913
  672MPD2    H3 9948   0.679   3.707   0.919 -0.2054  0.5377 -0.1500
  672MPD2     N 9949   1.113   3.670   0.818 -0.0887 -0.3315 -0.5813
  672MPD2    H5 9950   1.114   3.767   0.788  0.9834  0.2830  1.4158
  672MPD2    N1 9951   0.833   3.277   0.920  0.2154  0.6018 -0.4344
  672MPD2    H7 9952   0.903   3.217   0.879 -0.1478  1.1599 -1.8795
  673TMC3    C1 9953   0.704   3.092   0.942 -0.1827  0.9630 -0.0086
  673TMC3    C2 9954   0.764   3.003   1.021  1.0613  1.2173 -1.4496
  673TMC3    C3 9955   0.793   2.884   0.959  0.2249  0.4545  0.7282
  673TMC3    C4 9956   0.678   3.079   0.812  0.7063 -0.6421 -0.0199
  673TMC3    C5 9957   0.717   2.959   0.751 -0.0521 -0.7212  0.5549
  673TMC3    C6 9958   0.774   2.866   0.829  0.6588  0.1262 -0.0198
  673TMC3     C 9959   0.721   3.224   0.982 -0.6785 -0.3379 -0.3592
  673TMC3     O 9960   0.627   3.275   1.042 -0.0453 -0.3664  0.2816
  673TMC3     H 9961   0.779   3.022   1.127 -0.7167  1.0984 -1.1721
  673TMC3    H1 9962   0.620   3.153   0.759  0.6094  0.6706  1.9178
  673TMC3    H2 9963   0.807   2.771   0.790 -0.5382 -0.5476  0.5901
  673TMC3    C7 9964   0.701   2.935   0.608  0.1677  0.0640 -0.3989
  673TMC3    C8 9965   0.873   2.785   1.023  0.2324 -0.2141  0.3519
  673TMC3    O1 9966   0.728   2.826   0.561  0.0359 -0.1363 -0.0842
  673TMC3    O2 9967   0.825   2.671   1.020 -0.0527  0.2100  0.4512
  674MPD2     C 9968   0.393   2.173   0.662  0.5557 -0.2059 -0.0093
  674MPD2    C1 9969   0.265   2.120   0.640  0.0183  0.6618  0.2647
  674MPD2    C2 9970   0.156   2.152   0.726 -0.6386 -0.1447 -0.0421
  674MPD2    C3 9971   0.180   2.238   0.831  0.3632 -0.2339  0.0294
  674MPD2    C4 9972   0.304   2.298   0.852 -0.1724 -0.1432 -0.3743
  674MPD2    C5 9973   0.409   2.263   0.773 -0.6631  0.1723 -0.2569
  674MPD2     H 9974   0.061   2.110   0.694 -0.7939 -0.2700  0.5734
  674MPD2    H1 9975   0.325   2.368   0.933 -2.5865  1.1065 -0.8475
  674MPD2    H2 9976   0.484   2.160   0.605  1.1234  3.4359  0.0468
  674MPD2    H3 9977   0.506   2.309   0.788  0.4362 -2.3660  0.5688
  674MPD2     N 9978   0.061   2.278   0.892  0.4915  0.4325 -0.2115
  674MPD2    H5 9979   4.693   2.244   0.854  0.0939 -0.6304  1.6806
  674MPD2    N1 9980   0.247   2.044   0.525  0.1969  0.2079 -0.0136
  674MPD2    H7 9981   0.322   2.053   0.457 -0.4849 -1.1899 -0.9562
  675TMC3    C1 9982   0.127   1.936   0.360  0.2879 -0.1007 -0.3035
  675TMC3    C2 9983   0.032   1.844   0.325  0.1943  0.4516 -0.7284
  675TMC3    C3 9984   0.001   1.824   0.194 -0.4418  0.6908  0.1018
  675TMC3    C4 9985   0.197   2.011   0.269 -0.5990  0.0320  0.1443
  675TMC3    C5 9986   0.158   1.989   0.137  0.2467 -0.4201  0.0686
  675TMC3    C6 9987   0.065   1.898   0.096 -0.1646  0.1501 -0.0749
  675TMC3     C 9988   0.136   1.972   0.498 -0.2371 -0.5484  0.0139
  675TMC3     O 9989   0.039   1.935   0.566 -0.1841 -0.0149 -0.6038
  675TMC3     H 9990   4.718   1.775   0.401  1.0852  1.1605  0.2989
  675TMC3    H1 9991   0.271   2.086   0.295 -1.4932  0.0066  2.7639
  675TMC3    H2 9992   0.025   1.894  17.675 -2.4353  1.2446  0.7589
  675TMC3    C7 9993   0.226   2.059   0.029 -0.0164 -0.1827  0.1213
  675TMC3    C8 9994   4.586   1.786   0.156 -0.2127 -0.2309 -0.0925
  675TMC3    O1 9995   0.203   2.020  17.594  0.1997  0.0858  0.3985
  675TMC3    O2 9996   4.551   1.779   0.038  0.0327 -0.0993  0.5175
  676MPD2     C 9997   2.943   0.542  10.869  0.0115 -0.9755  0.1536
  676MPD2    C1 9998   2.821   0.533  10.933 -0.3645 -0.7678 -0.3140
  676MPD2    C2 9999   2.793   0.412  10.994 -0.5174 -0.1252 -0.1072
  676MPD2    C310000   2.871   0.300  10.989 -0.3769 -0.3715 -0.1018
  676MPD2    C410001   2.984   0.303  10.905  0.4180  0.6577 -0.1969
  676MPD2    C510002   3.008   0.424  10.849  0.3576  0.1857 -0.4452
  676MPD2     H10003   2.702   0.413  11.053  0.4093  2.4385  1.3069
  676MPD2    H110004   3.033   0.213  10.870 -0.8131  0.3937 -1.2634
  676MPD2    H210005   2.987   0.631  10.825 -1.4107 -0.8757 -1.0848
  676MPD2    H310006   3.089   0.427  10.777  0.3557 -0.0393 -0.4568
  676MPD2     N10007   2.841   0.183  11.057  0.5519 -1.0434 -1.0253
  676MPD2    H510008   2.921   0.120  11.062  0.3327 -1.2068  0.6471
  676MPD2    N110009   2.747   0.642  10.963 -0.0159 -0.2088 -0.3230
  676MPD2    H710010   2.659   0.625  11.011  0.9479 -2.2649  0.7340
  677TMC3    C110011   2.689   0.851  11.015  0.6581  0.2113  0.0717
  677TMC3    C210012   2.565   0.790  11.015  0.3646 -0.5237 -0.4973
  677TMC3    C310013   2.485   0.806  11.129 -0.0084 -0.0696 -0.2632
  677TMC3    C410014   2.737   0.924  11.115  0.4083 -0.2768  0.3131
  677TMC3    C510015   2.661   0.937  11.224  0.3306  0.4911  0.2320
  677TMC3    C610016   2.525   0.895  11.227  0.0797  0.6028  0.1221
  677TMC3     C10017   2.782   0.773  10.939  0.0071  0.4642  0.4737
  677TMC3     O10018   2.890   0.819  10.926 -0.1225  0.0361  0.6611
  677TMC3     H10019   2.527   0.730  10.933 -0.2482  0.8017 -1.1812
  677TMC3    H110020   2.841   0.954  11.106  0.6613 -1.1619  0.3336
  677TMC3    H210021   2.476   0.899  11.323  1.8921 -1.4235  1.1468
  677TMC3    C710022   2.726   0.917  11.351 -0.0805 -0.1903  0.5319
  677TMC3    C810023   2.433   0.676  11.179 -0.1108  0.0717 -0.1006
  677TMC3    O110024   2.663   0.868  11.442 -0.2421 -0.1265  0.1067
  677TMC3    O210025   2.482   0.584  11.117 -0.1183 -0.1636 -0.0839
  678MPD2     C10026   3.355   0.772   1.791  0.4980  0.2161  0.2442
  678MPD2    C110027   3.374   0.718   1.666 -0.4581  0.0537 -0.2100
  678MPD2    C210028   3.267   0.685   1.586  0.4861  0.2192  0.0332
  678MPD2    C310029   3.138   0.705   1.634 -0.3732 -0.2520  0.2395
  678MPD2    C410030   3.117   0.754   1.758 -0.3184 -0.2268 -0.1476
  678MPD2    C510031   3.229   0.788   1.833  0.1207  0.1832  0.1101
  678MPD2     H10032   3.285   0.656   1.483  2.1244  0.0983  0.3500
  678MPD2    H110033   3.022   0.778   1.803 -0.5547 -2.1410  0.3708
  678MPD2    H210034   3.440   0.805   1.850 -0.1822  1.1892  0.6694
  678MPD2    H310035   3.199   0.832   1.927 -1.3448 -1.2680  0.3142
  678MPD2     N10036   3.030   0.678   1.545  0.2736  0.3428  0.2438
  678MPD2    H510037   3.051   0.638   1.455 -3.9451 -0.4423 -0.4041
  678MPD2    N110038   3.503   0.709   1.604 -0.2825  0.0118 -0.4979
  678MPD2    H710039   3.504   0.658   1.516  2.4672 -0.2326 -0.3431
  679TMC3    C110040   3.901   0.583   1.468  0.3768  0.4213  0.0233
  679TMC3    C210041   3.781   0.595   1.534  0.2092 -0.7993 -0.4872
  679TMC3    C310042   3.731   0.724   1.563 -0.5868 -0.0722  0.3940
  679TMC3    C410043   3.971   0.700   1.433  0.1242 -0.2776  0.0541
  679TMC3    C510044   3.909   0.821   1.460  0.2813  0.7774  0.1713
  679TMC3    C610045   3.799   0.834   1.532  0.4833  0.2153 -0.1277
  679TMC3     C10046   3.961   0.452   1.424  0.6018  0.3953 -0.2756
  679TMC3     O10047   4.051   0.469   1.343 -0.2325 -0.4831  0.0505
  679TMC3     H10048   3.729   0.505   1.567  0.6601 -1.0584 -0.4866
  679TMC3    H110049   4.065   0.692   1.380 -0.5402  0.0734 -1.1728
  679TMC3    H210050   3.738   0.924   1.530 -2.1867 -1.5135  2.2534
  679TMC3    C710051   3.951   0.941   1.397  0.5548  0.0722 -0.6624
  679TMC3    C810052   3.627   0.752   1.654 -0.4082 -0.6575  0.3945
  679TMC3    O110053   3.858   1.020   1.363  0.5446  0.0520 -0.3542
  679TMC3    O210054   3.649   0.847   1.730 -0.0762 -0.4852 -0.2012
  680MPD2     C10055   0.656   3.704  13.490  0.1038  0.5734 -0.0897
  680MPD2    C110056   0.526   3.716  13.513 -0.1208 -0.4485  0.0975
  680MPD2    C210057   0.487   3.818  13.601  0.7364  0.0184  0.1719
  680MPD2    C310058   0.577   3.911  13.659  0.3426 -0.1755  0.2451
  680MPD2    C410059   0.708   3.894  13.632  0.3582 -0.0183  0.4453
  680MPD2    C510060   0.749   3.784  13.555 -0.0605 -0.3883 -0.3914
  680MPD2     H10061   0.381   3.840  13.606  0.9980  1.3848 -0.3575
  680MPD2    H110062   0.793   3.949  13.670  2.8532 -3.0347 -0.7423
  680MPD2    H210063   0.684   3.617  13.431  0.9612  1.3060 -0.7691
  680MPD2    H310064   0.855   3.767  13.540  0.0143  0.0968 -0.4042
  680MPD2     N10065   0.539   4.023  13.740  0.6339 -1.0262  0.3852
  680MPD2    H510066   0.612   4.084  13.775  1.1421 -1.6955  0.4846
  680MPD2    N110067   0.439   3.632  13.441 -0.1551 -0.1684  0.3562
  680MPD2    H710068   0.486   3.562  13.385 -0.9450  1.7140 -2.6565
  681TMC3    C110069   0.229   3.531  13.372  0.0791  0.8130  1.1692
  681TMC3    C210070   0.093   3.512  13.412  0.5959  0.7743  0.1188
  681TMC3    C310071   4.718   3.504  13.314 -0.0256  0.2730  0.2609
  681TMC3    C410072   0.266   3.539  13.244  0.0833  0.0371  0.4919
  681TMC3    C510073   0.166   3.528  13.146  0.2315 -0.7338  0.5292
  681TMC3    C610074   0.030   3.512  13.183 -0.5897  0.8018  0.9168
  681TMC3     C10075   0.302   3.627  13.455 -0.0124  0.6642  0.6291
  681TMC3     O10076   0.230   3.687  13.532  0.0301 -0.5746  0.5166
  681TMC3     H10077   0.079   3.496  13.518 -0.8169  1.4705  0.0363
  681TMC3    H110078   0.371   3.555  13.220  0.1094  0.3203  0.7903
  681TMC3    H210079   4.669   3.507  13.110  2.4713 -2.3991 -2.1995
  681TMC3    C710080   0.190   3.601  13.026 -0.2447 -0.4091 -0.0192
  681TMC3    C810081   4.584   3.551  13.348 -0.1351 -0.2428 -0.0823
  681TMC3    O110082   0.303   3.604  12.980 -0.1122 -0.1583 -0.1085
  681TMC3    O210083   4.498   3.533  13.264  0.4687 -0.0679 -0.0417
  682MPD2     C10084   1.932   0.668  10.585  0.4654 -0.2394  0.3166
  682MPD2    C110085   1.816   0.585  10.592 -0.9105  0.2000 -0.0900
  682MPD2    C210086   1.733   0.619  10.696 -0.5010 -0.2827 -0.3117
  682MPD2    C310087   1.754   0.724  10.785 -0.0772 -1.2799 -0.4287
  682MPD2    C410088   1.867   0.795  10.774  0.2982 -0.5377 -0.1724
  682MPD2    C510089   1.954   0.770  10.673 -0.2632 -0.5438 -0.1635
  682MPD2     H10090   1.638   0.567  10.696  0.4348 -1.9933  1.3299
  682MPD2    H110091   1.891   0.865  10.853 -1.0792  0.8757 -1.0279
  682MPD2    H210092   2.003   0.650  10.506 -0.5341 -1.3227 -0.3262
  682MPD2    H310093   2.051   0.818  10.672 -0.2268 -0.6019  0.3619
  682MPD2     N10094   1.682   0.743  10.908  0.4294 -0.1045 -0.0469
  682MPD2    H510095   1.721   0.795  10.986 -0.4579 -1.2233  1.1385
  682MPD2    N110096   1.784   0.481  10.496 -0.1760  0.7854  0.7054
  682MPD2    H710097   1.697   0.429  10.509 -0.4835  0.7780 -1.3531
  683TMC3    C110098   1.451   0.891  11.233  0.4225 -0.1478  1.0402
  683TMC3    C210099   1.366   0.800  11.284  0.2749 -0.4011  0.5545
  683TMC3    C310100   1.351   0.680  11.225 -0.1905 -0.5752 -0.4037
  683TMC3    C410101   1.534   0.857  11.130  0.0032 -0.5481 -0.2430
  683TMC3    C510102   1.512   0.735  11.071  0.2190 -0.1773  0.1869
  683TMC3    C610103   1.418   0.647  11.114 -0.1858  0.5676 -0.0649
  683TMC3     C10104   1.506   0.971  11.337 -0.2065  0.5159 -0.4626
  683TMC3     O10105   1.431   1.010  11.424 -0.2723 -0.1921 -0.3340
  683TMC3     H10106   1.311   0.814  11.376  0.1082  1.6345  0.1320
  683TMC3    H110107   1.597   0.935  11.088 -2.2439  0.7513 -1.1758
  683TMC3    H210108   1.415   0.546  11.074  0.3425  0.5755 -0.1226
  683TMC3    C710109   1.564   0.690  10.942  0.3529 -0.1611  0.3408
  683TMC3    C810110   1.293   0.583  11.315 -0.3203  0.4500  0.5076
  683TMC3    O110111   1.494   0.608  10.874  0.0786  0.2958  0.0524
  683TMC3    O210112   1.215   0.616  11.401 -0.0613 -1.3444 -0.0322
  684MPD2     C10113   4.085   0.735  16.209 -0.0169 -0.2758  0.2086
  684MPD2    C110114   4.154   0.766  16.091 -0.6014 -0.5263 -0.1637
  684MPD2    C210115   4.229   0.881  16.093 -0.6239 -0.1409 -0.4304
  684MPD2    C310116   4.221   0.967  16.197 -0.8041  1.2094 -0.5667
  684MPD2    C410117   4.146   0.938  16.309 -0.2202 -0.5872 -0.2883
  684MPD2    C510118   4.078   0.820  16.317 -0.6543 -0.0607  0.7728
  684MPD2     H10119   4.290   0.901  16.005  1.6375  0.1057  1.1918
  684MPD2    H110120   4.125   1.011  16.386  1.2730  0.3328 -0.7476
  684MPD2    H210121   4.044   0.637  16.231  1.1247 -0.8073 -0.0559
  684MPD2    H310122   4.029   0.787  16.408 -1.5246 -0.1856  0.2626
  684MPD2     N10123   4.288   1.093  16.197  0.3089  0.4850  0.4435
  684MPD2    H510124   4.282   1.148  16.282  1.4705  1.8071 -0.3262
  684MPD2    N110125   4.173   0.680  15.985 -0.0345 -0.3184 -0.6667
  684MPD2    H710126   4.240   0.719  15.920 -0.4038 -1.5975 -1.7894
  685TMC3    C110127   4.132   0.497  15.841 -1.0217  0.3776  0.4678
  685TMC3    C210128   4.035   0.440  15.763 -1.3592  0.8399  0.2475
  685TMC3    C310129   4.074   0.375  15.650 -0.3314  0.4583 -0.0272
  685TMC3    C410130   4.264   0.502  15.806 -0.1936  1.1474  0.0085
  685TMC3    C510131   4.300   0.435  15.689 -0.1660 -0.3465 -0.2953
  685TMC3    C610132   4.207   0.368  15.611  0.8035  0.4727 -0.2793
  685TMC3     C10133   4.089   0.570  15.958  0.1509 -0.1435  1.1487
  685TMC3     O10134   3.986   0.534  16.015 -0.2984  0.1466 -0.5772
  685TMC3     H10135   3.928   0.443  15.783 -1.1472  2.8377  1.1656
  685TMC3    H110136   4.343   0.537  15.871 -0.8896  0.2847  1.3219
  685TMC3    H210137   4.238   0.312  15.523  0.0151  2.5620 -1.8740
  685TMC3    C710138   4.437   0.398  15.661  0.0390  0.5162  0.0051
  685TMC3    C810139   3.983   0.293  15.581  0.5253 -0.2014  0.0006
  685TMC3    O110140   4.456   0.360  15.545  0.7348 -0.1999  1.1769
  685TMC3    O210141   3.995   0.269  15.463 -0.5443 -0.2915  0.7863
  686MPD2     C10142   1.615   0.092  15.566 -0.2421 -0.0617 -0.6088
  686MPD2    C110143   1.542   0.016  15.654 -0.8478 -0.3052  1.1103
  686MPD2    C210144   1.576   4.608  15.695  0.1185 -0.5042 -0.0063
  686MPD2    C310145   1.693   4.554  15.637 -0.5139  0.6331 -0.6385
  686MPD2    C410146   1.764   4.626  15.537 -0.1274  0.1493  0.4805
  686MPD2    C510147   1.719   0.036  15.506  0.9860  0.0231  0.0681
  686MPD2     H10148   1.517   4.548  15.763 -1.1433 -0.0034 -0.6726
  686MPD2    H110149   1.838   4.569  15.483  0.4179  1.2163  0.1133
  686MPD2    H210150   1.579   0.190  15.537  0.6368  0.5599  0.4197
  686MPD2    H310151   1.768   0.091  15.426 -0.4726  0.3833 -0.5760
  686MPD2     N10152   1.724   4.420  15.671 -0.0829 -0.1990 -0.2283
  686MPD2    H510153   1.665   4.384  15.746 -0.0227  2.2805  0.9934
  686MPD2    N110154   1.425   0.088  15.695  0.0285  0.2875  0.3151
  686MPD2    H710155   1.407   0.181  15.658  4.2981  0.5402 -1.0597
  687TMC3    C110156   1.725   4.196  15.629  0.0657 -0.0160  1.3213
  687TMC3    C210157   1.622   4.169  15.547  0.2931 -0.4594  0.3988
  687TMC3    C310158   1.510   4.132  15.616 -0.7487  0.5962 -0.5487
  687TMC3    C410159   1.726   4.186  15.770 -0.5049 -0.3542  0.3191
  687TMC3    C510160   1.614   4.143  15.822 -0.1900  0.4162  0.1564
  687TMC3    C610161   1.514   4.102  15.749 -0.0960  0.0505  0.5139
  687TMC3     C10162   1.780   4.326  15.595  0.5218  0.0614 -0.2851
  687TMC3     O10163   1.845   4.335  15.492 -0.1613 -0.4522 -0.2187
  687TMC3     H10164   1.622   4.199  15.443  1.6287  2.0141  1.0961
  687TMC3    H110165   1.806   4.237  15.823 -0.4222  1.2355 -1.3300
  687TMC3    H210166   1.427   4.066  15.803 -2.3188  1.9246 -1.8094
  687TMC3    C710167   1.575   4.228  15.931  0.5565 -0.4409  0.0203
  687TMC3    C810168   1.381   4.185  15.580  0.0374  0.2433 -0.2110
  687TMC3    O110169   1.559   4.345  15.902  0.2306 -0.2603  0.6464
  687TMC3    O210170   1.281   4.115  15.606 -0.0021  0.3218 -0.3338
  688MPD2     C10171   0.240   3.996  17.005 -0.7659 -0.5117 -0.8779
  688MPD2    C110172   0.244   3.858  17.018  0.1187 -0.6874 -0.4341
  688MPD2    C210173   0.324   3.780  16.941 -0.4986 -0.3846 -0.9761
  688MPD2    C310174   0.408   3.843  16.846 -1.4124  0.6607 -0.5528
  688MPD2    C410175   0.394   3.976  16.832  0.5248 -0.2179  0.3081
  688MPD2    C510176   0.321   4.052  16.911  0.0345 -0.3036 -0.2166
  688MPD2     H10177   0.316   3.673  16.960  0.2216 -0.4051 -0.7812
  688MPD2    H110178   0.452   4.042  16.768 -2.3353  4.3725  2.4180
  688MPD2    H210179   0.191   4.063  17.075  3.3360  1.2444  0.3192
  688MPD2    H310180   0.317   4.160  16.902  1.1599 -0.2355  0.1161
  688MPD2     N10181   0.500   3.776  16.757  0.0534 -0.8644 -0.2342
  688MPD2    H510182   0.535   3.825  16.675 -1.2456  2.2365  1.0737
  688MPD2    N110183   0.181   3.802  17.130 -0.9353  0.4328  0.7209
  688MPD2    H710184   0.158   3.875  17.197 -0.4762  0.0017  1.3500
  689TMC3    C110185   0.216   3.645  17.303  0.2429  0.4813 -0.1249
  689TMC3    C210186   0.302   3.739  17.355  0.5976 -0.1000 -0.2325
  689TMC3    C310187   0.410   3.693  17.426  0.5642  0.1198  0.1089
  689TMC3    C410188   0.217   3.515  17.343  0.2606  0.5901 -0.7430
  689TMC3    C510189   0.329   3.480  17.421  0.2639 -1.2613 -0.8476
  689TMC3    C610190   0.417   3.570  17.470 -0.7880  0.0274 -0.3235
  689TMC3     C10191   0.170   3.668  17.164 -0.1151  0.0137 -0.0628
  689TMC3     O10192   0.169   3.572  17.087 -0.5150  0.4827  0.4135
  689TMC3     H10193   0.305   3.844  17.327 -1.4860 -0.4292 -1.6821
  689TMC3    H110194   0.144   3.452  17.294  0.0886  0.2314 -0.0181
  689TMC3    H210195   0.505   3.522  17.513 -1.5426 -2.2011 -1.2740
  689TMC3    C710196   0.340   3.345  17.481  0.5636  0.6060  0.6706
  689TMC3    C810197   0.531   3.763  17.412  0.8134 -0.0664  0.3798
  689TMC3    O110198   0.418   3.327  17.572  0.0485 -0.1312  0.3477
  689TMC3    O210199   0.583   3.786  17.522  0.3596 -0.5158 -0.3816
  690MPD2     C10200   2.450   1.096  15.168 -0.4827 -0.0011 -0.1295
  690MPD2    C110201   2.539   1.070  15.271 -0.5253  0.0719 -0.4107
  690MPD2    C210202   2.658   1.127  15.276 -0.6282  0.0342 -0.0056
  690MPD2    C310203   2.705   1.196  15.171 -0.5411 -0.0194 -0.0065
  690MPD2    C410204   2.628   1.220  15.058 -0.5157  0.9008  0.4541
  690MPD2    C510205   2.501   1.169  15.063 -0.3010 -0.7055  0.5265
  690MPD2     H10206   2.724   1.109  15.360  0.4198 -1.1909 -1.0817
  690MPD2    H110207   2.670   1.275  14.975  0.8275  0.2186  0.6924
  690MPD2    H210208   2.350   1.055  15.162  0.8270 -3.2678  0.6248
  690MPD2    H310209   2.434   1.213  14.989  0.4436  1.4166  1.1146
  690MPD2     N10210   2.837   1.245  15.178  0.3139 -0.1239  0.4485
  690MPD2    H510211   2.884   1.222  15.264 -1.1704 -1.6832  0.8418
  690MPD2    N110212   2.513   0.971  15.364 -0.5784 -0.4178  0.1369
  690MPD2    H710213   2.583   0.932  15.427 -0.0960  0.5668  0.2168
  691TMC3    C110214   2.382   0.813  15.481 -0.6148 -0.1266 -0.4888
  691TMC3    C210215   2.266   0.791  15.551  0.2155  0.2745  0.1978
  691TMC3    C310216   2.253   0.673  15.618  0.1703 -0.3251  0.0097
  691TMC3    C410217   2.474   0.717  15.472 -0.5236 -0.5095 -0.2471
  691TMC3    C510218   2.460   0.599  15.545  0.4548 -0.9565 -0.3476
  691TMC3    C610219   2.345   0.577  15.616  0.6436  0.3229 -0.2719
  691TMC3     C10220   2.389   0.919  15.386  0.3967  0.7331 -0.3211
  691TMC3     O10221   2.283   0.949  15.335  0.0160 -0.1557  0.1786
  691TMC3     H10222   2.191   0.869  15.548 -0.7577 -0.6126  1.1721
  691TMC3    H110223   2.557   0.723  15.402  1.6273 -0.0723  2.3108
  691TMC3    H210224   2.332   0.491  15.681 -0.4836 -0.0544 -0.9919
  691TMC3    C710225   2.551   0.490  15.535  0.0274  0.0217 -0.0199
  691TMC3    C810226   2.129   0.649  15.687  0.0967  1.0274 -0.1181
  691TMC3    O110227   2.669   0.511  15.503  0.1532  0.2003  0.2488
  691TMC3    O210228   2.092   0.534  15.692 -0.6246 -0.2250 -0.0102
  692TMC3    C110229   4.185   2.305  15.462  0.1154  0.4748  0.3353
  692TMC3    C210230   4.297   2.375  15.494 -0.3745 -0.2904 -0.2249
  692TMC3    C310231   4.388   2.316  15.566 -0.6727  0.0818 -0.0827
  692TMC3    C410232   4.180   2.169  15.491 -0.4875 -1.1096  0.4436
  692TMC3    C510233   4.292   2.108  15.527  0.3179  0.7662  0.0296
  692TMC3    C610234   4.406   2.179  15.552  0.7466  0.5644 -0.5115
  692TMC3     C10235   4.065   2.378  15.479  0.4509  0.6560 -0.3832
  692TMC3     O10236   4.063   2.482  15.416  0.1943  0.2415  0.3265
  692TMC3     H10237   4.280   2.482  15.490  0.6973 -0.1093  0.1547
  692TMC3    H110238   4.088   2.112  15.485 -1.6830  0.9669 -0.7582
  692TMC3    H210239   4.484   2.137  15.614 -1.0994 -2.0451  0.0432
  692TMC3    C710240   4.286   1.963  15.515 -0.2041 -0.1305  0.6201
  692TMC3    C810241   4.362   2.326  15.712  1.1130  0.9972  0.8429
  692TMC3    O110242   4.190   1.905  15.464 -0.3983  0.4576  0.4107
  692TMC3    O210243   4.389   2.226  15.784 -0.4863  0.3380  0.1256
  693MPD2     C10244   3.873   4.156  10.561  0.2440  0.9071 -0.1945
  693MPD2    C110245   3.801   4.038  10.542  0.1349 -0.3758 -0.1928
  693MPD2    C210246   3.853   3.940  10.457  0.1728 -0.1662 -0.0024
  693MPD2    C310247   3.987   3.956  10.406  0.4209 -0.2553 -0.1447
  693MPD2    C410248   4.059   4.066  10.441  0.0644  0.0523  0.3523
  693MPD2    C510249   4.001   4.162  10.519  0.0454  0.8506 -0.0314
  693MPD2     H10250   3.798   3.848  10.438  0.7301 -0.7575  1.1836
  693MPD2    H110251   4.164   4.058  10.415 -0.4533 -1.4401 -1.2493
  693MPD2    H210252   3.839   4.237  10.624 -5.8718 -0.5458 -1.6778
  693MPD2    H310253   4.051   4.257  10.531 -0.1673  1.3858 -3.2352
  693MPD2     N10254   4.057   3.852  10.343 -0.0854  0.8140  0.5537
  693MPD2    H510255   4.158   3.849  10.345 -0.0117  2.5772 -0.9437
  693MPD2    N110256   3.678   4.023  10.607 -0.4299  0.4525  0.6999
  693MPD2    H710257   3.673   4.078  10.692  2.1190  0.3146  0.9429
  694TMC3    C110258   3.478   3.912  10.657 -0.3566  0.4907 -0.3194
  694TMC3    C210259   3.381   3.818  10.617  0.1072  0.0654 -0.2415
  694TMC3    C310260   3.299   3.772  10.714  0.7255 -0.6893  0.1882
  694TMC3    C410261   3.502   3.931  10.794 -0.0826 -0.3754 -0.3061
  694TMC3    C510262   3.416   3.877  10.883  0.5560  0.4692  0.1659
  694TMC3    C610263   3.313   3.792  10.845  0.2713 -0.0600  0.1751
  694TMC3     C10264   3.582   3.938  10.560  1.4522 -0.3632 -0.6211
  694TMC3     O10265   3.566   3.886  10.448  0.5543 -0.6599 -0.5370
  694TMC3     H10266   3.345   3.818  10.515  0.2186  1.1310 -0.2777
  694TMC3    H110267   3.581   3.986  10.843  0.3449 -0.9234 -0.3754
  694TMC3    H210268   3.245   3.739  10.911  0.9276 -1.0843  0.0306
  694TMC3    C710269   3.442   3.901  11.020  0.1725  0.7129  0.1720
  694TMC3    C810270   3.188   3.685  10.678  0.1377 -0.9470  0.4373
  694TMC3    O110271   3.503   4.000  11.057 -0.3924 -0.8851  0.1872
  694TMC3    O210272   3.088   3.681  10.749  0.4710  0.0879 -0.2549
  695MPD2     C10273   4.462   1.213  14.061  0.1414  0.0583 -0.2252
  695MPD2    C110274   4.497   1.347  14.047 -0.8275 -1.1267  0.1649
  695MPD2    C210275   4.397   1.441  14.079 -0.3020 -0.0217  0.2569
  695MPD2    C310276   4.268   1.400  14.121  0.5188 -0.6842 -0.2232
  695MPD2    C410277   4.235   1.272  14.120 -0.6034  0.6731  0.1448
  695MPD2    C510278   4.331   1.181  14.094  0.4452 -0.1274  0.0687
  695MPD2     H10279   4.412   1.546  14.057 -1.0692 -0.1467 -0.8001
  695MPD2    H110280   4.133   1.238  14.136 -0.3232 -0.8963 -1.3858
  695MPD2    H210281   4.527   1.126  14.048  2.1953  1.7147 -1.0249
  695MPD2    H310282   4.306   1.076  14.099 -1.4650  0.3813  1.0366
  695MPD2     N10283   4.178   1.497  14.170  0.8075 -0.7148 -0.0879
  695MPD2    H510284   4.220   1.588  14.186 -0.7413 -0.5087  2.6741
  695MPD2    N110285   4.623   1.385  13.988 -0.3527  0.1425 -0.6535
  695MPD2    H710286   4.652   1.482  13.996  0.6856 -0.2539  0.2613
  696TMC3    C110287   3.985   1.619  14.205  0.1049  0.2762 -0.0655
  696TMC3    C210288   4.043   1.713  14.286  1.0357  0.1393 -0.3158
  696TMC3    C310289   3.988   1.836  14.310  0.6298 -0.1478  0.0776
  696TMC3    C410290   3.868   1.649  14.134 -0.1708  0.0966 -0.3607
  696TMC3    C510291   3.814   1.775  14.153 -0.2683 -0.0107  0.6150
  696TMC3    C610292   3.868   1.856  14.246 -0.3513  1.0278 -1.0372
  696TMC3     C10293   4.044   1.492  14.173  0.4857  0.2649 -0.6290
  696TMC3     O10294   3.974   1.414  14.112  0.0070 -0.0901 -0.8808
  696TMC3     H10295   4.136   1.686  14.334  0.8992 -0.1933 -0.2363
  696TMC3    H110296   3.843   1.582  14.052  1.0216 -1.9304  0.9095
  696TMC3    H210297   3.821   1.948  14.278  1.1622  1.7844 -0.9573
  696TMC3    C710298   3.771   1.843  14.038  0.5692 -0.2708 -0.9199
  696TMC3    C810299   4.067   1.955  14.290  0.7878 -0.0940  0.1346
  696TMC3    O110300   3.719   1.780  13.944 -0.7456 -0.0427 -0.0024
  696TMC3    O210301   4.008   2.054  14.250 -0.3633  0.1055  0.0802
  697MPD2     C10302   3.739   3.670  15.492 -0.6566  0.4720  0.1489
  697MPD2    C110303   3.768   3.611  15.372 -0.6402  0.0142  0.3678
  697MPD2    C210304   3.869   3.661  15.289 -0.2803 -0.5926  0.3722
  697MPD2    C310305   3.932   3.781  15.326  0.1830  0.2772  0.4334
  697MPD2    C410306   3.893   3.839  15.442  0.6400 -0.2049 -0.1066
  697MPD2    C510307   3.808   3.779  15.536 -1.1253 -0.1902  0.0911
  697MPD2     H10308   3.910   3.610  15.203  0.9142  0.3713  0.3787
  697MPD2    H110309   3.935   3.929  15.486 -1.4221 -0.1537  1.7522
  697MPD2    H210310   3.663   3.630  15.559 -3.3283  1.5779 -2.2353
  697MPD2    H310311   3.800   3.833  15.629  1.1962  1.1079 -0.4536
  697MPD2     N10312   4.045   3.809  15.244 -0.0918 -0.2128 -0.6230
  697MPD2    H510313   4.060   3.740  15.172  2.0914 -0.3592 -0.0382
  697MPD2    N110314   3.719   3.485  15.329  0.6298 -0.4074 -0.0895
  697MPD2    H710315   3.775   3.432  15.263 -0.6324 -1.2194 -0.5102
  698TMC3    C110316   4.239   3.897  15.182  0.2223 -0.2893 -0.4128
  698TMC3    C210317   4.350   3.972  15.223  0.2613  0.2823  0.5569
  698TMC3    C310318   4.449   4.008  15.129 -0.3643  0.9518 -0.0793
  698TMC3    C410319   4.218   3.869  15.049  0.2186 -0.2918  0.0585
  698TMC3    C510320   4.330   3.894  14.969  0.1101  0.2450 -0.9110
  698TMC3    C610321   4.439   3.962  15.002  0.3902  0.0875 -0.0353
  698TMC3     C10322   4.130   3.910  15.272 -0.6109 -0.1163  0.6932
  698TMC3     O10323   4.123   3.995  15.355 -0.4150 -0.2706  0.0338
  698TMC3     H10324   4.359   4.004  15.326  2.0959  0.2995  0.3888
  698TMC3    H110325   4.140   3.807  15.006  1.3238 -1.6529  0.0246
  698TMC3    H210326   4.491   4.017  14.925 -0.1407  0.5236 -0.0809
  698TMC3    C710327   4.319   3.850  14.831  0.2979  0.3597 -0.9253
  698TMC3    C810328   4.537   4.118  15.173  0.3209  0.8287 -0.2402
  698TMC3    O110329   4.209   3.857  14.771  0.2733 -0.1189 -0.1243
  698TMC3    O210330   4.507   4.176  15.278  0.2127  0.2259  0.1278
  699TMC3    C110331   4.060   1.405  13.374 -0.2104 -0.3173  0.5437
  699TMC3    C210332   4.087   1.314  13.467 -0.3992 -0.2469 -0.5204
  699TMC3    C310333   3.984   1.274  13.549  0.4366 -0.3960 -0.4139
  699TMC3    C410334   3.937   1.469  13.364  0.1299 -0.3465  0.6966
  699TMC3    C510335   3.835   1.418  13.442  0.0758 -0.0409  0.1407
  699TMC3    C610336   3.855   1.318  13.531 -0.1954  0.1739  0.3080
  699TMC3     C10337   4.157   1.420  13.264  0.0320 -0.2650 -0.8920
  699TMC3     O10338   4.271   1.392  13.294  0.4436 -0.3015 -0.0068
  699TMC3     H10339   4.193   1.294  13.479 -0.3874 -0.1720 -0.5010
  699TMC3    H110340   3.925   1.556  13.301 -0.4545 -1.4185 -0.6584
  699TMC3    H210341   3.775   1.283  13.594  0.8180 -1.6068  0.6105
  699TMC3    C710342   3.704   1.484  13.438 -0.5033 -0.1787  0.0825
  699TMC3    C810343   3.999   1.162  13.642 -0.9211 -1.0121  0.5069
  699TMC3    O110344   3.626   1.458  13.534  0.4020 -0.2557  0.2876
  699TMC3    O210345   3.896   1.135  13.706  0.1762 -0.5441 -0.4291
  700TMC3    C110346   2.841   4.034  17.370 -0.5559 -0.4734 -0.0315
  700TMC3    C210347   2.904   3.908  17.375  0.1770 -0.3669 -0.0103
  700TMC3    C310348   2.984   3.887  17.486  0.6864 -0.1968  0.5196
  700TMC3    C410349   2.866   4.135  17.462  0.8164  0.6938  0.6857
  700TMC3    C510350   2.970   4.114  17.546 -0.8487  0.4054  0.7399
  700TMC3    C610351   3.033   3.992  17.553 -0.4996 -0.0414  0.0855
  700TMC3     C10352   2.811   4.083  17.237 -0.8847 -0.3848  0.4355
  700TMC3     O10353   2.740   4.017  17.162  0.0548  0.0440  0.4234
  700TMC3     H10354   2.874   3.824  17.314 -0.7334  0.9284 -1.3282
  700TMC3    H110355   2.842   4.239  17.442  2.2559  0.4897 -2.1266
  700TMC3    H210356   3.115   3.976  17.621 -0.7324  0.2907  0.4418
  700TMC3    C710357   3.021   4.232  17.611  0.0702 -0.8077 -1.4486
  700TMC3    C810358   3.048   3.759  17.502 -0.3231  0.1116 -0.0684
  700TMC3    O110359   3.145   4.230  17.620  0.2653 -0.0116 -0.5734
  700TMC3    O210360   3.168   3.758  17.534  0.5155  0.1621 -0.6505
  701TMC3    C110361   3.024   2.771  15.348 -0.0478  0.6178 -0.1025
  701TMC3    C210362   3.013   2.780  15.211 -0.2835 -0.1473  0.0000
  701TMC3    C310363   3.084   2.882  15.148  0.4344 -0.1246  0.0866
  701TMC3    C410364   3.077   2.877  15.418 -0.3183  0.1743 -0.1138
  701TMC3    C510365   3.138   2.980  15.354 -0.5828 -0.2166  0.2368
  701TMC3    C610366   3.144   2.978  15.220  0.0714 -0.4450  0.2989
  701TMC3     C10367   2.974   2.667  15.430 -0.0892  0.0137  0.0560
  701TMC3     O10368   2.959   2.682  15.547 -0.3985  0.0225 -0.2750
  701TMC3     H10369   2.966   2.699  15.157  1.2771 -0.0525 -1.4845
  701TMC3    H110370   3.094   2.875  15.525 -0.6836  2.9397 -0.0092
  701TMC3    H210371   3.174   3.073  15.177 -2.6004 -0.9317 -2.6176
  701TMC3    C710372   3.163   3.107  15.426 -0.2390 -0.1457  0.1802
  701TMC3    C810373   3.081   2.902  15.002  0.2543  0.4818 -0.1537
  701TMC3    O110374   3.174   3.201  15.354 -0.0193 -0.2479  0.1748
  701TMC3    O210375   3.130   3.004  14.955  0.8073  0.1243  0.1816
  702MPD2     C10376   2.814   4.300  10.715  0.4158  0.5331  0.4382
  702MPD2    C110377   2.779   4.428  10.740 -0.6017  0.3744 -0.3775
  702MPD2    C210378   2.721   4.493  10.635  1.0380 -0.2156  0.4279
  702MPD2    C310379   2.699   4.432  10.511 -0.0945  0.2380  0.3811
  702MPD2    C410380   2.718   4.301  10.503  0.5597 -0.5180 -0.8417
  702MPD2    C510381   2.770   4.235  10.606 -0.0431 -0.2389 -0.1055
  702MPD2     H10382   2.684   4.594  10.648  0.6691 -0.5388  1.9370
  702MPD2    H110383   2.709   4.249  10.409 -0.9201 -0.7886 -0.5475
  702MPD2    H210384   2.852   4.233  10.791  0.8101 -0.9094 -1.0123
  702MPD2    H310385   2.777   4.127  10.607  1.8726 -0.1125 -1.1647
  702MPD2     N10386   2.650   4.498  10.399 -0.3102 -0.0078  0.7407
  702MPD2    H510387   2.607   4.441  10.327 -0.1416  0.2458  0.4394
  702MPD2    N110388   2.790   4.492  10.866 -0.2210 -0.5275 -0.2479
  702MPD2    H710389   2.766   4.590  10.877  1.0620 -0.5404  2.4865
  703TMC3    C110390   2.576   4.689  10.276 -0.9410 -0.4638  0.4367
  703TMC3    C210391   2.444   4.652  10.265  0.7134  0.0041 -0.0021
  703TMC3    C310392   2.348   0.032  10.239  0.2238  1.1852  0.1874
  703TMC3    C410393   2.617   0.095  10.248 -0.2944 -0.9586  0.4943
  703TMC3    C510394   2.522   0.185  10.211  0.1155 -0.1777 -0.6712
  703TMC3    C610395   2.387   0.164  10.213 -0.0527 -0.2897  0.7663
  703TMC3     C10396   2.657   4.631  10.382 -1.0113  0.0233  0.7075
  703TMC3     O10397   2.736   4.710  10.442  0.9747 -0.5788 -0.5732
  703TMC3     H10398   2.409   4.552  10.287 -0.8453  0.4176 -0.6200
  703TMC3    H110399   2.719   0.127  10.260 -0.5887 -0.8626  2.7663
  703TMC3    H210400   2.314   0.244  10.217 -0.1067 -0.2914 -0.2503
  703TMC3    C710401   2.570   0.310  10.153 -0.2854  0.2750  0.0831
  703TMC3    C810402   2.227   0.010  10.310 -0.1066  0.0314 -0.2643
  703TMC3    O110403   2.674   0.350  10.204  0.2705  0.4730 -0.1889
  703TMC3    O210404   2.180   4.614  10.315 -0.6726  0.3044 -0.0863
  704TMC3    C110405   0.183   3.370  12.037  0.3609  0.1209 -0.7673
  704TMC3    C210406   0.313   3.399  12.062 -0.4415  0.5653  0.1437
  704TMC3    C310407   0.369   3.361  12.177 -0.3952  0.1712  0.2205
  704TMC3    C410408   0.121   3.263  12.106 -0.8285  0.2847 -0.0427
  704TMC3    C510409   0.195   3.202  12.203 -0.8095  0.2406  0.5253
  704TMC3    C610410   0.314   3.256  12.245  0.3856 -0.1100  0.0493
  704TMC3     C10411   0.113   3.416  11.919 -0.1247 -0.0258 -0.4360
  704TMC3     O10412   4.707   3.434  11.917 -0.4564 -0.5360 -0.3123
  704TMC3     H10413   0.355   3.474  11.995  0.4390 -0.8357 -0.8876
  704TMC3    H110414   0.041   3.213  12.052  1.8243 -2.9028 -1.0173
  704TMC3    H210415   0.367   3.196  12.317 -0.7467 -1.8792 -0.5847
  704TMC3    C710416   0.220   3.063  12.179  0.5694  0.5571  0.1138
  704TMC3    C810417   0.514   3.383  12.173 -0.2667 -0.6708 -0.6285
  704TMC3    O110418   0.336   3.026  12.192  0.1762  0.1461  0.2651
  704TMC3    O210419   0.570   3.407  12.069  0.1275  0.2418  0.3344
  705MPD2     C10420   0.119   1.553  16.757 -0.6014  0.7662 -0.2327
  705MPD2    C110421   0.014   1.615  16.693 -0.2136  0.5951 -0.2398
  705MPD2    C210422   4.609   1.620  16.759  0.2333  0.2595  0.6154
  705MPD2    C310423   4.592   1.566  16.889 -0.9467  0.0427  0.0058
  705MPD2    C410424   4.695   1.503  16.953  0.6370  0.8249 -0.3556
  705MPD2    C510425   0.091   1.493  16.886  0.3123  0.0075  0.4597
  705MPD2     H10426   4.530   1.675  16.711  0.8181  0.8998  0.3939
  705MPD2    H110427   4.684   1.454  17.050 -1.3930 -0.6545 -1.3341
  705MPD2    H210428   0.220   1.550  16.718 -0.3848  1.0151  0.3042
  705MPD2    H310429   0.172   1.454  16.948 -1.1675 -1.4900  1.4371
  705MPD2     N10430   4.470   1.587  16.962 -0.4642 -0.5252  0.0701
  705MPD2    H510431   4.474   1.590  17.063  0.5659 -0.6838  0.0279
  705MPD2    N110432   0.041   1.676  16.565 -1.1471 -0.1213 -0.0761
  705MPD2    H710433   0.138   1.680  16.534 -1.3139  1.1858 -0.4202
  706TMC3    C110434   0.183   1.788  16.209  1.0703 -0.2030 -0.4646
  706TMC3    C210435   0.118   1.884  16.128  0.0665  0.2158 -0.0487
  706TMC3    C310436   4.707   1.924  16.167  0.5701  0.0248  0.1483
  706TMC3    C410437   0.131   1.735  16.326 -0.4653 -0.2733 -0.3775
  706TMC3    C510438   0.003   1.773  16.357  0.4159 -0.2553 -0.5100
  706TMC3    C610439   4.655   1.867  16.278  0.3074  0.3699  0.2757
  706TMC3     C10440   0.310   1.730  16.171 -0.1931  0.3980 -0.5304
  706TMC3     O10441   0.382   1.706  16.267  0.2343  0.1500  0.1242
  706TMC3     H10442   0.166   1.932  16.044 -1.0075  1.3750  0.0036
  706TMC3    H110443   0.191   1.656  16.369 -1.9467 -0.2123  1.8386
  706TMC3    H210444   4.553   1.892  16.307 -0.4490 -2.8257  0.3085
  706TMC3    C710445   4.670   1.739  16.483 -0.7437 -0.2011  0.2666
  706TMC3    C810446   4.647   2.049  16.115  0.3064 -0.6070  0.1475
  706TMC3    O110447   4.548   1.762  16.498  0.1467  0.0908  0.2930
  706TMC3    O210448   4.673   2.096  16.006 -1.2019  0.7336  0.5118
  707TMC3    C110449   0.753   0.103   1.333  0.1313  0.7718  0.2453
  707TMC3    C210450   0.785   0.174   1.217 -0.4231 -0.2864  0.0806
  707TMC3    C310451   0.679   0.231   1.156  0.7193 -0.5084  0.2136
  707TMC3    C410452   0.630   0.093   1.386  0.2544  0.5098 -0.8018
  707TMC3    C510453   0.533   0.163   1.321 -0.3133  0.0628  0.0038
  707TMC3    C610454   0.550   0.227   1.205 -0.4194 -0.2724  0.1074
  707TMC3     C10455   0.864   0.020   1.377  0.5501 -0.0375  0.7430
  707TMC3     O10456   0.963   0.005   1.308  0.1493  0.0951  0.3659
  707TMC3     H10457   0.883   0.200   1.176  0.4009 -1.3694  1.3649
  707TMC3    H110458   0.601   0.037   1.474  0.6462 -0.3120 -1.1989
  707TMC3    H210459   0.464   0.269   1.156 -1.2102 -0.1341  1.6394
  707TMC3    C710460   0.398   0.154   1.375  0.1755  0.0398  0.1288
  707TMC3    C810461   0.697   0.262   1.015  0.2085 -0.1302  0.5346
  707TMC3    O110462   0.374   0.059   1.447 -0.3319 -0.0521  0.0912
  707TMC3    O210463   0.636   0.364   0.976  0.3479 -0.0306  0.4557
  708MPD2     C10464   3.185   4.426  13.797 -0.6962 -0.2440  0.4141
  708MPD2    C110465   3.066   4.400  13.860 -0.3749 -0.7191  0.0570
  708MPD2    C210466   3.067   4.351  13.993  0.6398  0.1342 -0.2848
  708MPD2    C310467   3.183   4.338  14.068 -0.5310  0.2701  0.3792
  708MPD2    C410468   3.300   4.361  14.000  0.4024  0.4177 -0.3734
  708MPD2    C510469   3.304   4.407  13.871  0.4403  0.4957  0.4257
  708MPD2     H10470   2.972   4.335  14.042  1.2137 -0.8425  0.5154
  708MPD2    H110471   3.398   4.341  14.041 -0.2369 -0.8679  0.5326
  708MPD2    H210472   3.194   4.419  13.689  0.6469 -0.6610  0.5501
  708MPD2    H310473   3.397   4.411  13.818 -0.1746  0.1614 -0.6754
  708MPD2     N10474   3.181   4.313  14.207  0.4579 -0.1474 -0.7298
  708MPD2    H510475   3.271   4.309  14.255  1.1301  1.2301 -1.8703
  708MPD2    N110476   2.942   4.406  13.791 -0.2082 -0.4275 -0.4545
  708MPD2    H710477   2.860   4.378  13.844 -0.8802 -3.4623 -3.0905
  709TMC3    C110478   2.770   4.456  13.654 -0.7328 -0.3582 -1.1061
  709TMC3    C210479   2.746   4.383  13.542 -0.3356 -0.2379 -0.5070
  709TMC3    C310480   2.664   4.275  13.558  0.1466 -0.1674  0.5223
  709TMC3    C410481   2.690   4.445  13.762 -0.3266 -0.7929  0.6554
  709TMC3    C510482   2.608   4.339  13.775  0.5134 -0.3280  0.1573
  709TMC3    C610483   2.593   4.256  13.673 -0.8497 -0.5962  0.5159
  709TMC3     C10484   2.910   4.469  13.676 -0.3274  0.7431  0.3519
  709TMC3     O10485   2.979   4.528  13.596  0.2250 -0.2268  0.2185
  709TMC3     H10486   2.831   4.380  13.474  0.4088  1.7945  0.3196
  709TMC3    H110487   2.695   4.526  13.833 -2.2627  0.7621 -0.9539
  709TMC3    H210488   2.547   4.160  13.690 -1.0422 -0.5211  0.4167
  709TMC3    C710489   2.627   4.280  13.904 -0.2067 -0.1789  0.1019
  709TMC3    C810490   2.612   4.202  13.441  0.3365 -0.5046  0.3136
  709TMC3    O110491   2.726   4.330  13.964 -0.0415 -0.2161  0.6964
  709TMC3    O210492   2.514   4.132  13.465 -0.0640 -0.4060  0.1451
  710TMC3    C110493   3.851   1.453   0.718  0.0151 -0.1166 -0.6607
  710TMC3    C210494   3.951   1.446   0.625 -0.0866  0.4949  0.0151
  710TMC3    C310495   4.083   1.419   0.669  0.5957 -0.4364 -0.1383
  710TMC3    C410496   3.876   1.418   0.846 -0.1170  0.0810 -0.4614
  710TMC3    C510497   4.006   1.377   0.883  0.2682 -0.2662 -0.6586
  710TMC3    C610498   4.111   1.388   0.800 -0.2197 -0.2883  0.0766
  710TMC3     C10499   3.720   1.499   0.673  0.1334  0.4015 -0.0549
  710TMC3     O10500   3.679   1.445   0.568  0.0229 -0.0523 -0.0090
  710TMC3     H10501   3.938   1.474   0.521  4.4588 -1.4320 -1.1077
  710TMC3    H110502   3.803   1.412   0.927  2.0177 -2.3123  1.3008
  710TMC3    H210503   4.211   1.362   0.834 -0.0687  1.7028  1.1671
  710TMC3    C710504   4.012   1.311   1.003 -0.2269 -0.4211  0.1251
  710TMC3    C810505   4.184   1.405   0.565  1.1746 -0.2794 -0.0772
  710TMC3    O110506   3.911   1.250   1.041 -0.3902  0.8264  0.0832
  710TMC3    O210507   4.142   1.408   0.450 -0.4507 -0.6739 -0.3736
  711TMC3    C110508   3.819   2.504  14.956  0.3506  0.4884  0.6128
  711TMC3    C210509   3.826   2.620  15.034 -0.1837 -0.2731  0.2051
  711TMC3    C310510   3.920   2.626  15.136 -0.2228  0.4797  0.2988
  711TMC3    C410511   3.901   2.397  14.971 -0.1662  0.1062  0.4090
  711TMC3    C510512   3.998   2.412  15.059 -0.2709  0.0252  0.4248
  711TMC3    C610513   4.017   2.531  15.136 -0.2552  0.1775 -0.4365
  711TMC3     C10514   3.730   2.492  14.835  0.1936  0.2599 -0.1004
  711TMC3     O10515   3.756   2.405  14.754 -0.2594 -0.1888 -0.3268
  711TMC3     H10516   3.755   2.700  15.027 -0.0094 -0.3310 -2.1590
  711TMC3    H110517   3.903   2.314  14.902 -1.3328  0.8532 -0.5298
  711TMC3    H210518   4.099   2.540  15.206 -0.3911 -0.5019 -0.1891
  711TMC3    C710519   4.061   2.290  15.109 -0.1742 -0.2823  0.5367
  711TMC3    C810520   3.933   2.747  15.208  0.1059  0.2831  0.1361
  711TMC3    O110521   4.168   2.300  15.170 -0.3169 -0.3848 -0.0121
  711TMC3    O210522   3.846   2.831  15.188  0.5196 -0.2125 -0.7745
  712MPD2     C10523   0.945   2.987  13.603  0.3958  0.7410  0.2734
  712MPD2    C110524   0.869   3.033  13.500 -0.8525 -0.3168 -0.4485
  712MPD2    C210525   0.896   3.150  13.440 -0.3840 -0.7942 -0.2180
  712MPD2    C310526   0.988   3.237  13.493 -0.2238  0.6190  0.0934
  712MPD2    C410527   1.055   3.198  13.612 -0.2061  0.2386  0.3418
  712MPD2    C510528   1.042   3.069  13.656 -0.2419  0.1244 -0.7250
  712MPD2     H10529   0.839   3.179  13.353 -1.1698 -1.0383  0.2072
  712MPD2    H110530   1.140   3.256  13.646 -0.9598  0.9425  1.0527
  712MPD2    H210531   0.943   2.890  13.650  2.8254  2.4059  3.8209
  712MPD2    H310532   1.114   3.038  13.732 -0.6368  2.3655  0.5699
  712MPD2     N10533   1.018   3.363  13.429 -0.4050  0.4232  0.8528
  712MPD2    H510534   1.090   3.416  13.476 -0.2681  1.8485 -0.9594
  712MPD2    N110535   0.775   2.951  13.439 -0.0340 -0.8548 -0.3673
  712MPD2    H710536   0.728   2.990  13.359  0.7750 -1.1391 -0.9844
  713TMC3    C110537   0.998   3.555  13.279 -0.4840  0.2446  0.0590
  713TMC3    C210538   1.132   3.568  13.278 -0.0244  0.7066 -0.2373
  713TMC3    C310539   1.183   3.669  13.201 -0.4452  0.1615  0.2700
  713TMC3    C410540   0.915   3.630  13.197 -0.0582  0.8379 -0.6027
  713TMC3    C510541   0.971   3.728  13.124  0.0258  0.7367  0.5543
  713TMC3    C610542   1.102   3.739  13.115 -0.4282 -0.2280 -0.1999
  713TMC3     C10543   0.940   3.431  13.333  0.0818  0.2931  1.1140
  713TMC3     O10544   0.836   3.397  13.275  0.3301  0.2280 -0.2166
  713TMC3     H10545   1.190   3.527  13.360  1.9147 -0.9779 -2.4640
  713TMC3    H110546   0.808   3.612  13.199  0.1860 -0.5897 -0.3546
  713TMC3    H210547   1.138   3.818  13.051  0.5041 -0.3103  0.2204
  713TMC3    C710548   0.895   3.855  13.123 -0.1829 -0.0258 -0.7712
  713TMC3    C810549   1.316   3.725  13.223 -0.3633 -0.3522  0.9646
  713TMC3    O110550   0.950   3.959  13.089 -0.3026 -0.1169  0.3576
  713TMC3    O210551   1.354   3.811  13.146 -0.2017 -0.3531  0.3509
  714MPD2     C10552   2.229   2.839   1.086 -0.1414  0.0653  0.0017
  714MPD2    C110553   2.246   2.739   1.176  0.0872  0.1813 -0.2416
  714MPD2    C210554   2.134   2.653   1.195  0.5615 -0.3673 -0.6678
  714MPD2    C310555   2.015   2.667   1.122 -0.1436 -0.1053 -0.5697
  714MPD2    C410556   2.005   2.768   1.020 -0.1331 -0.7516  0.5148
  714MPD2    C510557   2.119   2.847   1.006  0.1309 -0.6561 -0.4095
  714MPD2     H10558   2.129   2.568   1.262 -1.1494  1.9229  2.0605
  714MPD2    H110559   1.923   2.783   0.950  1.8386 -0.9316 -1.8510
  714MPD2    H210560   2.310   2.909   1.071 -0.1627  0.1758  0.3981
  714MPD2    H310561   2.125   2.927   0.933 -0.2843  0.3427  0.6411
  714MPD2     N10562   1.911   2.571   1.142  0.5880 -0.7047 -0.4218
  714MPD2    H510563   1.931   2.501   1.212  1.8889 -1.6966 -1.7920
  714MPD2    N110564   2.357   2.738   1.266 -0.1348 -0.3246  0.2475
  714MPD2    H710565   2.418   2.819   1.256  0.4699 -0.5315  2.3398
  715TMC3    C110566   2.521   2.644   1.419 -0.2625 -0.2383 -0.4207
  715TMC3    C210567   2.552   2.537   1.510 -0.1262  0.8542 -0.7009
  715TMC3    C310568   2.677   2.541   1.564 -0.8060  0.2218  0.4526
  715TMC3    C410569   2.599   2.756   1.407  0.4441  0.0582  0.2836
  715TMC3    C510570   2.721   2.750   1.471  0.4217 -0.0959 -0.5307
  715TMC3    C610571   2.772   2.635   1.534  0.8410 -0.2489 -0.0787
  715TMC3     C10572   2.392   2.629   1.350  0.0302 -0.3626  0.4712
  715TMC3     O10573   2.340   2.516   1.359  0.1225 -0.7565 -0.0882
  715TMC3     H10574   2.486   2.453   1.528 -0.0381  0.7166 -1.0257
  715TMC3    H110575   2.555   2.850   1.377 -0.5277 -0.2224  0.8034
  715TMC3    H210576   2.874   2.618   1.564  1.4433  3.3954 -0.0668
  715TMC3    C710577   2.816   2.858   1.450 -0.3725 -0.1854  0.2958
  715TMC3    C810578   2.711   2.437   1.657  0.2410  0.0500  0.2294
  715TMC3    O110579   2.913   2.841   1.513 -0.7002 -0.6084  0.2478
  715TMC3    O210580   2.626   2.349   1.673 -0.4214  0.1041 -0.4324
  716MPD2     C10581   2.652   4.093  10.007  0.2449  0.6295 -0.2871
  716MPD2    C110582   2.613   4.075   9.879  0.8681  0.6246  1.4358
  716MPD2    C210583   2.630   3.947   9.827  0.1904 -0.3998  0.4866
  716MPD2    C310584   2.683   3.843   9.898  0.6108  0.1302 -0.1606
  716MPD2    C410585   2.734   3.875  10.028  0.5168  0.2745  0.0552
  716MPD2    C510586   2.708   3.996  10.080 -0.0346 -0.3297  0.3849
  716MPD2     H10587   2.594   3.928   9.727  0.3329  3.2133 -0.2671
  716MPD2    H110588   2.802   3.808  10.080 -0.5936  1.9012  3.6237
  716MPD2    H210589   2.639   4.193  10.048  0.3542  0.7532 -0.5544
  716MPD2    H310590   2.741   4.020  10.181 -0.1006  0.1914  0.2802
  716MPD2     N10591   2.693   3.717   9.833 -0.4710  0.7317 -0.3379
  716MPD2    H510592   2.671   3.710   9.734 -1.4308  0.6938 -0.1193
  716MPD2    N110593   2.568   4.184   9.799  0.1034  0.3717  0.0424
  716MPD2    H710594   2.581   4.274   9.843  1.3929  0.3085 -0.1951
  717TMC3    C110595   2.730   3.475   9.817  0.6802 -0.4317  0.2549
  717TMC3    C210596   2.670   3.474   9.693  0.8570  0.8499  0.6086
  717TMC3    C310597   2.688   3.367   9.616  0.5672 -0.0132  0.1914
  717TMC3    C410598   2.786   3.365   9.875  0.2698 -0.0944  0.5458
  717TMC3    C510599   2.795   3.257   9.799 -0.0885  0.1633 -0.1497
  717TMC3    C610600   2.737   3.255   9.673 -0.5191 -0.5613  0.2760
  717TMC3     C10601   2.738   3.599   9.893  0.1948  0.6401  0.2379
  717TMC3     O10602   2.758   3.586  10.013 -0.0279 -0.0677  0.0325
  717TMC3     H10603   2.616   3.558   9.651  4.8397  0.8904 -4.5628
  717TMC3    H110604   2.834   3.374   9.972 -2.5644  1.2786  1.8160
  717TMC3    H210605   2.753   3.165   9.614  0.4012 -1.8700  2.5077
  717TMC3    C710606   2.889   3.144   9.821  0.1296 -0.8868  0.0428
  717TMC3    C810607   2.659   3.377   9.475  0.1120 -0.3475 -0.1314
  717TMC3    O110608   2.924   3.068   9.728 -0.0127 -0.4974 -0.9355
  717TMC3    O210609   2.578   3.459   9.441 -0.3212 -0.2219 -0.3070
  718MPD2     C10610   2.938   3.353  13.145 -0.0609 -0.6695 -0.3362
  718MPD2    C110611   2.962   3.372  13.011  0.0858 -0.4237  0.0717
  718MPD2    C210612   2.850   3.363  12.925  0.3088  0.8064  0.4770
  718MPD2    C310613   2.721   3.329  12.976 -0.2087 -0.0054  0.2510
  718MPD2    C410614   2.712   3.296  13.110  0.3755  0.1926 -0.5937
  718MPD2    C510615   2.816   3.324  13.190 -0.1910  0.0702 -0.2580
  718MPD2     H10616   2.855   3.376  12.818  0.8483 -1.7936  0.1693
  718MPD2    H110617   2.624   3.267  13.166  0.9398 -2.1554 -0.9106
  718MPD2    H210618   3.007   3.365  13.228 -0.0032 -3.3835  0.0301
  718MPD2    H310619   2.805   3.301  13.295 -1.7066  1.4316 -0.1130
  718MPD2     N10620   2.619   3.311  12.892 -0.0670 -0.3892 -0.4433
  718MPD2    H510621   2.638   3.328  12.793 -1.2412  1.7160 -0.3073
  718MPD2    N110622   3.084   3.412  12.966 -0.2589  0.1102 -0.4187
  718MPD2    H710623   3.162   3.408  13.030 -1.1833  0.2329  0.7068
  719TMC3    C110624   3.237   3.426  12.783  0.4128 -0.3916  0.1243
  719TMC3    C210625   3.217   3.294  12.751  0.3869  0.2795 -0.2785
  719TMC3    C310626   3.220   3.268  12.615  0.0863  0.3977 -0.4026
  719TMC3    C410627   3.283   3.518  12.696 -0.6117  0.7897 -0.5826
  719TMC3    C510628   3.301   3.482  12.562 -0.5495 -0.3308 -0.3756
  719TMC3    C610629   3.259   3.358  12.517 -0.0417 -0.0512  0.0488
  719TMC3     C10630   3.108   3.464  12.837  0.1038 -0.6412 -0.1686
  719TMC3     O10631   3.036   3.536  12.767 -0.0808 -0.0392 -0.5559
  719TMC3     H10632   3.182   3.231  12.832 -2.7791 -0.0171 -1.8820
  719TMC3    H110633   3.283   3.619  12.734 -1.6372  0.4210  0.4065
  719TMC3    H210634   3.279   3.339  12.412 -0.6619  0.2760 -0.1310
  719TMC3    C710635   3.297   3.591  12.469 -0.6924 -0.7450  0.7147
  719TMC3    C810636   3.100   3.195  12.578  0.0064 -0.6188  0.1942
  719TMC3    O110637   3.222   3.567  12.374  0.1896 -1.2171 -0.3551
  719TMC3    O210638   3.030   3.159  12.672  0.1386  0.5898 -0.0895
  720MPD2     C10639   0.645   0.045  14.034 -0.0038 -0.0837 -0.3975
  720MPD2    C110640   0.655   0.170  13.978  0.6036  0.1322  0.4977
  720MPD2    C210641   0.782   0.231  13.969 -0.2648 -0.7437 -0.6815
  720MPD2    C310642   0.893   0.175  14.026 -1.0724  0.2466  0.0999
  720MPD2    C410643   0.879   0.049  14.077  0.0243  0.2399 -0.2691
  720MPD2    C510644   0.759   4.705  14.081 -0.7274 -0.2769  0.2399
  720MPD2     H10645   0.800   0.325  13.917  1.9650 -0.7019  0.1634
  720MPD2    H110646   0.963   4.713  14.116  0.5286 -0.0250 -1.7394
  720MPD2    H210647   0.552   4.710  14.047 -0.4056  1.1524  1.9740
  720MPD2    H310648   0.760   4.610  14.133  0.2925 -0.1393  0.4728
  720MPD2     N10649   1.013   0.252  14.037 -0.2695 -0.4114 -0.1895
  720MPD2    H510650   1.016   0.330  13.973 -1.0954 -0.4821 -0.3181
  720MPD2    N110651   0.536   0.241  13.931 -0.5145  0.1675 -0.3311
  720MPD2    H710652   0.560   0.330  13.889  1.2309 -1.4727 -2.7698
  721TMC3    C110653   1.237   0.306  14.095  0.2884 -0.3620 -0.2200
  721TMC3    C210654   1.306   0.349  14.204 -0.5225 -0.6734  0.1130
  721TMC3    C310655   1.423   0.426  14.187 -0.2367 -0.9243 -0.7516
  721TMC3    C410656   1.287   0.322  13.970  0.2654  0.0018 -0.2210
  721TMC3    C510657   1.402   0.400  13.952  0.4167 -0.1178  0.0428
  721TMC3    C610658   1.472   0.446  14.062 -0.6749  0.0228 -1.0146
  721TMC3     C10659   1.121   0.225  14.121 -0.2841  0.0490  0.2511
  721TMC3     O10660   1.130   0.147  14.214  0.1497  0.0736  0.1772
  721TMC3     H10661   1.268   0.315  14.300 -0.9245  0.4675  0.3487
  721TMC3    H110662   1.226   0.274  13.894  0.6929 -1.1318  0.1392
  721TMC3    H210663   1.566   0.499  14.045 -0.8537  0.4719 -0.6028
  721TMC3    C710664   1.473   0.412  13.828  0.4634 -0.5744 -0.6224
  721TMC3    C810665   1.522   0.432  14.296  0.0573 -0.8801 -0.0617
  721TMC3    O110666   1.584   0.457  13.836 -0.1957 -0.1964 -0.5524
  721TMC3    O210667   1.630   0.473  14.258  0.0142 -0.4594  0.2467
  722MPD2     C10668   4.342   3.725  13.038  0.1391 -0.1131 -0.3364
  722MPD2    C110669   4.312   3.778  13.163  0.5443  0.0239 -0.5048
  722MPD2    C210670   4.180   3.774  13.205  0.2066 -0.3392 -0.3676
  722MPD2    C310671   4.089   3.698  13.138  0.2401  0.3137  0.5634
  722MPD2    C410672   4.126   3.643  13.016  0.2909  0.2347  0.0751
  722MPD2    C510673   4.250   3.656  12.971  0.2295  0.6037 -0.2027
  722MPD2     H10674   4.156   3.814  13.303 -1.3943 -0.1093 -0.8614
  722MPD2    H110675   4.060   3.577  12.961 -0.4392  2.5458 -1.8426
  722MPD2    H210676   4.445   3.733  13.003 -1.0242 -0.0210 -3.7282
  722MPD2    H310677   4.267   3.615  12.872  1.7081  1.8820 -0.4866
  722MPD2     N10678   3.958   3.691  13.187  0.0272 -1.1878 -0.4869
  722MPD2    H510679   3.942   3.746  13.271  0.6649 -0.4938 -0.8141
  722MPD2    N110680   4.406   3.846  13.244  0.4272  0.2189 -0.1354
  722MPD2    H710681   4.366   3.899  13.321  1.2586 -0.0279  0.4765
  723TMC3    C110682   3.722   3.643  13.179  0.2475 -0.4136 -0.5800
  723TMC3    C210683   3.627   3.543  13.172  0.4389  0.1347 -0.0010
  723TMC3    C310684   3.494   3.573  13.169 -0.6566  0.5032  0.0752
  723TMC3    C410685   3.686   3.774  13.200 -0.9842 -0.5720 -0.4666
  723TMC3    C510686   3.553   3.797  13.189 -1.1569 -0.0495 -0.0116
  723TMC3    C610687   3.457   3.703  13.167  0.6974 -0.0921  0.1851
  723TMC3     C10688   3.856   3.606  13.135 -0.5294 -0.2931 -0.1989
  723TMC3     O10689   3.853   3.513  13.053 -0.1795 -0.5965  0.4173
  723TMC3     H10690   3.654   3.438  13.174  0.0891  0.0385 -0.3215
  723TMC3    H110691   3.755   3.856  13.217  0.4784 -1.3477 -2.6252
  723TMC3    H210692   3.353   3.730  13.155  0.5157  0.0468  2.0904
  723TMC3    C710693   3.512   3.937  13.172 -0.5553 -0.1158  0.4277
  723TMC3    C810694   3.391   3.471  13.170  0.2323 -0.0801  0.0016
  723TMC3    O110695   3.397   3.964  13.195 -0.1447  0.2472 -0.1742
  723TMC3    O210696   3.279   3.512  13.184 -0.3194  0.3337 -0.1326
  724TMC3    C110697   3.961   1.861   8.879  1.2998 -0.2303  0.0369
  724TMC3    C210698   3.905   1.971   8.940 -0.3368 -0.0356  1.4844
  724TMC3    C310699   3.986   2.039   9.027  0.4527  1.1148  0.2746
  724TMC3    C410700   4.087   1.815   8.902 -0.3192 -0.6463 -0.7165
  724TMC3    C510701   4.149   1.879   9.013 -0.4719 -0.0319 -0.4895
  724TMC3    C610702   4.098   1.991   9.077 -0.1622 -0.7780 -1.1791
  724TMC3     C10703   3.872   1.756   8.828  0.2458  0.0804 -0.3059
  724TMC3     O10704   3.912   1.643   8.822 -0.1527  0.1531 -0.2131
  724TMC3     H10705   3.811   2.012   8.906  1.4265  3.5336  0.9025
  724TMC3    H110706   4.130   1.735   8.843 -0.7627  0.8683 -3.1057
  724TMC3    H210707   4.144   2.035   9.165  0.3718 -3.6501 -0.0134
  724TMC3    C710708   4.289   1.859   9.024  0.2004 -0.0168 -0.3050
  724TMC3    C810709   3.929   2.169   9.066 -0.6436 -0.2142 -0.6679
  724TMC3    O110710   4.343   1.911   9.124  0.2048  0.3822  0.5472
  724TMC3    O210711   3.810   2.184   9.061  0.0974 -0.0165  0.4317
  725TMC3    C110712   1.275   0.578  12.893  0.0070 -0.2492  0.3083
  725TMC3    C210713   1.207   0.615  12.774 -0.1384  0.0155 -0.3668
  725TMC3    C310714   1.096   0.541  12.747  0.7877  0.5891  0.3550
  725TMC3    C410715   1.237   0.474  12.972 -0.1345 -0.0689 -0.2496
  725TMC3    C510716   1.130   0.404  12.939  0.5678  0.3014 -0.0270
  725TMC3    C610717   1.063   0.430  12.821 -0.0568 -0.7611  0.1112
  725TMC3     C10718   1.372   0.682  12.920 -0.0484 -0.0604 -0.1943
  725TMC3     O10719   1.434   0.720  12.821 -0.2495 -0.7320  0.2536
  725TMC3     H10720   1.244   0.693  12.709  0.2311  1.2985  1.3740
  725TMC3    H110721   1.280   0.451  13.069 -0.3367 -2.1431 -0.6517
  725TMC3    H210722   0.967   0.384  12.801 -0.4169 -0.0006  0.0800
  725TMC3    C710723   1.128   0.272  12.989 -0.8514  0.1635  0.1979
  725TMC3    C810724   0.980   0.608  12.697 -0.2292 -0.1712 -0.3919
  725TMC3    O110725   1.184   0.250  13.097 -0.0769  0.1824  0.0396
  725TMC3    O210726   0.868   0.566  12.723 -0.0801 -0.2775  0.2187
  726MPD2     C10727   4.345   2.155  10.457 -0.6843 -0.0942 -0.0530
  726MPD2    C110728   4.251   2.157  10.358 -0.3180  0.6881  0.3342
  726MPD2    C210729   4.141   2.073  10.370  0.6604  0.1843  1.1324
  726MPD2    C310730   4.130   1.989  10.483  0.1821 -0.6725  0.0754
  726MPD2    C410731   4.230   1.998  10.580  0.1285  0.3476  0.1904
  726MPD2    C510732   4.341   2.071  10.559  0.0769 -0.5924  0.1665
  726MPD2     H10733   4.076   2.076  10.284 -0.1404  0.6825  1.7608
  726MPD2    H110734   4.227   1.941  10.672 -0.3792  0.6580  0.3653
  726MPD2    H210735   4.432   2.219  10.457  0.7383 -2.0171 -2.5290
  726MPD2    H310736   4.412   2.059  10.640  0.4772 -3.1127 -0.5743
  726MPD2     N10737   4.014   1.913  10.510 -0.3102  0.4143  0.3759
  726MPD2    H510738   4.032   1.862  10.596 -0.5857 -2.6420 -1.3735
  726MPD2    N110739   4.261   2.245  10.248 -0.7323  0.0550  0.4366
  726MPD2    H710740   4.186   2.239  10.180 -0.3671 -1.4297  0.1601
  727TMC3    C110741   4.298   2.415  10.104 -0.1163 -0.2068  0.0576
  727TMC3    C210742   4.380   2.516  10.054  0.6581 -0.9911 -0.1889
  727TMC3    C310743   4.317   2.623   9.988 -0.4939  0.9968  0.5713
  727TMC3    C410744   4.162   2.416  10.075  0.2087  0.4405 -0.2718
  727TMC3    C510745   4.108   2.522  10.009 -0.1459 -0.3255 -0.6774
  727TMC3    C610746   4.180   2.627   9.966 -0.3620 -0.3318 -0.0067
  727TMC3     C10747   4.348   2.351  10.223 -0.2774  0.9399  0.2680
  727TMC3     O10748   4.442   2.391  10.291  0.5393  0.3615 -0.2486
  727TMC3     H10749   4.483   2.519  10.086  0.3005  0.3450  0.8423
  727TMC3    H110750   4.096   2.342  10.117  0.0255  0.3136 -0.7808
  727TMC3    H210751   4.132   2.710   9.916 -0.3051  0.9643  2.1394
  727TMC3    C710752   3.981   2.508   9.948  0.0721  0.0641  0.9146
  727TMC3    C810753   4.388   2.744   9.980  0.0561 -0.0172  0.3246
  727TMC3    O110754   3.908   2.604   9.936  0.8334 -0.3811 -0.1582
  727TMC3    O210755   4.506   2.735   9.937  0.4420  0.4439  0.1765
  728TMC3    C110756   3.043   1.350  15.113 -0.1341 -0.0589 -0.8034
  728TMC3    C210757   3.103   1.272  15.211  0.4836 -0.8227  0.2395
  728TMC3    C310758   3.235   1.311  15.249  0.1771  0.0007  0.4688
  728TMC3    C410759   3.089   1.471  15.072 -0.7043 -0.2798 -0.0450
  728TMC3    C510760   3.206   1.517  15.138 -0.2783 -0.2005  0.2749
  728TMC3    C610761   3.285   1.429  15.214  1.1567 -0.1493 -0.9915
  728TMC3     C10762   2.905   1.318  15.082 -0.2627 -0.1699 -0.3834
  728TMC3     O10763   2.858   1.367  14.976  0.1729 -0.1795  0.3270
  728TMC3     H10764   3.065   1.173  15.235  0.6839 -0.9069  0.2048
  728TMC3    H110765   3.032   1.545  15.017 -0.2242  0.0243 -0.1396
  728TMC3    H210766   3.367   1.485  15.258  1.3837 -0.1577 -1.4038
  728TMC3    C710767   3.234   1.660  15.135 -0.2390  0.6094 -0.8076
  728TMC3    C810768   3.289   1.225  15.355  0.7931  0.2173  0.0315
  728TMC3    O110769   3.301   1.701  15.232  0.3311 -0.5244 -0.5566
  728TMC3    O210770   3.204   1.160  15.416 -0.0328  0.2805 -0.0200
  729MPD2     C10771   0.263   2.188  16.271 -0.3025 -0.0957 -0.3951
  729MPD2    C110772   0.349   2.105  16.343 -0.6002 -0.3171 -0.5529
  729MPD2    C210773   0.308   2.042  16.459 -0.0927  0.1270 -0.1506
  729MPD2    C310774   0.183   2.076  16.507  0.0893 -0.7015  0.3029
  729MPD2    C410775   0.097   2.155  16.432 -0.4114  0.3384 -0.4127
  729MPD2    C510776   0.137   2.195  16.308 -0.4608 -0.2334 -0.4538
  729MPD2     H10777   0.369   1.974  16.518 -0.6379  0.9439  1.3540
  729MPD2    H110778   0.002   2.182  16.477 -0.3926  0.5961 -0.5252
  729MPD2    H210779   0.287   2.224  16.171  1.0403 -0.2580 -0.1355
  729MPD2    H310780   0.072   2.252  16.243 -0.7573  0.0427  0.0880
  729MPD2     N10781   0.142   2.044  16.635 -0.4398 -0.1287  0.8257
  729MPD2    H510782   0.056   2.083  16.671 -0.2169 -0.4090  1.6492
  729MPD2    N110783   0.481   2.116  16.303 -0.1127 -0.2464 -0.0426
  729MPD2    H710784   0.499   2.169  16.218 -0.9165  0.3628  0.1732
  730TMC3    C110785   0.186   2.003  16.864 -0.1851  0.1828 -0.2433
  730TMC3    C210786   0.281   1.952  16.942 -0.1620 -0.3725  0.0448
  730TMC3    C310787   0.341   2.021  17.048 -0.5327  0.5094  0.9835
  730TMC3    C410788   0.147   2.134  16.891 -0.2934 -0.3917 -0.1030
  730TMC3    C510789   0.216   2.208  16.989  0.1073  0.2949  0.4613
  730TMC3    C610790   0.312   2.156  17.068 -0.3374 -0.5019  0.1667
  730TMC3     C10791   0.217   1.970  16.728  0.0932  0.1185  0.0070
  730TMC3     O10792   0.299   1.881  16.708 -0.2728  0.2453 -0.2198
  730TMC3     H10793   0.294   1.845  16.931 -0.9200 -0.6897  2.3244
  730TMC3    H110794   0.065   2.180  16.837 -0.3940 -1.5223 -0.9173
  730TMC3    H210795   0.354   2.215  17.149  1.1239 -1.2187 -0.0635
  730TMC3    C710796   0.202   2.352  16.988 -0.1743  0.0794 -1.0510
  730TMC3    C810797   0.443   1.975  17.132 -0.2376  0.4439 -0.1942
  730TMC3    O110798   0.128   2.394  16.897  0.0779  0.9219  0.0904
  730TMC3    O210799   0.465   2.039  17.234 -0.8539 -0.7044 -0.1425
  731MPD2     C10800   4.663   4.154  12.122  0.0017 -0.4492 -0.2571
  731MPD2    C110801   0.078   4.147  12.111  0.5772  0.6621 -0.1369
  731MPD2    C210802   0.158   4.126  12.222  0.0957  0.3253 -0.1332
  731MPD2    C310803   0.097   4.129  12.345 -0.4493 -0.9028  0.6227
  731MPD2    C410804   4.681   4.139  12.355 -0.3733 -0.2434  0.3729
  731MPD2    C510805   4.605   4.152  12.244 -0.7274 -0.2537 -0.8404
  731MPD2     H10806   0.266   4.127  12.225  0.0724  0.8327  0.7749
  731MPD2    H110807   4.627   4.142  12.449  0.7186 -0.9903  1.0283
  731MPD2    H210808   4.601   4.158  12.032 -0.9475 -0.7086  0.3821
  731MPD2    H310809   4.497   4.160  12.257 -0.2277  0.1703  3.1465
  731MPD2     N10810   0.175   4.105  12.460 -0.0838  0.1482  0.2177
  731MPD2    H510811   0.271   4.077  12.448 -0.3563 -1.3144  1.3512
  731MPD2    N110812   0.131   4.169  11.982 -0.3755 -0.6457 -0.7967
  731MPD2    H710813   0.063   4.193  11.911 -0.7244 -1.4291 -0.7299
  732TMC3    C110814   0.304   4.226  11.828 -0.1417 -0.0295  0.2659
  732TMC3    C210815   0.236   4.340  11.779 -0.4042  0.0079  0.2836
  732TMC3    C310816   0.292   4.398  11.670  0.5046 -0.9318 -0.0131
  732TMC3    C410817   0.428   4.187  11.776 -0.7054 -0.0777  0.2818
  732TMC3    C510818   0.469   4.243  11.664  0.4532 -0.1244  0.1140
  732TMC3    C610819   0.403   4.350  11.602 -0.2103 -0.0072  0.5651
  732TMC3     C10820   0.264   4.164  11.953  0.0476 -0.3209 -0.6052
  732TMC3     O10821   0.355   4.118  12.028  0.1617 -0.5347  0.9033
  732TMC3     H10822   0.142   4.367  11.826  0.2873  1.4517  0.8399
  732TMC3    H110823   0.487   4.107  11.817 -0.4671  1.1282  2.3088
  732TMC3    H210824   0.423   4.394  11.505 -1.7757  1.2603  0.8292
  732TMC3    C710825   0.608   4.221  11.619  0.3984 -0.5350  0.6743
  732TMC3    C810826   0.228   4.516  11.613 -0.2651  0.2815 -0.1366
  732TMC3    O110827   0.631   4.262  11.508 -0.1813  0.0635  0.4193
  732TMC3    O210828   0.259   4.554  11.499  0.6712 -0.3469 -0.1478
  733TMC3    C110829   2.260   3.058  12.733 -0.1855  0.1791  0.6389
  733TMC3    C210830   2.331   3.111  12.841 -0.8417  0.0830  0.2952
  733TMC3    C310831   2.413   3.219  12.809  0.6840 -0.0573  0.9124
  733TMC3    C410832   2.286   3.104  12.604 -0.5711 -0.0550 -0.3239
  733TMC3    C510833   2.385   3.196  12.580 -0.1808 -0.6753 -0.4170
  733TMC3    C610834   2.440   3.258  12.684 -0.6700 -0.5067 -0.6764
  733TMC3     C10835   2.130   3.000  12.753  0.1029  0.0622  0.1979
  733TMC3     O10836   2.055   3.014  12.658 -0.1652  0.2634 -0.1674
  733TMC3     H10837   2.301   3.087  12.943  2.3324 -0.5272  1.0814
  733TMC3    H110838   2.226   3.064  12.523  0.2813  2.0895 -2.0153
  733TMC3    H210839   2.506   3.342  12.662 -1.0280  0.3087  1.4157
  733TMC3    C710840   2.458   3.183  12.455  0.0511  0.9957  0.3457
  733TMC3    C810841   2.493   3.270  12.922  0.2748  0.2772  0.2968
  733TMC3    O110842   2.397   3.151  12.350  0.1567 -0.1127 -0.1247
  733TMC3    O210843   2.450   3.226  13.028 -0.3636 -0.4337  0.3213
  734MPD2     C10844   3.806   0.975  12.090  0.0241 -0.3632 -0.0224
  734MPD2    C110845   3.811   0.859  12.019  0.4502  0.3244  0.1748
  734MPD2    C210846   3.909   0.853  11.921  0.1638 -0.5757  0.1775
  734MPD2    C310847   3.996   0.954  11.890  0.2056  0.0384  0.6041
  734MPD2    C410848   3.987   1.070  11.959  0.1805 -0.2411  0.7131
  734MPD2    C510849   3.894   1.081  12.060  0.1375  0.3224  0.6265
  734MPD2     H10850   3.931   0.762  11.865 -1.5320 -0.7303 -0.2387
  734MPD2    H110851   4.032   1.163  11.926 -0.0970 -0.3736 -0.0184
  734MPD2    H210852   3.735   0.996  12.170 -0.1875  2.3857 -0.9065
  734MPD2    H310853   3.893   1.168  12.125 -0.4041 -0.3460  1.4957
  734MPD2     N10854   4.085   0.935  11.782 -0.4586 -0.2778 -0.4741
  734MPD2    H510855   4.097   0.838  11.754 -0.4628 -0.1374 -0.9575
  734MPD2    N110856   3.717   0.752  12.045 -0.1775  0.0637  0.3686
  734MPD2    H710857   3.649   0.764  12.119 -0.6477  0.6368 -0.1628
  735TMC3    C110858   3.579   0.563  11.974  0.1218 -0.4891 -0.1082
  735TMC3    C210859   3.530   0.529  11.852 -0.6137  0.0970  0.8254
  735TMC3    C310860   3.478   0.403  11.837  0.1165  0.1695 -0.5928
  735TMC3    C410861   3.578   0.478  12.078 -0.6110  0.5469 -0.0802
  735TMC3    C510862   3.517   0.359  12.062 -0.1501  0.0069  0.0643
  735TMC3    C610863   3.468   0.315  11.941 -0.1852 -0.4434  0.0949
  735TMC3     C10864   3.698   0.639  11.962  0.6806  0.3915  0.6227
  735TMC3     O10865   3.762   0.602  11.866  0.4881 -0.0484 -0.0093
  735TMC3     H10866   3.535   0.605  11.775 -1.5249  0.8916  1.5471
  735TMC3    H110867   3.622   0.517  12.169 -0.8428 -0.7627  0.5930
  735TMC3    H210868   3.413   0.222  11.931 -2.2231  0.4934  2.6415
  735TMC3    C710869   3.566   0.254  12.149 -0.0285  0.6889 -0.1468
  735TMC3    C810870   3.518   0.351  11.709  0.7174  0.2699 -0.4299
  735TMC3    O110871   3.587   0.278  12.270  0.9609 -0.2574 -0.4243
  735TMC3    O210872   3.452   0.262  11.655  0.4902  0.3471 -0.0183
  736MPD2     C10873   3.786   0.071  12.211 -0.9132  0.3131 -0.0783
  736MPD2    C110874   3.728   0.079  12.090  0.0163  0.0139  0.4826
  736MPD2    C210875   3.783   0.021  11.978 -0.3444 -0.9079 -0.6928
  736MPD2    C310876   3.905   4.680  11.985 -0.3195 -0.2174  0.2115
  736MPD2    C410877   3.959   4.653  12.110 -0.0630  0.2433  0.6233
  736MPD2    C510878   3.903   0.001  12.219  0.0748 -0.2738 -0.9588
  736MPD2     H10879   3.735   0.032  11.881  0.4288 -0.6386 -1.0420
  736MPD2    H110880   4.044   4.586  12.114 -0.4939 -0.3084  0.5452
  736MPD2    H210881   3.754   0.121  12.301  1.2098  0.0727  0.8101
  736MPD2    H310882   3.956   4.718  12.314 -1.0900  0.8671 -0.2751
  736MPD2     N10883   3.982   4.641  11.873  0.2376 -0.4293  0.1144
  736MPD2    H510884   4.060   4.580  11.895  1.5382  0.1832 -2.7121
  736MPD2    N110885   3.617   0.162  12.067 -0.1153  0.5113  0.0305
  736MPD2    H710886   3.576   0.160  11.975  0.8211  1.7423 -0.4078
  737TMC3    C110887   4.092   4.686  11.663  0.1731  0.1758 -0.2668
  737TMC3    C210888   4.102   0.067  11.566 -0.1337  0.3088  0.3244
  737TMC3    C310889   4.221   0.078  11.499 -0.7888  0.2715  0.0498
  737TMC3    C410890   4.190   4.595  11.694  0.0655  0.7499 -0.0069
  737TMC3    C510891   4.313   4.619  11.619  0.2595 -0.2068 -0.1418
  737TMC3    C610892   4.328   4.708  11.518  0.7105 -0.2713 -0.1603
  737TMC3     C10893   3.971   4.704  11.750 -0.3427  0.2195 -0.2386
  737TMC3     O10894   3.884   0.065  11.716 -0.3378  0.6509  0.2867
  737TMC3     H10895   4.032   0.148  11.549 -1.0203 -0.3165  1.0632
  737TMC3    H110896   4.172   4.498  11.739 -1.8196  0.7541 -0.7773
  737TMC3    H210897   4.420   0.007  11.464  0.2659 -0.9830 -1.1578
  737TMC3    C710898   4.390   4.488  11.605  0.8613 -0.3901 -0.3515
  737TMC3    C810899   4.245   0.197  11.415  0.0754 -0.1135  0.3303
  737TMC3    O110900   4.347   4.388  11.662 -0.1242  0.9845  0.1109
  737TMC3    O210901   4.350   0.255  11.430 -0.7066 -0.3973 -0.0463
  738MPD2     C10902   0.046   4.297  15.234  0.1302 -0.1081  0.3606
  738MPD2    C110903   0.055   4.185  15.156  0.9729  0.1755 -0.0322
  738MPD2    C210904   0.176   4.156  15.099  0.2590 -0.0658 -1.1842
  738MPD2    C310905   0.294   4.232  15.129  0.2784  0.0036  0.0429
  738MPD2    C410906   0.284   4.349  15.208  0.1711  0.0001  0.2250
  738MPD2    C510907   0.154   4.374  15.253 -0.2848 -0.1959  0.3994
  738MPD2     H10908   0.180   4.072  15.031  0.1250 -0.9231 -0.1486
  738MPD2    H110909   0.365   4.417  15.230  0.0875  0.2344 -0.1965
  738MPD2    H210910   4.675   4.335  15.281 -0.0362 -0.9248  0.7001
  738MPD2    H310911   0.143   4.467  15.309  0.7278 -0.4899  1.0948
  738MPD2     N10912   0.420   4.208  15.068 -0.5323 -0.4228  0.8238
  738MPD2    H510913   0.486   4.283  15.088 -0.5535 -0.6437  1.6940
  738MPD2    N110914   4.659   4.111  15.118 -0.0180  0.2338  0.3568
  738MPD2    H710915   4.676   4.054  15.036 -0.2617 -0.4716  0.7953
  739TMC3    C110916   0.584   4.139  14.928 -0.0425 -0.3068 -0.4001
  739TMC3    C210917   0.607   4.114  14.797 -0.1826  0.7718 -0.1217
  739TMC3    C310918   0.734   4.151  14.750  0.8441 -0.1963 -0.2528
  739TMC3    C410919   0.669   4.201  15.014 -0.3261  0.4842 -0.4873
  739TMC3    C510920   0.788   4.243  14.956 -0.6074  0.2824 -0.0870
  739TMC3    C610921   0.822   4.223  14.823 -0.1113 -0.4495 -0.5899
  739TMC3     C10922   0.456   4.104  14.991 -0.1332 -0.0214 -0.1915
  739TMC3     O10923   0.395   4.008  14.944 -0.5208  0.1780  0.0522
  739TMC3     H10924   0.541   4.053  14.737 -1.6086  1.4680  0.7461
  739TMC3    H110925   0.665   4.195  15.122 -2.8625 -0.0822 -0.6045
  739TMC3    H210926   0.910   4.264  14.776 -0.5011  0.0656 -0.8647
  739TMC3    C710927   0.836   4.362  15.027  0.0657  0.5139 -0.7965
  739TMC3    C810928   0.753   4.164  14.613 -0.3265 -0.0032 -0.5240
  739TMC3    O110929   0.801   4.381  15.142 -0.0956  0.1396  0.1276
  739TMC3    O210930   0.648   4.159  14.548 -0.0121  0.0866 -0.0486
  740TMC3    C110931   0.619   0.637  14.970 -0.2355  0.4112  0.3857
  740TMC3    C210932   0.609   0.528  15.049  0.3391  0.3105 -0.6715
  740TMC3    C310933   0.687   0.421  15.014  0.2196 -0.3746 -0.0002
  740TMC3    C410934   0.715   0.658  14.878 -1.2945 -0.4791 -0.8375
  740TMC3    C510935   0.803   0.555  14.870  0.3728  0.1321  0.2976
  740TMC3    C610936   0.790   0.433  14.933 -0.4004 -0.0846 -0.2823
  740TMC3     C10937   0.527   0.750  14.996  0.0553 -0.2106  0.2447
  740TMC3     O10938   0.575   0.858  14.971 -0.0166  0.1772  0.2607
  740TMC3     H10939   0.539   0.515  15.131  2.9173 -0.4391  1.4447
  740TMC3    H110940   0.721   0.743  14.811  0.3442 -0.1877 -0.3370
  740TMC3    H210941   0.846   0.348  14.895  1.1198 -0.2722  2.3873
  740TMC3    C710942   0.904   0.563  14.760  0.3486 -0.0107  0.5649
  740TMC3    C810943   0.620   0.295  15.039  0.8308  0.1128 -0.2200
  740TMC3    O110944   0.994   0.484  14.767 -0.1469  0.4515  0.2562
  740TMC3    O210945   0.532   0.291  15.126  0.0475 -0.3185  0.3541
  741TMC3    C110946   0.242   0.339  14.279 -0.2208 -0.2662  0.4369
  741TMC3    C210947   0.132   0.280  14.231 -0.4690 -0.5754 -0.1005
  741TMC3    C310948   0.129   0.150  14.260 -0.1918  0.0145 -0.0703
  741TMC3    C410949   0.354   0.273  14.335 -0.4621  0.0904  1.1031
  741TMC3    C510950   0.348   0.137  14.340 -0.0973  0.6449  0.4748
  741TMC3    C610951   0.233   0.072  14.308  0.3972  0.5519  0.9251
  741TMC3     C10952   0.251   0.488  14.289 -0.4525 -0.1710  0.1215
  741TMC3     O10953   0.361   0.537  14.291  0.1265  0.5505 -0.0252
  741TMC3     H10954   0.047   0.336  14.192  0.3089 -0.2340 -1.3137
  741TMC3    H110955   0.443   0.327  14.366  0.1338  0.1231 -0.6522
  741TMC3    H210956   0.215   4.690  14.344  0.7661 -0.1980 -0.9994
  741TMC3    C710957   0.463   0.063  14.409 -0.0751  0.1006  0.6462
  741TMC3    C810958   4.719   0.089  14.278 -0.6685  0.1135  0.1184
  741TMC3    O110959   0.423   4.671  14.455  0.4185 -0.3797 -0.4357
  741TMC3    O210960   4.625   0.165  14.282  0.3569  0.0901  0.0917
  742TMC3    C110961   4.389   3.556  15.154  0.3578  0.0752  0.1157
  742TMC3    C210962   4.335   3.530  15.030 -0.4680 -0.2922  0.0923
  742TMC3    C310963   4.437   3.508  14.940  0.7743  0.2671 -0.4672
  742TMC3    C410964   4.520   3.593  15.177  0.2992 -0.9437  0.2991
  742TMC3    C510965   4.604   3.602  15.069 -0.3898 -0.2550 -0.6765
  742TMC3    C610966   4.564   3.548  14.954  0.1558 -0.0576 -0.1857
  742TMC3     C10967   4.292   3.527  15.263 -0.3783 -0.0727  0.3078
  742TMC3     O10968   4.171   3.531  15.238 -0.0863  0.2706 -0.8082
  742TMC3     H10969   4.243   3.473  15.031  2.1552 -4.5300 -0.6642
  742TMC3    H110970   4.569   3.604  15.273  1.0094 -1.5351  0.0031
  742TMC3    H210971   4.632   3.561  14.870 -0.0630  0.0491 -0.3444
  742TMC3    C710972   0.022   3.581  15.085 -0.1150 -0.3780 -1.2081
  742TMC3    C810973   4.405   3.447  14.814 -0.0550 -0.3546 -0.5619
  742TMC3    O110974   0.072   3.503  15.004  0.0071  0.2433  0.4795
  742TMC3    O210975   4.498   3.389  14.762 -0.1272 -0.3816 -0.1009
  743MPD2     C10976   1.299   4.247   1.250  0.4192 -0.6283 -0.3626
  743MPD2    C110977   1.403   4.247   1.159 -1.6166  0.2042 -0.0327
  743MPD2    C210978   1.506   4.156   1.178 -0.1876 -0.2991  0.3119
  743MPD2    C310979   1.496   4.062   1.278 -0.7162 -0.4232 -0.6762
  743MPD2    C410980   1.386   4.055   1.369  0.2960 -0.4584 -0.8306
  743MPD2    C510981   1.293   4.153   1.349 -0.1761  0.7601  0.4925
  743MPD2     H10982   1.591   4.144   1.111 -1.1276  0.7620 -1.0513
  743MPD2    H110983   1.390   3.981   1.448 -0.0830 -0.5139 -0.8625
  743MPD2    H210984   1.222   4.324   1.248 -0.0083 -1.0287  0.4902
  743MPD2    H310985   1.209   4.164   1.417  1.3231  1.7440  2.1993
  743MPD2     N10986   1.605   3.965   1.284 -0.1708 -0.4454 -0.5623
  743MPD2    H510987   1.682   3.977   1.219 -0.9096  1.1329 -1.1381
  743MPD2    N110988   1.401   4.336   1.047  0.3778 -0.7653  1.1543
  743MPD2    H710989   1.325   4.403   1.043  2.9640  1.9894 -1.4332
  744TMC3    C110990   1.459   4.439   0.846  0.8798  0.0450 -0.3750
  744TMC3    C210991   1.329   4.488   0.837 -0.6032  0.2090  0.1956
  744TMC3    C310992   1.304   4.581   0.745  0.4678  0.4397  0.6144
  744TMC3    C410993   1.560   4.494   0.762 -0.5021  0.6652  0.2914
  744TMC3    C510994   1.514   4.569   0.654  0.2269  0.1824  0.0864
  744TMC3    C610995   1.386   4.617   0.646  0.0445  1.2230 -0.5638
  744TMC3     C10996   1.502   4.353   0.957 -0.5177 -1.2895 -0.3593
  744TMC3     O10997   1.611   4.302   0.952 -0.2758 -0.4055 -1.5621
  744TMC3     H10998   1.244   4.458   0.897  0.3177  1.1631  1.9776
  744TMC3    H110999   1.660   4.457   0.782 -1.0032 -0.7747  0.1679
  744TMC3    H211000   1.360   4.693   0.573  0.2978  1.4906 -0.3775
  744TMC3    C711001   1.612   4.631   0.566 -0.1020 -0.0237  0.4749
  744TMC3    C811002   1.173   4.648   0.764 -0.1096  0.5466  0.1908
  744TMC3    O111003   1.587   0.019   0.515 -0.1487 -0.5497  0.0094
  744TMC3    O211004   1.085   4.589   0.824  0.4462 -0.3499 -0.1695
  745TMC3    C111005   0.621   2.786  13.394  0.9452 -0.2973 -0.2004
  745TMC3    C211006   0.497   2.786  13.452 -0.4540  0.0393  0.0662
  745TMC3    C311007   0.398   2.840  13.375 -0.7018 -0.5345  0.6418
  745TMC3    C411008   0.639   2.829  13.262 -0.1343 -0.5465 -0.2206
  745TMC3    C511009   0.530   2.862  13.183 -0.1422  0.0226 -0.2853
  745TMC3    C611010   0.407   2.860  13.236  0.2977 -0.3312 -0.3048
  745TMC3     C11011   0.734   2.820  13.475  0.2297  0.2308  0.6801
  745TMC3     O11012   0.769   2.743  13.561 -0.1619  0.1098 -0.5837
  745TMC3     H11013   0.475   2.763  13.555  1.4003  1.9584  0.8969
  745TMC3    H111014   0.739   2.802  13.229 -0.0136  0.6667 -0.8296
  745TMC3    H211015   0.321   2.904  13.187 -0.7948 -0.6533  1.3447
  745TMC3    C711016   0.538   2.897  13.040  0.1591 -0.2826 -0.0380
  745TMC3    C811017   0.288   2.919  13.434  0.2696  0.0178  0.4729
  745TMC3    O111018   0.430   2.931  12.990 -0.7015  0.4675  0.0645
  745TMC3    O211019   0.174   2.917  13.388 -0.0345 -0.1799  0.8960
  746TMC3    C111020   2.738   0.013  11.171  0.3136  0.6389  0.3400
  746TMC3    C211021   2.802   4.643  11.091 -0.4534 -0.2204 -0.2751
  746TMC3    C311022   2.771   4.513  11.096 -0.1807 -0.1063  0.1850
  746TMC3    C411023   2.626   4.695  11.237  0.5977  0.5558  0.0203
  746TMC3    C511024   2.586   4.564  11.232  0.0061  0.9020 -0.3637
  746TMC3    C611025   2.660   4.471  11.168  0.6487  0.4224 -0.8444
  746TMC3     C11026   2.728   0.149  11.129 -0.3940 -0.1864 -0.2449
  746TMC3     O11027   2.635   0.220  11.165 -0.5056 -0.1654 -0.0187
  746TMC3     H11028   2.885   4.668  11.026 -0.4797 -0.2684 -0.3274
  746TMC3    H111029   2.575   0.049  11.298  0.2328 -0.9453  1.5255
  746TMC3    H211030   2.629   4.369  11.149  0.9025  0.1723  0.0733
  746TMC3    C711031   2.449   4.554  11.198  0.4406  0.1217 -0.0624
  746TMC3    C811032   2.802   4.424  10.984 -0.5245 -0.3352 -0.2650
  746TMC3    O111033   2.389   4.449  11.214  0.2768  0.4291  1.0347
  746TMC3    O211034   2.815   4.305  11.004 -0.0289 -0.4412 -0.2408
  747TMC3    C111035   0.403   4.510  10.878 -0.8772  0.0031 -0.7279
  747TMC3    C211036   0.322   4.412  10.925  0.1086  0.1406  0.4307
  747TMC3    C311037   0.307   4.408  11.058 -0.4807 -0.1981 -0.3031
  747TMC3    C411038   0.456   4.613  10.957 -0.6741 -0.1038  0.2842
  747TMC3    C511039   0.437   4.596  11.092 -0.6660  0.6528 -0.1123
  747TMC3    C611040   0.371   4.487  11.141 -0.2572  0.2007  0.3026
  747TMC3     C11041   0.403   4.534  10.731 -0.7164 -0.0830  0.0527
  747TMC3     O11042   0.417   4.651  10.706 -0.2023  0.2952 -0.3584
  747TMC3     H11043   0.265   4.342  10.865 -0.8400  0.6409  0.7476
  747TMC3    H111044   0.542   4.671  10.924 -0.8415 -1.2593 -2.1920
  747TMC3    H211045   0.360   4.467  11.247  0.1945  1.7710  0.6328
  747TMC3    C711046   0.504   4.688  11.183 -0.5375  0.2338 -0.3465
  747TMC3    C811047   0.198   4.329  11.110 -0.4008  0.0701  0.4945
  747TMC3    O111048   0.505   0.090  11.160  0.0362  0.1236 -0.1674
  747TMC3    O211049   0.146   4.237  11.043  0.3383 -0.2542 -0.3190
  748MPD2     C11050   0.855   1.238   2.450  0.0600 -0.7484  0.0370
  748MPD2    C111051   0.876   1.125   2.367  0.6798  0.5981 -0.0378
  748MPD2    C211052   0.992   1.124   2.285 -0.4385 -0.2388 -0.0012
  748MPD2    C311053   1.078   1.229   2.285 -0.4909  0.1336  0.7082
  748MPD2    C411054   1.056   1.336   2.375 -0.1329 -0.1544  0.7605
  748MPD2    C511055   0.944   1.341   2.450 -0.2082 -0.0278  0.3261
  748MPD2     H11056   1.015   1.029   2.238  0.1059 -0.4212  0.6360
  748MPD2    H111057   1.118   1.424   2.380 -0.0336 -0.2596  1.3309
  748MPD2    H211058   0.763   1.251   2.504 -0.5107  0.9548 -1.3723
  748MPD2    H311059   0.935   1.419   2.525  0.2120 -1.5120  1.9391
  748MPD2     N11060   1.195   1.228   2.208 -0.3755 -0.0699 -0.0354
  748MPD2    H511061   1.221   1.145   2.155  0.8101  1.1485 -1.3578
  748MPD2    N111062   0.768   1.029   2.361 -0.2579  0.8584 -0.2870
  748MPD2    H711063   0.695   1.037   2.432 -2.2762 -1.5704 -2.1214
  749TMC3    C111064   1.401   1.266   2.110  0.4385  0.2519 -0.5739
  749TMC3    C211065   1.431   1.132   2.108 -1.1732  0.2471  0.7113
  749TMC3    C311066   1.519   1.082   2.017 -0.0831 -0.2356 -0.3567
  749TMC3    C411067   1.462   1.354   2.024  0.0819 -0.2149 -0.3807
  749TMC3    C511068   1.559   1.307   1.936 -0.0322 -0.0551 -0.0309
  749TMC3    C611069   1.587   1.171   1.932 -0.6855  0.1165 -0.3818
  749TMC3     C11070   1.295   1.323   2.190  0.1885  0.3322  0.7391
  749TMC3     O11071   1.292   1.443   2.211  0.1956 -0.2605 -0.0036
  749TMC3     H11072   1.376   1.066   2.175 -1.2184 -0.3764  0.0516
  749TMC3    H111073   1.430   1.458   2.026  1.0976  0.1015 -0.3793
  749TMC3    H211074   1.659   1.132   1.861 -1.3885 -1.4140 -0.2598
  749TMC3    C711075   1.650   1.399   1.868  0.5847 -0.1557  0.3487
  749TMC3    C811076   1.578   0.955   2.051  0.0912  0.6007  0.5946
  749TMC3    O111077   1.698   1.363   1.761 -0.4211  0.2930 -0.3486
  749TMC3    O211078   1.522   0.893   2.142  0.0055  0.6644  0.8881
  750MPD2     C11079   3.255   1.854  11.220  0.0436 -0.1035  0.0683
  750MPD2    C111080   3.117   1.845  11.229 -0.1814 -0.5760 -0.5561
  750MPD2    C211081   3.057   1.745  11.158 -0.3841  0.2722  0.2713
  750MPD2    C311082   3.133   1.656  11.079 -0.2449 -0.0497 -0.6024
  750MPD2    C411083   3.268   1.673  11.081 -0.8043 -0.2529 -0.2907
  750MPD2    C511084   3.330   1.764  11.154  0.2955 -0.0356  0.0495
  750MPD2     H11085   2.950   1.729  11.162 -0.4675  0.9107  0.5784
  750MPD2    H111086   3.326   1.600  11.026  0.2605 -1.3431  2.2419
  750MPD2    H211087   3.304   1.932  11.277 -1.2360  2.4894 -2.3443
  750MPD2    H311088   3.438   1.769  11.164  0.1522 -0.6354  1.9740
  750MPD2     N11089   3.082   1.533  11.019 -0.0279 -0.1056  0.3118
  750MPD2    H511090   3.153   1.466  10.991  1.0049  0.1736  2.2864
  750MPD2    N111091   3.052   1.932  11.320  0.7974  0.2913  0.0751
  750MPD2    H711092   3.115   1.999  11.364 -0.8887  2.2983 -0.5799
  751TMC3    C111093   2.925   1.372  10.939  0.3596  0.1367 -0.3215
  751TMC3    C211094   2.794   1.334  10.959 -0.2269 -0.3662 -0.7211
  751TMC3    C311095   2.738   1.270  10.843  0.3762 -0.1290 -0.2512
  751TMC3    C411096   2.982   1.354  10.813  0.2228  0.2926  0.3277
  751TMC3    C511097   2.927   1.279  10.716 -0.1578  0.8407  0.0547
  751TMC3    C611098   2.798   1.234  10.728  1.0021 -0.8731  0.0385
  751TMC3     C11099   2.949   1.498  11.001 -0.0955  0.5127  0.3159
  751TMC3     O11100   2.847   1.561  11.029 -0.0564  0.5262 -0.1443
  751TMC3     H11101   2.741   1.359  11.051  0.9994 -1.4490  0.2825
  751TMC3    H111102   3.076   1.405  10.797 -0.7259  2.0665  0.4971
  751TMC3    H211103   2.749   1.174  10.653 -1.2516  0.0766  0.7424
  751TMC3    C711104   2.999   1.275  10.584 -0.1839 -0.3040  0.3481
  751TMC3    C811105   2.611   1.200  10.864 -0.1152  0.9422 -0.0627
  751TMC3    O111106   3.090   1.353  10.565  0.3825 -0.0879  0.5442
  751TMC3    O211107   2.576   1.104  10.793 -0.2591 -0.0846 -0.4098
  752TMC3    C111108   1.607   1.799  16.820  1.1549  0.0642  0.1651
  752TMC3    C211109   1.584   1.921  16.888 -0.0360  0.6099 -0.3270
  752TMC3    C311110   1.647   1.948  17.010  0.0123 -0.7563  0.1509
  752TMC3    C411111   1.705   1.712  16.866  0.8983  0.2289  0.0655
  752TMC3    C511112   1.773   1.745  16.983 -0.7704  0.2133 -0.1606
  752TMC3    C611113   1.740   1.856  17.054 -0.3648  0.5961 -0.7274
  752TMC3     C11114   1.573   1.796  16.678  0.8185 -0.2337 -0.6458
  752TMC3     O11115   1.661   1.767  16.601 -0.3034  0.2866  0.2584
  752TMC3     H11116   1.516   1.991  16.841  0.0705 -0.1597 -1.6498
  752TMC3    H111117   1.736   1.630  16.803  0.1720 -0.0401  0.0684
  752TMC3    H211118   1.795   1.877  17.145 -2.0782 -1.1665  0.7401
  752TMC3    C711119   1.877   1.658  17.034 -0.2853 -0.5922  0.4116
  752TMC3    C811120   1.594   2.056  17.089  0.7640 -0.4121  0.3371
  752TMC3    O111121   1.880   1.649  17.156 -0.8945  0.3351 -0.1741
  752TMC3    O211122   1.485   2.106  17.061 -0.4164  0.0404  0.3119
  753TMC3    C111123   3.525   3.023  13.458  0.0228 -0.1718  0.0884
  753TMC3    C211124   3.655   3.014  13.503 -0.6533 -0.1225 -0.2976
  753TMC3    C311125   3.736   2.916  13.445 -0.2889 -0.1521  0.7782
  753TMC3    C411126   3.469   2.923  13.378  0.2692  0.1181 -0.2006
  753TMC3    C511127   3.550   2.824  13.332 -0.3060 -0.9152  0.7665
  753TMC3    C611128   3.682   2.819  13.367  0.1682 -0.2238  0.2793
  753TMC3     C11129   3.443   3.120  13.526  0.0555  0.1819 -0.4608
  753TMC3     O11130   3.321   3.097  13.543  0.1846  0.2344 -0.7883
  753TMC3     H11131   3.696   3.090  13.569 -0.9875 -0.4059  0.2441
  753TMC3    H111132   3.371   2.947  13.339  0.2454  0.6424  0.1776
  753TMC3    H211133   3.746   2.737  13.336  3.5093  1.8126  1.8636
  753TMC3    C711134   3.504   2.707  13.269  0.1342 -0.7449 -0.2897
  753TMC3    C811135   3.872   2.878  13.502  0.4295  0.1030  0.4832
  753TMC3    O111136   3.581   2.641  13.202 -0.0025  0.0824  0.4433
  753TMC3    O211137   3.895   2.759  13.506  0.1733  0.3649  0.7689
  754MPD2     C11138   2.017   0.951  12.150 -0.1489 -0.0822 -0.0861
  754MPD2    C111139   2.048   1.082  12.187  0.5494  0.0470  0.5008
  754MPD2    C211140   2.002   1.136  12.304  0.0538 -0.2818 -0.4863
  754MPD2    C311141   1.925   1.064  12.393  0.2385 -0.1073 -0.4180
  754MPD2    C411142   1.887   0.938  12.353  0.3787 -0.5914  0.6457
  754MPD2    C511143   1.933   0.884  12.236 -0.8509  0.1630 -0.0588
  754MPD2     H11144   2.024   1.241  12.323 -0.5950 -0.4562  1.2140
  754MPD2    H111145   1.830   0.876  12.421  1.4293 -0.9954  1.1482
  754MPD2    H211146   2.060   0.905  12.061  1.4408  1.4864 -0.1171
  754MPD2    H311147   1.902   0.784  12.209  2.1848 -0.9949  0.7009
  754MPD2     N11148   1.875   1.113  12.514  0.1416  0.0715 -0.1772
  754MPD2    H511149   1.814   1.049  12.565  1.5811 -1.6636 -0.6106
  754MPD2    N111150   2.137   1.148  12.107 -0.0793 -0.4200  0.8316
  754MPD2    H711151   2.133   1.102  12.016 -1.2451  0.3080  0.5093
  755MPD2     C11152   1.410   1.854  12.872 -0.0969  0.0423  0.2863
  755MPD2    C111153   1.515   1.859  12.965 -0.2705 -0.4666  0.6962
  755MPD2    C211154   1.622   1.777  12.938  0.5693 -0.1246 -0.2039
  755MPD2    C311155   1.615   1.678  12.836  0.1276 -0.1700  0.3336
  755MPD2    C411156   1.508   1.682  12.754 -0.8352 -0.5544  0.2827
  755MPD2    C511157   1.406   1.768  12.772  0.0123  0.1200  0.3965
  755MPD2     H11158   1.701   1.780  13.012 -0.3747 -0.1639  0.8093
  755MPD2    H111159   1.501   1.610  12.674  1.5346  0.1095 -0.5220
  755MPD2    H211160   1.325   1.917  12.893 -0.6030  0.1640 -2.0892
  755MPD2    H311161   1.317   1.768  12.710  0.6929  1.8098 -0.5934
  755MPD2     N11162   1.699   1.563  12.823 -0.1750  0.1638  0.4296
  755MPD2    H511163   1.675   1.507  12.742 -0.4204 -1.0828  1.3543
  755MPD2    N111164   1.514   1.941  13.077 -0.3553  0.8490 -0.7826
  755MPD2    H711165   1.597   1.926  13.134 -1.2313  2.8213  0.9959
  756MPD2     C11166   2.989   2.076   9.305 -0.4153 -0.0347  0.1801
  756MPD2    C111167   2.873   2.096   9.382  0.4127  0.4950  0.0954
  756MPD2    C211168   2.751   2.085   9.314  0.2647  0.2740  0.4312
  756MPD2    C311169   2.747   2.059   9.176 -0.0309  0.1902  0.1924
  756MPD2    C411170   2.863   2.029   9.111 -0.0164 -0.2472  0.4804
  756MPD2    C511171   2.978   2.045   9.172 -0.0395  0.3833  0.0359
  756MPD2     H11172   2.653   2.086   9.359 -1.0594  1.7469 -2.4675
  756MPD2    H111173   2.868   2.010   9.004  1.1881  0.8429  0.3496
  756MPD2    H211174   3.089   2.079   9.346 -0.6106  1.2376  0.5731
  756MPD2    H311175   3.065   2.023   9.112 -0.4482  4.7919 -2.1966
  756MPD2     N11176   2.614   2.042   9.122 -0.3862 -0.0858 -0.4298
  756MPD2    H511177   2.537   2.047   9.188 -1.2357 -1.2203 -1.3169
  756MPD2    N111178   2.875   2.106   9.525 -0.0512  0.1235  0.4750
  756MPD2    H711179   2.786   2.122   9.569 -0.2185  2.1309 -0.5926
  757MPD2     C11180   1.707   1.642   9.152 -0.6603  0.1791 -0.7236
  757MPD2    C111181   1.828   1.624   9.217 -0.6043 -0.0813 -0.8824
  757MPD2    C211182   1.942   1.692   9.179 -0.1722 -0.3417 -0.4520
  757MPD2    C311183   1.923   1.774   9.069 -0.0935  0.4877 -0.0975
  757MPD2    C411184   1.801   1.805   9.012 -0.6963  0.3467 -0.0040
  757MPD2    C511185   1.690   1.736   9.051 -0.1098 -0.2839 -0.1157
  757MPD2     H11186   2.040   1.669   9.219 -0.9364  1.9051  2.7233
  757MPD2    H111187   1.808   1.883   8.937  0.7881 -0.1841 -0.4256
  757MPD2    H211188   1.620   1.578   9.166 -1.3041  1.2150  0.0048
  757MPD2    H311189   1.591   1.745   9.006 -0.5646  2.4645  1.4290
  757MPD2     N11190   2.028   1.849   9.012  0.0313 -0.1039  0.8105
  757MPD2    H511191   2.020   1.888   8.919  0.5655 -0.8864  0.4425
  757MPD2    N111192   1.836   1.516   9.314 -0.2227 -0.2988 -0.1125
  757MPD2    H711193   1.752   1.462   9.335 -2.4779  2.7825 -1.1617
  758MPD2     C11194   2.265   1.355  16.290 -0.8583 -0.2927 -0.4337
  758MPD2    C111195   2.329   1.276  16.389  0.0288 -0.2045 -0.0514
  758MPD2    C211196   2.258   1.221  16.491 -0.4832 -0.8317 -0.1699
  758MPD2    C311197   2.124   1.262  16.505  0.0575  0.8896  0.1597
  758MPD2    C411198   2.067   1.344  16.414  0.4465  0.6103  0.1554
  758MPD2    C511199   2.135   1.385  16.299  0.0672  0.1404  0.5433
  758MPD2     H11200   2.319   1.173  16.566  0.2373  0.2018 -0.0894
  758MPD2    H111201   1.971   1.390  16.435  0.1045 -0.4945  1.0030
  758MPD2    H211202   2.322   1.407  16.214  1.7032 -1.2113  0.8468
  758MPD2    H311203   2.091   1.462  16.237  0.5027 -1.3430 -1.6050
  758MPD2     N11204   2.049   1.235  16.621  0.1411 -0.0240  0.5456
  758MPD2    H511205   1.957   1.277  16.630  1.0006  1.4658  2.6031
  758MPD2    N111206   2.472   1.272  16.371  0.4682  0.2153 -0.3212
  758MPD2    H711207   2.507   1.345  16.309  0.3317 -0.4671 -1.2025
  759MPD2     C11208   1.273   4.146  10.051  0.0010 -0.2584 -0.4004
  759MPD2    C111209   1.204   4.028  10.034 -0.2530  0.1778  0.9834
  759MPD2    C211210   1.228   3.949   9.920  0.6343  0.0416  0.1932
  759MPD2    C311211   1.311   3.988   9.814 -0.6525  0.2876 -0.8719
  759MPD2    C411212   1.384   4.098   9.838  0.0031 -0.7172  0.3316
  759MPD2    C511213   1.370   4.176   9.951  0.6555  0.1357 -0.2582
  759MPD2     H11214   1.197   3.845   9.916 -2.6942  1.0221  0.9730
  759MPD2    H111215   1.449   4.140   9.762  0.6859 -0.8633  0.8337
  759MPD2    H211216   1.247   4.216  10.130  1.8650  0.9870 -0.8901
  759MPD2    H311217   1.439   4.256   9.972 -0.3403  0.6031  1.2425
  759MPD2     N11218   1.315   3.907   9.700 -0.1845  0.1980  0.1400
  759MPD2    H511219   1.264   3.819   9.709 -1.6529  0.8768 -1.6360
  759MPD2    N111220   1.105   3.986  10.124 -0.9425  0.1195 -0.0900
  759MPD2    H711221   1.071   3.893  10.104 -1.6137  0.3696 -0.0924
  760MPD2     C11222   0.710   1.873  11.713 -0.1464 -0.2514 -0.3911
  760MPD2    C111223   0.837   1.829  11.682  0.1916 -0.0337 -0.5629
  760MPD2    C211224   0.905   1.759  11.779  0.1886  0.6020 -0.2100
  760MPD2    C311225   0.847   1.715  11.892 -0.1506  0.9580  0.3416
  760MPD2    C411226   0.715   1.749  11.916 -0.5857 -0.4520 -0.0154
  760MPD2    C511227   0.646   1.831  11.827 -0.2658  0.0594 -0.1012
  760MPD2     H11228   1.011   1.750  11.761 -0.0119 -0.5534 -0.7910
  760MPD2    H111229   0.665   1.699  11.998  0.4652 -1.1977  0.1679
  760MPD2    H211230   0.660   1.946  11.650  0.3410  0.5306  0.1285
  760MPD2    H311231   0.542   1.854  11.849 -0.9042 -0.8002 -2.1597
  760MPD2     N11232   0.918   1.640  11.991  0.2272 -0.3274 -0.2230
  760MPD2    H511233   0.869   1.611  12.076  0.1582  0.2745 -0.0580
  760MPD2    N111234   0.909   1.868  11.566 -0.7299  0.0119  0.4024
  760MPD2    H711235   1.002   1.829  11.557 -1.2286 -1.0852 -0.1134
  761MPD2     C11236   2.130   1.193  11.043  1.0377 -0.2277  0.6372
  761MPD2    C111237   2.201   1.094  10.979 -0.0919  0.3585 -0.6033
  761MPD2    C211238   2.334   1.123  10.945  0.2545  0.0025 -0.4585
  761MPD2    C311239   2.398   1.240  10.983 -0.1417  0.3425  0.5021
  761MPD2    C411240   2.325   1.331  11.051 -0.8135 -0.3923 -0.3551
  761MPD2    C511241   2.196   1.310  11.078  0.1981  0.1107 -0.5229
  761MPD2     H11242   2.398   1.050  10.896  1.5128 -1.8281  3.8743
  761MPD2    H111243   2.374   1.424  11.074  1.0586 -0.5039 -3.9635
  761MPD2    H211244   2.032   1.184  11.089  0.0934  1.9596 -0.9479
  761MPD2    H311245   2.136   1.379  11.136 -1.4355 -1.8919  0.1500
  761MPD2     N11246   2.533   1.266  10.959 -0.2267  0.7174 -0.4876
  761MPD2    H511247   2.563   1.355  10.997  0.3189  0.3649 -0.0945
  761MPD2    N111248   2.145   0.973  10.960 -0.3730 -0.1217  0.0283
  761MPD2    H711249   2.050   0.961  10.994 -1.0128  0.5776 -1.5637
  762MPD2     C11250   1.874   0.179  10.665  0.1351 -0.1973 -0.8393
  762MPD2    C111251   1.983   0.259  10.665 -0.0998 -0.2066  0.0859
  762MPD2    C211252   2.076   0.242  10.558 -0.1994  0.3302 -0.1514
  762MPD2    C311253   2.078   0.132  10.474 -0.1881 -0.8397  0.0648
  762MPD2    C411254   1.975   0.044  10.493  0.4935 -0.4639  0.3355
  762MPD2    C511255   1.873   0.077  10.578 -0.4565 -0.0834  0.6972
  762MPD2     H11256   2.155   0.311  10.529  0.5007  0.0171  1.0182
  762MPD2    H111257   1.969   4.681  10.423  0.1953 -1.7079  1.8482
  762MPD2    H211258   1.797   0.192  10.741 -0.1186 -3.8163 -0.4385
  762MPD2    H311259   1.793   0.003  10.572  1.0739 -1.4765 -2.6910
  762MPD2     N11260   2.190   0.120  10.387 -0.1309  0.5796 -0.4770
  762MPD2    H511261   2.250   0.202  10.397  1.9228 -0.6968 -2.2380
  762MPD2    N111262   2.004   0.341  10.779 -0.5393 -0.8830 -0.0186
  762MPD2    H711263   1.931   0.351  10.849 -0.2001 -0.1528  0.2245
  763MPD2     C11264   3.707   1.454  16.416  0.1907  0.5410  0.0538
  763MPD2    C111265   3.808   1.502  16.338 -0.3063 -0.0826 -0.0891
  763MPD2    C211266   3.853   1.630  16.357 -0.6158  0.4878 -0.1881
  763MPD2    C311267   3.810   1.704  16.460 -0.0402  0.1189  0.4002
  763MPD2    C411268   3.706   1.653  16.534 -0.4465 -0.0217 -0.0809
  763MPD2    C511269   3.659   1.526  16.514  0.1852  0.2496  0.0836
  763MPD2     H11270   3.928   1.672  16.291  0.5419 -0.5107  0.4844
  763MPD2    H111271   3.665   1.711  16.616 -3.5622 -1.2057 -0.8211
  763MPD2    H211272   3.657   1.360  16.392 -0.3852  1.1435 -1.0910
  763MPD2    H311273   3.591   1.490  16.589 -1.6744 -1.7481 -2.5883
  763MPD2     N11274   3.858   1.830  16.494  0.6929  0.5240 -0.2329
  763MPD2    H511275   3.819   1.872  16.578 -0.8479 -1.9023  0.2546
  763MPD2    N111276   3.880   1.424  16.238 -0.2634 -0.4736  0.0115
  763MPD2    H711277   3.954   1.468  16.185 -1.0264  1.0918  0.2578
  764MPD2     C11278   1.428   3.499   0.011  0.1625 -0.2649  0.4798
  764MPD2    C111279   1.410   3.396  17.609  0.6620  0.0875  0.0965
  764MPD2    C211280   1.375   3.275  17.679  0.3768  0.0889 -0.0992
  764MPD2    C311281   1.358   3.271   0.134  0.0999  0.2583  0.2080
  764MPD2    C411282   1.376   3.380   0.215 -0.6015  0.3281 -0.0292
  764MPD2    C511283   1.417   3.494   0.147  0.0831 -0.4658 -0.0491
  764MPD2     H11284   1.355   3.185  17.622  2.6978  0.4263 -1.4827
  764MPD2    H111285   1.365   3.383   0.323  1.2928 -2.1371  0.2349
  764MPD2    H211286   1.452   3.596  17.651 -0.5242 -0.4593 -0.3896
  764MPD2    H311287   1.428   3.586   0.203  0.0532 -0.7381  0.4117
  764MPD2     N11288   1.303   3.153   0.188  0.4028 -0.0333  0.1172
  764MPD2    H511289   1.296   3.075   0.124 -0.3240 -0.5940  0.8691
  764MPD2    N111290   1.418   3.396  17.471  0.5947 -0.0656  0.6577
  764MPD2    H711291   1.405   3.305  17.427 -2.3934 -0.1333  1.6836
  765MPD2     C11292   1.712   0.818  15.955  0.5176 -0.1770 -0.1705
  765MPD2    C111293   1.789   0.924  15.920  0.3131 -0.1224 -0.2450
  765MPD2    C211294   1.907   0.900  15.849  0.1515 -0.0580  0.1615
  765MPD2    C311295   1.959   0.771  15.821 -0.4969  0.5254 -0.0383
  765MPD2    C411296   1.873   0.668  15.850 -0.2645 -0.1260  0.2873
  765MPD2    C511297   1.757   0.692  15.928 -0.6073 -0.0223  0.9191
  765MPD2     H11298   1.957   0.991  15.815  2.4681 -1.9505 -1.4835
  765MPD2    H111299   1.883   0.562  15.830 -0.1796  0.4334 -2.6967
  765MPD2    H211300   1.622   0.834  16.013 -0.0624 -0.7630 -0.9077
  765MPD2    H311301   1.698   0.606  15.955 -2.9294  0.3324 -3.0685
  765MPD2     N11302   2.076   0.762  15.746 -0.0357 -1.3229  0.3462
  765MPD2    H511303   2.134   0.844  15.733 -3.6057  1.2339  0.6533
  765MPD2    N111304   1.739   1.050  15.953 -0.3682  0.8062 -0.1572
  765MPD2    H711305   1.651   1.045  16.003  0.1674 -2.7374  0.4677
  766MPD2     C11306   1.267   1.155  15.458 -0.2642  0.6301  0.4638
  766MPD2    C111307   1.406   1.181  15.446 -0.2593 -0.1081  0.3932
  766MPD2    C211308   1.470   1.155  15.326  0.2182  0.0660 -0.3854
  766MPD2    C311309   1.405   1.098  15.219 -0.0363  0.4178 -0.3975
  766MPD2    C411310   1.275   1.067  15.232  0.0417 -0.0252  0.2852
  766MPD2    C511311   1.207   1.097  15.346  0.4479 -0.9124 -0.1523
  766MPD2     H11312   1.576   1.176  15.317 -0.2895  1.8525 -2.2974
  766MPD2    H111313   1.223   1.040  15.141  0.2235  1.1844 -0.1712
  766MPD2    H211314   1.204   1.177  15.543  0.2483  1.3964  0.6410
  766MPD2    H311315   1.103   1.072  15.336  0.2399  0.7230 -2.0010
  766MPD2     N11316   1.459   1.088  15.086  0.6804 -0.3044 -0.4584
  766MPD2    H511317   1.401   1.054  15.010  0.6861 -2.3593  0.4754
  766MPD2    N111318   1.479   1.237  15.549 -0.1632  0.6677 -0.4026
  766MPD2    H711319   1.568   1.277  15.519  0.7628  1.9435  4.0750
  767MPD2     C11320   1.111   1.345  15.101  0.9659 -0.2312 -0.4644
  767MPD2    C111321   1.222   1.343  15.022 -0.3032  0.5664  0.3921
  767MPD2    C211322   1.225   1.285  14.894 -0.0262 -0.2781 -0.6912
  767MPD2    C311323   1.107   1.228  14.850  0.2741 -0.6749 -0.5685
  767MPD2    C411324   0.990   1.229  14.925  0.4137  0.0401 -0.1360
  767MPD2    C511325   0.998   1.288  15.051  0.7163  1.1936 -0.0776
  767MPD2     H11326   1.316   1.285  14.837 -1.1713  0.1964 -2.4994
  767MPD2    H111327   0.896   1.191  14.887 -0.0410  0.9909  0.0438
  767MPD2    H211328   1.107   1.388  15.200 -2.8409 -2.2145  0.2370
  767MPD2    H311329   0.914   1.290  15.119  1.1924  2.3643  0.4627
  767MPD2     N11330   1.120   1.146  14.736  0.4649  0.1910  0.2060
  767MPD2    H511331   1.213   1.129  14.699  0.0358 -2.7005  0.5085
  767MPD2    N111332   1.336   1.410  15.076 -0.7917  0.2981 -0.3264
  767MPD2    H711333   1.334   1.443  15.172  1.5984 -0.2380 -0.0930
  768MPD2     C11334   1.954   3.840  10.918  0.4820  0.2638 -0.0832
  768MPD2    C111335   1.932   3.933  11.020  0.0554 -0.1975  0.4365
  768MPD2    C211336   1.989   3.914  11.148  0.4480 -0.2889  0.1507
  768MPD2    C311337   2.063   3.803  11.174  0.7358 -0.7524 -0.5866
  768MPD2    C411338   2.085   3.718  11.065 -0.3338  0.1705  0.2461
  768MPD2    C511339   2.045   3.744  10.939  0.0180  0.1934  0.1878
  768MPD2     H11340   1.977   3.988  11.226 -1.1661  0.2085 -0.5632
  768MPD2    H111341   2.131   3.620  11.075 -0.2827  0.1285 -0.4096
  768MPD2    H211342   1.900   3.850  10.824 -3.5716  0.8491  2.3238
  768MPD2    H311343   2.071   3.666  10.868 -0.6108  0.2771 -0.1289
  768MPD2     N11344   2.126   3.775  11.294  1.2799  0.4881 -0.0604
  768MPD2    H511345   2.180   3.689  11.300 -0.5945 -0.5993  1.2107
  768MPD2    N111346   1.846   4.049  11.010  0.4122 -0.3352 -0.2116
  768MPD2    H711347   1.824   4.107  11.091  0.8634  0.3296 -0.5628
  769MPD2     C11348   2.945   2.736  14.532  0.1903  0.1642 -0.5759
  769MPD2    C111349   2.928   2.635  14.624 -0.3728  0.2260  0.6417
  769MPD2    C211350   2.958   2.656  14.761 -0.0373 -0.4067 -0.0913
  769MPD2    C311351   2.993   2.779  14.805  0.7538  0.4554 -0.0761
  769MPD2    C411352   2.999   2.885  14.714  0.0495  0.1028 -0.5089
  769MPD2    C511353   2.983   2.857  14.578 -0.2754 -0.3452  0.1115
  769MPD2     H11354   2.944   2.581  14.838  0.6176  0.7717  1.1664
  769MPD2    H111355   3.021   2.983  14.755  0.8174 -1.4942  2.8735
  769MPD2    H211356   2.927   2.722  14.426  1.8007 -0.2842 -0.7914
  769MPD2    H311357   2.992   2.945  14.515 -2.2822 -0.5834 -0.5000
  769MPD2     N11358   3.019   2.795  14.942  0.9561 -0.3317 -0.4101
  769MPD2    H511359   2.991   2.718  15.002  0.7119  1.0903  1.3156
  769MPD2    N111360   2.896   2.505  14.579 -0.2677 -0.1848 -0.2858
  769MPD2    H711361   2.895   2.496  14.478 -2.6097  0.7381 -0.3452
  770MPD2     C11362   2.462   1.525  14.852 -1.5382  0.4914  0.3910
  770MPD2    C111363   2.559   1.598  14.917  0.4654 -0.7465  0.3784
  770MPD2    C211364   2.606   1.713  14.854 -0.7026  1.0775  0.1209
  770MPD2    C311365   2.560   1.751  14.728 -0.3170  0.6355  1.3014
  770MPD2    C411366   2.457   1.679  14.668 -0.0555 -0.0749 -0.8247
  770MPD2    C511367   2.413   1.570  14.733  0.3593  0.2223  0.3970
  770MPD2     H11368   2.671   1.783  14.903 -1.7591  1.9791  0.2433
  770MPD2    H111369   2.425   1.696  14.566 -1.4187 -0.7262 -0.4957
  770MPD2    H211370   2.425   1.427  14.881  0.1684  0.3257  1.9746
  770MPD2    H311371   2.355   1.499  14.676 -1.2918  2.0023 -0.1311
  770MPD2     N11372   2.600   1.869  14.659  0.2982 -0.6161 -0.4427
  770MPD2    H511373   2.552   1.886  14.572  2.5206  1.4341 -1.2740
  770MPD2    N111374   2.584   1.557  15.049  0.2145 -0.1435  0.4371
  770MPD2    H711375   2.515   1.497  15.094 -0.1678  2.4057  3.1939
  771MPD2     C11376   3.807   0.072  14.121  0.0520  0.1301  0.0507
  771MPD2    C111377   3.737   0.193  14.082 -0.4900 -0.2452  0.0080
  771MPD2    C211378   3.641   0.184  13.980  0.6850  0.2225  0.3333
  771MPD2    C311379   3.613   0.061  13.914 -0.7375 -0.3254  0.0784
  771MPD2    C411380   3.679   4.665  13.960  0.2443  0.5419  0.6048
  771MPD2    C511381   3.772   4.675  14.060 -0.3090 -0.5583  0.7444
  771MPD2     H11382   3.595   0.276  13.945 -1.2729 -1.8826 -2.5544
  771MPD2    H111383   3.655   4.565  13.926  1.1143 -0.1607  2.0575
  771MPD2    H211384   3.884   0.076  14.198  1.5901  1.5955 -1.5705
  771MPD2    H311385   3.824   4.582  14.082 -1.2966 -0.9422  1.4335
  771MPD2     N11386   3.525   0.057  13.802  0.0800 -0.2143  0.5224
  771MPD2    H511387   3.477   0.143  13.778 -0.4469 -0.9347 -0.9874
  771MPD2    N111388   3.776   0.317  14.143 -0.1982  0.5082 -0.8884
  771MPD2    H711389   3.720   0.399  14.122 -1.4838 -0.3886 -0.9691
  772MPD2     C11390   3.498   0.862  14.529 -0.2258  0.1144 -0.3822
  772MPD2    C111391   3.492   0.785  14.417  0.4086 -0.0876 -0.7421
  772MPD2    C211392   3.373   0.768  14.357 -0.8521 -0.7425 -0.0951
  772MPD2    C311393   3.255   0.830  14.408 -0.1379 -1.0809  0.0120
  772MPD2    C411394   3.261   0.903  14.524 -0.0842  0.0588 -0.0485
  772MPD2    C511395   3.384   0.921  14.581  0.1224 -0.6977  0.4008
  772MPD2     H11396   3.373   0.709  14.266  1.3508 -1.0087  0.0884
  772MPD2    H111397   3.176   0.956  14.565  0.7210  0.8287  0.6240
  772MPD2    H211398   3.593   0.872  14.582 -0.1291 -0.4809 -0.4442
  772MPD2    H311399   3.395   0.983  14.669  0.1264 -1.7515  1.1398
  772MPD2     N11400   3.131   0.828  14.343 -0.3210  0.6360  0.4209
  772MPD2    H511401   3.061   0.878  14.398  0.1586 -2.6126  4.0374
  772MPD2    N111402   3.609   0.720  14.367  0.1962  0.4587  0.1439
  772MPD2    H711403   3.595   0.643  14.303  2.1666 -0.5699  0.9255
  773MPD2     C11404   2.932   2.553   0.629 -0.2617 -0.5507  0.0680
  773MPD2    C111405   2.832   2.457   0.658 -0.3402 -0.2121 -0.2132
  773MPD2    C211406   2.863   2.375   0.758 -0.3756  0.3343  0.2871
  773MPD2    C311407   2.975   2.388   0.844 -0.1831 -0.5441  0.3133
  773MPD2    C411408   3.071   2.482   0.810  0.2658 -0.7922  0.1555
  773MPD2    C511409   3.046   2.570   0.707  0.3186  0.0102  0.1961
  773MPD2     H11410   2.796   2.291   0.771 -0.4772  0.2145 -1.0502
  773MPD2    H111411   3.166   2.502   0.858  0.3803 -2.4708  0.6211
  773MPD2    H211412   2.925   2.622   0.546  0.5527 -2.5562 -1.6572
  773MPD2    H311413   3.107   2.654   0.674  3.3183 -0.7997  3.7164
  773MPD2     N11414   2.994   2.290   0.945 -0.4008  0.3341 -0.3871
  773MPD2    H511415   2.927   2.214   0.954  2.3187 -2.0856 -0.4338
  773MPD2    N111416   2.711   2.438   0.595  0.6020 -0.5702  0.5978
  773MPD2    H711417   2.652   2.367   0.638  0.9049 -0.9391  0.3989
  774MPD2     C11418   1.981   0.666  12.802 -0.6623  0.0956 -0.1193
  774MPD2    C111419   2.019   0.775  12.881  0.2668 -0.3518  0.4263
  774MPD2    C211420   2.086   0.877  12.816  0.1090  0.0806  0.4960
  774MPD2    C311421   2.122   0.866  12.680  0.1078  0.0877 -0.1827
  774MPD2    C411422   2.071   0.763  12.597  0.7235  0.0994 -0.3170
  774MPD2    C511423   2.005   0.661  12.661  1.0083 -0.3533  0.1651
  774MPD2     H11424   2.126   0.966  12.863  2.5686 -1.7065  1.7795
  774MPD2    H111425   2.081   0.752  12.490  2.8489 -0.4828 -0.0621
  774MPD2    H211426   1.955   0.573  12.850 -0.8539  0.6869  0.9039
  774MPD2    H311427   1.981   0.567  12.612 -2.2172  1.3449 -1.5401
  774MPD2     N11428   2.203   0.962  12.626  0.1601  0.4625  0.5197
  774MPD2    H511429   2.203   1.050  12.676  1.0866  0.2274  0.9409
  774MPD2    N111430   1.994   0.774  13.018  0.3395  0.3750 -0.0678
  774MPD2    H711431   1.939   0.695  13.050 -0.7812  1.1518 -0.0643
  775MPD2     C11432   3.367   2.483  15.523 -0.1353  0.2829 -0.8175
  775MPD2    C111433   3.338   2.606  15.580 -0.3970  1.1851 -0.6518
  775MPD2    C211434   3.394   2.715  15.533  0.4124 -0.7037 -0.3308
  775MPD2    C311435   3.474   2.708  15.423  0.3918  0.2176 -0.5693
  775MPD2    C411436   3.502   2.592  15.355  0.0627 -0.9088  0.3518
  775MPD2    C511437   3.454   2.478  15.412  0.0470  0.8926  0.7988
  775MPD2     H11438   3.377   2.808  15.584 -0.8505  0.1429 -2.2825
  775MPD2    H111439   3.547   2.590  15.257 -0.2761  1.0118  0.1610
  775MPD2    H211440   3.336   2.388  15.565  2.8370 -0.6188 -0.6336
  775MPD2    H311441   3.461   2.381  15.365 -1.5013  0.8535  0.6450
  775MPD2     N11442   3.523   2.822  15.354  0.5340  0.0568 -0.5865
  775MPD2    H511443   3.560   2.813  15.260  3.2123  1.6058  0.3067
  775MPD2    N111444   3.240   2.607  15.684 -0.0392 -0.3660  0.3393
  775MPD2    H711445   3.203   2.517  15.712 -0.5206  0.6548  3.0717
  776MPD2     C11446   2.549   2.600  11.420 -0.4296 -0.3887 -0.2947
  776MPD2    C111447   2.681   2.568  11.442 -0.0764 -0.5411  0.8579
  776MPD2    C211448   2.782   2.659  11.429  0.2598  1.0333  0.0921
  776MPD2    C311449   2.757   2.786  11.376  0.5231 -0.1230 -0.0788
  776MPD2    C411450   2.625   2.823  11.352 -0.5535 -0.2378  0.0070
  776MPD2    C511451   2.526   2.731  11.380  0.2519  0.6063 -0.3363
  776MPD2     H11452   2.886   2.634  11.443 -0.3762 -0.2020  2.5648
  776MPD2    H111453   2.587   2.915  11.311 -1.0860 -1.0154 -1.2621
  776MPD2    H211454   2.459   2.539  11.431  0.7635 -1.9660  0.6876
  776MPD2    H311455   2.425   2.768  11.363  0.2982  0.6584 -0.4932
  776MPD2     N11456   2.862   2.889  11.362  0.2810  0.5817 -0.4409
  776MPD2    H511457   2.829   2.981  11.333 -1.3297 -0.6257 -2.4590
  776MPD2    N111458   2.708   2.431  11.477  0.1338 -0.2055  0.1964
  776MPD2    H711459   2.625   2.372  11.481 -0.0869  0.3714  3.7953
  777MPD2     C11460   1.999   0.824   1.145 -0.3064 -0.2723 -0.1389
  777MPD2    C111461   2.075   0.712   1.138  0.0125 -0.0840  0.0793
  777MPD2    C211462   2.093   0.644   1.020  0.5999  0.3797  0.5598
  777MPD2    C311463   2.051   0.701   0.900  0.2622 -0.5218 -0.2703
  777MPD2    C411464   1.981   0.818   0.904 -0.6297  0.6450 -0.0337
  777MPD2    C511465   1.952   0.878   1.023 -0.2093 -0.4409 -0.2855
  777MPD2     H11466   2.152   0.553   1.016 -1.2602 -0.7707 -0.6708
  777MPD2    H111467   1.949   0.860   0.809  0.0399  1.6748  0.2081
  777MPD2    H211468   1.968   0.880   1.232 -0.5663 -3.2166  1.6549
  777MPD2    H311469   1.896   0.970   1.029 -2.4428 -1.8657  0.7536
  777MPD2     N11470   2.092   0.637   0.786  0.3417 -0.2633  0.1177
  777MPD2    H511471   2.129   0.544   0.801  0.2100 -0.2306  0.6722
  777MPD2    N111472   2.124   0.657   1.264 -0.7275 -0.4939  0.5886
  777MPD2    H711473   2.083   0.696   1.348  0.9520  1.5425  0.4852
  778MPD2     C11474   4.093   0.760  15.067  0.5072  0.0088  0.6218
  778MPD2    C111475   4.151   0.657  14.996  0.0692  0.5266  0.6240
  778MPD2    C211476   4.259   0.683  14.921  0.0778 -0.2615  0.4034
  778MPD2    C311477   4.324   0.809  14.931 -0.4732 -0.4068  0.1881
  778MPD2    C411478   4.271   0.908  15.009 -0.4592 -0.2926 -0.2748
  778MPD2    C511479   4.146   0.883  15.060 -0.5689  0.1282 -0.2693
  778MPD2     H11480   4.282   0.600  14.856  1.0362  1.8215 -1.9243
  778MPD2    H111481   4.311   1.008  15.008  2.1008 -1.3133 -1.1036
  778MPD2    H211482   4.001   0.749  15.123 -0.2464  1.4525 -0.3446
  778MPD2    H311483   4.101   0.965  15.116  2.1216  2.3635 -1.3830
  778MPD2     N11484   4.453   0.813  14.867 -0.1358  0.3198 -0.5849
  778MPD2    H511485   4.490   0.735  14.813  1.1160 -0.6584  1.7002
  778MPD2    N111486   4.086   0.531  14.978  0.1790 -0.2408 -0.6154
  778MPD2    H711487   4.111   0.477  14.896 -0.3149 -2.1182  0.4787
  779MPD2     C11488   3.718   4.028  14.032 -0.3568  0.4194 -0.1673
  779MPD2    C111489   3.817   4.008  14.125  0.5846  0.3401 -0.5471
  779MPD2    C211490   3.856   4.118  14.191  0.5522  0.3265 -1.0118
  779MPD2    C311491   3.799   4.239  14.184  0.6751 -0.3464  0.0435
  779MPD2    C411492   3.693   4.258  14.096  0.3332  0.0162  0.0366
  779MPD2    C511493   3.648   4.146  14.024 -0.0275 -0.2079 -0.1235
  779MPD2     H11494   3.934   4.099  14.264  0.9515  1.4116 -1.1581
  779MPD2    H111495   3.634   4.349  14.093 -0.3827 -0.4981 -1.9971
  779MPD2    H211496   3.689   3.943  13.973  0.5183 -0.3821  0.5570
  779MPD2    H311497   3.562   4.147  13.958 -0.4426 -1.8518  0.3738
  779MPD2     N11498   3.838   4.341  14.269 -0.1162  0.9220  0.5209
  779MPD2    H511499   3.931   4.330  14.308  0.4361 -0.0081 -1.0787
  779MPD2    N111500   3.884   3.881  14.140 -0.8273  0.3621  0.0211
  779MPD2    H711501   3.960   3.871  14.206 -0.8830  1.2451  0.2127
  780MPD2     C11502   3.664   3.779   0.579  0.4740  1.0255 -0.3765
  780MPD2    C111503   3.552   3.703   0.544 -0.0078 -0.2112  0.0281
  780MPD2    C211504   3.449   3.765   0.470 -0.4527  0.5652  0.4524
  780MPD2    C311505   3.460   3.891   0.432  0.0185 -0.2022  0.5591
  780MPD2    C411506   3.576   3.964   0.461 -0.0628 -0.8559 -0.7909
  780MPD2    C511507   3.682   3.902   0.522  0.5787  0.2176 -0.6730
  780MPD2     H11508   3.364   3.711   0.430  0.0275  1.8649 -2.3062
  780MPD2    H111509   3.592   4.067   0.431  0.5398 -0.1831  1.8961
  780MPD2    H211510   3.742   3.732   0.638  0.1341 -0.8580 -1.4196
  780MPD2    H311511   3.774   3.955   0.543 -0.6023  1.3880  1.4930
  780MPD2     N11512   3.352   3.946   0.361  0.1369 -0.5540  0.3009
  780MPD2    H511513   3.274   3.893   0.322  0.6719 -1.5149  0.5331
  780MPD2    N111514   3.548   3.575   0.602 -0.2317  0.0352 -0.6901
  780MPD2    H711515   3.629   3.546   0.654  1.8920  3.9395 -1.7813
  781MPD2     C11516   0.434   0.989  12.415  0.3038  0.0308 -0.5459
  781MPD2    C111517   0.373   0.866  12.439  0.0162  0.9877 -0.4265
  781MPD2    C211518   0.349   0.787  12.330 -0.3480  0.5361 -0.2862
  781MPD2    C311519   0.383   0.824  12.199 -0.0474  0.2325 -0.2243
  781MPD2    C411520   0.434   0.948  12.177  0.3190 -0.4298 -0.5093
  781MPD2    C511521   0.464   1.032  12.288 -0.9740  0.6262  0.2704
  781MPD2     H11522   0.289   0.697  12.340 -0.2122  0.4510 -0.2312
  781MPD2    H111523   0.455   1.001  12.084  2.8021  0.8363  0.7693
  781MPD2    H211524   0.445   1.057  12.499 -1.9923 -1.5155  1.0242
  781MPD2    H311525   0.501   1.134  12.283 -0.8561  0.6873  2.5788
  781MPD2     N11526   0.359   0.750  12.079  0.1224 -0.9566  0.5772
  781MPD2    H511527   0.396   0.785  11.991  1.3534 -2.3456  0.5383
  781MPD2    N111528   0.324   0.825  12.567  0.3457  0.0023 -0.3459
  781MPD2    H711529   0.262   0.744  12.569  1.4453 -0.9312 -3.9446
  782MPD2     C11530   3.150   1.736  10.019  0.2637 -0.3365  0.2898
  782MPD2    C111531   3.282   1.742   9.973 -0.1291 -0.3678  0.8230
  782MPD2    C211532   3.382   1.763  10.067 -0.0962  0.0654  0.4163
  782MPD2    C311533   3.348   1.774  10.205 -0.1545 -0.1109  0.3119
  782MPD2    C411534   3.215   1.769  10.249 -0.0391  0.0876  0.3107
  782MPD2    C511535   3.120   1.751  10.150 -0.1323 -0.4159  0.5361
  782MPD2     H11536   3.486   1.774  10.038  0.0630 -1.1200  0.5363
  782MPD2    H111537   3.183   1.782  10.351  1.1916  2.3214  0.4149
  782MPD2    H211538   3.075   1.706   9.947  0.9339 -1.6607  0.1536
  782MPD2    H311539   3.014   1.744  10.173 -0.4733  0.2684 -0.8206
  782MPD2     N11540   3.456   1.777  10.297 -0.0488  0.3888  0.0294
  782MPD2    H511541   3.548   1.792  10.256 -0.5178  2.8167 -0.1442
  782MPD2    N111542   3.306   1.704   9.840 -0.4433  0.3933 -0.2860
  782MPD2    H711543   3.231   1.656   9.792 -1.1739 -0.2223  1.4608
  783MPD2     C11544   2.895   1.085  10.283 -0.4530 -0.4350  0.8512
  783MPD2    C111545   2.986   1.160  10.358  1.1355  0.2678  0.0379
  783MPD2    C211546   3.086   1.227  10.288  0.0411 -0.6280  0.6152
  783MPD2    C311547   3.092   1.223  10.153 -0.3212  0.6002  0.0628
  783MPD2    C411548   2.991   1.170  10.080 -0.6298  0.4353  0.5209
  783MPD2    C511549   2.906   1.082  10.143  0.3326  0.5749  0.2200
  783MPD2     H11550   3.154   1.284  10.351 -0.4118 -0.6261  1.0932
  783MPD2    H111551   2.993   1.171   9.971  1.3485 -0.4140  0.5359
  783MPD2    H211552   2.811   1.039  10.334 -1.6368  0.4099 -0.3383
  783MPD2    H311553   2.825   1.039  10.085  0.1410  0.9723  0.1922
  783MPD2     N11554   3.197   1.301  10.097  0.5871 -0.5129  0.0777
  783MPD2    H511555   3.268   1.341  10.158 -0.0388 -1.8094  1.6517
  783MPD2    N111556   2.953   1.180  10.494 -0.6865  0.0471  0.0388
  783MPD2    H711557   2.884   1.117  10.532 -2.0497  1.5034 -0.0338
  784MPD2     C11558   1.303   2.620   1.232 -0.4209 -0.3790 -0.4518
  784MPD2    C111559   1.323   2.755   1.197 -0.2764  0.3273 -0.0164
  784MPD2    C211560   1.214   2.817   1.148 -0.1380  0.2871  0.7633
  784MPD2    C311561   1.096   2.759   1.129  0.2196 -0.1654  0.4584
  784MPD2    C411562   1.082   2.623   1.157 -0.5140 -0.0839 -0.3802
  784MPD2    C511563   1.188   2.557   1.211 -0.3730 -0.2205  0.2930
  784MPD2     H11564   1.225   2.923   1.130  0.1883 -0.0288 -0.8724
  784MPD2    H111565   0.987   2.570   1.163  0.6318 -2.3401 -1.8925
  784MPD2    H211566   1.380   2.569   1.289  0.2628  0.6655 -0.4350
  784MPD2    H311567   1.172   2.455   1.244  0.0677 -1.2949 -2.8177
  784MPD2     N11568   0.988   2.830   1.079 -0.5513 -0.2700  0.1268
  784MPD2    H511569   1.005   2.930   1.071  1.0691 -0.5308  0.3307
  784MPD2    N111570   1.454   2.820   1.222  0.3042  0.2511 -0.8512
  784MPD2    H711571   1.442   2.919   1.202  0.7216  0.4780  0.0047
  785MPD2     C11572   1.354   4.662  11.184 -0.1467  0.0453 -0.1217
  785MPD2    C111573   1.253   4.682  11.093 -0.2592 -0.0220 -0.8916
  785MPD2    C211574   1.194   4.574  11.022 -0.1922 -0.4847 -0.7638
  785MPD2    C311575   1.244   4.449  11.035 -0.5554  0.4057  0.4604
  785MPD2    C411576   1.353   4.435  11.113  0.2610  0.3264 -0.8139
  785MPD2    C511577   1.409   4.532  11.194 -0.0604  0.0403 -0.9186
  785MPD2     H11578   1.105   4.584  10.960 -0.9668  1.0314  0.5992
  785MPD2    H111579   1.391   4.334  11.127  1.0221  0.4874 -1.7197
  785MPD2    H211580   1.384   0.030  11.240  0.1488 -0.2428  0.1700
  785MPD2    H311581   1.493   4.510  11.258 -1.9272  0.5567  1.6960
  785MPD2     N11582   1.193   4.351  10.953 -0.0617  0.2532  0.2883
  785MPD2    H511583   1.108   4.371  10.901  1.7560  0.2645 -2.7154
  785MPD2    N111584   1.204   0.093  11.061  0.3126  0.2253 -0.3486
  785MPD2    H711585   1.115   0.098  11.011  0.8382 -1.2067 -1.4339
  786MPD2     C11586   4.116   3.345  14.414 -0.0014 -0.2043  0.1777
  786MPD2    C111587   4.238   3.290  14.455 -0.3842  0.2143  0.7034
  786MPD2    C211588   4.294   3.333  14.570 -0.5722  0.1790  0.3567
  786MPD2    C311589   4.230   3.431  14.644 -0.0936  0.8964 -0.6040
  786MPD2    C411590   4.109   3.478  14.608  0.0015  0.5717  0.2966
  786MPD2    C511591   4.054   3.439  14.490 -0.9135 -0.1043  0.3337
  786MPD2     H11592   4.386   3.283  14.599 -0.1802  1.3184  1.0945
  786MPD2    H111593   4.052   3.554  14.661  1.8627  2.4799 -0.4654
  786MPD2    H211594   4.064   3.306  14.327 -0.7892  0.5263  0.3175
  786MPD2    H311595   3.960   3.482  14.456 -0.7411  0.5991  0.7577
  786MPD2     N11596   4.273   3.463  14.774 -0.5821  0.3054  0.3307
  786MPD2    H511597   4.198   3.508  14.825  1.3401  1.6461  1.9635
  786MPD2    N111598   4.310   3.195  14.378  0.2923  0.3524  0.1731
  786MPD2    H711599   4.393   3.157  14.421  0.3903  1.4811  0.9595
  787MPD2     C11600   4.526   2.621  14.531 -0.6967 -0.9817 -0.5185
  787MPD2    C111601   4.617   2.666  14.440  0.3188 -0.2538  0.5648
  787MPD2    C211602   0.008   2.589  14.418  0.2045  0.1763  0.0409
  787MPD2    C311603   0.025   2.460  14.473 -0.2150  0.1803 -0.4760
  787MPD2    C411604   4.655   2.426  14.572 -0.0845  0.1626  0.1979
  787MPD2    C511605   4.544   2.504  14.594  0.1628 -0.0637  0.6143
  787MPD2     H11606   0.080   2.613  14.340 -0.4119  0.8537 -0.3183
  787MPD2    H111607   4.663   2.329  14.621 -0.9931  0.2905  0.6001
  787MPD2    H211608   4.430   2.672  14.537  0.2002  0.5766  0.4131
  787MPD2    H311609   4.473   2.469  14.668 -0.6800  0.4246  0.0355
  787MPD2     N11610   0.139   2.390  14.434 -0.1360  0.1221  0.2845
  787MPD2    H511611   0.204   2.444  14.377  0.5790  0.8053  1.7481
  787MPD2    N111612   4.593   2.788  14.372  0.3860  0.5778 -0.1074
  787MPD2    H711613   4.505   2.835  14.394 -1.8485 -2.5050 -2.3988
  788MPD2     C11614   1.954   1.504   0.668 -0.0017  0.0999  0.3509
  788MPD2    C111615   1.821   1.501   0.680  0.8649  0.1016  0.0823
  788MPD2    C211616   1.747   1.583   0.593 -0.1759 -0.0298  0.5246
  788MPD2    C311617   1.807   1.654   0.490 -0.2818 -0.2762 -0.0813
  788MPD2    C411618   1.944   1.667   0.491 -0.0880  0.4584 -0.6078
  788MPD2    C511619   2.021   1.588   0.579  0.7229  0.4035  0.3125
  788MPD2     H11620   1.640   1.567   0.583  0.0274 -1.8928  1.3648
  788MPD2    H111621   1.997   1.724   0.415  0.3593  0.1269 -0.5468
  788MPD2    H211622   2.014   1.442   0.733  0.5545  0.1571 -0.1041
  788MPD2    H311623   2.129   1.592   0.578  0.7671 -0.7464  0.7571
  788MPD2     N11624   1.718   1.713   0.402  0.5761 -0.0936  0.6233
  788MPD2    H511625   1.622   1.685   0.418 -0.2345  1.1689 -2.0851
  788MPD2    N111626   1.763   1.420   0.776  0.1771 -0.0791 -0.4296
  788MPD2    H711627   1.828   1.359   0.823 -0.3882 -1.3517 -1.2904
  789MPD2     C11628   1.834   1.086  16.387 -0.5792 -0.3352 -0.2729
  789MPD2    C111629   1.785   0.999  16.482  0.0499 -0.4451  0.3874
  789MPD2    C211630   1.661   1.023  16.530 -0.6395 -1.0353 -0.0973
  789MPD2    C311631   1.583   1.133  16.491 -0.7684  0.0280  0.3062
  789MPD2    C411632   1.634   1.215  16.391  0.2560  0.0712 -0.1098
  789MPD2    C511633   1.767   1.194  16.348  0.8957  0.3630  0.3909
  789MPD2     H11634   1.618   0.955  16.603  0.0626 -1.3755 -0.0066
  789MPD2    H111635   1.577   1.298  16.352  0.5683  1.0731  1.5515
  789MPD2    H211636   1.934   1.077  16.344 -0.3464  0.8738  0.0166
  789MPD2    H311637   1.815   1.269  16.286  0.9443 -0.6365 -0.7835
  789MPD2     N11638   1.456   1.165  16.543 -0.1779  0.1115 -0.6920
  789MPD2    H511639   1.418   1.255  16.514 -0.1245  0.4665  0.3202
  789MPD2    N111640   1.842   0.881  16.534 -0.3840  0.5026  0.8861
  789MPD2    H711641   1.792   0.835  16.609 -1.8969 -0.1485 -0.5203
  790MPD2     C11642   2.436   2.496  13.465  0.5083  0.9514  0.7209
  790MPD2    C111643   2.559   2.549  13.432  0.3148  0.2275  0.1648
  790MPD2    C211644   2.581   2.590  13.297  0.4972 -0.4001  0.0420
  790MPD2    C311645   2.479   2.580  13.207 -0.1525  0.0963 -0.3172
  790MPD2    C411646   2.359   2.511  13.243  0.0795  0.3882  0.3441
  790MPD2    C511647   2.340   2.472  13.372 -0.3626  0.6307  0.4809
  790MPD2     H11648   2.679   2.619  13.262  0.6247 -1.9607 -0.8893
  790MPD2    H111649   2.285   2.478  13.170  1.9232 -3.7391  0.3401
  790MPD2    H211650   2.415   2.466  13.567  2.1815 -2.7217 -0.0270
  790MPD2    H311651   2.255   2.410  13.399 -1.1566  0.6284 -2.0408
  790MPD2     N11652   2.507   2.607  13.073  0.8141 -0.3965 -0.1711
  790MPD2    H511653   2.599   2.637  13.043  0.9135  0.2887  0.8057
  790MPD2    N111654   2.648   2.575  13.538  0.4394 -0.2802 -0.5964
  790MPD2    H711655   2.609   2.556  13.630  2.0001 -2.4270 -0.4037
  791MPD2     C11656   2.194   2.918  12.265 -0.4955 -0.3898  0.2396
  791MPD2    C111657   2.181   2.810  12.350 -0.4620 -0.5603 -0.0065
  791MPD2    C211658   2.065   2.741  12.342 -0.2055  0.0788 -0.0329
  791MPD2    C311659   1.968   2.769  12.250 -0.3830  0.1267  0.6850
  791MPD2    C411660   1.977   2.882  12.165  0.6988 -0.6344 -0.2638
  791MPD2    C511661   2.093   2.955  12.174 -0.2545 -0.4384  0.3041
  791MPD2     H11662   2.048   2.656  12.408  2.6959  0.7775  1.6247
  791MPD2    H111663   1.906   2.903  12.086 -1.6231 -1.9134  1.4887
  791MPD2    H211664   2.290   2.969  12.268 -0.8937  0.4261 -0.8867
  791MPD2    H311665   2.117   3.042  12.114 -0.2596  1.1163  2.5456
  791MPD2     N11666   1.857   2.673  12.242  0.2785  0.3714  0.2518
  791MPD2    H511667   1.867   2.585  12.292 -0.1755  0.6808  0.8851
  791MPD2    N111668   2.283   2.779  12.445  0.0453 -0.6115 -0.1932
  791MPD2    H711669   2.371   2.818  12.413 -0.7894 -0.6145 -2.5054
  792MPD2     C11670   3.141   2.080  10.955  0.2739 -0.5935 -0.0486
  792MPD2    C111671   3.019   2.140  10.996 -1.0932  0.5556  0.1286
  792MPD2    C211672   2.901   2.065  10.961  0.1744  0.1092  0.8820
  792MPD2    C311673   2.906   1.935  10.903  0.8287 -0.0596 -0.0421
  792MPD2    C411674   3.026   1.882  10.867  0.1562 -0.5800 -0.3074
  792MPD2    C511675   3.137   1.955  10.891 -0.2250  0.8534 -0.1737
  792MPD2     H11676   2.802   2.104  10.982  0.2695  1.5647 -1.4162
  792MPD2    H111677   3.037   1.778  10.838  1.7301 -0.3491 -0.5439
  792MPD2    H211678   3.240   2.122  10.970  0.3101 -0.5822 -0.3222
  792MPD2    H311679   3.236   1.918  10.869 -0.2606  1.5180 -1.4449
  792MPD2     N11680   2.792   1.853  10.865  0.0634  0.4175 -0.4646
  792MPD2    H511681   2.816   1.760  10.830  0.0174  0.8465 -1.6183
  792MPD2    N111682   3.023   2.256  11.076  0.6787 -0.6201 -0.1179
  792MPD2    H711683   3.116   2.291  11.098  0.0790 -1.3800  3.6579
  793MPD2     C11684   2.382   2.022  10.065 -0.1715 -0.0031 -0.5022
  793MPD2    C111685   2.501   2.011  10.130 -0.0006 -0.5821 -0.6697
  793MPD2    C211686   2.503   1.963  10.266  0.1095  0.4949 -0.5121
  793MPD2    C311687   2.390   1.926  10.336 -0.1307  0.5035 -0.9529
  793MPD2    C411688   2.269   1.945  10.272  0.2254  0.0613  0.2892
  793MPD2    C511689   2.271   1.982  10.138 -0.0608 -0.3896 -0.3061
  793MPD2     H11690   2.602   1.945  10.308 -0.3691 -0.5475  0.1966
  793MPD2    H111691   2.178   1.911  10.319 -0.2190  0.3975 -0.3252
  793MPD2    H211692   2.361   2.038   9.960  1.1488 -0.3867 -0.8250
  793MPD2    H311693   2.174   1.982  10.089 -0.6064 -0.3860  0.7922
  793MPD2     N11694   2.416   1.870  10.463  0.2071 -0.1060  0.0204
  793MPD2    H511695   2.515   1.878  10.483  0.6698 -2.1342 -1.3874
  793MPD2    N111696   2.623   2.034  10.071  0.1837 -0.4586  0.2641
  793MPD2    H711697   2.703   2.003  10.126  0.1734  0.0554  0.5760
  794MPD2     C11698   2.473   2.739  17.546 -0.9729 -0.7143 -0.5593
  794MPD2    C111699   2.407   2.623  17.585 -0.1600  0.1117  0.3402
  794MPD2    C211700   2.306   2.577  17.503 -1.1166  0.3105 -0.3664
  794MPD2    C311701   2.277   2.641  17.384 -0.0148 -0.1353 -0.0732
  794MPD2    C411702   2.328   2.765  17.356  0.0418  0.3667 -0.4913
  794MPD2    C511703   2.428   2.812  17.437  0.1838 -0.5370 -1.0968
  794MPD2     H11704   2.253   2.487  17.532  0.6628 -0.5383  0.2854
  794MPD2    H111705   2.308   2.827  17.270  2.5130  0.3863 -1.0621
  794MPD2    H211706   2.551   2.786  17.605 -2.0285  2.1787 -1.4658
  794MPD2    H311707   2.475   2.904  17.401 -0.1524 -2.0749 -5.4538
  794MPD2     N11708   2.187   2.600  17.285 -0.0087  0.3387 -0.3016
  794MPD2    H511709   2.163   2.671  17.217  1.8399  2.6024  1.3964
  794MPD2    N111710   2.441   2.559   0.029  0.4180  0.3704 -0.0630
  794MPD2    H711711   2.508   2.605   0.090  1.3199 -1.2279  0.1511
  795MPD2     C11712   0.490   4.148  13.280 -0.2026  0.4009 -0.4675
  795MPD2    C111713   0.457   4.005  13.283 -0.1517  0.6728  0.0502
  795MPD2    C211714   0.551   3.913  13.244  0.9214 -0.2480  1.0380
  795MPD2    C311715   0.680   3.946  13.207  0.4844 -0.1746 -0.5109
  795MPD2    C411716   0.712   4.082  13.216  0.2042  0.3114  0.1123
  795MPD2    C511717   0.623   4.178  13.256  0.0452 -0.7534 -0.2209
  795MPD2     H11718   0.524   3.808  13.233 -0.6028  0.1126  1.2400
  795MPD2    H111719   0.805   4.117  13.173 -0.1858 -0.3903 -1.3091
  795MPD2    H211720   0.415   4.225  13.292 -0.5615 -0.0503  0.2518
  795MPD2    H311721   0.651   4.281  13.238 -1.5896 -0.2207  0.2410
  795MPD2     N11722   0.765   3.843  13.161 -0.0500  0.5300  0.3563
  795MPD2    H511723   0.718   3.753  13.153  1.3886 -0.2201  0.3781
  795MPD2    N111724   0.327   3.963  13.309 -0.4744 -0.5963  0.2667
  795MPD2    H711725   0.302   3.865  13.318 -1.6141 -0.3073  0.2423
  796MPD2     C11726   4.441   1.486  15.585  0.0768 -1.0586 -0.2315
  796MPD2    C111727   4.487   1.565  15.695  0.6180  0.3579 -0.5883
  796MPD2    C211728   4.462   1.700  15.689 -0.0868 -0.5576 -0.6978
  796MPD2    C311729   4.390   1.761  15.590  0.0850 -0.7240 -0.5034
  796MPD2    C411730   4.344   1.681  15.487 -0.4805  0.4597 -0.2850
  796MPD2    C511731   4.371   1.547  15.486  0.5567 -0.0759  0.5154
  796MPD2     H11732   4.496   1.764  15.770 -0.3437 -0.4011 -0.7127
  796MPD2    H111733   4.298   1.724  15.399  0.8216  2.6884  0.1203
  796MPD2    H211734   4.458   1.379  15.593 -1.6584 -1.3593 -0.6113
  796MPD2    H311735   4.338   1.484  15.403 -0.0981 -0.7584  1.2829
  796MPD2     N11736   4.378   1.902  15.587 -0.4209  0.2845  0.5638
  796MPD2    H511737   4.422   1.964  15.655 -0.1668  2.2229 -1.3712
  796MPD2    N111738   4.544   1.492  15.800 -0.3117 -0.1048 -0.2487
  796MPD2    H711739   4.550   1.392  15.785  3.0765  0.3612 -2.1695
  797MPD2     C11740   0.722   0.494  17.175  0.1906 -0.6846 -0.2638
  797MPD2    C111741   0.665   0.578  17.270 -0.3897  0.0659  0.0552
  797MPD2    C211742   0.559   0.656  17.229 -0.3248  0.8237 -0.4449
  797MPD2    C311743   0.507   0.651  17.100  0.2670  0.3029 -0.5216
  797MPD2    C411744   0.560   0.555  17.016  0.0824  0.0308  0.3211
  797MPD2    C511745   0.667   0.479  17.053 -0.1161 -0.0923 -0.2295
  797MPD2     H11746   0.514   0.727  17.297  0.0222  0.3095  0.3208
  797MPD2    H111747   0.521   0.523  16.919  1.2340  0.0927 -0.1632
  797MPD2    H211748   0.777   0.408  17.210 -1.7731 -1.9301 -0.1976
  797MPD2    H311749   0.705   0.401  16.988  2.0683 -0.1801  1.1509
  797MPD2     N11750   0.406   0.734  17.073  0.0666  0.5481 -0.0986
  797MPD2    H511751   0.377   0.790  17.153  1.6010 -0.7224  1.3344
  797MPD2    N111752   0.708   0.595  17.400 -0.2360 -0.3050  0.0697
  797MPD2    H711753   0.649   0.653  17.459 -0.1411  1.1931 -1.2999
  798MPD2     C11754   0.434   1.226  17.566 -0.2779  0.1964  0.7757
  798MPD2    C111755   0.406   1.108  17.500  0.0370  0.1024 -0.5504
  798MPD2    C211756   0.457   0.994  17.555  0.0430  0.0876  0.1714
  798MPD2    C311757   0.529   0.994  17.670  0.4330 -0.5672  0.1250
  798MPD2    C411758   0.557   1.112   0.052  0.0406 -0.0597 -1.1255
  798MPD2    C511759   0.501   1.224   0.003  0.0060  0.1344 -0.8954
  798MPD2     H11760   0.454   0.898  17.506  0.1107 -0.2440  0.8209
  798MPD2    H111761   0.610   1.122   0.146 -2.2822  0.2115  0.1440
  798MPD2    H211762   0.396   1.320  17.529  1.2950 -0.0564 -1.4631
  798MPD2    H311763   0.506   1.320   0.053 -3.1267  0.9552 -2.1604
  798MPD2     N11764   0.576   0.867   0.024 -0.8327  0.3153  0.0374
  798MPD2    H511765   0.533   0.790  17.654 -0.7417  2.2927 -3.0721
  798MPD2    N111766   0.332   1.107  17.380  0.2343  0.3662  0.1794
  798MPD2    H711767   0.294   1.193  17.342 -0.4961  0.7381  1.7393
  799MPD2     C11768   4.058   2.448  14.641 -0.2290 -0.1167  0.4274
  799MPD2    C111769   4.180   2.402  14.590 -0.4584  0.7064  0.0328
  799MPD2    C211770   4.230   2.455  14.474  0.3795 -0.2497 -0.0905
  799MPD2    C311771   4.155   2.554  14.409  0.7149  0.2011  0.2375
  799MPD2    C411772   4.038   2.594  14.463 -0.1449 -0.0215 -0.2896
  799MPD2    C511773   3.987   2.549  14.582  0.1402  0.0593  0.0853
  799MPD2     H11774   4.324   2.420  14.434  0.0011 -2.4616  0.9552
  799MPD2    H111775   3.980   2.666  14.406  1.1732 -0.1946 -1.8197
  799MPD2    H211776   4.020   2.415  14.738 -1.9569  0.3335 -0.0990
  799MPD2    H311777   3.894   2.578  14.629  0.2204  1.6841 -0.7653
  799MPD2     N11778   4.180   2.601  14.276 -0.1803 -0.3530 -0.3164
  799MPD2    H511779   4.103   2.646  14.227  0.7068  1.2864 -0.1943
  799MPD2    N111780   4.256   2.300  14.656 -0.2632 -0.2284  0.2013
  799MPD2    H711781   4.352   2.294  14.622 -0.4147 -0.4346 -0.1802
  800MPD2     C11782   0.203   3.354  13.718 -0.3735  0.0361  0.5672
  800MPD2    C111783   0.336   3.330  13.709  0.5012  0.2643 -0.2513
  800MPD2    C211784   0.377   3.222  13.626  0.2592 -0.7770 -0.5292
  800MPD2    C311785   0.292   3.124  13.582 -0.8946  0.0354 -0.0610
  800MPD2    C411786   0.162   3.155  13.589 -0.4489  0.7259  0.4555
  800MPD2    C511787   0.122   3.278  13.642 -0.0010 -0.8306 -1.1444
  800MPD2     H11788   0.481   3.190  13.627  1.0130  1.6885  0.2881
  800MPD2    H111789   0.085   3.088  13.551  0.6513 -0.6478  0.6579
  800MPD2    H211790   0.162   3.440  13.769  0.3250 -0.1086  1.3763
  800MPD2    H311791   0.015   3.282  13.651  0.2444  0.1729  1.2764
  800MPD2     N11792   0.346   3.008  13.518 -0.6284  0.4742  0.2251
  800MPD2    H511793   0.445   2.993  13.534 -0.1745  2.1002 -0.9668
  800MPD2    N111794   0.436   3.406  13.772 -0.8851  0.1213 -0.0715
  800MPD2    H711795   0.409   3.470  13.846 -1.1608 -0.8883  0.6850
  801MPD2     C11796   0.536   3.987  14.182  0.9004  0.6526 -0.5189
  801MPD2    C111797   0.471   3.880  14.113 -0.1400  0.0009  0.0471
  801MPD2    C211798   0.342   3.856  14.150 -0.5781  0.2053 -0.7626
  801MPD2    C311799   0.279   3.929  14.244  0.1518 -0.5294 -0.0951
  801MPD2    C411800   0.347   4.034  14.309  0.0114 -0.5668 -0.2846
  801MPD2    C511801   0.478   4.061  14.277  0.2595 -0.3785 -0.0809
  801MPD2     H11802   0.289   3.777  14.099  0.1295 -0.9894  0.3424
  801MPD2    H111803   0.295   4.090  14.385  1.0537  0.4376 -0.3230
  801MPD2    H211804   0.641   4.014  14.174  1.4561 -0.7446  2.0515
  801MPD2    H311805   0.530   4.141  14.328 -3.2676  0.0384  2.8192
  801MPD2     N11806   0.142   3.915  14.278 -0.4705  0.7917  0.2906
  801MPD2    H511807   0.102   3.994  14.328  0.9908  1.9633 -0.3996
  801MPD2    N111808   0.534   3.808  14.009  0.1529 -0.2628 -0.5563
  801MPD2    H711809   0.471   3.739  13.969  0.8405  0.1635 -2.3930
  802MPD2     C11810   3.825   0.290   0.731  0.1675 -0.3461  0.0104
  802MPD2    C111811   3.756   0.169   0.727 -0.3572 -0.1910  0.0678
  802MPD2    C211812   3.816   0.065   0.650 -0.0794 -0.1668 -0.3358
  802MPD2    C311813   3.942   0.075   0.581 -0.3250 -0.3865 -0.2315
  802MPD2    C411814   4.011   0.196   0.601  0.2628  0.6584 -0.2989
  802MPD2    C511815   3.946   0.300   0.673 -0.4490  0.2947  0.1740
  802MPD2     H11816   3.758   4.695   0.631  0.7976 -0.6304 -0.8414
  802MPD2    H111817   4.104   0.217   0.550  0.0102  2.9390  0.2051
  802MPD2    H211818   3.782   0.366   0.796  0.9601 -0.9989  1.2896
  802MPD2    H311819   3.996   0.396   0.685  1.2521 -0.4825 -0.6932
  802MPD2     N11820   3.995   4.683   0.502  0.5228 -0.6633  0.7071
  802MPD2    H511821   3.951   4.593   0.518 -0.5276 -0.0738  1.1308
  802MPD2    N111822   3.626   0.155   0.797  0.3361 -0.1474 -0.3523
  802MPD2    H711823   3.586   0.062   0.806  0.4998 -0.1067  0.8157
  803MPD2     C11824   1.111   3.091  11.521 -0.0116 -0.3451  0.2625
  803MPD2    C111825   1.044   3.089  11.641 -0.6410 -0.3178 -0.2597
  803MPD2    C211826   0.941   3.005  11.654 -0.2562 -0.5876 -0.4883
  803MPD2    C311827   0.918   2.898  11.560  0.3145  0.2674  0.4415
  803MPD2    C411828   0.997   2.896  11.444 -0.5176 -0.5941  0.4820
  803MPD2    C511829   1.079   3.005  11.417 -0.3006 -0.3054 -0.0514
  803MPD2     H11830   0.894   3.003  11.751  0.8702  3.4819  0.1327
  803MPD2    H111831   0.982   2.815  11.373  0.7243  0.4983 -1.0296
  803MPD2    H211832   1.195   3.157  11.504 -0.2124 -0.1656 -0.0306
  803MPD2    H311833   1.124   3.029  11.321 -1.0944  0.0724 -0.3323
  803MPD2     N11834   0.830   2.794  11.584  0.6852  0.2138  0.5712
  803MPD2    H511835   0.832   2.708  11.530  2.2189  1.5058 -1.3985
  803MPD2    N111836   1.094   3.164  11.750 -0.1184  0.2529  0.0916
  803MPD2    H711837   1.026   3.186  11.822 -0.8248 -2.0747  0.1491
  804MPD2     C11838   4.600   3.948  16.672  0.0025 -0.1477  0.4195
  804MPD2    C111839   4.556   3.929  16.798  0.4101  0.2823  0.2867
  804MPD2    C211840   4.570   4.034  16.885 -0.3423  0.2952  0.3149
  804MPD2    C311841   4.634   4.150  16.852  0.7557  0.3926  0.7457
  804MPD2    C411842   4.694   4.159  16.733 -0.0305  0.3556 -0.5255
  804MPD2    C511843   4.675   4.058  16.641  0.0242 -0.9628 -0.1001
  804MPD2     H11844   4.536   4.012  16.986 -0.3402  2.2747  0.7497
  804MPD2    H111845   0.025   4.246  16.693  2.9806 -1.0125  0.2574
  804MPD2    H211846   4.593   3.875  16.592 -2.7706 -0.2271  0.7509
  804MPD2    H311847   4.712   4.062  16.539 -0.2141  0.2941 -0.1351
  804MPD2     N11848   4.631   4.259  16.942  0.8473  0.1090  0.1443
  804MPD2    H511849   4.587   4.242  17.032 -1.5146  1.5081 -0.7595
  804MPD2    N111850   4.525   3.804  16.864  1.0284  0.7815 -0.0479
  804MPD2    H711851   4.509   3.801  16.964 -1.4275 -0.0051 -0.4668
  805MPD2     C11852   4.034   2.989  15.343 -0.2452 -0.1411  0.7132
  805MPD2    C111853   4.083   2.860  15.367 -0.0562 -0.4688  0.4547
  805MPD2    C211854   4.178   2.844  15.460 -0.0441 -0.1417 -0.4061
  805MPD2    C311855   4.233   2.943  15.533 -0.0928 -0.5426  0.6365
  805MPD2    C411856   4.186   3.068  15.502  0.2910  0.5619  0.5569
  805MPD2    C511857   4.090   3.095  15.410 -0.1847 -0.1553 -0.7701
  805MPD2     H11858   4.212   2.743  15.478  1.8453  0.8484  1.6416
  805MPD2    H111859   4.224   3.156  15.553  2.8009  1.0474 -2.1069
  805MPD2    H211860   3.954   3.009  15.272  0.1342 -0.2332  0.2587
  805MPD2    H311861   4.053   3.196  15.395 -0.0573 -0.1290 -0.9057
  805MPD2     N11862   4.348   2.924  15.621  0.1677  0.3204  0.1001
  805MPD2    H511863   4.382   2.996  15.683 -3.4400  2.8753 -0.9016
  805MPD2    N111864   4.035   2.746  15.298  0.0463  0.4406  0.4336
  805MPD2    H711865   4.078   2.655  15.311  0.2496  0.1896 -1.9567
  806MPD2     C11866   4.105   1.712   0.326  0.3931 -0.0310  0.3849
  806MPD2    C111867   4.182   1.763   0.427  0.2120  0.1674 -0.2537
  806MPD2    C211868   4.319   1.779   0.397  0.4560 -0.9911 -0.8605
  806MPD2    C311869   4.372   1.756   0.276 -0.2001 -0.5773  0.3456
  806MPD2    C411870   4.295   1.689   0.181 -1.1119  0.5413 -0.1053
  806MPD2    C511871   4.165   1.671   0.208 -0.0045  0.8504  0.0007
  806MPD2     H11872   4.395   1.815   0.466 -1.0913 -0.2475  0.4593
  806MPD2    H111873   4.343   1.660   0.089 -0.1533  2.0131 -0.0580
  806MPD2    H211874   4.000   1.691   0.345  0.2018  0.2715 -0.3676
  806MPD2    H311875   4.100   1.632   0.131  1.0470 -1.6367  0.3725
  806MPD2     N11876   4.507   1.800   0.262  0.5469  0.2053 -0.5559
  806MPD2    H511877   4.552   1.841   0.344  2.7892  1.8490 -2.6251
  806MPD2    N111878   4.125   1.798   0.554 -0.5375  0.3855 -0.5616
  806MPD2    H711879   4.024   1.785   0.562 -0.6884  0.8124 -1.7871
  807MPD2     C11880   3.726   1.568   1.184 -0.5326  0.1293  0.4430
  807MPD2    C111881   3.862   1.577   1.197  0.1946  0.0380  0.4025
  807MPD2    C211882   3.921   1.501   1.293 -0.3008  0.3297 -0.1258
  807MPD2    C311883   3.861   1.440   1.398 -0.4925  0.0341 -0.1879
  807MPD2    C411884   3.723   1.449   1.400 -0.1617  0.2851  0.2908
  807MPD2    C511885   3.657   1.504   1.289 -0.2325 -0.2331  0.3066
  807MPD2     H11886   4.028   1.507   1.277 -0.1446  2.2769  1.6734
  807MPD2    H111887   3.655   1.414   1.477 -0.2958  0.8869  0.4422
  807MPD2    H211888   3.669   1.627   1.114 -2.8108  0.3086  2.4620
  807MPD2    H311889   3.549   1.505   1.288 -0.2174  1.5245  0.8108
  807MPD2     N11890   3.943   1.377   1.492 -0.3578  0.2020 -0.2261
  807MPD2    H511891   4.042   1.397   1.488 -0.9431  2.8566 -1.5276
  807MPD2    N111892   3.948   1.653   1.118  0.1483  0.3731 -0.3396
  807MPD2    H711893   4.044   1.667   1.147  0.1079  0.1242 -0.0875
  808MPD2     C11894   0.428   2.534   9.403  0.2837 -0.2181 -0.2075
  808MPD2    C111895   0.373   2.660   9.442  0.0455  0.5469 -0.4465
  808MPD2    C211896   0.461   2.750   9.485  1.0957  0.2062  0.3038
  808MPD2    C311897   0.597   2.727   9.505  0.3263  0.1860  0.4346
  808MPD2    C411898   0.648   2.610   9.462  0.0054  0.5438  0.1764
  808MPD2    C511899   0.569   2.510   9.419 -0.1506  0.3714  0.0630
  808MPD2     H11900   0.427   2.847   9.518 -0.9960  0.5101 -2.7709
  808MPD2    H111901   0.754   2.585   9.466 -0.1975 -0.2198  0.7360
  808MPD2    H211902   0.376   2.447   9.365  2.2779 -1.6651  0.3759
  808MPD2    H311903   0.609   2.413   9.395 -1.3671 -0.4579  1.3703
  808MPD2     N11904   0.697   2.821   9.547 -0.4939  0.2453 -0.0551
  808MPD2    H511905   0.792   2.796   9.524 -0.1154  1.0152  0.7009
  808MPD2    N111906   0.238   2.690   9.418 -0.1248 -0.2934 -0.5561
  808MPD2    H711907   0.207   2.780   9.453  1.4870  0.3781 -0.8411
  809MPD2     C11908   1.607   3.103   9.397  0.8338 -0.4173 -1.1466
  809MPD2    C111909   1.525   2.993   9.423 -0.2897 -0.1010 -0.1010
  809MPD2    C211910   1.388   3.013   9.445  0.0402  0.4715 -0.2082
  809MPD2    C311911   1.329   3.138   9.417 -0.4936  0.3710  0.2816
  809MPD2    C411912   1.415   3.243   9.401 -0.4872  0.2447  0.2739
  809MPD2    C511913   1.551   3.227   9.392  0.2451 -0.4405  0.6475
  809MPD2     H11914   1.328   2.927   9.472 -0.3748  0.8086 -0.0565
  809MPD2    H111915   1.369   3.341   9.412 -1.9243 -0.4091  0.1708
  809MPD2    H211916   1.713   3.084   9.403  0.8346 -0.3462 -0.9052
  809MPD2    H311917   1.617   3.313   9.384 -0.9293  0.2914 -1.3554
  809MPD2     N11918   1.195   3.165   9.438 -0.2030  0.0492 -0.3749
  809MPD2    H511919   1.186   3.263   9.461 -0.4854 -0.1771  0.4783
  809MPD2    N111920   1.572   2.867   9.437  0.3473  0.2918 -0.9516
  809MPD2    H711921   1.508   2.803   9.483  0.3233  1.8988  1.2401
  810MPD2     C11922   0.454   2.463   9.822 -0.4118 -0.0909  1.6750
  810MPD2    C111923   0.330   2.509   9.793  0.5505  0.3368 -1.3129
  810MPD2    C211924   0.312   2.643   9.809  0.3038 -0.6518 -0.4502
  810MPD2    C311925   0.412   2.737   9.829 -0.2982  0.0553  0.5267
  810MPD2    C411926   0.544   2.691   9.849  0.4666  0.0815 -0.5585
  810MPD2    C511927   0.558   2.555   9.847 -0.1508 -0.3918  0.2100
  810MPD2     H11928   0.217   2.686   9.778  0.5160  0.3610  0.2861
  810MPD2    H111929   0.625   2.761   9.865  0.5588 -0.0394 -0.4930
  810MPD2    H211930   0.484   2.359   9.811  2.1243  0.6971  1.2121
  810MPD2    H311931   0.654   2.507   9.859 -1.0157 -2.0051  0.6655
  810MPD2     N11932   0.383   2.871   9.816 -0.0708 -0.6880 -1.1778
  810MPD2    H511933   0.461   2.934   9.798  1.4656 -2.0550  0.6996
  810MPD2    N111934   0.227   2.418   9.759  0.6166  0.0678 -0.3689
  810MPD2    H711935   0.250   2.320   9.772  1.2682  0.5650  2.1875
  811MPD2     C11936   4.085   2.602   9.593 -0.2426  0.4772  0.1267
  811MPD2    C111937   4.218   2.618   9.621  0.0009  0.2490 -0.5359
  811MPD2    C211938   4.257   2.745   9.646  0.4264 -0.4138  0.1008
  811MPD2    C311939   4.173   2.856   9.655 -0.6128  0.5269  0.0010
  811MPD2    C411940   4.042   2.834   9.624  0.0864  0.4662 -0.2003
  811MPD2    C511941   3.992   2.708   9.590 -0.1328  0.4709  0.2738
  811MPD2     H11942   4.360   2.760   9.674  0.0287  2.0981  0.2180
  811MPD2    H111943   3.968   2.914   9.627 -1.3290 -0.7598 -2.4717
  811MPD2    H211944   4.045   2.502   9.576  0.1667  0.3495 -0.0892
  811MPD2    H311945   3.887   2.684   9.588  0.2866 -1.5178  1.9337
  811MPD2     N11946   4.216   2.985   9.700 -0.4854  0.3532 -0.3738
  811MPD2    H511947   4.315   3.000   9.684 -0.4816  0.2423 -0.4569
  811MPD2    N111948   4.299   2.501   9.620  0.6713 -0.6618 -0.1618
  811MPD2    H711949   4.256   2.415   9.588 -3.9182  2.4899 -2.5225
  812MPD2     C11950   3.746   2.148  12.332  0.4754 -0.2390  0.1654
  812MPD2    C111951   3.658   2.232  12.379  0.2433 -0.0931 -0.2506
  812MPD2    C211952   3.589   2.202  12.495  0.7907  0.2057 -0.4148
  812MPD2    C311953   3.630   2.083  12.561 -0.5098 -0.6517 -0.0673
  812MPD2    C411954   3.746   2.017  12.522 -0.3381 -1.1319  0.2203
  812MPD2    C511955   3.794   2.042  12.397 -0.7432 -0.3715 -0.1405
  812MPD2     H11956   3.502   2.257  12.531  1.2412 -0.7005  2.0413
  812MPD2    H111957   3.796   1.942  12.582  0.2121  1.3518  2.8741
  812MPD2    H211958   3.793   2.173  12.237 -1.5987  0.6393 -0.6244
  812MPD2    H311959   3.877   1.989  12.350  0.2339  0.5968  0.4826
  812MPD2     N11960   3.560   2.057  12.681  0.6199  0.0437 -1.1385
  812MPD2    H511961   3.484   2.121  12.701  0.0932 -1.1679  0.7473
  812MPD2    N111962   3.638   2.360  12.313 -0.2008  0.3282  0.3399
  812MPD2    H711963   3.697   2.378  12.232 -0.8584 -0.2476 -0.2663
  813MPD2     C11964   2.210   4.274  12.631  0.2172 -0.0082  0.2359
  813MPD2    C111965   2.247   4.403  12.668  0.0390 -0.3411 -0.3341
  813MPD2    C211966   2.224   4.431  12.806  0.7290 -0.5606 -0.3400
  813MPD2    C311967   2.175   4.336  12.897 -0.9867  0.6207 -0.3741
  813MPD2    C411968   2.153   4.204  12.852 -0.9847 -0.2748 -0.1371
  813MPD2    C511969   2.163   4.178  12.714  0.0097  0.3923  0.1654
  813MPD2     H11970   2.250   4.532  12.836  1.3052 -1.1413  1.1100
  813MPD2    H111971   2.107   4.130  12.916  0.8497 -0.5919  0.8329
  813MPD2    H211972   2.213   4.247  12.526  0.7601  2.9938 -0.5278
  813MPD2    H311973   2.142   4.076  12.684  0.8676  0.1536  0.3648
  813MPD2     N11974   2.175   4.387  13.028  0.2910 -0.2739 -0.2930
  813MPD2    H511975   2.215   4.479  13.044 -2.4522  0.8697 -0.0467
  813MPD2    N111976   2.318   4.487  12.580 -0.3111 -0.1277  0.7292
  813MPD2    H711977   2.352   4.448  12.492  0.2069  2.7605 -0.3421
  814MPD2     C11978   3.146   0.310  12.150 -0.3235  0.1894  0.0395
  814MPD2    C111979   3.154   0.374  12.029  0.1965  0.2681 -0.1706
  814MPD2    C211980   3.200   0.509  12.026 -0.4284  0.1008 -0.7639
  814MPD2    C311981   3.235   0.574  12.147 -0.6479  0.0872 -0.3359
  814MPD2    C411982   3.237   0.495  12.263  0.9931 -0.2174 -0.0198
  814MPD2    C511983   3.194   0.367  12.261 -0.4528  0.2658 -0.1465
  814MPD2     H11984   3.190   0.567  11.935 -0.0477  0.1588 -0.7703
  814MPD2    H111985   3.265   0.530  12.362  1.4211 -0.7938  0.0646
  814MPD2    H211986   3.103   0.210  12.155  1.8640 -0.6770  1.5298
  814MPD2    H311987   3.199   0.309  12.353 -0.5167 -2.2495 -1.7074
  814MPD2     N11988   3.252   0.717  12.162 -0.3494 -0.4431  0.0421
  814MPD2    H511989   3.266   0.759  12.253  0.4800 -1.4034  0.3620
  814MPD2    N111990   3.099   0.320  11.907  0.4219 -0.4413 -0.4320
  814MPD2    H711991   3.113   0.374  11.822  0.2641 -0.4366 -0.4546
  815MPD2     C11992   3.674   4.291  11.251 -0.4147 -0.4134 -0.2645
  815MPD2    C111993   3.701   4.193  11.341 -0.2797  1.1281  0.7869
  815MPD2    C211994   3.626   4.182  11.450  0.4947 -0.3444 -0.0397
  815MPD2    C311995   3.508   4.252  11.461 -0.6038 -0.4215  0.6515
  815MPD2    C411996   3.474   4.345  11.361  0.2761 -0.2418  0.3545
  815MPD2    C511997   3.558   4.370  11.259  0.8883 -0.6300  0.3736
  815MPD2     H11998   3.634   4.107  11.528 -0.3769 -1.0381 -0.6153
  815MPD2    H111999   3.383   4.402  11.360 -0.0626 -0.7773  0.8883
  815MPD2    H212000   3.745   4.304  11.170  0.2622 -0.8586  0.2612
  815MPD2    H312001   3.530   4.447  11.188 -1.0178 -2.1497 -0.5265
  815MPD2     N12002   3.428   4.227  11.572  0.5868  0.2878 -0.4392
  815MPD2    H512003   3.477   4.181  11.648  1.2606  1.9276  0.1285
  815MPD2    N112004   3.793   4.092  11.307  0.3370  0.0191 -0.0704
  815MPD2    H712005   3.851   4.099  11.223  1.4222 -0.4413  0.6303
  816MPD2     C12006   2.901   3.428  17.431 -0.8423  1.0416 -0.0373
  816MPD2    C112007   2.999   3.524  17.437 -0.1942  0.1724  0.4030
  816MPD2    C212008   3.135   3.491  17.421  0.1344  0.0539  0.1606
  816MPD2    C312009   3.161   3.362  17.388 -0.6754  0.3167  0.0535
  816MPD2    C412010   3.059   3.263  17.377 -0.3152 -0.4816  0.1291
  816MPD2    C512011   2.932   3.299  17.395 -0.5501 -0.1710  0.0964
  816MPD2     H12012   3.211   3.566  17.439 -0.8218  0.9606  0.4655
  816MPD2    H112013   3.069   3.160  17.346  0.4548 -0.5746  0.6791
  816MPD2    H212014   2.801   3.460  17.458 -0.2799  1.0508  1.9679
  816MPD2    H312015   2.854   3.223  17.396  1.2419 -2.0207 -1.3132
  816MPD2     N12016   3.298   3.335  17.377  0.0415 -0.2510  0.3099
  816MPD2    H512017   3.364   3.409  17.395 -1.1917  0.7311  0.7686
  816MPD2    N112018   2.958   3.656  17.468 -0.1284  0.1971  0.5125
  816MPD2    H712019   2.859   3.671  17.482 -0.7555 -2.0464 -1.4294
  817MPD2     C12020   2.954   4.439  10.175 -0.7022  0.6429  0.3020
  817MPD2    C112021   2.916   4.457  10.043 -0.4019  0.4762 -0.4283
  817MPD2    C212022   2.892   4.576   9.990  0.1293  0.2022  0.3131
  817MPD2    C312023   2.911   4.686  10.063 -0.3088  1.1385  0.1737
  817MPD2    C412024   2.945   4.681  10.199 -0.2814 -1.1452  0.0843
  817MPD2    C512025   2.963   4.552  10.251  0.2235  0.0204  0.0388
  817MPD2     H12026   2.874   4.580   9.883 -1.7486  2.7483  0.7198
  817MPD2    H112027   2.957   0.050  10.262  0.4938 -1.2935  0.1451
  817MPD2    H212028   2.973   4.340  10.213  1.3173  0.6902 -0.6203
  817MPD2    H312029   2.988   4.546  10.356 -1.2381 -2.4566  0.2494
  817MPD2     N12030   2.894   0.086   9.991  0.3256 -0.3795 -0.3777
  817MPD2    H512031   2.849   0.082   9.900 -1.0270 -2.8219  0.3962
  817MPD2    N112032   2.918   4.345   9.954 -0.0133  0.1543  0.4457
  817MPD2    H712033   2.891   4.359   9.857  1.5076  0.8180  0.1222
  818MPD2     C12034   2.163   4.593   9.957 -0.2130 -0.0892 -0.1430
  818MPD2    C112035   2.048   4.575  10.031  0.1553 -0.9976  0.3940
  818MPD2    C212036   2.023   4.441  10.060  0.6534  0.1254  0.4931
  818MPD2    C312037   2.098   4.331  10.015  0.2222  1.0927  0.1148
  818MPD2    C412038   2.214   4.355   9.945  0.4586 -0.4144 -0.1585
  818MPD2    C512039   2.251   4.489   9.926 -0.3503  0.6729 -0.0975
  818MPD2     H12040   1.933   4.420  10.116  0.0590 -2.9627 -1.6786
  818MPD2    H112041   2.279   4.275   9.913 -0.5983 -1.9431  1.4868
  818MPD2    H212042   2.189   4.693   9.923 -1.8973  0.2576 -0.4215
  818MPD2    H312043   2.340   4.514   9.869  1.6229  0.0215  2.6679
  818MPD2     N12044   2.066   4.194  10.045  0.4153 -0.2323  0.3216
  818MPD2    H512045   2.120   4.127   9.991 -0.5605 -1.3062  0.6743
  818MPD2    N112046   1.961   4.674  10.076 -0.1406 -0.0065  0.2276
  818MPD2    H712047   1.876   4.647  10.125 -1.4817 -0.2092 -2.2177
  819MPD2     C12048   0.127   2.169  15.644 -0.3213  0.4310  0.5066
  819MPD2    C112049   0.155   2.039  15.613  0.2055 -0.5274  0.6789
  819MPD2    C212050   0.257   1.974  15.682 -0.1414  0.8459  0.2433
  819MPD2    C312051   0.331   2.034  15.781 -0.0362 -0.6720 -0.5575
  819MPD2    C412052   0.300   2.158  15.820  0.3961  0.5851  0.2367
  819MPD2    C512053   0.204   2.224  15.740 -0.5247 -0.0049 -0.0028
  819MPD2     H12054   0.282   1.873  15.651  1.1672  1.1114  0.4222
  819MPD2    H112055   0.353   2.218  15.893  2.3304 -1.9570  0.9106
  819MPD2    H212056   0.047   2.228  15.601 -0.9773  0.8010  2.2429
  819MPD2    H312057   0.180   2.329  15.755  0.3728 -0.1883  2.6957
  819MPD2     N12058   0.446   1.972  15.831 -0.3500  0.7018  0.7810
  819MPD2    H512059   0.488   1.889  15.791  1.6649  3.2919 -2.4792
  819MPD2    N112060   0.080   1.984  15.507 -0.2856  0.3794  0.1115
  819MPD2    H712061   0.014   2.037  15.452 -2.3385  0.1662  2.3337
  820MPD2     C12062   3.923   1.951  15.051  0.2070  0.2564  0.4013
  820MPD2    C112063   4.013   2.046  15.094 -0.2254  0.1165 -0.3397
  820MPD2    C212064   4.143   2.005  15.135  0.1228 -0.4735 -0.7539
  820MPD2    C312065   4.173   1.868  15.134  0.1376  0.1133 -0.1311
  820MPD2    C412066   4.081   1.778  15.089 -0.1530  0.1620  0.2466
  820MPD2    C512067   3.954   1.818  15.053 -0.6012 -0.5695  0.0158
  820MPD2     H12068   4.220   2.078  15.158 -0.8718 -0.4147  2.2986
  820MPD2    H112069   4.103   1.672  15.089  1.7748  0.5609  0.4532
  820MPD2    H212070   3.824   1.985  15.020  0.2342 -1.6884 -1.8303
  820MPD2    H312071   3.877   1.749  15.020 -1.0121  0.2405 -0.7174
  820MPD2     N12072   4.301   1.825  15.164 -0.6845 -0.1385 -0.1941
  820MPD2    H512073   4.321   1.726  15.153  0.5327  0.2670 -1.5697
  820MPD2    N112074   3.979   2.183  15.087  0.5008 -0.4323  0.2066
  820MPD2    H712075   3.889   2.206  15.047  0.6195 -1.8215 -0.8717
  821MPD2     C12076   0.619   2.943  12.749 -0.1088 -0.0742  0.0768
  821MPD2    C112077   0.707   2.940  12.858 -0.8055 -0.3973  0.3483
  821MPD2    C212078   0.842   2.963  12.835 -0.7420  0.0373  0.5871
  821MPD2    C312079   0.884   3.018  12.714  0.1377 -0.9716  0.2915
  821MPD2    C412080   0.794   3.022  12.611 -0.2211 -0.4789 -0.7046
  821MPD2    C512081   0.667   2.981  12.628  0.5378  0.1399  0.5200
  821MPD2     H12082   0.899   2.965  12.928 -1.5849  0.9164  1.0802
  821MPD2    H112083   0.816   3.050  12.508 -1.3580 -0.0865 -0.8417
  821MPD2    H212084   0.512   2.926  12.756 -0.0907  0.3532  1.3538
  821MPD2    H312085   0.601   2.996  12.543 -0.9923  0.0790  1.6982
  821MPD2     N12086   1.016   3.073  12.704 -0.5525 -0.6659  0.0690
  821MPD2    H512087   1.030   3.146  12.636 -1.4889 -2.1984 -1.7608
  821MPD2    N112088   0.667   2.912  12.994  0.3123  0.6511 -0.0939
  821MPD2    H712089   0.738   2.912  13.066  0.8763 -0.9735 -0.6455
  822MPD2     C12090   0.865   3.480  15.533  0.1405 -0.4167 -0.3895
  822MPD2    C112091   0.843   3.437  15.657 -0.0443  0.4137 -0.4169
  822MPD2    C212092   0.775   3.508  15.750 -0.5009 -0.7020  0.2634
  822MPD2    C312093   0.732   3.631  15.711 -0.8601  0.0886 -0.6079
  822MPD2    C412094   0.741   3.673  15.580  0.0124  0.1072 -0.5410
  822MPD2    C512095   0.810   3.596  15.487  0.6318  0.0938 -0.7403
  822MPD2     H12096   0.749   3.466  15.847  1.7208 -1.8495  0.3542
  822MPD2    H112097   0.686   3.759  15.544  0.2672  1.0143  1.2491
  822MPD2    H212098   0.923   3.419  15.465  0.5491  0.3742 -0.7493
  822MPD2    H312099   0.812   3.627  15.383 -1.8497  0.3846 -0.6932
  822MPD2     N12100   0.651   3.700  15.804  0.2342 -0.6913  0.1147
  822MPD2    H512101   0.669   3.661  15.896 -1.0818 -0.7111  0.3724
  822MPD2    N112102   0.879   3.308  15.699  0.7383  0.0402 -0.0899
  822MPD2    H712103   0.874   3.283  15.797  0.6045 -0.4347 -0.2182
  823MPD2     C12104   0.189   3.820  16.539 -0.7177 -0.2811  0.6288
  823MPD2    C112105   0.259   3.761  16.436  0.4500 -0.5011 -0.1461
  823MPD2    C212106   0.306   3.629  16.468  0.2978 -0.1967 -0.3925
  823MPD2    C312107   0.254   3.560  16.581 -0.1089  0.0134 -0.3237
  823MPD2    C412108   0.174   3.622  16.679 -0.7248  0.4481  0.2374
  823MPD2    C512109   0.139   3.752  16.655 -0.1558  0.0835  0.4757
  823MPD2     H12110   0.369   3.586  16.391  0.1669 -0.8166 -0.1520
  823MPD2    H112111   0.161   3.574  16.775 -0.3407  0.5792  0.3568
  823MPD2    H212112   0.153   3.922  16.536  1.6770  0.5528  0.3345
  823MPD2    H312113   0.105   3.820  16.732 -3.8775 -0.6494 -0.5369
  823MPD2     N12114   0.281   3.424  16.607  0.3982 -0.4980 -0.4337
  823MPD2    H512115   0.251   3.380  16.693 -0.9944  1.8923  0.3074
  823MPD2    N112116   0.304   3.838  16.322  0.2091 -0.4324  0.5050
  823MPD2    H712117   0.283   3.937  16.316  0.1920 -0.6237 -2.6155
  824MPD2     C12118   1.019   2.477  15.606  0.0480 -0.5605  0.1166
  824MPD2    C112119   1.110   2.574  15.637  0.4117  0.1983  0.3222
  824MPD2    C212120   1.240   2.563  15.603  0.8371 -0.1481  0.1980
  824MPD2    C312121   1.283   2.454  15.541 -0.3143 -0.0612  0.0442
  824MPD2    C412122   1.198   2.354  15.509  0.0449  0.2028 -0.7525
  824MPD2    C512123   1.067   2.365  15.543 -0.4633 -0.2356  0.5189
  824MPD2     H12124   1.306   2.647  15.620 -0.0334  0.2943  1.4064
  824MPD2    H112125   1.227   2.258  15.468  0.8825  0.8674 -1.7238
  824MPD2    H212126   0.914   2.477  15.636  0.2944  1.0477  0.9744
  824MPD2    H312127   1.002   2.289  15.501  0.1651  0.0538 -0.9921
  824MPD2     N12128   1.426   2.449  15.519  0.3117  0.2284 -0.0150
  824MPD2    H512129   1.478   2.536  15.525  1.7189 -0.5630 -0.5489
  824MPD2    N112130   1.075   2.691  15.708  0.3232  0.0981  0.2734
  824MPD2    H712131   1.153   2.755  15.722  0.6427  0.1175 -1.5305
  825MPD2     C12132   1.691   2.747  15.029 -0.2050  0.5811  0.3437
  825MPD2    C112133   1.771   2.751  15.135 -0.0151  0.4448 -0.6656
  825MPD2    C212134   1.850   2.867  15.159 -0.1728 -0.5610  0.1571
  825MPD2    C312135   1.853   2.974  15.062 -0.1398  0.2463 -0.1132
  825MPD2    C412136   1.778   2.953  14.950 -0.3331  0.0901 -0.4408
  825MPD2    C512137   1.690   2.852  14.935 -0.4903 -0.1067 -0.6568
  825MPD2     H12138   1.896   2.873  15.257  2.1010 -0.7692 -0.9008
  825MPD2    H112139   1.767   3.022  14.867 -0.6153  2.4196  1.5620
  825MPD2    H212140   1.630   2.661  15.002 -1.8352  2.2857 -1.4502
  825MPD2    H312141   1.632   2.841  14.844  1.0725  0.6351 -1.7359
  825MPD2     N12142   1.913   3.097  15.080  0.2530  0.4712 -0.1087
  825MPD2    H512143   1.912   3.168  15.008  0.9071  2.5563  1.9505
  825MPD2    N112144   1.768   2.639  15.219 -0.1004 -0.1570 -0.4084
  825MPD2    H712145   1.692   2.574  15.202  0.1626 -0.7420  0.6535
  826MPD2     C12146   1.699   2.278  13.003 -0.0683 -0.1768  0.3733
  826MPD2    C112147   1.584   2.278  12.923  0.4482  0.4654 -0.1241
  826MPD2    C212148   1.464   2.337  12.980  0.2302 -0.4392  0.3728
  826MPD2    C312149   1.465   2.397  13.102 -0.2719  0.0584 -0.1980
  826MPD2    C412150   1.576   2.385  13.183 -0.0473 -0.4360  0.5953
  826MPD2    C512151   1.695   2.338  13.127  0.0386  0.1804  0.7239
  826MPD2     H12152   1.373   2.335  12.921 -0.5133  0.8334  1.4706
  826MPD2    H112153   1.572   2.441  13.275  0.1279  1.7539 -0.7366
  826MPD2    H212154   1.791   2.228  12.973  0.4843  1.3486 -0.4485
  826MPD2    H312155   1.781   2.335  13.193 -0.0730 -0.0351  0.8578
  826MPD2     N12156   1.355   2.473  13.149  0.8888  0.1135 -0.0011
  826MPD2    H512157   1.350   2.499  13.247 -0.8103 -1.7535  0.4075
  826MPD2    N112158   1.587   2.222  12.792 -0.2570 -0.4803 -0.4497
  826MPD2    H712159   1.670   2.176  12.756  0.1399 -0.9865  1.1269
  827MPD2     C12160   2.259   3.089  10.185  0.0789 -0.0890  0.1744
  827MPD2    C112161   2.289   3.054  10.314  0.1627  0.2265 -0.0909
  827MPD2    C212162   2.299   2.921  10.349  0.9010  0.9869  0.2031
  827MPD2    C312163   2.257   2.820  10.267  0.1371 -0.1110  0.7372
  827MPD2    C412164   2.207   2.858  10.139  0.4285 -0.5384 -0.0383
  827MPD2    C512165   2.207   2.989  10.103 -0.7299  0.0883 -0.5835
  827MPD2     H12166   2.330   2.889  10.448  2.8040 -1.9638 -1.3564
  827MPD2    H112167   2.165   2.783  10.073 -2.3634  1.1979 -0.2052
  827MPD2    H212168   2.259   3.191  10.150 -2.0502  0.6912  2.4051
  827MPD2    H312169   2.168   3.013  10.005  2.2474  0.4830 -1.6631
  827MPD2     N12170   2.267   2.685  10.313  0.0571 -0.3028  0.3344
  827MPD2    H512171   2.323   2.667  10.396 -1.5159 -1.5642  1.1123
  827MPD2    N112172   2.327   3.163  10.397  0.0774  0.6687  0.0225
  827MPD2    H712173   2.324   3.259  10.363 -1.2958 -0.1788 -2.1987
  828MPD2     C12174   0.670   3.751  12.402  0.2310  0.3389 -0.7492
  828MPD2    C112175   0.661   3.718  12.268 -0.3274  0.3788  0.6115
  828MPD2    C212176   0.774   3.691  12.194  0.8460  0.4770  0.3006
  828MPD2    C312177   0.899   3.695  12.252  0.3296  0.0212 -0.0038
  828MPD2    C412178   0.906   3.713  12.388 -0.4680 -0.4796 -0.6061
  828MPD2    C512179   0.790   3.743  12.460  0.4358  0.1555  0.1834
  828MPD2     H12180   0.764   3.667  12.089 -0.7504  2.1672  0.0678
  828MPD2    H112181   1.003   3.717  12.435 -0.1878  0.9785 -1.3020
  828MPD2    H212182   0.589   3.787  12.463  1.3431  0.4844  0.6464
  828MPD2    H312183   0.792   3.770  12.564  0.1954  0.3503  0.1368
  828MPD2     N12184   1.022   3.681  12.181  0.0649  0.4107 -0.1419
  828MPD2    H512185   1.107   3.667  12.234  1.0184 -1.2515 -2.1269
  828MPD2    N112186   0.543   3.717  12.188  0.3296  0.7182  0.3036
  828MPD2    H712187   0.553   3.694  12.089 -1.8297  3.4643 -0.5598
  829MPD2     C12188   0.605   3.884  11.377 -0.3435 -1.0139  0.1694
  829MPD2    C112189   0.470   3.902  11.391 -0.2231  0.5319 -0.4021
  829MPD2    C212190   0.406   3.889  11.514 -0.2826  0.3121 -0.2348
  829MPD2    C312191   0.479   3.856  11.625 -0.3186 -0.9369 -0.0329
  829MPD2    C412192   0.618   3.835  11.605 -0.8155 -0.5438  1.0399
  829MPD2    C512193   0.683   3.851  11.485  0.3599 -0.0031 -0.0623
  829MPD2     H12194   0.300   3.909  11.520 -0.0808  0.7038  1.8888
  829MPD2    H112195   0.682   3.802  11.686 -1.4868 -2.7526  0.6743
  829MPD2    H212196   0.657   3.896  11.282 -0.1919 -0.8915  0.2675
  829MPD2    H312197   0.789   3.832  11.471  0.7832  1.0983  1.6048
  829MPD2     N12198   0.426   3.837  11.749  0.6053  0.5049  0.1059
  829MPD2    H512199   0.489   3.787  11.811  2.6782  1.4374 -1.2473
  829MPD2    N112200   0.403   3.909  11.263 -0.0492  0.2636 -0.2184
  829MPD2    H712201   0.462   3.887  11.184 -0.4373  4.4007 -1.6601
  830MPD2     C12202   0.907   1.647  15.449  0.6683  0.2019 -0.2698
  830MPD2    C112203   0.924   1.776  15.496 -0.9846 -0.4446 -0.2674
  830MPD2    C212204   0.943   1.866  15.401  0.1631 -0.0257  0.6362
  830MPD2    C312205   0.968   1.847  15.264 -0.5017  0.5664 -0.3154
  830MPD2    C412206   0.956   1.721  15.214 -0.6306  0.1070  0.3197
  830MPD2    C512207   0.922   1.625  15.308  0.2890 -0.3959 -0.1082
  830MPD2     H12208   0.944   1.966  15.443 -0.4874  0.0524  0.4624
  830MPD2    H112209   0.940   1.704  15.108  1.1515 -0.5278  0.1576
  830MPD2    H212210   0.877   1.566  15.514 -1.1593  2.6793  1.9624
  830MPD2    H312211   0.904   1.526  15.267  0.1836 -0.9014  1.1903
  830MPD2     N12212   1.004   1.955  15.175  0.0733  0.3172  0.6010
  830MPD2    H512213   0.993   1.947  15.074 -1.6672 -0.5153  0.8546
  830MPD2    N112214   0.890   1.818  15.628  0.1387 -0.2309  0.0787
  830MPD2    H712215   0.863   1.913  15.652  0.4457  0.0219 -0.5841
  831MPD2     C12216   0.812   3.741  16.183 -0.4517  0.1040  0.2617
  831MPD2    C112217   0.861   3.637  16.101 -0.0185  0.2555  0.4978
  831MPD2    C212218   0.794   3.510  16.096 -0.3137  0.3708 -0.0201
  831MPD2    C312219   0.676   3.494  16.165 -0.5535  0.4402  0.2250
  831MPD2    C412220   0.639   3.596  16.255  0.6188 -0.2445  0.2042
  831MPD2    C512221   0.702   3.719  16.261  0.3360  0.0162 -0.3926
  831MPD2     H12222   0.836   3.431  16.035  0.6696 -0.2549  1.4647
  831MPD2    H112223   0.549   3.593  16.315  0.5089  0.9658  0.1002
  831MPD2    H212224   0.869   3.833  16.191 -0.7122  0.1571  1.4779
  831MPD2    H312225   0.665   3.794  16.330 -0.3860  1.8561 -2.7534
  831MPD2     N12226   0.585   3.396  16.135 -0.1113 -0.4046 -0.0593
  831MPD2    H512227   0.499   3.407  16.187  1.7445  1.2569  2.6397
  831MPD2    N112228   0.969   3.667  16.023  0.5936  1.0947 -0.1233
  831MPD2    H712229   0.995   3.765  16.018 -0.5497  1.4042  0.0347
  832MPD2     C12230   3.896   4.596  17.471  0.1015 -0.4562 -0.9882
  832MPD2    C112231   3.922   4.696  17.385 -0.7532 -0.5054  1.0421
  832MPD2    C212232   3.840   4.715  17.269  0.2239 -0.0746 -0.3035
  832MPD2    C312233   3.744   4.615  17.242  0.0656  0.0594  0.2830
  832MPD2    C412234   3.740   4.503  17.325  0.3964 -0.5581  0.3439
  832MPD2    C512235   3.809   4.497  17.440 -0.3977  0.8495  0.6244
  832MPD2     H12236   3.860   0.066  17.189 -2.5197 -0.9109 -1.7434
  832MPD2    H112237   3.676   4.417  17.307 -1.3984  0.3442  2.2943
  832MPD2    H212238   3.962   4.575  17.554  0.0669  0.5641 -0.7115
  832MPD2    H312239   3.803   4.408  17.502  0.6463  0.1273 -0.3143
  832MPD2     N12240   3.661   4.627  17.127  0.4042 -0.6586 -0.0642
  832MPD2    H512241   3.603   4.545  17.109  0.4176 -0.5239 -0.7144
  832MPD2    N112242   4.036   0.057  17.406 -0.0449  0.2461 -0.0704
  832MPD2    H712243   4.097   0.027  17.481  2.3047  0.1829 -1.9703
  833MPD2     C12244   1.296   0.963  12.629 -0.9529 -0.4564 -0.2059
  833MPD2    C112245   1.301   1.097  12.599  0.1316 -0.4571  0.2794
  833MPD2    C212246   1.387   1.146  12.499 -0.5689 -0.1949 -1.1177
  833MPD2    C312247   1.460   1.053  12.424 -0.5197  0.4945  0.2625
  833MPD2    C412248   1.439   0.922  12.440 -0.2950 -0.0609  0.0841
  833MPD2    C512249   1.368   0.880  12.548 -0.8237 -0.3914 -0.2810
  833MPD2     H12250   1.404   1.251  12.478 -1.1410  0.3058  0.9611
  833MPD2    H112251   1.477   0.838  12.383 -1.2321 -0.7000  0.4009
  833MPD2    H212252   1.254   0.931  12.724 -0.8336  0.9907  0.3246
  833MPD2    H312253   1.357   0.774  12.564 -1.6704 -0.5038 -1.6282
  833MPD2     N12254   1.553   1.092  12.329 -0.2076 -0.3607  0.2567
  833MPD2    H512255   1.597   1.019  12.274  0.6948  1.7738 -1.8704
  833MPD2    N112256   1.224   1.183  12.682 -0.1054 -0.0683  0.4714
  833MPD2    H712257   1.163   1.147  12.754  1.8493  0.6097  2.4808
  834MPD2     C12258   1.850   0.923  11.447  0.1598  0.0128 -0.7043
  834MPD2    C112259   1.727   0.982  11.443 -0.4439  0.2233 -0.3484
  834MPD2    C212260   1.694   1.071  11.543 -0.5303 -0.0621 -0.6706
  834MPD2    C312261   1.780   1.077  11.651  0.1534 -0.1044 -0.9653
  834MPD2    C412262   1.905   1.023  11.648 -0.8975  0.1928 -0.3600
  834MPD2    C512263   1.942   0.945  11.542 -0.1490  0.6711  0.0474
  834MPD2     H12264   1.596   1.117  11.543  0.2070  1.4981  1.1703
  834MPD2    H112265   1.981   1.030  11.725  0.0693 -0.0187 -1.2871
  834MPD2    H212266   1.873   0.841  11.379  2.5220  0.2966 -0.2379
  834MPD2    H312267   2.038   0.897  11.552  0.5324  2.0158 -0.0019
  834MPD2     N12268   1.736   1.156  11.761  0.7033  0.6703 -0.3077
  834MPD2    H512269   1.657   1.219  11.754  1.5619  1.5227 -2.2887
  834MPD2    N112270   1.641   0.945  11.341 -0.1381 -0.3457  0.3304
  834MPD2    H712271   1.684   0.883  11.273  0.7071  1.2332 -0.5741
  835MPD2     C12272   1.546   3.220  10.968  0.6852 -0.2010 -1.0542
  835MPD2    C112273   1.505   3.354  10.967  0.1523 -0.9617 -0.1466
  835MPD2    C212274   1.572   3.449  11.050  0.3052  0.1221 -0.1188
  835MPD2    C312275   1.676   3.409  11.129 -0.4425 -0.6628 -0.1971
  835MPD2    C412276   1.724   3.280  11.122  0.2454  0.4539  0.0158
  835MPD2    C512277   1.658   3.194  11.039 -0.0807  0.4291  0.1413
  835MPD2     H12278   1.523   3.545  11.056 -2.4971 -1.2712 -0.4090
  835MPD2    H112279   1.802   3.237  11.183  0.2078 -0.5975 -0.6872
  835MPD2    H212280   1.491   3.146  10.910 -0.5307  0.0590 -0.2444
  835MPD2    H312281   1.695   3.092  11.037  1.3877  0.9166  2.5853
  835MPD2     N12282   1.734   3.495  11.230  0.1273 -0.3341  0.1676
  835MPD2    H512283   1.810   3.460  11.288  0.3769  0.4938  0.3370
  835MPD2    N112284   1.385   3.396  10.911  0.4152  0.2768 -0.6191
  835MPD2    H712285   1.372   3.494  10.936  4.5581  1.3741 -2.8546
  836MPD2     C12286   1.209   3.830  11.503  0.3737 -1.2109 -0.1966
  836MPD2    C112287   1.312   3.868  11.587  0.0819  0.5921  0.0101
  836MPD2    C212288   1.284   3.921  11.709 -0.2254  0.1886  0.6338
  836MPD2    C312289   1.152   3.935  11.753  0.1606  0.1066  0.0629
  836MPD2    C412290   1.045   3.909  11.667 -0.5807  0.3310  0.1032
  836MPD2    C512291   1.071   3.848  11.547  0.5763 -0.0477  0.3522
  836MPD2     H12292   1.362   3.940  11.782 -2.6055  0.0676  3.2028
  836MPD2    H112293   0.942   3.935  11.684 -0.5137  0.8009 -0.1995
  836MPD2    H212294   1.232   3.788  11.406 -1.9625  0.5926 -1.5434
  836MPD2    H312295   0.993   3.820  11.477 -2.3859  1.8404  2.8688
  836MPD2     N12296   1.118   3.982  11.880 -0.0473 -0.7051  0.0568
  836MPD2    H512297   1.018   3.987  11.899  0.0620  1.0933  0.1684
  836MPD2    N112298   1.439   3.835  11.546  0.3340 -0.1853  0.4881
  836MPD2    H712299   1.451   3.801  11.451  0.9519  1.7888 -0.1409
  837MPD2     C12300   0.024   3.596   9.531  0.1696  0.1000  0.9753
  837MPD2    C112301   4.665   3.597   9.640  0.5274  0.1398 -0.3817
  837MPD2    C212302   4.683   3.701   9.729  0.2253 -0.5544 -1.0555
  837MPD2    C312303   0.054   3.801   9.716  0.8313 -0.1905 -0.4403
  837MPD2    C412304   0.141   3.793   9.610  0.4333 -0.1425  0.0695
  837MPD2    C512305   0.118   3.695   9.513 -0.2163 -0.1138  0.2402
  837MPD2     H12306   4.629   3.713   9.822  1.6424 -0.7185 -0.2006
  837MPD2    H112307   0.210   3.869   9.576 -0.0075  0.9183  1.4998
  837MPD2    H212308   0.010   3.522   9.452  0.1413  0.1281  0.9540
  837MPD2    H312309   0.173   3.685   9.420 -0.1090 -0.1817  0.3114
  837MPD2     N12310   0.040   3.914   9.804  0.2129 -0.0895  0.3067
  837MPD2    H512311   4.692   3.906   9.880 -0.9841 -0.5928 -0.7956
  837MPD2    N112312   4.555   3.513   9.670  0.5081  0.5990 -0.8704
  837MPD2    H712313   4.503   3.543   9.752 -0.8623 -3.8499 -0.0807
  838MPD2     C12314   3.229   1.522  11.495 -0.1421  0.2141  0.1539
  838MPD2    C112315   3.215   1.485  11.626 -0.2728 -0.1733 -1.0697
  838MPD2    C212316   3.106   1.414  11.663 -0.6008 -0.4827 -0.2320
  838MPD2    C312317   3.008   1.377  11.575 -0.8790  0.3540 -0.1346
  838MPD2    C412318   3.014   1.428  11.443  0.5883  0.6891 -0.3180
  838MPD2    C512319   3.128   1.494  11.400  0.1248  0.1753 -0.2231
  838MPD2     H12320   3.101   1.380  11.765  1.3664  0.4338  0.1729
  838MPD2    H112321   2.936   1.404  11.372  0.2175 -0.1791  0.3914
  838MPD2    H212322   3.318   1.574  11.460  1.3406 -2.9034 -0.6545
  838MPD2    H312323   3.136   1.533  11.299  0.9502 -1.1867 -0.6859
  838MPD2     N12324   2.909   1.289  11.627 -0.4800 -0.8142 -0.3833
  838MPD2    H512325   2.924   1.255  11.721 -3.1054 -0.9168  0.0084
  838MPD2    N112326   3.318   1.502  11.720 -0.2408  0.4842 -0.6443
  838MPD2    H712327   3.294   1.492  11.818 -0.1328  0.3966 -0.6264
  839MPD2     C12328   2.929   0.873  11.563 -0.8795 -0.1015 -0.8269
  839MPD2    C112329   2.957   0.948  11.449 -0.5254 -0.2868 -0.0146
  839MPD2    C212330   3.080   1.008  11.440  0.4985  0.3458 -0.2323
  839MPD2    C312331   3.164   1.016  11.551  0.0587  0.2029 -0.5077
  839MPD2    C412332   3.124   0.946  11.665  0.5487 -0.5095  0.3881
  839MPD2    C512333   3.010   0.872  11.674  1.2054  0.7636  0.8694
  839MPD2     H12334   3.103   1.053  11.345  0.4633 -0.4136 -0.5993
  839MPD2    H112335   3.185   0.945  11.754  2.7871  1.2861 -1.1197
  839MPD2    H212336   2.840   0.814  11.579 -1.8072  2.4648  3.5573
  839MPD2    H312337   2.981   0.814  11.761  2.3009 -1.3460 -0.1554
  839MPD2     N12338   3.287   1.084  11.552  0.0723  0.2649 -0.1226
  839MPD2    H512339   3.327   1.099  11.644  0.3896  2.4251 -0.6331
  839MPD2    N112340   2.864   0.951  11.342  0.2265 -0.1059 -0.1308
  839MPD2    H712341   2.886   1.014  11.266  0.8113  0.6376  0.6577
  840MPD2     C12342   2.979   3.317  10.407  0.6027  0.4083 -0.0685
  840MPD2    C112343   2.929   3.398  10.502 -0.1266 -0.1756 -0.2392
  840MPD2    C212344   3.000   3.502  10.550  0.3009 -0.0576  0.0708
  840MPD2    C312345   3.128   3.520  10.506 -0.1695  0.1354  0.2280
  840MPD2    C412346   3.181   3.438  10.408  0.2947  0.5308  0.8574
  840MPD2    C512347   3.106   3.334  10.366 -0.2019  0.5491 -0.1203
  840MPD2     H12348   2.953   3.569  10.620  0.2942 -0.5787  0.5679
  840MPD2    H112349   3.276   3.446  10.358 -0.0536 -3.0784 -0.4134
  840MPD2    H212350   2.917   3.241  10.360 -3.0297  2.5479  1.3602
  840MPD2    H312351   3.148   3.275  10.285  1.6217  1.4091  0.1999
  840MPD2     N12352   3.207   3.623  10.556  0.5807 -0.4118 -0.2887
  840MPD2    H512353   3.300   3.634  10.517  0.8809  2.5242  1.2618
  840MPD2    N112354   2.801   3.365  10.547  0.3500  1.1257 -0.4626
  840MPD2    H712355   2.756   3.284  10.505  3.1577  0.2750 -1.7692
  841MPD2     C12356   2.929   3.877  14.157 -0.7997  0.1045 -0.0832
  841MPD2    C112357   2.936   3.815  14.280 -0.5385  0.0083 -0.5346
  841MPD2    C212358   3.060   3.816  14.349  1.1756  0.6617  0.4270
  841MPD2    C312359   3.171   3.881  14.298 -0.0585  0.6929 -0.0817
  841MPD2    C412360   3.165   3.946  14.182 -0.3819 -0.2161 -0.0684
  841MPD2    C512361   3.049   3.941  14.110  0.2199 -0.0807 -0.0612
  841MPD2     H12362   3.059   3.780  14.451 -3.0473  0.8996  0.4824
  841MPD2    H112363   3.251   3.996  14.138  0.6380 -1.8310  0.0897
  841MPD2    H212364   2.840   3.884  14.096 -1.2577  1.9624  0.8140
  841MPD2    H312365   3.048   3.996  14.017 -0.9778 -1.2026 -0.7151
  841MPD2     N12366   3.273   3.878  14.390  0.4168  0.1121 -0.2574
  841MPD2    H512367   3.270   3.813  14.468 -2.5568 -0.0699 -0.5162
  841MPD2    N112368   2.819   3.752  14.326 -0.0289 -0.5936  0.4670
  841MPD2    H712369   2.739   3.764  14.265  0.7126 -1.1941 -0.6234
  842MPD2     C12370   3.063   0.273  16.808  0.1768 -0.1923  0.8198
  842MPD2    C112371   2.935   0.218  16.800 -0.0379  0.4528 -0.4061
  842MPD2    C212372   2.895   0.144  16.906 -0.6153 -0.4041 -0.5595
  842MPD2    C312373   2.959   0.147  17.033  0.1764  0.3986  0.0372
  842MPD2    C412374   3.076   0.212  17.042  0.8829  0.4613  0.3086
  842MPD2    C512375   3.127   0.264  16.928  0.3615  0.1340  0.1776
  842MPD2     H12376   2.801   0.090  16.903 -1.1850  0.5764 -0.2788
  842MPD2    H112377   3.128   0.217  17.137 -1.5302 -2.8797  1.8073
  842MPD2    H212378   3.110   0.319  16.722 -1.9403 -2.2490 -1.4218
  842MPD2    H312379   3.222   0.316  16.933  0.9441 -0.9185 -0.0335
  842MPD2     N12380   2.921   0.078  17.149 -1.3433  0.0960  0.5307
  842MPD2    H512381   2.989   0.068  17.224 -1.1976 -2.2116  0.1137
  842MPD2    N112382   2.867   0.234  16.681  0.1642  0.0729 -0.1995
  842MPD2    H712383   2.924   0.280  16.611  1.1754  1.0381  1.2531
  843MPD2     C12384   0.305   1.037   0.295 -0.3746  0.2465  0.2357
  843MPD2    C112385   0.381   0.936   0.347 -0.8768  0.1704 -0.2064
  843MPD2    C212386   0.476   0.975   0.436  0.5065 -0.0642  0.1537
  843MPD2    C312387   0.510   1.112   0.459 -0.3825 -1.1949 -0.2810
  843MPD2    C412388   0.436   1.208   0.392 -0.2460 -0.4898  0.0195
  843MPD2    C512389   0.331   1.169   0.314  0.6749  0.4010  0.6168
  843MPD2     H12390   0.546   0.902   0.474 -0.4414 -0.7318  0.6117
  843MPD2    H112391   0.449   1.315   0.404 -0.1020 -0.4650 -0.3721
  843MPD2    H212392   0.220   1.015   0.232  1.4625 -2.3497 -1.3453
  843MPD2    H312393   0.277   1.250   0.267  1.1692 -1.7629 -3.6019
  843MPD2     N12394   0.613   1.157   0.543  0.2720  0.2065 -0.1854
  843MPD2    H512395   0.623   1.257   0.556  0.7599  0.2725 -1.0816
  843MPD2    N112396   0.345   0.806   0.325 -0.1999  0.0272  0.1116
  843MPD2    H712397   0.264   0.790   0.266  1.7491  0.2262 -2.6356
  844MPD2     C12398   3.437   4.245  16.581  0.1075  0.2741  0.2425
  844MPD2    C112399   3.552   4.172  16.615 -0.2123  0.2895  0.0456
  844MPD2    C212400   3.645   4.235  16.691 -0.5001  0.5324 -0.6481
  844MPD2    C312401   3.642   4.366  16.725  0.6046 -0.1358 -0.1588
  844MPD2    C412402   3.531   4.436  16.698 -0.7219  0.2271 -0.7080
  844MPD2    C512403   3.434   4.376  16.626  0.1636 -0.0856 -0.1418
  844MPD2     H12404   3.731   4.176  16.720 -0.2430  0.6621 -1.1407
  844MPD2    H112405   3.510   4.539  16.726  0.2523  0.6355 -1.4930
  844MPD2    H212406   3.358   4.213  16.513  0.5628 -3.3326  1.4047
  844MPD2    H312407   3.352   4.441  16.599 -0.7340 -0.0465  2.7071
  844MPD2     N12408   3.759   4.417  16.795 -0.0982  0.4854  0.5305
  844MPD2    H512409   3.839   4.355  16.801 -0.5680 -0.2122 -0.3561
  844MPD2    N112410   3.584   4.043  16.569  0.4111  0.6176 -0.2689
  844MPD2    H712411   3.672   3.997  16.591  0.7353  1.2928 -0.1430
  845MPD2     C12412   4.310   0.631  16.879 -0.1793  0.1283  0.1113
  845MPD2    C112413   4.236   0.611  16.993 -0.6084  0.0782  0.0455
  845MPD2    C212414   4.181   0.483  17.019 -0.1793 -0.0522 -0.1920
  845MPD2    C312415   4.193   0.377  16.930 -0.0938 -0.8636  0.1497
  845MPD2    C412416   4.269   0.399  16.822  0.6649  0.1760  0.0515
  845MPD2    C512417   4.336   0.520  16.802  0.7975 -0.0768  0.7121
  845MPD2     H12418   4.120   0.475  17.108  1.9033 -0.3762  1.2129
  845MPD2    H112419   4.292   0.321  16.750 -0.6444 -0.0131 -0.1635
  845MPD2    H212420   4.362   0.724  16.861 -3.2590  2.0069  0.8852
  845MPD2    H312421   4.407   0.528  16.721  1.3678 -1.3200  1.0876
  845MPD2     N12422   4.124   0.259  16.956 -0.3273 -0.0383  0.7325
  845MPD2    H512423   4.095   0.246  17.053 -1.0533  1.2826  0.6894
  845MPD2    N112424   4.215   0.724  17.076 -0.5253  0.0295  0.0975
  845MPD2    H712425   4.257   0.805  17.032  0.7072 -0.8830 -0.3643
  846MPD2     C12426   1.051   0.602  14.254  0.0468  0.2832 -0.5808
  846MPD2    C112427   0.925   0.659  14.274  0.4016  0.0817 -0.2739
  846MPD2    C212428   0.860   0.662  14.398 -0.5743  0.5583  0.4305
  846MPD2    C312429   0.928   0.620  14.517 -0.9370 -0.0737 -0.2005
  846MPD2    C412430   1.060   0.572  14.497  0.0249  0.7577  0.5110
  846MPD2    C512431   1.113   0.562  14.375  0.0927 -0.0437 -0.2586
  846MPD2     H12432   0.757   0.696  14.405 -1.1496 -1.5236  1.9160
  846MPD2    H112433   1.117   0.521  14.574 -2.1672 -1.3445  0.7869
  846MPD2    H212434   1.110   0.579  14.167 -0.6872 -0.6621 -0.8305
  846MPD2    H312435   1.201   0.500  14.370 -0.1683 -0.3988 -0.4167
  846MPD2     N12436   0.864   0.628  14.646 -1.0005  0.0096 -0.1401
  846MPD2    H512437   0.779   0.682  14.653  0.0973  1.5647  1.2233
  846MPD2    N112438   0.852   0.703  14.160  0.4197 -0.1515 -0.2203
  846MPD2    H712439   0.753   0.723  14.161  0.4500 -0.1935  2.9840
  847MPD2     C12440   1.302   2.053  14.238  0.6785  0.0330  0.3264
  847MPD2    C112441   1.315   2.060  14.373  0.3765 -0.2619 -1.2710
  847MPD2    C212442   1.288   1.945  14.444 -0.2021  0.7792 -0.1814
  847MPD2    C312443   1.245   1.823  14.384 -0.0425 -0.5231 -0.7851
  847MPD2    C412444   1.223   1.826  14.246 -0.4536 -0.0399  0.3137
  847MPD2    C512445   1.248   1.943  14.174  0.8097  0.1612 -0.0624
  847MPD2     H12446   1.304   1.949  14.551  1.1778 -1.4242 -0.2888
  847MPD2    H112447   1.179   1.740  14.198 -0.7986  0.1086  0.3608
  847MPD2    H212448   1.320   2.144  14.183 -0.4637 -0.4200 -0.7957
  847MPD2    H312449   1.221   1.947  14.069 -0.8661 -0.4749  0.3435
  847MPD2     N12450   1.224   1.714  14.470  0.0006 -0.2718  0.8220
  847MPD2    H512451   1.267   1.738  14.559 -0.1605  1.9855  0.3048
  847MPD2    N112452   1.345   2.175  14.445  0.8062 -0.2395  0.2201
  847MPD2    H712453   1.371   2.146  14.539 -1.4679  1.9124  1.5094
  848MPD2     C12454   3.440   0.214  16.413  0.9335  0.2720 -0.5937
  848MPD2    C112455   3.441   0.294  16.527 -0.0183  0.2801  0.1218
  848MPD2    C212456   3.452   0.430  16.520 -1.0724 -0.5914 -0.6564
  848MPD2    C312457   3.458   0.493  16.399 -0.7669 -0.3363  0.0375
  848MPD2    C412458   3.461   0.414  16.284 -0.6144 -0.1975  0.2344
  848MPD2    C512459   3.452   0.275  16.292  0.1331 -0.1618  0.4534
  848MPD2     H12460   3.446   0.479  16.616 -0.2928 -1.2884 -0.2499
  848MPD2    H112461   3.490   0.467  16.194 -1.4962  2.3059  1.4256
  848MPD2    H212462   3.439   0.106  16.425  0.1471  0.5135  1.4528
  848MPD2    H312463   3.458   0.213  16.203 -1.1749 -0.7768  0.8085
  848MPD2     N12464   3.472   0.635  16.375 -0.2686  0.4717 -0.4006
  848MPD2    H512465   3.486   0.667  16.280  3.1050  2.0700  0.6576
  848MPD2    N112466   3.439   0.226  16.655 -0.0015  0.1407 -0.0673
  848MPD2    H712467   3.461   0.277  16.740  0.2301  0.3423 -0.2489
  849MPD2     C12468   2.435   4.068  14.118 -0.6670 -0.1585  0.5130
  849MPD2    C112469   2.549   4.125  14.076 -0.4010  0.7027  0.3419
  849MPD2    C212470   2.662   4.142  14.158  0.4007  0.4847 -0.1488
  849MPD2    C312471   2.653   4.104  14.289 -0.3533 -0.0702 -0.1185
  849MPD2    C412472   2.537   4.044  14.334  0.0452  0.5323 -0.0503
  849MPD2    C512473   2.425   4.034  14.253  0.6646 -0.5827 -0.3551
  849MPD2     H12474   2.760   4.172  14.122  0.7296 -1.8293 -1.1740
  849MPD2    H112475   2.526   3.999  14.432 -2.5131  2.1644  0.4163
  849MPD2    H212476   2.347   4.064  14.054 -0.8455  0.7794  0.6998
  849MPD2    H312477   2.337   3.986  14.295  0.0921  1.2637  0.5553
  849MPD2     N12478   2.771   4.117  14.369 -0.2604  0.5497  0.7025
  849MPD2    H512479   2.855   4.148  14.322 -2.1786 -0.5396 -3.3995
  849MPD2    N112480   2.550   4.169  13.936  0.4035 -0.1865 -0.5930
  849MPD2    H712481   2.465   4.151  13.883 -0.0123 -0.0775  0.0238
  850MPD2     C12482   0.655   3.102  14.395  0.4354  0.2656 -0.1656
  850MPD2    C112483   0.671   3.167  14.516  0.0807 -0.9614  0.6017
  850MPD2    C212484   0.799   3.173  14.568 -0.0502 -0.3961 -0.1802
  850MPD2    C312485   0.900   3.101  14.511 -0.3431 -0.0464  0.0934
  850MPD2    C412486   0.884   3.028  14.395 -0.2529 -0.3619 -0.1978
  850MPD2    C512487   0.755   3.029  14.339 -0.3061  0.0052 -0.4086
  850MPD2     H12488   0.811   3.229  14.660 -1.8888 -0.1302 -0.0935
  850MPD2    H112489   0.958   2.971  14.340 -0.0859 -0.4457  0.1157
  850MPD2    H212490   0.556   3.091  14.352 -0.1828  0.7462  1.1363
  850MPD2    H312491   0.732   2.972  14.249 -2.5980 -0.5855  0.5533
  850MPD2     N12492   1.038   3.118  14.551 -0.2684 -0.0446  0.0565
  850MPD2    H512493   1.104   3.052  14.511  0.7514  1.0857 -0.1315
  850MPD2    N112494   0.555   3.225  14.564 -0.2331 -0.0793 -0.4995
  850MPD2    H712495   0.477   3.230  14.499 -1.5242  0.5381  1.1005
  851MPD2     C12496   1.089   3.016  15.274  0.3854 -0.6672 -0.1783
  851MPD2    C112497   1.002   2.985  15.175 -0.1106 -0.0960 -0.0776
  851MPD2    C212498   1.014   2.861  15.122  0.2337 -0.6622 -0.4500
  851MPD2    C312499   1.091   2.761  15.174  0.8588  0.5457 -0.6149
  851MPD2    C412500   1.161   2.792  15.288 -0.3136  0.4829  0.0476
  851MPD2    C512501   1.167   2.923  15.331  0.0206 -0.0361 -0.2427
  851MPD2     H12502   0.960   2.836  15.031  0.4941  0.4913 -0.9237
  851MPD2    H112503   1.216   2.717  15.342 -0.0151  1.0483  0.5253
  851MPD2    H212504   1.094   3.118  15.311  0.6215  0.1720 -2.5444
  851MPD2    H312505   1.224   2.957  15.417 -1.3572  0.2858  0.5259
  851MPD2     N12506   1.089   2.634  15.101 -0.6576 -0.2971  0.7624
  851MPD2    H512507   1.019   2.629  15.027 -1.3053 -3.2188  1.5794
  851MPD2    N112508   0.926   3.084  15.114  0.0380 -0.3266  0.2887
  851MPD2    H712509   0.967   3.176  15.131  1.7601 -0.7887 -1.2469
  852MPD2     C12510   1.531   4.321  10.264 -0.9440  0.0516  0.4975
  852MPD2    C112511   1.411   4.378  10.285 -0.1963 -0.1087 -0.2714
  852MPD2    C212512   1.366   4.490  10.206 -0.8006 -0.2826  0.1141
  852MPD2    C312513   1.443   4.552  10.110 -0.8448  0.2528  0.2699
  852MPD2    C412514   1.565   4.499  10.100  0.6129 -1.1035  0.1037
  852MPD2    C512515   1.608   4.384  10.168  0.6773 -0.1942 -0.0403
  852MPD2     H12516   1.265   4.526  10.217 -0.9737 -0.7476  0.0390
  852MPD2    H112517   1.644   4.541  10.039 -1.8735  1.0597 -1.6004
  852MPD2    H212518   1.578   4.236  10.312  1.2226  0.3123 -1.1851
  852MPD2    H312519   1.705   4.345  10.140  1.8282  1.3771  1.7197
  852MPD2     N12520   1.390   4.658  10.040  0.1927 -0.6328 -0.6820
  852MPD2    H512521   1.293   4.677  10.064  0.6891  0.0413  0.8201
  852MPD2    N112522   1.330   4.334  10.392 -0.1786 -0.1845  0.4604
  852MPD2    H712523   1.246   4.386  10.417  0.5271  1.3607 -0.4315
  853MPD2     C12524   2.654   0.388  12.286 -0.2408  0.0725  0.1538
  853MPD2    C112525   2.517   0.385  12.316  0.1755  0.5746  0.7140
  853MPD2    C212526   2.426   0.325  12.230  0.0008  0.1101  0.0814
  853MPD2    C312527   2.475   0.245  12.127 -0.1877 -0.1395  0.1532
  853MPD2    C412528   2.610   0.250  12.093  1.0623 -0.5231  0.1644
  853MPD2    C512529   2.700   0.318  12.174 -0.0247 -0.0117  0.3604
  853MPD2     H12530   2.319   0.329  12.252 -0.0069  2.1131 -0.3521
  853MPD2    H112531   2.660   0.199  12.011 -1.0268 -0.7767 -0.9640
  853MPD2    H212532   2.725   0.442  12.347  1.2613 -0.4247 -1.1326
  853MPD2    H312533   2.809   0.322  12.172 -0.0203 -0.8345 -1.2067
  853MPD2     N12534   2.387   0.183  12.038  0.3323  0.1768  0.0145
  853MPD2    H512535   2.426   0.121  11.967 -1.7289 -0.7977 -0.2572
  853MPD2    N112536   2.475   0.432  12.437  0.5864 -0.2853 -0.0379
  853MPD2    H712537   2.547   0.480  12.490  1.2710 -1.5389  0.1748
  854MPD2     C12538   3.849   0.426  13.048 -0.6269 -0.7980  0.1057
  854MPD2    C112539   3.904   0.355  12.945 -0.1787  0.0216 -0.0625
  854MPD2    C212540   4.000   0.260  12.972  1.1954 -0.2760  0.7325
  854MPD2    C312541   4.032   0.235  13.108 -0.2101 -0.0430 -0.8048
  854MPD2    C412542   3.966   0.296  13.209  0.3545 -0.1258  0.5342
  854MPD2    C512543   3.866   0.383  13.178 -0.2946  0.0798  0.6029
  854MPD2     H12544   4.049   0.202  12.894 -0.5699 -2.1726  1.0314
  854MPD2    H112545   3.984   0.274  13.313  1.7650  0.5452  0.4262
  854MPD2    H212546   3.778   0.507  13.035 -0.8671 -0.9010  0.7686
  854MPD2    H312547   3.807   0.428  13.256 -0.5238 -0.0934  0.5314
  854MPD2     N12548   4.134   0.144  13.133 -0.0540  0.2144 -0.2890
  854MPD2    H512549   4.179   0.104  13.051  0.8776 -0.4222  0.5255
  854MPD2    N112550   3.874   0.409  12.824 -0.3579 -0.1704 -0.0451
  854MPD2    H712551   3.807   0.485  12.820 -0.5136 -0.2295  1.2617
  855MPD2     C12552   4.706   4.662  13.921 -0.3508  0.3502 -0.4947
  855MPD2    C112553   0.032   4.572  13.826  0.5012 -0.1926 -0.8421
  855MPD2    C212554   4.692   4.579  13.701  0.6583 -0.0737 -0.5899
  855MPD2    C312555   4.578   4.655  13.678  0.2667 -0.2308  0.1152
  855MPD2    C412556   4.533   0.018  13.773 -0.7498  0.6417 -0.0414
  855MPD2    C512557   4.594   0.017  13.897 -0.0708 -0.5566  0.7406
  855MPD2     H12558   0.012   4.510  13.627 -1.9714 -0.3608 -1.7160
  855MPD2    H112559   4.450   0.084  13.750 -1.2828 -0.0277 -0.0105
  855MPD2    H212560   0.042   4.666  14.014  1.7546  1.3253 -1.7914
  855MPD2    H312561   4.548   0.080  13.972  0.5144  0.3051  0.3824
  855MPD2     N12562   4.501   4.647  13.559  0.1747  0.1306  0.5847
  855MPD2    H512563   4.424   4.713  13.558 -1.8008 -2.1729  1.8158
  855MPD2    N112564   0.137   4.479  13.841  0.0869 -0.0113  0.2377
  855MPD2    H712565   0.178   4.440  13.757 -0.9824  1.3424 -0.8944
  856MPD2     C12566   1.640   0.856  13.764  0.0577  0.4655 -0.0225
  856MPD2    C112567   1.739   0.949  13.769  0.3177  0.0985 -0.5234
  856MPD2    C212568   1.707   1.073  13.717  0.3345 -0.5708  0.4826
  856MPD2    C312569   1.586   1.101  13.659  0.1220 -0.0813  0.1817
  856MPD2    C412570   1.491   1.003  13.651 -0.0609 -0.2854 -0.6036
  856MPD2    C512571   1.515   0.883  13.709 -0.4507 -0.6743  0.6511
  856MPD2     H12572   1.779   1.153  13.728  0.0144  0.0173 -1.5949
  856MPD2    H112573   1.392   1.022  13.611  0.9530  0.9291 -2.5574
  856MPD2    H212574   1.648   0.763  13.819 -0.4776  0.6382  0.3495
  856MPD2    H312575   1.434   0.812  13.721 -0.8865  0.3180  3.4412
  856MPD2     N12576   1.544   1.217  13.603 -0.0359  0.1369  0.3362
  856MPD2    H512577   1.453   1.212  13.560  0.0065  0.0743  0.2540
  856MPD2    N112578   1.864   0.940  13.840 -0.2333  0.0832  0.0656
  856MPD2    H712579   1.925   1.021  13.844 -0.6762  0.3645  1.4428
  857MPD2     C12580   3.234   2.989  13.112  0.3635 -0.3861  0.6750
  857MPD2    C112581   3.361   3.006  13.046 -0.1418 -0.2180 -0.1561
  857MPD2    C212582   3.428   3.126  13.051  0.0373 -0.3867  0.3196
  857MPD2    C312583   3.368   3.234  13.113  0.3209 -0.0975  0.4294
  857MPD2    C412584   3.251   3.210  13.188  1.1415 -0.4096 -0.4970
  857MPD2    C512585   3.187   3.089  13.183  0.1728  1.0978  0.3595
  857MPD2     H12586   3.516   3.151  12.993 -0.7526 -3.6701 -2.2977
  857MPD2    H112587   3.198   3.289  13.241 -0.1293 -1.7154  0.1939
  857MPD2    H212588   3.175   2.898  13.107 -2.3176  1.4249 -0.7717
  857MPD2    H312589   3.086   3.074  13.217 -0.5261  2.0658 -1.2475
  857MPD2     N12590   3.437   3.356  13.116 -0.0876  0.2370  0.2507
  857MPD2    H512591   3.516   3.367  13.053  0.6884 -1.0815  0.9863
  857MPD2    N112592   3.398   2.898  12.969 -0.6592  0.4837 -0.7192
  857MPD2    H712593   3.333   2.821  12.961  0.7877 -0.8807  0.5253
  858MPD2     C12594   3.712   2.123  16.994  0.6136 -0.0580  0.3822
  858MPD2    C112595   3.837   2.170  16.967  0.1701 -0.9016 -0.3673
  858MPD2    C212596   3.906   2.239  17.057 -0.1136  0.1301  0.3590
  858MPD2    C312597   3.858   2.256  17.184 -0.1203 -0.0543  0.1345
  858MPD2    C412598   3.740   2.203  17.214  0.0527  0.6987  0.4979
  858MPD2    C512599   3.666   2.129  17.122 -0.1296  0.1107 -0.1201
  858MPD2     H12600   4.009   2.268  17.040 -0.3693  0.1433 -1.1844
  858MPD2    H112601   3.698   2.208  17.314  1.8904 -0.8227  1.3341
  858MPD2    H212602   3.659   2.065  16.920 -0.9324 -0.4063  1.7775
  858MPD2    H312603   3.567   2.095  17.149 -0.0839  0.9568  1.1304
  858MPD2     N12604   3.922   2.324  17.290  0.1605  0.6074  0.2672
  858MPD2    H512605   3.874   2.339  17.379 -1.0725 -0.2482 -0.2561
  858MPD2    N112606   3.882   2.160  16.829  0.2703  0.0204 -0.3513
  858MPD2    H712607   3.822   2.107  16.766 -0.5203 -0.5743  0.9007
  859MPD2     C12608   2.430   4.613  15.431  0.6931  0.5883  0.7096
  859MPD2    C112609   2.569   4.622  15.439 -0.6430  0.2694 -0.1834
  859MPD2    C212610   2.634   4.505  15.462 -0.4347 -0.6193  0.6713
  859MPD2    C312611   2.569   4.385  15.465 -0.0088 -0.5524  0.2937
  859MPD2    C412612   2.431   4.372  15.465 -0.1376 -0.4051 -0.2161
  859MPD2    C512613   2.364   4.493  15.444  0.1126  0.2073 -0.5867
  859MPD2     H12614   2.742   4.507  15.472 -0.5454  1.6353  1.3456
  859MPD2    H112615   2.389   4.272  15.469 -0.8836 -0.0274  1.6803
  859MPD2    H212616   2.371   4.703  15.430 -1.8726 -1.1004  0.8962
  859MPD2    H312617   2.255   4.494  15.450  0.1461 -1.6793  0.3085
  859MPD2     N12618   2.643   4.267  15.466  0.0030 -0.0364 -0.6057
  859MPD2    H512619   2.595   4.184  15.499  0.6162 -0.5584 -1.0153
  859MPD2    N112620   2.632   0.024  15.425  0.6721 -0.0566  0.3773
  859MPD2    H712621   2.576   0.106  15.406 -0.9500 -1.3730 -0.5268
  860MPD2     C12622   0.085   0.059  11.564 -0.3831  0.1797 -0.0037
  860MPD2    C112623   0.068   4.696  11.668  0.2235 -0.6292  0.1042
  860MPD2    C212624   4.699   0.020  11.766 -0.1825 -0.6442  0.2445
  860MPD2    C312625   4.624   0.142  11.757 -0.0278  0.7132  0.2774
  860MPD2    C412626   4.642   0.217  11.641  0.0020  0.1899 -0.3635
  860MPD2    C512627   0.012   0.172  11.550 -0.3390  0.1781 -0.4341
  860MPD2     H12628   4.675   4.682  11.855 -1.4073  0.0813  0.3894
  860MPD2    H112629   4.595   0.313  11.622 -0.9008 -0.3875 -1.0868
  860MPD2    H212630   0.163   0.038  11.491 -0.6690  0.6746 -0.4575
  860MPD2    H312631   0.030   0.235  11.463 -0.7660  1.5535  0.4642
  860MPD2     N12632   4.537   0.166  11.864  0.5688 -0.1177 -0.2551
  860MPD2    H512633   4.525   0.085  11.924  1.5487  0.5218  0.8107
  860MPD2    N112634   0.133   4.576  11.694  0.2199 -0.5519 -0.2812
  860MPD2    H712635   0.126   4.536  11.786 -1.0448  0.5284  0.0865
  861MPD2     C12636   3.796   2.463  11.093 -0.2002 -0.6017 -0.2472
  861MPD2    C112637   3.785   2.596  11.136  0.1429 -0.5823  0.6901
  861MPD2    C212638   3.719   2.685  11.048 -0.0697  0.1665  0.5095
  861MPD2    C312639   3.649   2.634  10.934 -0.0311 -0.0339  0.0819
  861MPD2    C412640   3.656   2.498  10.909 -0.6122 -0.5067  0.2642
  861MPD2    C512641   3.733   2.411  10.984  0.5124  0.3211 -0.0937
  861MPD2     H12642   3.708   2.790  11.072 -0.5724  0.0666  0.7306
  861MPD2    H112643   3.595   2.461  10.828 -0.9523  1.0736 -0.2064
  861MPD2    H212644   3.847   2.386  11.150 -0.5359 -0.5112  0.1696
  861MPD2    H312645   3.748   2.305  10.966 -0.3595  0.6245 -2.5628
  861MPD2     N12646   3.575   2.718  10.849  0.3060 -0.6549 -0.2055
  861MPD2    H512647   3.532   2.668  10.772  1.4088  0.7503 -1.7120
  861MPD2    N112648   3.860   2.647  11.249 -0.7635 -0.7116 -0.6014
  861MPD2    H712649   3.857   2.747  11.269 -2.7092 -1.1222  1.1924
  862MPD2     C12650   3.565   2.743  10.193 -0.7258 -0.1552 -0.6027
  862MPD2    C112651   3.629   2.749  10.317  0.9841  0.5423 -0.7023
  862MPD2    C212652   3.728   2.657  10.344 -0.6070 -1.1132  1.4365
  862MPD2    C312653   3.752   2.552  10.256  0.2614  0.4523  0.0530
  862MPD2    C412654   3.685   2.547  10.136  0.1631  0.1724  0.5028
  862MPD2    C512655   3.593   2.641  10.105 -0.1087 -0.4011 -0.1361
  862MPD2     H12656   3.770   2.648  10.443  1.6823  0.2189  0.5654
  862MPD2    H112657   3.707   2.465  10.068 -0.3089 -0.4098  1.0458
  862MPD2    H212658   3.488   2.814  10.167  1.8327  2.6248 -0.7012
  862MPD2    H312659   3.536   2.638  10.013 -1.3913  1.5225  0.6033
  862MPD2     N12660   3.824   2.441  10.292 -0.3004  0.6503 -0.0275
  862MPD2    H512661   3.821   2.366  10.225  0.9789  2.5712 -2.2028
  862MPD2    N112662   3.587   2.840  10.416  0.7130 -0.1731  0.1176
  862MPD2    H712663   3.619   2.819  10.510  0.8641  3.1703  0.7816
  863MPD2     C12664   1.975   1.245  17.556  0.0172  0.2494 -0.0160
  863MPD2    C112665   2.032   1.171  17.448 -0.1421  0.2560 -0.1040
  863MPD2    C212666   2.152   1.102  17.482  0.0505 -1.0905  0.3512
  863MPD2    C312667   2.205   1.097  17.604  0.7610  0.2725 -0.6060
  863MPD2    C412668   2.138   1.152   0.021 -0.2964  0.8628 -0.0064
  863MPD2    C512669   2.033   1.237   0.000 -0.7007  0.1415 -0.0757
  863MPD2     H12670   2.206   1.047  17.405 -1.9918 -2.0363 -0.4264
  863MPD2    H112671   2.166   1.134   0.125 -1.3933 -0.4358  0.0604
  863MPD2    H212672   1.883   1.301  17.546 -0.2463 -0.0474  0.7075
  863MPD2    H312673   1.981   1.280   0.086 -3.2270 -2.4628 -0.3299
  863MPD2     N12674   2.330   1.031  17.630 -0.6870  0.4006 -0.1881
  863MPD2    H512675   2.349   1.029   0.049 -1.2938 -0.9102 -0.0896
  863MPD2    N112676   1.985   1.182  17.315 -0.1370  0.2677 -0.3711
  863MPD2    H712677   1.909   1.248  17.298 -1.4673 -1.4544 -1.1515
  864MPD2     C12678   2.571   3.628  16.722  0.0380 -0.0141  0.2025
  864MPD2    C112679   2.660   3.527  16.751  0.7655  0.3516 -0.6593
  864MPD2    C212680   2.795   3.556  16.729  0.4569 -0.6541  0.3277
  864MPD2    C312681   2.834   3.672  16.655  0.0742  0.1344  0.2868
  864MPD2    C412682   2.736   3.765  16.625 -0.3315 -0.0612  0.3011
  864MPD2    C512683   2.611   3.752  16.672 -0.1682  0.5582 -0.1338
  864MPD2     H12684   2.863   3.475  16.753  1.1094  0.1362  1.1803
  864MPD2    H112685   2.760   3.852  16.566 -1.1888 -0.4479 -0.6106
  864MPD2    H212686   2.465   3.618  16.743 -0.2865 -0.3222 -1.5604
  864MPD2    H312687   2.541   3.831  16.646  0.2703  1.4779  1.5206
  864MPD2     N12688   2.964   3.689  16.592 -0.3581 -0.0197  0.9926
  864MPD2    H512689   2.981   3.774  16.539 -0.0388 -0.5908  0.1840
  864MPD2    N112690   2.610   3.405  16.794  0.2232 -0.0765 -0.2587
  864MPD2    H712691   2.512   3.403  16.818 -0.1157  0.2807 -1.5788
  865MPD2     C12692   2.872   3.281  15.808 -0.3954 -0.5772 -0.0228
  865MPD2    C112693   2.890   3.197  15.919  0.1797  0.8343  0.1516
  865MPD2    C212694   2.929   3.252  16.042  0.1263 -0.1833  0.2169
  865MPD2    C312695   2.962   3.385  16.048  0.3379 -0.1285 -0.3967
  865MPD2    C412696   2.937   3.470  15.939 -0.1754 -0.4627  0.8982
  865MPD2    C512697   2.893   3.414  15.824  0.3850 -0.3783 -0.4032
  865MPD2     H12698   2.934   3.187  16.128  4.2862  0.3464  0.3851
  865MPD2    H112699   2.961   3.575  15.934 -0.5205 -0.3352  1.9122
  865MPD2    H212700   2.854   3.239  15.710 -1.6148 -2.7863  1.1627
  865MPD2    H312701   2.882   3.486  15.744 -0.5550 -1.1460 -0.9606
  865MPD2     N12702   3.033   3.438  16.151  0.2369  0.5990 -0.1012
  865MPD2    H512703   3.041   3.539  16.156 -1.3101  0.8712 -2.8765
  865MPD2    N112704   2.861   3.063  15.887 -0.0653 -0.2805  0.5363
  865MPD2    H712705   2.819   3.036  15.798  0.4452 -2.7687  1.0268
  866MPD2     C12706   4.630   3.500  11.111 -0.2558  0.2144  0.4470
  866MPD2    C112707   4.571   3.486  10.989  0.4179 -0.0864  0.8027
  866MPD2    C212708   4.437   3.442  10.983  0.4982  0.3182 -0.4637
  866MPD2    C312709   4.361   3.429  11.101 -0.9346  0.0823 -0.3071
  866MPD2    C412710   4.427   3.463  11.222  0.3147 -0.0209 -0.0455
  866MPD2    C512711   4.555   3.494  11.223  0.2026  0.3851  0.0364
  866MPD2     H12712   4.398   3.419  10.884 -0.5777  0.6009 -0.0970
  866MPD2    H112713   4.368   3.464  11.314  0.1549  1.2504 -0.1597
  866MPD2    H212714   0.015   3.529  11.112 -0.2944  0.4566 -1.5027
  866MPD2    H312715   4.601   3.526  11.316 -0.1936  1.4865 -0.1383
  866MPD2     N12716   4.232   3.386  11.111 -0.0462 -0.1502  0.2814
  866MPD2    H512717   4.194   3.370  11.203  0.3622  0.4371  0.5542
  866MPD2    N112718   4.654   3.500  10.871 -0.0043 -0.0043 -0.1595
  866MPD2    H712719   0.026   3.543  10.878 -0.8630  1.9179 -0.9726
  867MPD2     C12720   1.634   2.816  16.706  0.3821 -0.4364  0.0340
  867MPD2    C112721   1.685   2.823  16.832 -0.1580 -0.0437  0.4213
  867MPD2    C212722   1.656   2.938  16.905 -0.5404  0.1627  0.0585
  867MPD2    C312723   1.585   3.041  16.847 -0.7695 -0.1100  0.2389
  867MPD2    C412724   1.538   3.040  16.718  0.1966  0.8587  0.6895
  867MPD2    C512725   1.563   2.921  16.649  0.2082  0.1249 -1.1875
  867MPD2     H12726   1.679   2.943  17.010  1.2675 -0.9210 -0.2978
  867MPD2    H112727   1.491   3.126  16.670  0.2851 -0.6205 -2.0187
  867MPD2    H212728   1.658   2.733  16.642  0.2923  0.0643 -0.6507
  867MPD2    H312729   1.534   2.909  16.545 -0.9903  0.9994 -0.9625
  867MPD2     N12730   1.570   3.166  16.914  0.1121 -0.0228  0.0306
  867MPD2    H512731   1.549   3.248  16.858  0.2477  2.1343  3.1606
  867MPD2    N112732   1.759   2.703  16.877  0.1558 -0.4510 -0.3367
  867MPD2    H712733   1.780   2.634  16.806  3.5524 -1.2684  1.4527
  868MPD2     C12734   3.530   1.648  13.158 -0.1625  0.6624  0.4564
  868MPD2    C112735   3.549   1.605  13.293  0.4343 -0.1404  0.0517
  868MPD2    C212736   3.457   1.637  13.391 -0.5956  0.3481  0.8019
  868MPD2    C312737   3.349   1.711  13.356  0.7130 -0.7434 -0.1886
  868MPD2    C412738   3.322   1.742  13.224 -0.3925  0.5737  0.1200
  868MPD2    C512739   3.414   1.714  13.123  0.6474 -0.2374 -0.3865
  868MPD2     H12740   3.468   1.596  13.490 -2.1455  0.0947  0.8810
  868MPD2    H112741   3.234   1.801  13.202 -0.6970  0.6496  1.5571
  868MPD2    H212742   3.601   1.633  13.078 -2.9071  1.8202 -2.1986
  868MPD2    H312743   3.391   1.744  13.021  2.5862 -2.3706 -1.4365
  868MPD2     N12744   3.268   1.752  13.465  0.0126 -0.1050 -0.4237
  868MPD2    H512745   3.307   1.719  13.553 -1.8957  1.7509  1.1233
  868MPD2    N112746   3.670   1.544  13.320  0.1196 -0.3628 -0.0327
  868MPD2    H712747   3.730   1.519  13.242 -0.7107  1.0130 -1.0990
  869MPD2     C12748   0.234   4.315   1.817  0.3260 -0.6555 -0.7564
  869MPD2    C112749   0.250   4.292   1.675 -0.7579  0.1510 -0.0080
  869MPD2    C212750   0.178   4.371   1.589  0.0711 -0.1621 -0.2993
  869MPD2    C312751   0.072   4.444   1.636  0.6452 -0.1812 -0.4042
  869MPD2    C412752   0.052   4.460   1.769 -0.0049 -0.1252  0.0169
  869MPD2    C512753   0.134   4.393   1.864 -0.6914 -0.0897 -0.4399
  869MPD2     H12754   0.207   4.368   1.485  1.8750 -0.7052  0.2198
  869MPD2    H112755   4.694   4.522   1.814 -0.5479 -0.1838 -0.8477
  869MPD2    H212756   0.313   4.286   1.885 -0.4049 -1.8687 -0.4295
  869MPD2    H312757   0.129   4.407   1.972  1.6927 -0.4457 -0.2982
  869MPD2     N12758   4.714   4.518   1.545 -1.0539  0.7168  0.7063
  869MPD2    H512759   4.652   4.583   1.592  0.2471  0.7208  2.4275
  869MPD2    N112760   0.355   4.198   1.627  0.1448 -0.0106 -0.3344
  869MPD2    H712761   0.411   4.152   1.699 -3.0195 -0.6800  1.6837
  870MPD2     C12762   4.292   4.397   0.713  0.0286  0.7467 -0.2866
  870MPD2    C112763   4.346   4.298   0.626  0.9893  0.0740 -0.2427
  870MPD2    C212764   4.409   4.347   0.509 -0.6270  0.1809 -0.5322
  870MPD2    C312765   4.425   4.478   0.475  0.1075 -0.0373 -0.5578
  870MPD2    C412766   4.379   4.574   0.561 -0.2654  0.8604 -0.5382
  870MPD2    C512767   4.310   4.535   0.679 -1.0985 -0.0029  0.2988
  870MPD2     H12768   4.444   4.281   0.431  0.1144  1.1982 -1.0575
  870MPD2    H112769   4.397   4.681   0.555 -1.9699  1.1270 -1.0505
  870MPD2    H212770   4.227   4.369   0.796 -0.4634  0.0174 -0.9238
  870MPD2    H312771   4.279   4.617   0.742 -0.5782  0.5324 -0.1426
  870MPD2     N12772   4.501   4.508   0.357  0.0816  0.0277  0.4100
  870MPD2    H512773   4.539   4.428   0.307  1.2144 -0.2291  1.6660
  870MPD2    N112774   4.355   4.164   0.669 -0.5780 -0.0392  0.0225
  870MPD2    H712775   4.329   4.148   0.766 -0.9947 -1.0129 -0.2450
  871MPD2     C12776   0.668   2.915  16.139 -0.4970  0.1991 -0.0764
  871MPD2    C112777   0.639   2.854  16.261 -0.5409  0.6478  0.7560
  871MPD2    C212778   0.674   2.729  16.282 -0.3513 -0.0408  0.0899
  871MPD2    C312779   0.731   2.648  16.186  0.2632 -0.6278 -0.2484
  871MPD2    C412780   0.752   2.706  16.061 -0.0713 -0.2993 -0.5766
  871MPD2    C512781   0.731   2.840  16.046  0.0126 -0.6148 -0.7271
  871MPD2     H12782   0.657   2.683  16.378  2.1058  1.7367  1.3683
  871MPD2    H112783   0.794   2.644  15.982  1.7727  1.1540 -0.7485
  871MPD2    H212784   0.648   3.020  16.119  0.2120  0.8481  2.6689
  871MPD2    H312785   0.754   2.876  15.946 -0.1286 -0.6453 -0.7691
  871MPD2     N12786   0.756   2.507  16.216 -0.3586 -0.2573 -0.5418
  871MPD2    H512787   0.728   2.461  16.302 -1.1723  0.2500 -0.5343
  871MPD2    N112788   0.585   2.938  16.355  0.4258 -0.1401  0.5393
  871MPD2    H712789   0.545   3.027  16.327 -0.3139 -0.8139 -0.5653
  872MPD2     C12790   1.535   0.471  13.313 -0.7335  0.1958 -0.3017
  872MPD2    C112791   1.613   0.507  13.419  0.3629  0.2213 -0.9725
  872MPD2    C212792   1.579   0.464  13.550  0.3209 -0.2050 -0.1206
  872MPD2    C312793   1.462   0.400  13.578  0.3314  0.0854 -1.1562
  872MPD2    C412794   1.374   0.381  13.472 -1.1832 -0.0093  0.6944
  872MPD2    C512795   1.412   0.409  13.340  1.3451 -0.6511 -0.3171
  872MPD2     H12796   1.647   0.485  13.631  0.5084  0.8686 -0.5504
  872MPD2    H112797   1.277   0.337  13.492 -1.1638 -1.3748 -2.2309
  872MPD2    H212798   1.562   0.491  13.209  0.6920 -1.0653 -0.1640
  872MPD2    H312799   1.334   0.410  13.265  0.3596 -2.4242  0.6921
  872MPD2     N12800   1.404   0.383  13.712  0.1479 -0.1230 -0.7615
  872MPD2    H512801   1.311   0.344  13.702 -0.1095  0.1923  0.3880
  872MPD2    N112802   1.732   0.576  13.388  0.6434 -0.3709 -0.2449
  872MPD2    H712803   1.751   0.582  13.288  2.4580  0.9513  0.1819
  873MPD2     C12804   3.104   0.248   1.169 -0.3452 -0.0214  0.3880
  873MPD2    C112805   2.968   0.258   1.159 -0.1508 -0.7242  0.0688
  873MPD2    C212806   2.892   0.157   1.101  0.1412 -0.8672  0.2943
  873MPD2    C312807   2.953   0.043   1.054 -0.5969 -0.7118 -0.3386
  873MPD2    C412808   3.091   0.046   1.059 -0.7505  0.1471 -0.7678
  873MPD2    C512809   3.166   0.139   1.121 -0.2126  0.2137 -0.0685
  873MPD2     H12810   2.786   0.167   1.080 -0.0811 -0.6610  1.5296
  873MPD2    H112811   3.148   4.676   1.036 -1.2826  0.0169 -1.5717
  873MPD2    H212812   3.158   0.324   1.223 -1.2618 -0.3726  1.7994
  873MPD2    H312813   3.274   0.130   1.117 -0.0323  2.5616 -0.7388
  873MPD2     N12814   2.891   4.652   0.997  0.1252 -0.1441 -0.0539
  873MPD2    H512815   2.946   4.580   0.952 -0.3025 -1.1708  1.0624
  873MPD2    N112816   2.912   0.378   1.211 -0.0408 -0.4084  0.4081
  873MPD2    H712817   2.979   0.448   1.240 -1.8900  2.4074 -2.0460
  874MPD2     C12818   2.733   0.861  16.167  0.3076 -0.5234 -0.3923
  874MPD2    C112819   2.808   0.751  16.218  0.1631 -0.0294  0.3493
  874MPD2    C212820   2.948   0.768  16.222  0.0827  0.3160  0.7566
  874MPD2    C312821   3.008   0.887  16.187 -0.4621 -0.1035  0.0294
  874MPD2    C412822   2.931   0.991  16.142 -0.3637  1.1905 -0.1440
  874MPD2    C512823   2.796   0.973  16.128  0.4675 -0.0905  0.0710
  874MPD2     H12824   3.008   0.686  16.261  0.8366  1.7773  2.7146
  874MPD2    H112825   2.972   1.089  16.125  0.3401  1.1530  1.3789
  874MPD2    H212826   2.625   0.859  16.171  0.3430 -1.8685 -0.1093
  874MPD2    H312827   2.736   1.053  16.086  0.3024 -1.3219 -2.0217
  874MPD2     N12828   3.145   0.901  16.222 -0.2428  0.4707 -0.0332
  874MPD2    H512829   3.182   0.825  16.278 -0.4420 -0.0761 -0.6479
  874MPD2    N112830   2.742   0.632  16.259  0.2698  0.4166 -0.3025
  874MPD2    H712831   2.641   0.637  16.268  0.4644 -0.2779  2.5589
  875MPD2     C12832   4.530   3.631  14.405  0.3611  0.5968  0.7262
  875MPD2    C112833   4.398   3.675  14.431  0.4232  0.6693  0.2980
  875MPD2    C212834   4.372   3.734  14.556  0.6190 -1.4190  1.3574
  875MPD2    C312835   4.466   3.748  14.657 -0.2617  0.1837  0.3173
  875MPD2    C412836   4.597   3.691  14.630  0.6406 -0.7483  0.2287
  875MPD2    C512837   4.622   3.638  14.500  0.0873 -0.4649  0.1734
  875MPD2     H12838   4.270   3.751  14.586  1.2407  0.5078  2.3376
  875MPD2    H112839   4.684   3.722  14.688 -1.2789  0.1028  2.6367
  875MPD2    H212840   4.559   3.613  14.302 -0.0727 -1.1842  0.9217
  875MPD2    H312841   0.002   3.625  14.458 -0.0708  0.2238 -0.4219
  875MPD2     N12842   4.443   3.804  14.786  0.0561 -0.2040  0.3482
  875MPD2    H512843   4.519   3.819  14.852  0.0325 -0.2300  0.3815
  875MPD2    N112844   4.293   3.661  14.336  0.2320 -0.3417  0.2950
  875MPD2    H712845   4.201   3.684  14.373  0.2359 -1.4004  0.9843
  876MPD2     C12846   2.462   0.509  15.938  0.0037 -0.2726  0.4282
  876MPD2    C112847   2.602   0.492  15.947  0.2384  0.5302 -0.3971
  876MPD2    C212848   2.648   0.372  15.992  0.3198 -0.1984 -0.3081
  876MPD2    C312849   2.568   0.274  16.038  0.1858  0.1187  0.0202
  876MPD2    C412850   2.430   0.287  16.035 -0.9951 -0.3039  0.2717
  876MPD2    C512851   2.380   0.410  15.989  0.0340  0.4015 -0.2867
  876MPD2     H12852   2.752   0.342  15.982  0.3457 -1.2191  3.0478
  876MPD2    H112853   2.354   0.211  16.051  0.2580 -1.2840  1.4985
  876MPD2    H212854   2.415   0.602  15.908  0.4273 -0.3501 -0.4633
  876MPD2    H312855   2.275   0.435  15.990 -0.4875 -1.8139  0.8297
  876MPD2     N12856   2.624   0.158  16.097 -0.4234 -0.3513 -0.3070
  876MPD2    H512857   2.725   0.163  16.092 -0.4643  2.2079  1.5223
  876MPD2    N112858   2.690   0.590  15.893 -0.2213  0.1377  0.6183
  876MPD2    H712859   2.645   0.670  15.849 -0.2387  1.6269  3.3363
  877MPD2     C12860   2.807   0.845  15.199 -0.4130 -0.4086  0.9135
  877MPD2    C112861   2.920   0.802  15.255  0.1039 -0.1760 -0.4540
  877MPD2    C212862   3.014   0.763  15.169  0.2900  0.0445 -0.3712
  877MPD2    C312863   2.996   0.778  15.033 -0.1071  0.0435  0.1578
  877MPD2    C412864   2.880   0.834  14.981  0.1144  0.2103  0.4298
  877MPD2    C512865   2.782   0.860  15.066  0.3121 -0.3429  0.6215
  877MPD2     H12866   3.102   0.714  15.209  0.1984 -0.3762 -0.6789
  877MPD2    H112867   2.862   0.858  14.876  0.1882  0.8600  0.5655
  877MPD2    H212868   2.718   0.855  15.260 -0.5629  0.2848  0.5873
  877MPD2    H312869   2.692   0.899  15.019  0.5048  0.5325  0.9803
  877MPD2     N12870   3.084   0.727  14.945  0.5376 -0.5706 -0.4897
  877MPD2    H512871   3.065   0.765  14.853 -0.6261 -0.6685 -0.2921
  877MPD2    N112872   2.944   0.795  15.394  0.2593 -0.3268 -0.0314
  877MPD2    H712873   3.029   0.750  15.426 -0.7756 -2.1575  0.1166
  878MPD2     C12874   2.483   4.184  12.943 -0.3988  0.0846  0.6319
  878MPD2    C112875   2.571   4.290  12.961 -0.2501  0.6978  0.3232
  878MPD2    C212876   2.613   4.320  13.084 -0.6742  0.2185 -1.0860
  878MPD2    C312877   2.581   4.242  13.198  0.7865  0.0557 -0.3203
  878MPD2    C412878   2.497   4.136  13.180 -0.2168  0.1325  0.1230
  878MPD2    C512879   2.450   4.106  13.053  0.3782 -0.1086 -0.2094
  878MPD2     H12880   2.674   4.408  13.100  2.2473 -1.8051 -1.0901
  878MPD2    H112881   2.469   4.076  13.266 -1.6350  0.9223  0.2115
  878MPD2    H212882   2.464   4.141  12.845  0.9374 -1.7364  1.1854
  878MPD2    H312883   2.391   4.016  13.040  0.3986 -0.4247  1.9597
  878MPD2     N12884   2.640   4.273  13.323 -0.0697  0.1325 -0.2995
  878MPD2    H512885   2.709   4.347  13.334 -2.2421  1.9954  0.7436
  878MPD2    N112886   2.603   4.365  12.845 -0.2614  0.6488 -0.0671
  878MPD2    H712887   2.544   4.342  12.766 -0.7698 -1.4335  0.9178
  879MPD2     C12888   3.084   0.912   0.281 -0.0292  0.1490  0.6216
  879MPD2    C112889   3.134   1.020   0.219 -0.1335  0.8252 -0.2126
  879MPD2    C212890   3.172   1.011   0.085 -0.4057  0.1410  0.1055
  879MPD2    C312891   3.157   0.890   0.017 -0.5654 -0.4449  0.0825
  879MPD2    C412892   3.107   0.781   0.087  0.0238  0.1794 -0.4251
  879MPD2    C512893   3.072   0.787   0.222 -0.1637 -0.1559  0.7335
  879MPD2     H12894   3.205   1.105   0.042  0.5777  1.1772  3.1221
  879MPD2    H112895   3.095   0.678   0.054  0.5205 -0.3033  0.9027
  879MPD2    H212896   3.055   0.922   0.385 -3.3850  2.0448 -0.5090
  879MPD2    H312897   3.034   0.701   0.277  0.9770  0.4586  2.4676
  879MPD2     N12898   3.195   0.874  17.561  0.0015 -0.5326 -0.3977
  879MPD2    H512899   3.181   0.778  17.533 -0.9908  0.3134 -2.7688
  879MPD2    N112900   3.137   1.135   0.304  0.1617  0.1605 -0.1105
  879MPD2    H712901   3.104   1.123   0.399  1.3956  1.4847  0.4767
  880MPD2     C12902   0.558   3.097   0.132  0.2391 -0.4814 -0.2905
  880MPD2    C112903   0.536   3.198   0.223  0.0163  0.1350  0.3657
  880MPD2    C212904   0.583   3.183   0.358 -0.1961  0.0714  0.1007
  880MPD2    C312905   0.648   3.064   0.405  0.1544  0.2815 -0.3408
  880MPD2    C412906   0.660   2.964   0.311 -0.9248 -0.1087 -0.4599
  880MPD2    C512907   0.610   2.976   0.175  0.4206 -0.5984 -1.0101
  880MPD2     H12908   0.571   3.261   0.433 -0.1254  0.3961 -0.2281
  880MPD2    H112909   0.711   2.876   0.349 -0.8933  0.2215  0.2546
  880MPD2    H212910   0.512   3.102   0.034 -2.5771 -0.7827  1.0178
  880MPD2    H312911   0.623   2.893   0.107 -0.3177 -2.0775  0.6481
  880MPD2     N12912   0.679   3.056   0.543  0.0641  0.4035 -0.4455
  880MPD2    H512913   0.684   3.147   0.588 -0.6528 -0.1159  0.6876
  880MPD2    N112914   0.465   3.313   0.185  0.3453 -0.2893 -0.2554
  880MPD2    H712915   0.424   3.308   0.092 -2.1142 -2.0456  0.9069
  881MPD2     C12916   4.530   3.136  17.418 -0.5645 -0.0599  0.6058
  881MPD2    C112917   4.525   3.270  17.395  0.0689 -0.6805 -0.6977
  881MPD2    C212918   4.598   3.347  17.490  0.1668  0.1033  0.4184
  881MPD2    C312919   4.649   3.296  17.601 -0.2196 -0.2815  0.1665
  881MPD2    C412920   4.625   3.170  17.636  0.4786  0.2544 -0.1156
  881MPD2    C512921   4.563   3.085  17.543 -0.2845  0.0932  0.0567
  881MPD2     H12922   4.616   3.452  17.473  2.1472 -0.3484 -0.2457
  881MPD2    H112923   4.658   3.134   0.052  1.8361  1.1136 -0.2525
  881MPD2    H212924   4.480   3.069  17.349 -1.8309  0.7716  0.7224
  881MPD2    H312925   4.547   2.979  17.564  0.2112 -0.2788 -1.4901
  881MPD2     N12926   0.008   3.369   0.006 -1.2087  0.3260  0.0884
  881MPD2    H512927   0.015   3.330   0.099 -0.8686 -0.8053 -0.4119
  881MPD2    N112928   4.496   3.315  17.268  0.4036  0.3505  0.6163
  881MPD2    H712929   4.461   3.251  17.198  1.3822  0.2250  0.2309
  882MPD2     C12930   3.190   0.348  14.193 -0.1843  0.7210  0.1511
  882MPD2    C112931   3.125   0.417  14.296 -0.2714  0.2770 -0.2382
  882MPD2    C212932   2.989   0.437  14.281  0.4331 -0.0796  0.1116
  882MPD2    C312933   2.916   0.394  14.167 -0.2157  0.9695 -0.2356
  882MPD2    C412934   2.986   0.325  14.068 -1.1279  0.8296 -0.2689
  882MPD2    C512935   3.123   0.308  14.075  0.6726  0.1674  0.5749
  882MPD2     H12936   2.944   0.503  14.354  0.6327 -1.0535  1.1130
  882MPD2    H112937   2.932   0.267  13.994  0.9189  0.0428 -1.1581
  882MPD2    H212938   3.294   0.323  14.211  0.7117  3.9788 -0.5526
  882MPD2    H312939   3.170   0.244  14.002 -1.2524 -0.8734  0.2535
  882MPD2     N12940   2.782   0.422  14.143 -0.4646  0.6558  0.5828
  882MPD2    H512941   2.745   0.408  14.049  0.7084 -1.2798  0.3963
  882MPD2    N112942   3.198   0.462  14.413  0.6041 -0.8015 -0.4427
  882MPD2    H712943   3.298   0.442  14.415  0.4711 -1.1436  2.3410
  883MPD2     C12944   0.295   0.724  16.065 -0.5618 -0.2668 -0.9079
  883MPD2    C112945   0.395   0.732  15.964 -0.4038 -0.2340 -0.1283
  883MPD2    C212946   0.520   0.698  16.002 -0.0461 -0.2677  0.0210
  883MPD2    C312947   0.560   0.675  16.133  0.0562 -0.5536  0.3337
  883MPD2    C412948   0.457   0.677  16.230  0.2115  0.4447  0.2641
  883MPD2    C512949   0.326   0.699  16.197  0.5064  0.2416 -0.5164
  883MPD2     H12950   0.600   0.685  15.930  0.2837 -0.0643  0.3481
  883MPD2    H112951   0.484   0.650  16.331 -0.7411 -1.4332  0.0204
  883MPD2    H212952   0.192   0.746  16.041  0.4187  3.0039 -2.1265
  883MPD2    H312953   0.246   0.712  16.270  2.6684 -0.8212  2.0565
  883MPD2     N12954   0.693   0.633  16.155 -0.1570  0.2007  0.3172
  883MPD2    H512955   0.757   0.644  16.078 -1.4508  1.8546 -0.5278
  883MPD2    N112956   0.369   0.756  15.829 -0.0601 -0.0500 -0.0334
  883MPD2    H712957   0.449   0.740  15.768 -0.4026  1.5211 -0.8702
  884MPD2     C12958   2.172   1.289  15.562 -0.1168 -0.5307  0.3144
  884MPD2    C112959   2.203   1.394  15.469 -0.3634 -0.0009 -0.1124
  884MPD2    C212960   2.102   1.465  15.414  0.1358 -0.4348  0.0144
  884MPD2    C312961   1.969   1.440  15.449  0.0863 -0.2644 -0.3524
  884MPD2    C412962   1.939   1.332  15.528  0.2004 -0.0305  0.1269
  884MPD2    C512963   2.042   1.265  15.592 -0.2692  0.0585  0.7610
  884MPD2     H12964   2.131   1.551  15.355 -0.9404 -0.2351 -0.2271
  884MPD2    H112965   1.840   1.297  15.555 -0.4606  1.5528 -0.2563
  884MPD2    H212966   2.249   1.230  15.610  0.5705  0.3151  0.2394
  884MPD2    H312967   2.015   1.191  15.667 -0.4362 -1.0164 -0.3626
  884MPD2     N12968   1.874   1.516  15.380  0.3734 -0.5958 -0.4783
  884MPD2    H512969   1.911   1.565  15.299 -0.8171 -1.9244 -1.8423
  884MPD2    N112970   2.341   1.434  15.445  0.6378 -0.0647 -0.4631
  884MPD2    H712971   2.348   1.495  15.364 -0.0968  1.4743  0.6294
  885MPD2     C12972   0.239   1.635   0.567 -1.0235  0.3121  0.5812
  885MPD2    C112973   0.351   1.716   0.556  0.1217 -0.5027 -0.1585
  885MPD2    C212974   0.401   1.742   0.431  0.3874  0.6379  0.0555
  885MPD2    C312975   0.358   1.671   0.316  0.2040 -0.2948  0.8764
  885MPD2    C412976   0.249   1.586   0.333  0.2408 -0.3372  0.1463
  885MPD2    C512977   0.189   1.580   0.452 -0.3726  0.3554 -0.1844
  885MPD2     H12978   0.489   1.804   0.416  2.0417 -1.7352 -0.1145
  885MPD2    H112979   0.198   1.539   0.250  0.4901  0.3103 -0.3702
  885MPD2    H212980   0.182   1.638   0.659 -1.0866  0.8980  0.5188
  885MPD2    H312981   0.095   1.528   0.461  0.5273 -1.5974 -2.1985
  885MPD2     N12982   0.404   1.701   0.184 -0.2430 -0.0752  0.5509
  885MPD2    H512983   0.459   1.785   0.172 -1.4594  0.4111 -1.5780
  885MPD2    N112984   0.389   1.794   0.672 -0.1458 -0.5938  0.0799
  885MPD2    H712985   0.316   1.794   0.742 -1.6065 -0.6186 -1.4300
  886MPD2     C12986   1.740   0.213  15.915  0.3557  0.3372 -0.4720
  886MPD2    C112987   1.847   0.187  15.829 -0.2567 -0.2956  0.9573
  886MPD2    C212988   1.855   0.273  15.719 -0.8420 -0.3920 -0.5817
  886MPD2    C312989   1.769   0.369  15.688  0.5267  0.1223  0.7689
  886MPD2    C412990   1.665   0.394  15.781 -0.6634 -0.0234 -0.8626
  886MPD2    C512991   1.655   0.323  15.898  0.2263 -0.6200 -0.3022
  886MPD2     H12992   1.929   0.249  15.644 -0.0334  2.1275 -0.5693
  886MPD2    H112993   1.585   0.464  15.759 -1.2040 -0.5970 -0.7122
  886MPD2    H212994   1.736   0.162  16.010 -1.0038  1.8496  0.2890
  886MPD2    H312995   1.570   0.333  15.964 -0.0704 -2.2411 -0.4521
  886MPD2     N12996   1.790   0.439  15.567  0.0684  0.3638  0.0485
  886MPD2    H512997   1.877   0.404  15.527 -0.7688 -0.4501 -1.0493
  886MPD2    N112998   1.937   0.076  15.843  0.2050  0.4892 -0.0661
  886MPD2    H712999   2.020   0.072  15.785 -0.3028  1.9941 -0.8761
  887MPD2     C13000   2.599   0.051  15.787 -0.3508  0.1734  0.0524
  887MPD2    C113001   2.471   0.070  15.744 -0.3522  0.3155 -0.7214
  887MPD2    C213002   2.441   0.164  15.653 -0.1601 -0.3856 -0.0828
  887MPD2    C313003   2.532   0.265  15.631 -0.3954  0.7366  0.7320
  887MPD2    C413004   2.658   0.253  15.682  0.7333 -0.1737  0.2198
  887MPD2    C513005   2.700   0.140  15.747  0.1455  0.0987  0.0984
  887MPD2     H13006   2.345   0.175  15.604  0.0911  1.2107 -0.2063
  887MPD2    H113007   2.724   0.338  15.665 -0.6728  0.9774  0.4815
  887MPD2    H213008   2.631   4.690  15.852  0.3870 -0.1067 -0.6490
  887MPD2    H313009   2.802   0.125  15.782  0.4147  2.3309  0.2839
  887MPD2     N13010   2.483   0.376  15.558  0.0957 -0.6498 -0.6150
  887MPD2    H513011   2.382   0.376  15.545  0.1783  1.6381 -1.3176
  887MPD2    N113012   2.370   4.694  15.765 -0.0825  0.7513 -0.6471
  887MPD2    H713013   2.280   0.002  15.727 -0.0797  1.3444 -0.2281
  888MPD2     C13014   4.007   4.560  15.071 -0.0043  0.0275  0.9543
  888MPD2    C113015   3.958   4.646  15.161  0.1669  0.1241  0.3626
  888MPD2    C213016   4.025   0.041  15.191  0.2503 -0.0998 -0.0457
  888MPD2    C313017   4.137   0.074  15.126  0.1572  0.2567  0.4904
  888MPD2    C413018   4.192   4.707  15.032  0.3141  0.1566  0.5190
  888MPD2    C513019   4.132   4.588  15.014  0.3318  0.6636 -0.4950
  888MPD2     H13020   3.994   0.108  15.269 -0.7816 -0.3954 -0.2077
  888MPD2    H113021   4.285   0.002  14.978  0.0033 -0.5728 -0.2181
  888MPD2    H213022   3.978   4.456  15.073 -1.1986  0.4120  4.6538
  888MPD2    H313023   4.183   4.504  14.968 -1.1811 -0.9537  0.7476
  888MPD2     N13024   4.184   0.198  15.162 -0.0224 -0.8144  0.1091
  888MPD2    H513025   4.138   0.241  15.242  0.0916 -0.5310  0.0226
  888MPD2    N113026   3.838   4.620  15.225  0.5097 -0.2503 -0.1223
  888MPD2    H713027   3.808   4.686  15.296  1.1268  0.5224 -0.5829
  889MPD2     C13028   3.681   4.214  12.993  0.4964 -0.5858  0.5223
  889MPD2    C113029   3.616   4.158  13.106 -0.4728  0.9738 -0.4150
  889MPD2    C213030   3.529   4.246  13.173  0.3191 -0.3078 -0.2138
  889MPD2    C313031   3.534   4.387  13.159  0.2510  0.1923 -0.1828
  889MPD2    C413032   3.601   4.438  13.054  0.3757 -0.3005  0.7586
  889MPD2    C513033   3.675   4.353  12.970 -0.7172 -0.2620  0.4635
  889MPD2     H13034   3.473   4.208  13.257 -0.5233 -1.4315 -1.2946
  889MPD2    H113035   3.617   4.545  13.054  0.2057 -0.2927 -1.4396
  889MPD2    H213036   3.762   4.162  12.944  1.9313 -0.0121  2.2885
  889MPD2    H313037   3.719   4.407  12.887 -1.9419 -0.6929 -0.4624
  889MPD2     N13038   3.471   4.463  13.262  0.1989 -0.0127 -0.5103
  889MPD2    H513039   3.445   4.412  13.345 -0.3464 -2.6292 -2.3044
  889MPD2    N113040   3.614   4.015  13.119 -0.2298  0.4294  0.3305
  889MPD2    H713041   3.683   3.961  13.067 -1.0658  0.7804 -1.1500
  890MPD2     C13042   3.256   2.113  14.909  0.0179 -0.0907  0.8841
  890MPD2    C113043   3.195   2.028  14.819 -0.4174  0.1531  0.0556
  890MPD2    C213044   3.186   1.896  14.854 -0.1998 -0.3615 -0.0027
  890MPD2    C313045   3.231   1.850  14.978 -0.4066 -0.2405  0.3266
  890MPD2    C413046   3.298   1.942  15.059 -0.0988 -0.0789 -0.0675
  890MPD2    C513047   3.307   2.069  15.029  0.0391 -0.8750  0.2201
  890MPD2     H13048   3.129   1.836  14.784  0.8696 -1.5730  0.1795
  890MPD2    H113049   3.360   1.907  15.141 -0.4761 -1.2961 -0.3027
  890MPD2    H213050   3.281   2.215  14.882 -3.9588  0.6251 -0.1038
  890MPD2    H313051   3.366   2.145  15.079 -1.9509  0.7190  0.1583
  890MPD2     N13052   3.204   1.714  15.008  0.1407 -0.2783 -0.4025
  890MPD2    H513053   3.164   1.657  14.934  1.2955  0.0028 -1.2351
  890MPD2    N113054   3.178   2.077  14.687  0.6411  0.1870 -0.4415
  890MPD2    H713055   3.219   2.168  14.674  1.6454 -0.1763  0.1978
  891MPD2     C13056   0.721   4.677  16.386  0.6395  0.1423 -0.5056
  891MPD2    C113057   0.718   0.085  16.444 -0.8531  0.3599 -0.2025
  891MPD2    C213058   0.794   0.112  16.554  0.1299 -0.5181  0.5406
  891MPD2    C313059   0.881   0.017  16.608 -0.3235  0.2669  0.1859
  891MPD2    C413060   0.900   4.621  16.538 -0.0066 -0.1051  0.0291
  891MPD2    C513061   0.819   4.591  16.429  0.4511  0.5919  0.1507
  891MPD2     H13062   0.785   0.208  16.604  0.3471 -0.8618  1.2460
  891MPD2    H113063   0.943   4.534  16.585  1.7917  0.1238 -1.2227
  891MPD2    H213064   0.647   4.638  16.318  0.5872  1.0326 -0.9574
  891MPD2    H313065   0.819   4.490  16.392  1.1415  1.0221 -1.0183
  891MPD2     N13066   0.928   0.044  16.742 -0.8374 -0.7711  0.4781
  891MPD2    H513067   0.894   0.123  16.796  0.6175 -0.4076  0.8534
  891MPD2    N113068   0.621   0.177  16.398  0.5662 -0.7927  0.0774
  891MPD2    H713069   0.567   0.150  16.316 -1.8969  2.5992  0.5854
  892MPD2     C13070   2.149   1.088  14.524 -0.1648  0.1608 -0.5263
  892MPD2    C113071   2.074   0.972  14.538 -0.0189  0.3603 -0.5049
  892MPD2    C213072   2.119   0.860  14.471  0.0093 -0.3788 -0.6560
  892MPD2    C313073   2.250   0.854  14.422  0.0411 -0.2807  0.2225
  892MPD2    C413074   2.323   0.971  14.410  0.1143  0.5040  0.3163
  892MPD2    C513075   2.266   1.085  14.455 -0.8330  0.8040  0.1779
  892MPD2     H13076   2.058   0.771  14.470 -1.4145  0.5799  2.3649
  892MPD2    H113077   2.418   0.973  14.358 -0.9555 -0.3188 -1.6838
  892MPD2    H213078   2.113   1.186  14.554 -0.8417  0.4515 -2.2839
  892MPD2    H313079   2.320   1.179  14.450  0.5230 -0.0167 -0.6457
  892MPD2     N13080   2.305   0.739  14.358  0.1663 -0.0620 -0.8339
  892MPD2    H513081   2.393   0.746  14.309  0.7581 -0.4093  0.1794
  892MPD2    N113082   1.947   0.975  14.607 -0.2840 -0.7002 -0.0192
  892MPD2    H713083   1.885   0.895  14.602 -1.3003  0.0454  0.5268
  893MPD2     C13084   4.512   0.273   0.650  0.2965  0.3314  0.8086
  893MPD2    C113085   4.526   0.151   0.706  0.2924 -0.0184  0.2880
  893MPD2    C213086   4.436   0.111   0.807  0.1615 -0.0919  0.1490
  893MPD2    C313087   4.328   0.189   0.842 -0.5547 -0.1557  0.1155
  893MPD2    C413088   4.319   0.311   0.781  0.0867 -0.2200 -0.4396
  893MPD2    C513089   4.415   0.362   0.697 -0.3893  0.6296 -0.0872
  893MPD2     H13090   4.447   0.010   0.845 -1.3314 -0.5836 -0.7200
  893MPD2    H113091   4.245   0.385   0.809  0.0265  0.0484 -1.3005
  893MPD2    H213092   4.583   0.310   0.578 -1.2837  2.0911  0.1459
  893MPD2    H313093   4.409   0.462   0.654  1.3806  0.2028 -1.3728
  893MPD2     N13094   4.240   0.147   0.944 -0.2361 -0.4450 -0.0743
  893MPD2    H513095   4.168   0.217   0.958 -2.0110 -1.8466 -1.9904
  893MPD2    N113096   4.637   0.077   0.665  0.7326 -0.7233 -0.2203
  893MPD2    H713097   4.709   0.134   0.621  0.0383  0.4075  0.1138
  894MPD2     C13098   1.926   2.059   1.805 -0.4819  0.2009 -0.2402
  894MPD2    C113099   1.988   2.168   1.751  0.0778 -0.1337 -0.7396
  894MPD2    C213100   1.943   2.219   1.629 -0.3257 -0.0606 -1.6878
  894MPD2    C313101   1.833   2.163   1.563 -0.1428 -0.6534 -0.7563
  894MPD2    C413102   1.769   2.058   1.620  0.2933 -0.3805 -0.0628
  894MPD2    C513103   1.820   2.004   1.737  0.2672 -0.2637 -0.5037
  894MPD2     H13104   1.995   2.304   1.586 -0.6312  1.7020  1.4061
  894MPD2    H113105   1.672   2.020   1.588 -0.1234 -0.0066  0.7540
  894MPD2    H213106   1.949   2.007   1.897 -0.1904  0.8678  0.0677
  894MPD2    H313107   1.764   1.931   1.795 -0.9679  0.0175 -1.3473
  894MPD2     N13108   1.785   2.229   1.452  0.1289 -0.2803  0.1008
  894MPD2    H513109   1.847   2.307   1.429  1.0629 -1.7235 -2.3015
  894MPD2    N113110   2.093   2.237   1.811  0.4938  0.2083  0.2732
  894MPD2    H713111   2.131   2.311   1.752  0.5988  0.7441  1.0109
  895MPD2     C13112   1.287   0.018  13.544  0.3551 -0.7907  0.3375
  895MPD2    C113113   1.272   4.660  13.430  0.6126 -0.3650 -0.2519
  895MPD2    C213114   1.389   4.595  13.378 -0.4711  0.0465 -0.3552
  895MPD2    C313115   1.508   4.600  13.450  0.4122  0.0754  0.2079
  895MPD2    C413116   1.515   4.673  13.563  0.3920  0.2331  0.5340
  895MPD2    C513117   1.406   0.021  13.606  0.1827  0.1961 -0.1819
  895MPD2     H13118   1.388   4.526  13.295 -0.4626  1.4900 -1.5433
  895MPD2    H113119   1.603   4.669  13.627 -0.2245 -0.2826  1.3413
  895MPD2    H213120   1.199   0.063  13.588 -0.4860 -1.6156 -0.5122
  895MPD2    H313121   1.426   0.080  13.695  1.9862 -0.5052 -0.1297
  895MPD2     N13122   1.617   4.525  13.397  0.4064  0.1718  0.0198
  895MPD2    H513123   1.600   4.469  13.315  2.3457 -0.1823 -0.1297
  895MPD2    N113124   1.155   4.648  13.354 -0.2193 -0.6415  0.1243
  895MPD2    H713125   1.155   4.567  13.292 -0.3033 -2.1308  2.0626
  896MPD2     C13126   3.179   3.241   1.004 -0.6438  0.3045 -0.2914
  896MPD2    C113127   3.239   3.147   1.074  0.2672 -0.1410  0.0767
  896MPD2    C213128   3.187   3.024   1.103  0.2645  0.4077 -0.0670
  896MPD2    C313129   3.057   2.995   1.058  0.0742  0.1633  0.6268
  896MPD2    C413130   2.988   3.099   0.992  0.1687  0.1501 -0.4421
  896MPD2    C513131   3.048   3.212   0.967 -0.1962 -0.6073  0.0135
  896MPD2     H13132   3.230   2.938   1.154  1.4135 -0.5926 -2.7407
  896MPD2    H113133   2.885   3.101   0.957  0.4783  3.8558 -1.1489
  896MPD2    H213134   3.229   3.334   0.981  2.4637 -1.7954 -2.0431
  896MPD2    H313135   2.988   3.279   0.907 -0.8273 -0.1312  1.1785
  896MPD2     N13136   2.994   2.870   1.093 -0.1173 -0.1125 -0.3503
  896MPD2    H513137   3.052   2.794   1.128  0.5965  1.1263  1.1597
  896MPD2    N113138   3.376   3.183   1.107 -0.3263 -0.2981  0.3183
  896MPD2    H713139   3.416   3.266   1.064 -0.1827  0.4578  1.9313
  897MPD2     C13140   0.172   3.362  10.167 -0.1600 -0.0275  0.2003
  897MPD2    C113141   0.149   3.498  10.184  0.0627 -0.0541  0.2806
  897MPD2    C213142   0.026   3.530  10.240 -0.1220  0.3087  0.8239
  897MPD2    C313143   4.656   3.431  10.278 -0.0405 -0.4317 -0.7735
  897MPD2    C413144   4.687   3.300  10.258  0.0414 -0.0447  0.0550
  897MPD2    C513145   0.089   3.265  10.201 -0.9108 -0.0333  0.6497
  897MPD2     H13146   4.716   3.633  10.257  0.2940  0.7761 -1.3108
  897MPD2    H113147   4.619   3.224  10.296  1.5580  0.4971  3.8812
  897MPD2    H213148   0.268   3.339  10.123 -0.8115 -1.4709 -0.4750
  897MPD2    H313149   0.125   3.164  10.186  1.1426  0.2212  3.7496
  897MPD2     N13150   4.529   3.469  10.333  0.2061  0.0497  0.4156
  897MPD2    H513151   4.473   3.398  10.381 -0.3843  0.4563  0.3224
  897MPD2    N113152   0.232   3.596  10.124 -0.4135  0.6094 -0.1398
  897MPD2    H713153   0.309   3.564  10.067  0.3553 -1.1304  1.8882
  898MPD2     C13154   1.294   0.934   0.751 -0.4278 -0.8540  0.3705
  898MPD2    C113155   1.257   0.859   0.641  0.6137  0.6356 -0.0344
  898MPD2    C213156   1.191   0.928   0.540 -0.3921 -0.0612  0.0298
  898MPD2    C313157   1.144   1.058   0.548 -0.0959  0.0456 -0.7037
  898MPD2    C413158   1.177   1.123   0.664 -0.0022 -0.3844  0.0212
  898MPD2    C513159   1.256   1.065   0.760 -0.1537 -1.3218 -0.5008
  898MPD2     H13160   1.173   0.860   0.458 -0.8227  2.1347 -1.6972
  898MPD2    H113161   1.155   1.225   0.695 -1.8104 -0.5775 -0.6371
  898MPD2    H213162   1.362   0.900   0.829  1.0570 -1.3077 -1.1387
  898MPD2    H313163   1.281   1.126   0.846 -2.5473  1.7325 -1.9695
  898MPD2     N13164   1.070   1.120   0.445  0.0649  0.5642 -0.3133
  898MPD2    H513165   1.053   1.058   0.367 -2.5692 -0.8441  1.3917
  898MPD2    N113166   1.305   0.731   0.608  0.6456  0.1261 -0.0454
  898MPD2    H713167   1.289   0.692   0.516  2.6895 -2.1211  0.5299
  899MPD2     C13168   2.485   0.721   0.520 -0.2351 -0.2042 -0.1678
  899MPD2    C113169   2.537   0.837   0.464 -0.2721  0.4192  0.7279
  899MPD2    C213170   2.569   0.947   0.538 -0.1509  0.1140 -0.6031
  899MPD2    C313171   2.549   0.947   0.676  0.1725  0.3301  0.8806
  899MPD2    C413172   2.491   0.832   0.732 -0.5458 -0.5602  0.4085
  899MPD2    C513173   2.463   0.716   0.655 -0.7823 -0.1900  0.2618
  899MPD2     H13174   2.610   1.039   0.497 -0.4350  0.3525 -0.3581
  899MPD2    H113175   2.468   0.816   0.837 -0.8726 -1.9220  0.1237
  899MPD2    H213176   2.476   0.629   0.462 -0.4322  0.6653 -1.5326
  899MPD2    H313177   2.420   0.627   0.700  0.4149 -0.3101  1.1771
  899MPD2     N13178   2.588   1.060   0.765 -0.4736 -0.6389  0.1729
  899MPD2    H513179   2.547   1.062   0.857 -1.6381  0.7067 -0.3776
  899MPD2    N113180   2.546   0.829   0.319 -0.3325 -0.5365  0.2440
  899MPD2    H713181   2.503   0.754   0.265 -1.0463  0.3060 -0.3489
  900MPD2     C13182   2.438   2.344  12.363 -0.6497  0.2292 -0.2189
  900MPD2    C113183   2.349   2.247  12.351 -0.0621 -0.7261  0.8288
  900MPD2    C213184   2.234   2.274  12.277 -1.1324 -0.2334 -0.2079
  900MPD2    C313185   2.218   2.391  12.204  0.0691 -0.2857 -0.7496
  900MPD2    C413186   2.310   2.495  12.222  0.3660 -0.2869  0.6798
  900MPD2    C513187   2.428   2.460  12.286 -0.0446  0.1218 -0.1736
  900MPD2     H13188   2.160   2.202  12.245 -1.1074  0.0884 -0.9940
  900MPD2    H113189   2.303   2.591  12.173  0.6057 -0.3170  0.5836
  900MPD2    H213190   2.527   2.332  12.423 -1.2291 -0.9005  0.4074
  900MPD2    H313191   2.507   2.534  12.295  0.9754 -1.1248  1.2396
  900MPD2     N13192   2.115   2.398  12.105 -0.2972  0.1116  0.2035
  900MPD2    H513193   2.050   2.319  12.103 -0.3914  0.1692  0.9926
  900MPD2    N113194   2.382   2.117  12.399  0.8984 -0.2108 -0.2426
  900MPD2    H713195   2.463   2.106  12.459  0.3262  2.0132  0.9145
  901MPD2     C13196   2.733   1.422  13.054  0.0803  0.6335 -0.7777
  901MPD2    C113197   2.786   1.401  12.934 -0.1864  0.1483 -0.0526
  901MPD2    C213198   2.755   1.488  12.832 -0.4587  0.4692  0.1694
  901MPD2    C313199   2.664   1.602  12.850 -0.5018  0.1815 -0.3153
  901MPD2    C413200   2.615   1.626  12.974  0.3420 -0.4099 -0.9352
  901MPD2    C513201   2.660   1.538  13.076  0.2287 -0.0690  0.0957
  901MPD2     H13202   2.788   1.473  12.730 -2.2210 -1.8985 -0.0509
  901MPD2    H113203   2.549   1.704  13.009  1.3770 -0.3346  0.8356
  901MPD2    H213204   2.759   1.366  13.144  3.1959  1.0064 -1.4354
  901MPD2    H313205   2.624   1.556  13.176  2.6933 -0.4533  1.0483
  901MPD2     N13206   2.607   1.671  12.736 -0.1600 -0.1894  0.1508
  901MPD2    H513207   2.636   1.647  12.641  0.2572 -0.3439  0.3205
  901MPD2    N113208   2.862   1.280  12.920  0.2982 -0.2654 -0.8974
  901MPD2    H713209   2.851   1.225  13.005  1.2591 -0.7333 -1.0750
  902MPD2     C13210   1.244   4.718  12.961 -0.7097 -0.1524  0.1424
  902MPD2    C113211   1.165   0.057  12.863  0.4961  0.5040 -0.1880
  902MPD2    C213212   1.153   4.717  12.741 -0.2594 -0.1777 -0.4777
  902MPD2    C313213   1.209   4.594  12.716 -1.4508 -0.1835 -0.4411
  902MPD2    C413214   1.274   4.529  12.821  0.9917 -0.4180  0.1114
  902MPD2    C513215   1.306   4.600  12.932  0.7092  0.6780  0.1057
  902MPD2     H13216   1.090   0.048  12.668  0.2959  1.3588  0.1042
  902MPD2    H113217   1.328   4.436  12.806 -0.5014 -1.4703  1.2388
  902MPD2    H213218   1.271   0.040  13.058 -0.0723  0.2612 -0.2172
  902MPD2    H313219   1.376   4.555  13.001  1.4997  0.3122 -0.9202
  902MPD2     N13220   1.218   4.527  12.594 -0.5227 -0.0991  0.1667
  902MPD2    H513221   1.281   4.448  12.581  2.5047  2.1367  1.1756
  902MPD2    N113222   1.106   0.188  12.876 -0.2887  0.3519 -0.5603
  902MPD2    H713223   1.071   0.229  12.790  0.4431 -0.6924 -1.3529
  903MPD2     C13224   1.100   4.260  11.713  0.0445 -0.3172  0.0967
  903MPD2    C113225   1.035   4.295  11.829  0.5279  0.0895 -0.1665
  903MPD2    C213226   0.901   4.267  11.833  0.4717  0.0607  0.2741
  903MPD2    C313227   0.830   4.233  11.718 -0.1849  0.2828  0.5892
  903MPD2    C413228   0.897   4.212  11.598  0.0481  0.2198 -0.1432
  903MPD2    C513229   1.034   4.217  11.603  0.2982  0.3074  0.3109
  903MPD2     H13230   0.847   4.275  11.926  1.9543  1.2400  1.0352
  903MPD2    H113231   0.847   4.174  11.510 -0.7780  0.9021  0.0343
  903MPD2    H213232   1.208   4.272  11.709  0.1390 -1.3477 -0.4218
  903MPD2    H313233   1.091   4.190  11.515  1.4919  0.6699  0.9854
  903MPD2     N13234   0.691   4.224  11.728  0.1234 -0.0086 -0.0688
  903MPD2    H513235   0.641   4.229  11.816 -0.4760  1.5384 -0.4902
  903MPD2    N113236   1.109   4.343  11.941  0.4948 -0.1589  0.6664
  903MPD2    H713237   1.210   4.354  11.930  0.3219  1.0770  0.2789
  904MPD2     C13238   1.337   4.149  13.547  0.2509 -0.4053  0.1514
  904MPD2    C113239   1.313   4.044  13.632 -0.4563 -0.1558  0.5588
  904MPD2    C213240   1.402   4.028  13.738 -0.0675  0.2009 -1.1981
  904MPD2    C313241   1.511   4.111  13.761 -0.2768  0.5933 -0.4149
  904MPD2    C413242   1.538   4.214  13.672  0.4594 -0.3630  0.0952
  904MPD2    C513243   1.448   4.232  13.563  0.2429  0.3452  0.3126
  904MPD2     H13244   1.391   3.941  13.802 -1.1100  1.4626  0.3398
  904MPD2    H113245   1.621   4.284  13.679 -0.0291  0.0769  1.4249
  904MPD2    H213246   1.266   4.178  13.470  2.4653  2.1627 -0.8958
  904MPD2    H313247   1.465   4.308  13.487  1.7233 -0.1037  0.1858
  904MPD2     N13248   1.582   4.080  13.872  0.4638  0.1567 -0.2736
  904MPD2    H513249   1.557   3.997  13.925 -2.0397 -0.5441 -2.5644
  904MPD2    N113250   1.212   3.943  13.611 -0.4777 -0.2837  0.1562
  904MPD2    H713251   1.229   3.858  13.664 -1.8807 -1.7889 -1.7545
  905MPD2     C13252   1.235   4.045  12.937  0.0680  0.2630 -0.1577
  905MPD2    C113253   1.234   4.144  13.030  0.1688  0.3676 -0.0370
  905MPD2    C213254   1.356   4.208  13.052  0.0226  0.2992 -0.3682
  905MPD2    C313255   1.471   4.177  12.984  0.5778  0.8909 -0.9287
  905MPD2    C413256   1.462   4.075  12.891  0.0706 -0.1390  0.2381
  905MPD2    C513257   1.346   4.011  12.871  0.3628  0.0596  0.6259
  905MPD2     H13258   1.360   4.285  13.127  3.0648 -0.2468  0.0301
  905MPD2    H113259   1.551   4.036  12.841 -0.4720 -0.1080 -0.7570
  905MPD2    H213260   1.149   3.984  12.911 -0.9694  1.9464 -0.6801
  905MPD2    H313261   1.356   3.915  12.822  2.2313  0.5291  0.0932
  905MPD2     N13262   1.600   4.229  13.017 -0.2614  0.2391  0.1953
  905MPD2    H513263   1.676   4.178  12.974  0.5578  0.6732  1.1233
  905MPD2    N113264   1.118   4.165  13.108  0.0277 -0.3400  0.2890
  905MPD2    H713265   1.051   4.090  13.095  0.0472  0.1499 -2.5851
  906MPD2     C13266   3.455   3.875  11.318 -0.1006 -0.1976  0.0916
  906MPD2    C113267   3.374   3.798  11.236 -0.5992 -0.2421 -0.3616
  906MPD2    C213268   3.279   3.712  11.287  0.4651 -0.0642  0.7502
  906MPD2    C313269   3.266   3.694  11.421  0.1050  0.5214  0.3519
  906MPD2    C413270   3.342   3.774  11.503 -0.0152  0.1137 -0.4051
  906MPD2    C513271   3.440   3.857  11.455 -0.3635 -0.1394 -0.2658
  906MPD2     H13272   3.206   3.666  11.221  0.6439 -0.3428  0.7481
  906MPD2    H113273   3.341   3.750  11.608 -1.4893 -0.2686 -0.5129
  906MPD2    H213274   3.540   3.931  11.281  0.1439 -1.4496 -1.2584
  906MPD2    H313275   3.504   3.906  11.527  1.6087 -1.2034 -1.3016
  906MPD2     N13276   3.160   3.611  11.460  0.1540 -0.4378  0.0766
  906MPD2    H513277   3.106   3.562  11.389 -1.8113  0.6656  0.8043
  906MPD2    N113278   3.381   3.802  11.095  0.4600 -0.2319  0.0728
  906MPD2    H713279   3.316   3.737  11.052 -0.6107  0.4880  0.5833
  907MPD2     C13280   2.005   3.720  15.665 -0.2691  0.7624 -0.1304
  907MPD2    C113281   2.048   3.594  15.647  0.6063  0.2661  0.0070
  907MPD2    C213282   2.092   3.523  15.763 -0.4631  0.7117 -0.3414
  907MPD2    C313283   2.096   3.587  15.887  0.2379  0.2465  0.0266
  907MPD2    C413284   2.064   3.717  15.893 -0.1328  0.4082  0.0099
  907MPD2    C513285   2.007   3.782  15.785 -0.3923  0.3385  0.7341
  907MPD2     H13286   2.123   3.419  15.757 -4.2847 -0.3885 -0.7517
  907MPD2    H113287   2.087   3.774  15.982  0.7194  2.3365 -1.4416
  907MPD2    H213288   1.962   3.774  15.581 -2.7251 -0.5102  0.3118
  907MPD2    H313289   1.974   3.885  15.788 -0.9034  0.1427  1.7455
  907MPD2     N13290   2.157   3.512  15.994  0.8591  0.5191  0.2934
  907MPD2    H513291   2.188   3.419  15.969 -4.0807 -1.3754  1.0954
  907MPD2    N113292   2.051   3.526  15.522  0.8876  0.3070  0.0933
  907MPD2    H713293   2.055   3.425  15.534  1.0154  0.1126 -1.5722
  908MPD2     C13294   0.576   3.574   9.319 -0.3570  0.0091  0.6112
  908MPD2    C113295   0.503   3.492   9.406 -1.9484  0.1077  0.6475
  908MPD2    C213296   0.448   3.541   9.524 -0.3904  0.3513 -1.0872
  908MPD2    C313297   0.483   3.668   9.559 -0.2327  0.2232 -0.1090
  908MPD2    C413298   0.548   3.755   9.468  0.8121 -0.2404  0.1214
  908MPD2    C513299   0.587   3.706   9.354 -0.0664 -0.2756  0.6352
  908MPD2     H13300   0.388   3.478   9.588 -1.6670  0.9469 -1.7058
  908MPD2    H113301   0.577   3.857   9.488 -0.2128  0.4708 -2.0993
  908MPD2    H213302   0.621   3.533   9.229  0.1965 -0.3293  1.0384
  908MPD2    H313303   0.654   3.763   9.289 -0.2729 -1.3349 -0.5087
  908MPD2     N13304   0.448   3.712   9.694 -1.4848  0.3056  0.0169
  908MPD2    H513305   0.397   3.642   9.746 -1.7204  0.2774 -0.2545
  908MPD2    N113306   0.499   3.360   9.368 -0.4949 -0.7958 -0.8395
  908MPD2    H713307   0.548   3.347   9.280  2.0240 -0.0923  0.4637
  909MPD2     C13308   0.245   1.445  11.951 -0.4890 -0.1387  0.2221
  909MPD2    C113309   0.243   1.576  11.921  0.0403 -0.1278  0.7378
  909MPD2    C213310   0.156   1.666  11.981  0.3078 -0.8409  0.3077
  909MPD2    C313311   0.055   1.613  12.059 -0.2820  0.4288  0.4999
  909MPD2    C413312   0.063   1.485  12.109 -0.1782  0.2160  0.7807
  909MPD2    C513313   0.160   1.406  12.053 -0.6691  0.0576 -0.1570
  909MPD2     H13314   0.150   1.770  11.950 -1.2484 -1.7437 -2.4290
  909MPD2    H113315   0.007   1.440  12.190 -2.3203  1.2798 -0.1010
  909MPD2    H213316   0.321   1.374  11.921  0.0211  0.7192 -0.5294
  909MPD2    H313317   0.151   1.302  12.082  0.8726 -0.0002  0.0862
  909MPD2     N13318   4.683   1.716  12.097  0.7804  0.1851 -0.2893
  909MPD2    H513319   4.676   1.801  12.042  1.0260 -0.5238 -1.4097
  909MPD2    N113320   0.323   1.625  11.813  0.6630  0.3410  0.7665
  909MPD2    H713321   0.297   1.713  11.768  0.8543  0.6280  1.2123
  910MPD2     C13322   1.576   3.705  15.704  0.2056  0.9856 -0.0555
  910MPD2    C113323   1.655   3.598  15.662  1.0423  0.4760  0.4941
  910MPD2    C213324   1.674   3.582  15.529 -0.6685  0.5823  0.8469
  910MPD2    C313325   1.608   3.657  15.437  0.4700 -0.0123 -0.3106
  910MPD2    C413326   1.519   3.752  15.477  0.7583 -0.2383 -0.1023
  910MPD2    C513327   1.507   3.777  15.613 -0.2568  0.4306  0.3568
  910MPD2     H13328   1.746   3.506  15.499  0.5936  0.1574  5.0134
  910MPD2    H113329   1.465   3.807  15.401  0.3976  0.1133  0.4162
  910MPD2    H213330   1.545   3.727  15.805 -0.2886  0.9297 -0.1964
  910MPD2    H313331   1.438   3.856  15.644  0.3912  0.7018  1.0952
  910MPD2     N13332   1.620   3.635  15.294  0.2951  0.3516 -0.6879
  910MPD2    H513333   1.579   3.706  15.235  1.4412  3.0520  1.7837
  910MPD2    N113334   1.716   3.508  15.756 -0.3418 -0.1022 -0.4746
  910MPD2    H713335   1.777   3.433  15.722 -2.9495 -1.8720 -1.2658
  911MPD2     C13336   3.903   4.092  16.351  0.5328 -0.2094  0.2811
  911MPD2    C113337   3.913   4.217  16.408  0.6051  0.4868  0.4979
  911MPD2    C213338   3.809   4.305  16.391  0.8189 -0.1397  0.4625
  911MPD2    C313339   3.685   4.266  16.334  0.5642  0.3640 -0.1111
  911MPD2    C413340   3.676   4.137  16.281  0.3934  0.1082  0.6998
  911MPD2    C513341   3.783   4.049  16.293 -0.9450  0.1223 -0.2340
  911MPD2     H13342   3.830   4.410  16.413 -0.3051  0.4921 -1.5166
  911MPD2    H113343   3.586   4.114  16.225  0.2665  1.1697  0.4588
  911MPD2    H213344   3.992   4.031  16.345 -0.1198 -1.0746 -0.6334
  911MPD2    H313345   3.765   3.951  16.251 -1.3784  0.0462  0.1256
  911MPD2     N13346   3.581   4.355  16.306  0.3509  0.3229  0.2122
  911MPD2    H513347   3.496   4.310  16.273 -0.4618  1.4222  0.8109
  911MPD2    N113348   4.040   4.256  16.445 -0.3173 -0.3248  0.6540
  911MPD2    H713349   4.117   4.195  16.420  0.3747  1.5450 -1.7587
  912MPD2     C13350   3.542   4.116  15.803  0.0238  0.2642  0.7383
  912MPD2    C113351   3.447   4.141  15.900  0.7358  0.3110 -0.4986
  912MPD2    C213352   3.434   4.034  15.990  0.5831 -0.5690 -0.3608
  912MPD2    C313353   3.510   3.920  15.976 -0.5941  0.0888 -0.2008
  912MPD2    C413354   3.596   3.898  15.871  0.1479  0.0386 -1.0588
  912MPD2    C513355   3.615   4.006  15.791 -0.2239  0.4908 -0.5147
  912MPD2     H13356   3.367   4.029  16.075 -1.9429 -0.0219 -2.2847
  912MPD2    H113357   3.647   3.803  15.856  0.6175  0.1740 -0.3104
  912MPD2    H213358   3.574   4.202  15.745  3.4330  0.7513  3.3602
  912MPD2    H313359   3.675   3.994  15.702  1.5789  2.9348  0.3692
  912MPD2     N13360   3.501   3.839  16.090  0.4750  0.2862  0.4392
  912MPD2    H513361   3.415   3.850  16.143 -0.6865 -0.4731 -1.2949
  912MPD2    N113362   3.394   4.270  15.928 -0.2601 -0.1350 -0.2417
  912MPD2    H713363   3.410   4.346  15.863  0.2783  1.6928  2.0079
  913MPD2     C13364   3.721   0.328  10.317 -0.5211 -0.0609 -0.1775
  913MPD2    C113365   3.831   0.381  10.386  0.0482 -0.5719 -0.3190
  913MPD2    C213366   3.867   0.518  10.371 -0.3838  0.7998  0.0825
  913MPD2    C313367   3.786   0.591  10.283  0.1981  0.3224 -0.4531
  913MPD2    C413368   3.679   0.541  10.216  0.0458 -0.8599  0.1904
  913MPD2    C513369   3.646   0.403  10.233  0.0929  0.1651  1.4112
  913MPD2     H13370   3.957   0.553  10.420  1.1938 -0.8213 -1.6567
  913MPD2    H113371   3.617   0.616  10.169  0.2426 -0.7280  0.1369
  913MPD2    H213372   3.697   0.222  10.321 -0.6856 -0.0232 -0.1622
  913MPD2    H313373   3.558   0.360  10.185  0.9916  0.5223 -0.5560
  913MPD2     N13374   3.809   0.732  10.265 -0.5852  0.3065 -0.2309
  913MPD2    H513375   3.749   0.776  10.197  0.2193 -1.0005 -1.7791
  913MPD2    N113376   3.911   0.288  10.466  0.7752  0.1537 -0.0234
  913MPD2    H713377   3.890   0.189  10.462  0.5257  0.2549 -1.2162
  914MPD2     C13378   2.853   0.762  12.049  0.4700 -0.0596  0.9010
  914MPD2    C113379   2.822   0.894  12.083 -0.3098  0.4269 -0.1666
  914MPD2    C213380   2.856   0.943  12.207 -0.1002  0.0823 -0.7965
  914MPD2    C313381   2.920   0.870  12.301 -1.0806 -0.5346 -0.3027
  914MPD2    C413382   2.960   0.746  12.259 -0.5106 -0.0741  0.0171
  914MPD2    C513383   2.927   0.690  12.138  0.1152  0.2747  0.0689
  914MPD2     H13384   2.842   1.048  12.232 -0.9156 -0.1069 -0.4418
  914MPD2    H113385   3.021   0.682  12.323  1.1323  0.1813 -1.2864
  914MPD2    H213386   2.815   0.715  11.958  3.3054  0.9591 -0.8075
  914MPD2    H313387   2.962   0.591  12.111  0.7077  0.7997 -1.0490
  914MPD2     N13388   2.946   0.920  12.430  0.0309  0.3408 -0.5188
  914MPD2    H513389   2.899   1.008  12.445 -0.5071  0.0114 -0.2583
  914MPD2    N113390   2.765   0.977  11.978 -0.0929  0.0482  0.2581
  914MPD2    H713391   2.743   0.940  11.886 -3.6894 -0.8386  1.5028
  915MPD2     C13392   0.607   1.452  15.873  0.3488  0.1090  0.6643
  915MPD2    C113393   0.541   1.538  15.796  0.4220 -0.4349  0.1609
  915MPD2    C213394   0.454   1.628  15.850 -0.1206 -0.3472  0.1005
  915MPD2    C313395   0.434   1.634  15.988 -0.1528  0.2678 -0.1162
  915MPD2    C413396   0.488   1.533  16.063 -0.4207 -0.4653 -0.4122
  915MPD2    C513397   0.580   1.450  16.004  1.1493 -0.2029  0.2380
  915MPD2     H13398   0.381   1.679  15.789 -0.3069  1.2663  1.6519
  915MPD2    H113399   0.485   1.525  16.171 -0.2004 -2.0057 -0.5099
  915MPD2    H213400   0.677   1.380  15.833 -2.1921 -2.5656  1.0164
  915MPD2    H313401   0.634   1.378  16.065  2.6963  0.4517 -0.3612
  915MPD2     N13402   0.335   1.721  16.036  0.2172  0.3603 -0.3155
  915MPD2    H513403   0.266   1.757  15.971  0.3045 -0.0772 -0.6558
  915MPD2    N113404   0.554   1.544  15.657  0.0542  0.1746 -0.0338
  915MPD2    H713405   0.597   1.459  15.623  3.3333  0.4041  3.4826
  916MPD2     C13406   3.068   4.660  15.769  0.4403  0.0342  1.0105
  916MPD2    C113407   3.049   4.556  15.856 -0.5000 -0.0358  0.5713
  916MPD2    C213408   3.088   4.425  15.825  0.4496 -0.5023 -0.3313
  916MPD2    C313409   3.134   4.400  15.696  0.1257 -0.4163 -0.7176
  916MPD2    C413410   3.136   4.503  15.606  0.4188 -0.2105  0.2477
  916MPD2    C513411   3.112   4.632  15.645  0.5067  0.0715 -0.3860
  916MPD2     H13412   3.077   4.351  15.904  0.1629  0.7634  0.8140
  916MPD2    H113413   3.171   4.481  15.506  1.3225  1.5231  0.1827
  916MPD2    H213414   3.049   0.042  15.802  1.8919  0.3026  1.0564
  916MPD2    H313415   3.117   4.715  15.576 -0.5536 -0.4883 -1.1413
  916MPD2     N13416   3.159   4.273  15.652  0.4566 -0.0697  0.1643
  916MPD2    H513417   3.172   4.261  15.552 -1.6694 -0.2844 -0.0814
  916MPD2    N113418   2.983   4.593  15.976 -0.1107  0.6784 -0.3284
  916MPD2    H713419   2.957   4.691  15.977  0.1927  0.7559 -0.1913
  917MPD2     C13420   3.884   1.057  11.135  0.5573  0.4631  0.2246
  917MPD2    C113421   3.893   1.112  11.261  0.1486  0.0133 -0.0652
  917MPD2    C213422   3.970   1.225  11.281  0.8344  0.4046 -0.0069
  917MPD2    C313423   4.031   1.288  11.171 -0.6198  0.0207 -0.0270
  917MPD2    C413424   4.027   1.231  11.044 -0.3711  0.2387 -0.0846
  917MPD2    C513425   3.947   1.122  11.028  0.5793 -0.2489  0.4526
  917MPD2     H13426   3.981   1.260  11.382 -1.6828  1.1662 -0.0031
  917MPD2    H113427   4.089   1.260  10.960  0.2631  1.3055  0.7546
  917MPD2    H213428   3.832   0.966  11.109 -1.1577  1.1004  1.3778
  917MPD2    H313429   3.937   1.076  10.930 -2.4740  0.6133  0.3504
  917MPD2     N13430   4.125   1.392  11.183 -0.0919  0.1344 -0.2886
  917MPD2    H513431   4.171   1.425  11.099  2.3642  0.7507  1.3344
  917MPD2    N113432   3.819   1.050  11.363 -0.9342 -0.2190  0.8026
  917MPD2    H713433   3.759   0.979  11.322 -1.8698  0.6982  0.5773
  918MPD2     C13434   3.487   1.526  12.154 -0.1330  0.2881 -0.6849
  918MPD2    C113435   3.618   1.487  12.137 -0.0701  0.5809  0.2900
  918MPD2    C213436   3.643   1.377  12.059  0.4690 -1.0636  0.4255
  918MPD2    C313437   3.545   1.308  11.991  0.6291  0.0354 -0.0849
  918MPD2    C413438   3.410   1.337  12.028  0.4803  0.8546 -0.0299
  918MPD2    C513439   3.385   1.441  12.103 -0.4560  0.4361  0.7276
  918MPD2     H13440   3.748   1.372  12.034  0.1606  0.1491 -1.1272
  918MPD2    H113441   3.325   1.275  12.003  0.6594  0.6588 -0.1598
  918MPD2    H213442   3.465   1.617  12.209  0.3147 -0.6380  1.0468
  918MPD2    H313443   3.282   1.469  12.120 -0.1048  1.3521  1.3545
  918MPD2     N13444   3.581   1.206  11.898 -0.3640 -0.2295 -0.2791
  918MPD2    H513445   3.681   1.191  11.884 -0.2846 -1.2563  1.3067
  918MPD2    N113446   3.724   1.564  12.192 -0.5395  0.0039  0.3853
  918MPD2    H713447   3.815   1.538  12.155 -0.7125  1.8689 -1.3319
  919MPD2     C13448   4.213   0.426  11.232 -0.1596  0.1358  0.1236
  919MPD2    C113449   4.134   0.310  11.230  0.2816  0.0448 -0.3249
  919MPD2    C213450   4.040   0.296  11.126  0.5369 -0.3240 -0.4123
  919MPD2    C313451   4.036   0.393  11.026  0.2577  0.0716 -0.7002
  919MPD2    C413452   4.120   0.505  11.027 -0.3143 -0.6832  0.0360
  919MPD2    C513453   4.210   0.515  11.128 -0.3023  0.4766 -0.4096
  919MPD2     H13454   3.985   0.203  11.123 -1.9415  1.0699  2.6463
  919MPD2    H113455   4.129   0.579  10.948  0.5410  1.2285  1.9158
  919MPD2    H213456   4.284   0.444  11.311 -0.0059 -0.0294  0.0234
  919MPD2    H313457   4.258   0.612  11.133  1.6921 -0.5422  0.0249
  919MPD2     N13458   3.952   0.382  10.916 -0.1601  0.5719  0.3477
  919MPD2    H513459   3.956   0.454  10.846  0.8952  0.3502  0.1827
  919MPD2    N113460   4.144   0.207  11.321 -0.8556  0.5112  0.6326
  919MPD2    H713461   4.089   0.123  11.304 -0.1869 -0.1541  1.7869
  920MPD2     C13462   3.470   0.991  10.318  0.6407  0.1476  0.2995
  920MPD2    C113463   3.411   0.867  10.282  0.5268  0.3016 -0.3058
  920MPD2    C213464   3.443   0.768  10.368  0.2830 -0.6447  0.0929
  920MPD2    C313465   3.528   0.782  10.476 -0.4897 -0.5664 -0.2678
  920MPD2    C413466   3.575   0.901  10.515 -0.2697  0.0372  0.2352
  920MPD2    C513467   3.548   1.011  10.434  0.6151 -0.0888  0.0871
  920MPD2     H13468   3.398   0.673  10.341 -0.1592  0.8223 -4.2683
  920MPD2    H113469   3.650   0.909  10.593 -0.8640  1.1829  0.6864
  920MPD2    H213470   3.446   1.078  10.259  0.3801 -0.7360 -0.9012
  920MPD2    H313471   3.598   1.103  10.463  0.1027 -0.3402  1.7651
  920MPD2     N13472   3.554   0.660  10.539 -0.4972  0.0477  0.1630
  920MPD2    H513473   3.509   0.578  10.498 -1.4209  0.1456  0.9810
  920MPD2    N113474   3.324   0.840  10.175  0.5125  0.0572 -0.1851
  920MPD2    H713475   3.294   0.745  10.153  1.4896  0.2874 -2.5028
  921MPD2     C13476   4.673   0.292  16.818  0.4379  0.6801 -1.0174
  921MPD2    C113477   4.706   0.232  16.702 -0.6156 -0.2532 -0.0409
  921MPD2    C213478   4.656   0.109  16.663 -0.3228 -0.6804  0.6149
  921MPD2    C313479   4.561   0.050  16.746  0.2217 -0.4828  0.0388
  921MPD2    C413480   4.533   0.116  16.866 -0.4873 -0.6078  0.2465
  921MPD2    C513481   4.590   0.238  16.904 -0.1668  0.2613  0.9483
  921MPD2     H13482   4.688   0.061  16.572  0.3234  1.5744 -0.3256
  921MPD2    H113483   4.460   0.077  16.936  0.8422 -0.2017  1.8411
  921MPD2    H213484   4.710   0.388  16.851  1.6135 -0.5912  1.3535
  921MPD2    H313485   4.560   0.274  17.002  2.9561  0.2855  1.8948
  921MPD2     N13486   4.515   4.642  16.705 -0.3519  0.4968 -0.4420
  921MPD2    H513487   4.547   4.602  16.618  0.0977 -1.5839  0.6792
  921MPD2    N113488   0.089   0.294  16.633 -0.2584 -0.3234  0.1630
  921MPD2    H713489   0.138   0.373  16.674 -0.4152 -0.3030  0.3125
  922MPD2     C13490   0.903   1.777  17.178 -0.4555 -0.5803  0.1988
  922MPD2    C113491   0.849   1.899  17.207 -0.9242  0.0451 -0.4481
  922MPD2    C213492   0.715   1.925  17.190 -0.3987  0.2978  0.1487
  922MPD2    C313493   0.638   1.832  17.126 -0.3291  0.1617 -0.4877
  922MPD2    C413494   0.691   1.716  17.085  0.0679  0.6920  1.0218
  922MPD2    C513495   0.820   1.691  17.115 -0.5390 -0.0573 -0.0946
  922MPD2     H13496   0.670   2.018  17.219 -1.3415 -0.6630  1.7342
  922MPD2    H113497   0.631   1.649  17.025  2.4366 -0.4235 -0.1386
  922MPD2    H213498   1.005   1.745  17.191 -0.6362 -1.6320 -0.9239
  922MPD2    H313499   0.855   1.594  17.083 -3.3234 -0.9852 -0.3286
  922MPD2     N13500   0.509   1.871  17.077 -0.0113  0.2637 -0.0749
  922MPD2    H513501   0.472   1.813  17.001 -0.4296  0.8645 -0.3335
  922MPD2    N113502   0.929   2.007  17.246  0.3674 -0.0155 -0.6303
  922MPD2    H713503   0.886   2.097  17.266  0.4726 -0.1953  0.4473
  923MPD2     C13504   2.736   3.305   8.986  0.7555 -0.4044 -0.0393
  923MPD2    C113505   2.627   3.360   9.052 -0.2623  0.3799 -0.7026
  923MPD2    C213506   2.621   3.342   9.189 -0.3602  0.6853  0.0664
  923MPD2    C313507   2.730   3.293   9.259 -0.2644 -0.4794 -0.1320
  923MPD2    C413508   2.844   3.245   9.190 -0.1720  0.1069 -0.0001
  923MPD2    C513509   2.839   3.251   9.049  0.6912  0.8239 -0.2151
  923MPD2     H13510   2.529   3.358   9.243 -1.1605 -1.5961 -0.5967
  923MPD2    H113511   2.938   3.210   9.231 -1.2755 -1.3728  1.2874
  923MPD2    H213512   2.746   3.308   8.879 -0.6369  1.1138 -0.1265
  923MPD2    H313513   2.920   3.213   8.987 -0.5383  1.4358 -2.2136
  923MPD2     N13514   2.737   3.298   9.399  0.1318  1.1155  0.8800
  923MPD2    H513515   2.814   3.246   9.442  0.1221  0.5020  0.1670
  923MPD2    N113516   2.524   3.412   8.972  0.3108 -0.3003 -0.4223
  923MPD2    H713517   2.536   3.404   8.872 -0.1638  4.4222 -0.8639
  924MPD2     C13518   2.531   2.745  15.917 -0.3568 -0.3840  0.2344
  924MPD2    C113519   2.526   2.767  16.054  0.0496 -0.0342  0.5176
  924MPD2    C213520   2.521   2.900  16.102  0.2546 -0.6156  0.1438
  924MPD2    C313521   2.525   3.011  16.015  0.0651 -0.6877 -0.3063
  924MPD2    C413522   2.521   2.978  15.884  0.2590 -0.2112 -0.1678
  924MPD2    C513523   2.526   2.851  15.834  0.0917  0.0147  0.0339
  924MPD2     H13524   2.521   2.917  16.209  0.0569 -0.7574  0.1671
  924MPD2    H113525   2.539   3.060  15.816 -0.4559 -0.3909 -0.5732
  924MPD2    H213526   2.525   2.643  15.880  0.8866 -1.0370  1.8425
  924MPD2    H313527   2.532   2.845  15.725  2.0331 -1.4122  0.2035
  924MPD2     N13528   2.508   3.149  16.065 -0.8552 -0.1973 -0.4326
  924MPD2    H513529   2.508   3.227  16.000 -0.3667  1.1497  1.1823
  924MPD2    N113530   2.514   2.664  16.146  0.0848  0.5246 -0.2803
  924MPD2    H713531   2.497   2.699  16.240  1.6339  0.0087  0.1993
  925MPD2     C13532   1.694   0.377  14.528 -0.0190  0.0506  0.0376
  925MPD2    C113533   1.558   0.372  14.534  0.0127 -0.1886  0.9406
  925MPD2    C213534   1.493   0.356  14.654  0.4700  0.0858  0.4265
  925MPD2    C313535   1.566   0.340  14.769 -0.0716 -0.0924 -0.3560
  925MPD2    C413536   1.705   0.355  14.770 -0.3586  0.0462  0.1281
  925MPD2    C513537   1.763   0.365  14.645  0.4616 -0.3124  0.1639
  925MPD2     H13538   1.386   0.358  14.644  0.1514  0.4174  4.0129
  925MPD2    H113539   1.765   0.357  14.860 -0.9802 -0.1871  0.5482
  925MPD2    H213540   1.740   0.394  14.431 -0.2530  2.5054  0.3366
  925MPD2    H313541   1.870   0.383  14.650  0.2541  1.5349 -2.0491
  925MPD2     N13542   1.515   0.318  14.900 -0.1760 -0.2224 -0.4380
  925MPD2    H513543   1.585   0.308  14.973 -2.1850 -0.1928  1.4883
  925MPD2    N113544   1.479   0.392  14.423 -0.1908  0.2831 -0.6338
  925MPD2    H713545   1.379   0.379  14.438  0.0054 -0.3272  0.1227
  926MPD2     C13546   0.141   3.722  12.753  0.7300 -0.4331 -0.3428
  926MPD2    C113547   0.058   3.735  12.861  0.9913  0.9566 -0.8064
  926MPD2    C213548   4.675   3.829  12.852  0.1861  0.6759 -0.1263
  926MPD2    C313549   4.637   3.880  12.728 -0.6973 -0.4695  0.7870
  926MPD2    C413550   4.710   3.852  12.616  0.3397 -0.2494 -0.0600
  926MPD2    C513551   0.101   3.776  12.632  0.2398 -0.0491 -0.2631
  926MPD2     H13552   4.611   3.851  12.937 -3.2174  0.2206 -2.5752
  926MPD2    H113553   4.681   3.894  12.520  0.8005 -0.7429 -0.4164
  926MPD2    H213554   0.218   3.647  12.738 -1.1334 -2.1700 -1.3868
  926MPD2    H313555   0.161   3.751  12.545 -1.8140  1.8468 -2.2122
  926MPD2     N13556   4.540   3.981  12.703  0.2075  0.3801 -0.2002
  926MPD2    H513557   4.500   3.996  12.611 -2.1177  1.2004  0.9430
  926MPD2    N113558   0.073   3.674  12.988  0.0085  0.9428 -0.1058
  926MPD2    H713559   4.713   3.689  13.050  0.4754  1.3464  0.3907
  927MPD2     C13560   4.547   1.375   0.578  0.0321  0.7518 -0.2168
  927MPD2    C113561   4.422   1.400   0.521 -0.0517  0.1022 -0.0274
  927MPD2    C213562   4.414   1.418   0.381  0.3374 -0.0947 -0.4531
  927MPD2    C313563   4.521   1.406   0.300  0.0948 -0.1959 -0.2474
  927MPD2    C413564   4.642   1.361   0.359 -0.2340  0.2738 -0.1944
  927MPD2    C513565   4.652   1.347   0.493 -0.4676 -0.0539  0.4567
  927MPD2     H13566   4.319   1.452   0.341  0.3850  0.5757  0.0004
  927MPD2    H113567   0.008   1.333   0.299  0.3393 -3.7495  2.4483
  927MPD2    H213568   4.553   1.344   0.682  0.2461 -0.7819 -0.6878
  927MPD2    H313569   0.025   1.300   0.524 -1.6461 -1.7715  1.4568
  927MPD2     N13570   4.492   1.404   0.162 -0.3625 -0.5744 -0.2953
  927MPD2    H513571   4.397   1.430   0.136  0.0024  1.2507  0.1860
  927MPD2    N113572   4.311   1.402   0.607 -0.4829  0.4827 -0.1011
  927MPD2    H713573   4.335   1.393   0.705  3.2999 -3.3266 -1.3900
  928MPD2     C13574   1.932   4.485   0.459 -0.0853 -0.1967 -0.4548
  928MPD2    C113575   1.840   4.584   0.483  1.3157  0.7077  0.6535
  928MPD2    C213576   1.881   4.714   0.466  0.4609  0.3081 -0.1259
  928MPD2    C313577   2.007   0.026   0.418 -1.1394 -1.0537 -1.0195
  928MPD2    C413578   2.091   4.641   0.385 -0.3451  0.4515 -0.0353
  928MPD2    C513579   2.056   4.510   0.409  0.2524  0.3881 -0.0096
  928MPD2     H13580   1.817   0.075   0.502 -2.6638 -1.9799 -0.5864
  928MPD2    H113581   2.196   4.664   0.367  0.8660 -3.0520  2.6652
  928MPD2    H213582   1.911   4.380   0.479  2.7734 -0.5806  0.4945
  928MPD2    H313583   2.130   4.434   0.389 -0.5713  0.4322 -3.1519
  928MPD2     N13584   2.060   0.155   0.407  0.9514  0.2254  0.6570
  928MPD2    H513585   2.135   0.159   0.338 -0.9400  2.7855 -1.2405
  928MPD2    N113586   1.715   4.545   0.539  0.6233  0.0460  0.1442
  928MPD2    H713587   1.706   4.444   0.543  0.5354  0.1209  1.8280
  929MPD2     C13588   2.251   3.519   9.547 -0.7794 -0.1155 -0.0566
  929MPD2    C113589   2.140   3.467   9.610  0.1592 -0.4355 -0.3728
  929MPD2    C213590   2.073   3.549   9.701  0.1163  0.3035  0.1687
  929MPD2    C313591   2.124   3.667   9.738 -0.3819  0.3101 -0.0939
  929MPD2    C413592   2.238   3.717   9.680 -0.3846 -0.4566 -0.7619
  929MPD2    C513593   2.304   3.637   9.586  0.4322 -0.3898  0.1883
  929MPD2     H13594   1.983   3.510   9.749 -0.1385 -0.2613 -0.7585
  929MPD2    H113595   2.278   3.813   9.709  0.3380 -0.8891 -0.3359
  929MPD2    H213596   2.315   3.463   9.480 -1.8280 -0.1382 -1.0510
  929MPD2    H313597   2.398   3.670   9.543  1.5243 -2.9143  0.6572
  929MPD2     N13598   2.062   3.750   9.844 -0.2678 -0.5659 -0.3035
  929MPD2    H513599   2.097   3.841   9.873 -0.6735  0.0813 -1.8077
  929MPD2    N113600   2.089   3.341   9.572 -0.2062 -0.5604 -0.5394
  929MPD2    H713601   2.142   3.282   9.509 -1.6291 -1.3365 -0.9972
  930MPD2     C13602   4.506   2.204  14.328 -0.3715 -0.4395 -0.3609
  930MPD2    C113603   4.426   2.187  14.213  0.0229 -0.6142  0.4162
  930MPD2    C213604   4.310   2.107  14.226 -0.0702 -0.0584  0.8532
  930MPD2    C313605   4.286   2.038  14.349  1.0788  0.6423 -0.1103
  930MPD2    C413606   4.386   2.038  14.442 -0.5785 -0.0735  0.4755
  930MPD2    C513607   4.484   2.132  14.439  0.0951 -0.1112  0.1784
  930MPD2     H13608   4.253   2.093  14.136  1.5054 -2.0161  0.1611
  930MPD2    H113609   4.357   1.993  14.536  0.3251  1.1792  1.3626
  930MPD2    H213610   4.587   2.276  14.318 -0.6527 -0.1954 -0.8840
  930MPD2    H313611   4.560   2.140  14.515  1.3412  0.7497 -1.1528
  930MPD2     N13612   4.180   1.949  14.365  0.1956 -0.9255 -0.0378
  930MPD2    H513613   4.192   1.875  14.433  1.8092  1.1037  1.9084
  930MPD2    N113614   4.465   2.250  14.094 -0.1184 -0.4434  0.0045
  930MPD2    H713615   4.546   2.311  14.106 -0.0849 -0.0946 -2.0955
  931MPD2     C13616   4.285   1.285   1.251  0.0385 -0.2100 -0.0127
  931MPD2    C113617   4.168   1.250   1.190  0.1033 -0.0874  0.1171
  931MPD2    C213618   4.094   1.149   1.245  0.2970  0.5071 -0.4597
  931MPD2    C313619   4.154   1.058   1.329  0.5093  0.2096 -0.1931
  931MPD2    C413620   4.281   1.087   1.376 -0.4215  0.2241 -0.0250
  931MPD2    C513621   4.340   1.209   1.344  0.3175 -0.3153  0.7486
  931MPD2     H13622   3.996   1.128   1.205  0.6575 -2.2267  0.0948
  931MPD2    H113623   4.334   1.023   1.446  0.0179 -0.3553 -0.9017
  931MPD2    H213624   4.347   1.366   1.214  1.8445 -0.8375  1.6415
  931MPD2    H313625   4.438   1.239   1.378  0.2241 -1.3261  1.9171
  931MPD2     N13626   4.087   0.953   1.392  0.1549  0.0188 -0.1283
  931MPD2    H513627   4.144   0.883   1.439  2.0562  1.6029 -0.0488
  931MPD2    N113628   4.132   1.323   1.069  0.4083  0.1465 -0.1408
  931MPD2    H713629   4.198   1.396   1.044 -0.1367  2.1355  4.2142
  932MPD2     C13630   1.213   0.331  11.446  0.4501 -0.0734  0.3287
  932MPD2    C113631   1.337   0.357  11.392  0.9411  0.3910  0.2799
  932MPD2    C213632   1.431   0.263  11.420  0.3073  0.2536  0.8746
  932MPD2    C313633   1.406   0.144  11.484 -0.3659 -0.3987 -0.4357
  932MPD2    C413634   1.285   0.123  11.538 -0.0462 -0.3099  0.0861
  932MPD2    C513635   1.188   0.220  11.519  0.0139  0.6225 -0.4054
  932MPD2     H13636   1.533   0.271  11.386  0.1255 -0.6089  0.1210
  932MPD2    H113637   1.246   0.036  11.590 -0.4370  1.4529  2.7331
  932MPD2    H213638   1.136   0.407  11.438  2.1839  1.4693 -1.8916
  932MPD2    H313639   1.096   0.212  11.576 -0.4332  0.7207 -1.1042
  932MPD2     N13640   1.503   0.048  11.511  0.3348  0.0383 -0.0017
  932MPD2    H513641   1.479   4.697  11.581  0.0445 -0.9820 -1.1299
  932MPD2    N113642   1.371   0.470  11.316  0.0391  0.5270 -0.1923
  932MPD2    H713643   1.462   0.465  11.272 -0.8212 -0.6421 -1.8406
  933MPD2     C13644   1.111   0.283   0.697  0.4741 -0.5181  0.1973
  933MPD2    C113645   1.085   0.152   0.744 -0.0776  0.2989  0.1969
  933MPD2    C213646   0.971   0.125   0.817  0.0505  0.5967  0.4699
  933MPD2    C313647   0.885   0.216   0.858 -0.1648  0.0077  0.4320
  933MPD2    C413648   0.910   0.347   0.812 -0.0506 -0.0692  0.5456
  933MPD2    C513649   1.021   0.377   0.733  0.2867 -0.3182 -0.4713
  933MPD2     H13650   0.947   0.026   0.855 -1.8802  0.7944 -0.2391
  933MPD2    H113651   0.854   0.431   0.853 -1.9110 -0.9930 -0.0954
  933MPD2    H213652   1.200   0.307   0.641  0.4985 -0.9031  0.0728
  933MPD2    H313653   1.041   0.477   0.698  1.5496 -0.1914  0.6293
  933MPD2     N13654   0.790   0.182   0.956 -0.0656  0.1649  0.5988
  933MPD2    H513655   0.810   0.089   0.992  0.3374  0.0908  0.1843
  933MPD2    N113656   1.174   0.054   0.708  0.0918 -0.6934  0.0020
  933MPD2    H713657   1.249   0.086   0.648 -0.1042  0.5725  0.4391
  934MPD2     C13658   2.996   3.329   1.306  0.6230  0.1048 -0.2024
  934MPD2    C113659   3.051   3.234   1.385 -0.5091 -0.4305 -0.3937
  934MPD2    C213660   2.980   3.118   1.407  0.1170 -0.6888  0.3949
  934MPD2    C313661   2.844   3.093   1.364 -0.3843 -0.0239  1.0208
  934MPD2    C413662   2.787   3.194   1.290  0.3003 -0.0464  0.0573
  934MPD2    C513663   2.866   3.307   1.264 -0.2181  0.0889 -0.0866
  934MPD2     H13664   3.035   3.050   1.471  2.6872  0.1818 -0.8592
  934MPD2    H113665   2.683   3.186   1.262 -0.1911 -1.1236  2.1567
  934MPD2    H213666   3.034   3.427   1.280  1.1054 -0.5328 -1.8840
  934MPD2    H313667   2.818   3.386   1.208  0.4935 -0.7433 -1.8475
  934MPD2     N13668   2.773   2.972   1.385 -0.1716 -1.0772  0.7168
  934MPD2    H513669   2.680   2.964   1.345 -0.2627  1.1842  0.4775
  934MPD2    N113670   3.176   3.250   1.456  0.1809 -0.1954 -0.2011
  934MPD2    H713671   3.206   3.171   1.512  1.8246  0.6623  0.1410
  935MPD2     C13672   2.908   2.232   2.076 -0.1191  0.2318 -0.3849
  935MPD2    C113673   2.840   2.172   1.969 -0.3102 -0.6537  0.4339
  935MPD2    C213674   2.809   2.259   1.868 -0.6043 -0.0416  0.5190
  935MPD2    C313675   2.844   2.390   1.854 -0.0626  0.1246 -0.6041
  935MPD2    C413676   2.925   2.440   1.958 -0.7143  0.1296  0.1138
  935MPD2    C513677   2.960   2.355   2.062  0.5513 -0.3644  0.2792
  935MPD2     H13678   2.759   2.213   1.783 -0.9860 -0.0006  0.7208
  935MPD2    H113679   2.961   2.543   1.956  0.1153 -0.1680 -0.3272
  935MPD2    H213680   2.918   2.170   2.164  2.3732 -0.8185 -1.4217
  935MPD2    H313681   3.014   2.405   2.142  1.5059 -0.8445 -0.0566
  935MPD2     N13682   2.808   2.473   1.744  0.4890  0.6776 -0.3007
  935MPD2    H513683   2.841   2.569   1.740 -1.9473  1.5638  0.5415
  935MPD2    N113684   2.798   2.037   1.965 -0.3270  0.0445  0.7008
  935MPD2    H713685   2.741   2.014   1.884 -0.5679  1.2937  0.5125
  936MPD2     C13686   2.691   3.173  12.267 -0.4360  0.8445  0.1151
  936MPD2    C113687   2.703   3.190  12.405 -0.1191  0.5774 -0.1262
  936MPD2    C213688   2.824   3.203  12.463  0.5742  0.0453  0.1318
  936MPD2    C313689   2.944   3.198  12.388  0.3306  0.0738 -0.2608
  936MPD2    C413690   2.930   3.193  12.249  0.1527  0.1200  0.5455
  936MPD2    C513691   2.807   3.175  12.195  0.1107  0.7297 -0.3033
  936MPD2     H13692   2.829   3.219  12.570 -0.9990  0.2852  0.1827
  936MPD2    H113693   3.015   3.194  12.182 -0.0227 -0.4223  0.3167
  936MPD2    H213694   2.595   3.152  12.222 -1.1201 -0.5504  2.2383
  936MPD2    H313695   2.801   3.157  12.088  2.3043 -0.5582 -0.2218
  936MPD2     N13696   3.071   3.201  12.444  0.0967 -0.5017  0.5162
  936MPD2    H513697   3.148   3.218  12.381 -0.6271  0.8399 -0.0048
  936MPD2    N113698   2.594   3.192  12.489 -0.8227 -0.3226  0.3955
  936MPD2    H713699   2.616   3.230  12.581 -0.7108  1.2069 -0.2760
  937MPD2     C13700   4.506   4.285  11.421 -0.1599  0.1206  1.3486
  937MPD2    C113701   4.567   4.410  11.450  0.0760 -0.2260  0.9685
  937MPD2    C213702   4.669   4.443  11.367 -0.1262 -0.2172  0.4208
  937MPD2    C313703   0.019   4.355  11.284  0.1718  0.2798  0.2341
  937MPD2    C413704   4.681   4.227  11.271  0.0244 -0.4915  0.6247
  937MPD2    C513705   4.558   4.196  11.331  0.8103 -0.0901  0.1942
  937MPD2     H13706   4.715   4.541  11.379  2.4076 -1.2995 -0.5267
  937MPD2    H113707   0.004   4.152  11.205 -0.0254  1.5123 -1.6772
  937MPD2    H213708   4.414   4.264  11.475 -0.1081 -1.8940  0.6696
  937MPD2    H313709   4.517   4.097  11.312 -1.5008  0.7063  0.9513
  937MPD2     N13710   0.137   4.399  11.215 -0.5234 -0.0303 -0.1901
  937MPD2    H513711   0.190   4.482  11.238  0.2429 -0.3225 -0.9045
  937MPD2    N113712   4.498   4.508  11.524  0.1034  0.1963  0.4876
  937MPD2    H713713   4.541   4.599  11.521  0.9012 -0.1612  0.9560
  938MPD2     C13714   2.041   1.727   1.947 -0.3368  0.5976 -0.1926
  938MPD2    C113715   2.003   1.662   1.834 -0.3676  0.4524  0.1242
  938MPD2    C213716   1.884   1.589   1.830 -0.7585  0.2832  0.7367
  938MPD2    C313717   1.807   1.576   1.948  0.3575 -0.1291  0.0478
  938MPD2    C413718   1.850   1.643   2.062  0.4919 -0.1298  0.1780
  938MPD2    C513719   1.959   1.717   2.052 -0.0694  0.4255 -1.3851
  938MPD2     H13720   1.863   1.539   1.737  0.1885  2.3705 -0.5895
  938MPD2    H113721   1.803   1.636   2.160  0.9189 -0.6100  0.3429
  938MPD2    H213722   2.121   1.800   1.952  1.1097 -1.0258  0.5062
  938MPD2    H313723   1.992   1.772   2.140 -0.0505 -1.7349 -0.0423
  938MPD2     N13724   1.687   1.502   1.952 -0.1137  0.1433 -0.1893
  938MPD2    H513725   1.640   1.521   2.039 -0.6196  0.5734 -0.5572
  938MPD2    N113726   2.080   1.663   1.718 -0.0489  0.5401 -0.0721
  938MPD2    H713727   2.050   1.600   1.644  1.6473 -2.1638  1.5401
  939MPD2     C13728   0.183   3.061   1.167  0.1228 -0.1947  0.4723
  939MPD2    C113729   0.090   3.136   1.094 -0.7217  0.2444 -0.4336
  939MPD2    C213730   0.104   3.149   0.965  0.2247 -0.1269  0.0602
  939MPD2    C313731   0.216   3.099   0.898  0.1827 -0.4014  0.4223
  939MPD2    C413732   0.312   3.033   0.970 -0.0522  0.5735  0.5550
  939MPD2    C513733   0.294   3.006   1.101 -0.1242  1.0500  0.5756
  939MPD2     H13734   0.034   3.219   0.920 -0.4044  0.9383  2.7502
  939MPD2    H113735   0.400   2.984   0.931 -2.8120 -0.3351 -4.5298
  939MPD2    H213736   0.164   3.048   1.273 -0.3153  0.0323  0.4239
  939MPD2    H313737   0.365   2.954   1.163 -3.3205 -2.6677  1.1128
  939MPD2     N13738   0.223   3.114   0.760 -0.1747  0.4388 -0.1511
  939MPD2    H513739   0.136   3.152   0.724  0.4866  1.0826 -1.0596
  939MPD2    N113740   4.688   3.184   1.156 -0.6753  0.5621 -0.4308
  939MPD2    H713741   4.627   3.228   1.088 -1.3979 -1.4725 -1.1044
  940MPD2     C13742   2.723   2.924  13.269  0.3057 -0.5725  0.1794
  940MPD2    C113743   2.623   2.981  13.195  0.0691 -0.2608  0.2147
  940MPD2    C213744   2.645   2.976  13.054  0.1956 -0.0005 -0.0111
  940MPD2    C313745   2.754   2.911  12.993  0.0023  0.3496  0.2239
  940MPD2    C413746   2.853   2.874  13.074  0.4484  0.9151  0.2370
  940MPD2    C513747   2.835   2.874  13.211 -0.5353 -0.4102  0.2251
  940MPD2     H13748   2.579   3.019  12.979  0.5598 -0.4079 -0.5665
  940MPD2    H113749   2.946   2.828  13.041 -1.6826 -2.8948 -0.4271
  940MPD2    H213750   2.707   2.924  13.377  0.4733 -2.8764  0.2078
  940MPD2    H313751   2.904   2.828  13.281 -1.7344 -0.2951  1.4814
  940MPD2     N13752   2.775   2.885  12.857  0.5915 -0.2361 -0.1119
  940MPD2    H513753   2.868   2.853  12.833  0.4355  0.5256 -1.7526
  940MPD2    N113754   2.516   3.057  13.260  0.3466 -0.0091  1.0051
  940MPD2    H713755   2.445   3.097  13.199  0.8331  0.7276  0.9112
  941MPD2     C13756   2.195   2.448   8.966 -0.4318 -0.5028  0.2192
  941MPD2    C113757   2.249   2.370   9.058  0.0740  0.1216 -0.7064
  941MPD2    C213758   2.164   2.290   9.130  0.1677  0.4847  0.0436
  941MPD2    C313759   2.021   2.300   9.107 -0.0245 -0.1178  0.6100
  941MPD2    C413760   1.977   2.378   8.999 -0.1756 -0.2105  0.3428
  941MPD2    C513761   2.064   2.431   8.915  0.1528  0.3027  0.6313
  941MPD2     H13762   2.201   2.218   9.203  0.5197  1.2145  0.5858
  941MPD2    H113763   1.874   2.386   8.965  0.2212  0.9740 -0.5605
  941MPD2    H213764   2.263   2.502   8.901  1.0324  0.9500  2.9832
  941MPD2    H313765   2.027   2.502   8.842 -0.1700 -0.8604 -0.3480
  941MPD2     N13766   1.920   2.219   9.172 -0.6079 -0.4351  0.6145
  941MPD2    H513767   1.822   2.235   9.151 -0.3891 -0.0958 -0.1441
  941MPD2    N113768   2.386   2.361   9.095 -0.1596 -0.1728  0.3129
  941MPD2    H713769   2.418   2.329   9.186  0.0338  0.4356  0.4641
  942MPD2     C13770   1.968   3.392   8.719 -0.0246 -1.0082 -0.2782
  942MPD2    C113771   2.084   3.342   8.665  0.3873  0.6050  0.3731
  942MPD2    C213772   2.174   3.271   8.745  0.0879 -0.5298  0.0798
  942MPD2    C313773   2.146   3.251   8.876  0.1854 -0.3329 -0.5888
  942MPD2    C413774   2.030   3.303   8.928 -0.3862 -0.3351  0.5002
  942MPD2    C513775   1.942   3.368   8.853  0.4185  0.2055  0.2210
  942MPD2     H13776   2.262   3.241   8.688  1.4132  2.0593  0.7577
  942MPD2    H113777   2.014   3.295   9.035 -0.9946  2.0454  0.5857
  942MPD2    H213778   1.887   3.441   8.667 -0.8354 -2.0194  0.0412
  942MPD2    H313779   1.849   3.399   8.899  0.7185 -1.2017  1.8043
  942MPD2     N13780   2.217   3.172   8.963  0.3931 -0.1879  0.0204
  942MPD2    H513781   2.182   3.163   9.058 -1.1483  0.4522 -0.4728
  942MPD2    N113782   2.121   3.372   8.528 -0.1941 -0.6007  0.5276
  942MPD2    H713783   2.204   3.331   8.486 -0.5081  0.2342 -0.9176
  943MPD2     C13784   4.484   1.870   9.831 -0.3127  0.0073 -0.7364
  943MPD2    C113785   4.611   1.817   9.861  0.2840 -0.2521  0.9973
  943MPD2    C213786   4.709   1.814   9.767 -0.2916  0.2141  0.8364
  943MPD2    C313787   4.689   1.881   9.648 -0.0520  0.4587  0.4737
  943MPD2    C413788   4.565   1.945   9.613 -0.3962 -0.8139 -0.1527
  943MPD2    C513789   4.466   1.927   9.706 -0.2559  0.2840  0.3712
  943MPD2     H13790   0.082   1.758   9.778 -0.6918 -0.9236 -1.5404
  943MPD2    H113791   4.544   1.993   9.518  0.1342  0.8187  0.5574
  943MPD2    H213792   4.405   1.864   9.904 -0.1206  1.6575 -0.3972
  943MPD2    H313793   4.365   1.962   9.686  0.7302  0.5951 -4.1041
  943MPD2     N13794   0.064   1.880   9.543 -0.3292  0.5974 -0.2117
  943MPD2    H513795   0.025   1.914   9.456 -1.0426 -0.9711 -0.4896
  943MPD2    N113796   4.638   1.755   9.991 -0.1831 -0.0022 -0.3791
  943MPD2    H713797   4.560   1.743  10.054 -0.9241  1.9561 -0.9051
  944MPD2     C13798   4.529   0.723  11.170 -0.0388 -0.3192  0.1228
  944MPD2    C113799   4.604   0.830  11.126 -0.7128  0.0701  0.5222
  944MPD2    C213800   4.638   0.924  11.223 -0.7013 -0.0013 -0.3137
  944MPD2    C313801   4.607   0.908  11.355 -0.2530 -0.2855  0.6199
  944MPD2    C413802   4.541   0.792  11.393 -0.1077  0.3151 -0.2554
  944MPD2    C513803   4.494   0.705  11.299  0.7495  0.7258 -0.4565
  944MPD2     H13804   4.686   1.016  11.193  0.3870 -0.2182  0.7572
  944MPD2    H113805   4.520   0.772  11.497  2.7473 -1.3449  0.0112
  944MPD2    H213806   4.508   0.648  11.095  1.3637  0.1442 -0.7323
  944MPD2    H313807   4.444   0.614  11.331 -0.7424  1.3769 -0.9581
  944MPD2     N13808   4.643   1.007  11.442  0.4808 -0.7314 -0.0373
  944MPD2    H513809   4.711   1.073  11.405 -1.5139  1.1448 -0.3664
  944MPD2    N113810   4.630   0.839  10.988 -0.4546  0.1778  0.3318
  944MPD2    H713811   4.584   0.777  10.922  1.1660 -0.7053  0.0227
    1TCq1    O113812   3.199   2.477  13.957 -0.1367 -0.0224  0.0079
    1TCq1    C113813   3.292   2.438  13.871 -0.4293 -0.1240 -0.0199
    1TCq1    O213814   3.276   2.377  13.767 -0.2024  0.3188 -0.5374
    1TCq1    C213815   3.407   2.394  13.956  0.0394  0.5305  0.3358
    1TCq1    C313816   3.416   2.259  13.980  0.2715  0.5034  0.0086
    1TCq1    C413817   3.498   2.217  14.081  0.0527 -0.6248  0.2322
    1TCq1    C513818   3.585   2.307  14.140 -0.3892  0.4946 -0.5302
    1TCq1    C613819   3.575   2.437  14.104  0.3910  1.1637  0.0304
    1TCq1    C713820   3.485   2.487  14.016  0.5166 -0.1679  0.6798
    1TCq1    C813821   3.634   2.533  14.196  0.3607 -0.5817 -0.6668
    1TCq1    O413822   3.742   2.505  14.243 -0.2958  0.6873 -0.4819
    1TCq1    C913823   3.498   2.084  14.125 -0.1104 -0.6583 -0.5662
    1TCq1    O513824   3.435   1.997  14.062  0.0603  0.2417 -0.8304
    1TCq1    O613825   3.558   2.069  14.235  0.2168 -0.1486 -0.1465
    1TCq1    H113826   3.240   2.530  14.028  0.3117  0.5884 -0.7036
    1TCq1    H213827   3.345   2.198  13.925  0.5475  0.5417 -0.3893
    1TCq1    H313828   3.658   2.275  14.214  0.0549  1.0104 -0.7500
    1TCq1    H413829   3.500   2.582  13.966 -2.0132 -1.3603 -2.3034
    2MPD2     C13830   3.603   2.942  14.505 -0.3668 -0.0457 -0.3268
    2MPD2    C113831   3.500   2.952  14.417 -0.0911  0.3554  0.0029
    2MPD2    C213832   3.491   2.847  14.324 -0.2637 -0.0540  0.1398
    2MPD2    C313833   3.580   2.738  14.320  0.1732 -0.1213 -0.2392
    2MPD2    C413834   3.679   2.731  14.411 -0.3505 -0.3008  0.0345
    2MPD2    C513835   3.687   2.832  14.504  0.2116  0.1690 -0.0426
    2MPD2     H13836   3.400   2.845  14.266 -0.2736 -1.1908  0.2001
    2MPD2    H113837   3.735   2.642  14.435  0.1210 -0.2851 -1.0022
    2MPD2    H213838   3.614   3.026  14.573 -1.9534  0.5745 -0.8339
    2MPD2    H313839   3.763   2.818  14.580 -0.8680  2.7532  1.4920
    2MPD2     N13840   3.555   2.645  14.222 -0.9674 -0.0322 -0.1913
    2MPD2    H513841   3.468   2.649  14.169 -0.7157  3.9656 -0.2549
    2MPD2    N113842   3.417   3.070  14.422  0.1411  0.3853  0.1309
    2MPD2    H713843   3.433   3.129  14.503 -1.5736 -1.0959  1.5579
    3TMC2    C113844   3.241   3.219  14.371 -0.4515  0.3956  0.0874
    3TMC2    C213845   3.310   3.321  14.433 -0.2975 -0.3784 -0.3713
    3TMC2    C313846   3.279   3.455  14.410 -0.1400  0.4680 -0.1625
    3TMC2    C413847   3.129   3.248  14.298  0.3251  0.4088  0.1617
    3TMC2    C513848   3.100   3.379  14.284 -0.3251 -0.0958 -0.4063
    3TMC2    C613849   3.170   3.485  14.340  0.0773 -0.2037 -0.1089
    3TMC2     C13850   3.312   3.098  14.340 -0.2982  0.0857  0.0263
    3TMC2     O13851   3.279   3.047  14.237 -0.3956  0.2006  0.2153
    3TMC2     H13852   3.397   3.291  14.489  0.6959  1.8548 -0.7377
    3TMC2    H113853   3.062   3.177  14.250  0.3689 -0.3865  1.2724
    3TMC2    H213854   3.135   3.588  14.333  1.9312  0.5120  1.1306
    3TMC2    C713855   3.013   3.416  14.173  0.3428 -0.4706  0.3806
    3TMC2    C813856   3.342   3.564  14.489  0.0496 -0.4660 -0.3298
    3TMC2    O113857   2.910   3.354  14.145  0.6713  0.2351 -0.2170
    3TMC2    O213858   3.266   3.630  14.561 -0.7103 -0.2819 -0.0633
    3TMC2    O513859   3.445   3.498  14.540 -0.3969 -0.0217 -0.0829
    3TMC2    H513860   3.505   3.465  14.469  0.4800  2.4046 -0.4615
    4MPD2     C13861   3.002   4.372  13.124  0.3627  0.1662 -0.0715
    4MPD2    C113862   2.977   4.238  13.154 -0.3807  0.6881  0.2598
    4MPD2    C213863   3.031   4.185  13.270  0.9927  0.0535 -0.0406
    4MPD2    C313864   3.108   4.258  13.350  0.1133  0.2343 -0.4505
    4MPD2    C413865   3.127   4.391  13.325  0.0669 -0.2914 -0.3860
    4MPD2    C513866   3.077   4.448  13.211  0.0902 -0.1983 -0.0958
    4MPD2     H13867   3.020   4.079  13.290 -2.2682 -0.1063 -2.6896
    4MPD2    H113868   3.179   4.457  13.393 -0.5572  0.3309 -0.5185
    4MPD2    H213869   2.967   4.430  13.040  0.4837 -0.2805 -0.4265
    4MPD2    H313870   3.106   4.546  13.175  0.2341 -0.5667 -0.9803
    4MPD2     N13871   3.174   4.187  13.447  0.1863 -0.0355 -0.4585
    4MPD2    H513872   3.151   4.090  13.460  1.2683  0.0417  1.9898
    4MPD2    N113873   2.892   4.171  13.070  0.4575  0.5170 -0.2270
    4MPD2    H713874   2.872   4.197  12.974 -2.5842 -2.7374 -0.4921
    5TCq2    C113875   3.294   4.235  13.503 -0.2718  0.1268 -0.3754
    5TCq2    O213876   3.358   4.335  13.472 -0.2120 -0.3998 -0.0130
    5TCq2    C213877   3.357   4.147  13.601  0.0273  1.1097  0.1202
    5TCq2    C313878   3.490   4.154  13.590  0.2659 -0.7295  0.0475
    5TCq2    C413879   3.563   4.066  13.664 -0.1755 -0.1644  0.6088
    5TCq2    C513880   3.499   3.968  13.737 -0.9171 -0.0525 -0.2952
    5TCq2    C613881   3.361   3.963  13.746  0.3183  0.0546  0.1601
    5TCq2    C713882   3.283   4.055  13.672 -0.0986  0.0632 -0.7684
    5TCq2    C813883   3.293   3.846  13.811 -0.1623 -0.3409 -0.0936
    5TCq2    O413884   3.364   3.760  13.858  0.4987 -0.3676 -1.0717
    5TCq2    C913885   3.704   4.055  13.633  0.3615  0.5480  0.8122
    5TCq2    O513886   3.761   4.152  13.581  0.2555  0.3233 -0.1545
    5TCq2    O613887   3.745   3.940  13.613 -0.6622  0.6278  0.5806
    5TCq2    H213888   3.543   4.216  13.519 -1.0104  0.3634  0.0394
    5TCq2    H313889   3.557   3.898  13.796  2.3643  0.2443 -3.1706
    5TCq2    H413890   3.176   4.065  13.680 -0.0085 -0.0324  0.4725
    6MPD1     C13891   2.506   4.641  12.226 -0.0131 -0.5244  0.0225
    6MPD1    C113892   2.372   4.619  12.248 -0.3635 -0.1986  0.4465
    6MPD1    C213893   2.323   4.491  12.246 -0.4930  0.0622  0.1413
    6MPD1    C313894   2.410   4.382  12.224 -0.1713 -0.2019 -0.0158
    6MPD1    C413895   2.544   4.402  12.199 -0.3015  0.1153 -0.4921
    6MPD1    C513896   2.590   4.536  12.199  0.5051  0.1018  0.4592
    6MPD1     H13897   2.217   4.488  12.265 -0.3097 -1.0065  0.9983
    6MPD1    H113898   2.609   4.320  12.171 -1.0156  0.2067 -2.3654
    6MPD1    H213899   2.548   0.022  12.227 -1.3689  0.0097  2.7775
    6MPD1    H313900   2.692   4.567  12.175  0.7118 -0.8482  0.1259
    6MPD1     N13901   2.358   4.251  12.216 -0.0902 -0.5073  1.1297
    6MPD1    H513902   2.425   4.176  12.209  1.7012  1.2457 -0.5018
    6MPD1    N113903   2.293   0.012  12.288 -0.0766  0.5765 -0.3254
    6MPD1    H613904   2.336   0.099  12.259 -0.6940  1.0501  0.1898
    6MPD1    H713905   2.194   0.007  12.266  0.3584  0.0535 -2.1368
    7MPD2     C13906   2.083   3.793  12.791 -0.1654 -0.1241 -0.4111
    7MPD2    C113907   2.190   3.772  12.711  0.8700 -0.0881 -0.1834
    7MPD2    C213908   2.317   3.747  12.762 -0.5718  0.6166 -0.2808
    7MPD2    C313909   2.338   3.755  12.897  0.1523  0.8364 -0.4591
    7MPD2    C413910   2.233   3.786  12.977 -0.2845 -0.3439 -0.3172
    7MPD2    C513911   2.112   3.816  12.922  0.0236 -0.2149 -0.1164
    7MPD2     H13912   2.404   3.722  12.703  1.4940  0.4753  2.8063
    7MPD2    H113913   2.240   3.783  13.085  0.2981  0.5058 -0.3356
    7MPD2    H213914   1.983   3.806  12.750 -0.4748 -1.8019 -0.1719
    7MPD2    H313915   2.034   3.835  12.994 -1.6036 -3.4984 -1.0410
    7MPD2     N13916   2.471   3.745  12.961 -0.0424 -0.1645  0.7624
    7MPD2    H513917   2.479   3.776  13.057  0.7314  0.2308  0.5704
    7MPD2    N113918   2.185   3.792  12.568 -0.0620  0.0821  0.3318
    7MPD2    H713919   2.277   3.786  12.525  0.0027 -2.3932  0.8319
    8TMC3    C113920   2.711   3.751  12.955 -0.0046  0.4565  0.4566
    8TMC3    C213921   2.703   3.862  13.027 -0.5092 -0.2440 -0.3743
    8TMC3    C313922   2.779   3.972  12.993 -0.1999 -0.3145 -0.0859
    8TMC3    C413923   2.817   3.733  12.871 -0.0884 -0.0404  0.4206
    8TMC3    C513924   2.882   3.845  12.833  0.4631  0.0859  0.3973
    8TMC3    C613925   2.859   3.968  12.890  0.0795  0.0762 -0.4950
    8TMC3     C13926   2.586   3.713  12.890 -0.3507 -0.3708  0.1658
    8TMC3     O13927   2.596   3.652  12.787  0.3781 -0.2081  0.1494
    8TMC3     H13928   2.650   3.857  13.121 -1.5341  1.8810 -0.8411
    8TMC3    H113929   2.840   3.639  12.821  1.7918  0.6349  0.0064
    8TMC3    H213930   2.917   4.054  12.858 -0.2484 -0.7568 -3.3442
    8TMC3    C713931   2.882   3.855  12.691 -0.0667  0.9201 -0.1330
    8TMC3    C813932   2.830   4.049  13.103  0.1911 -0.3757 -0.1510
    8TMC3    O113933   2.864   3.967  12.641  0.1382  0.5456 -0.1482
    8TMC3    O213934   2.806   4.003  13.214 -0.7675 -0.1808 -0.4768
    9TMC3    C113935   2.216   4.070  12.243  0.3642  0.1580  0.0512
    9TMC3    C213936   2.310   3.993  12.180  0.1772 -0.7252 -0.7740
    9TMC3    C313937   2.322   3.864  12.221 -0.2660 -0.0579 -0.4172
    9TMC3    C413938   2.126   4.020  12.328  0.5091 -0.2603 -0.1962
    9TMC3    C513939   2.137   3.888  12.367  0.0311 -0.3327  0.3971
    9TMC3    C613940   2.238   3.812  12.317 -0.2363  0.0466 -0.1764
    9TMC3     C13941   2.234   4.214  12.257 -0.4323  0.5440  0.1294
    9TMC3     O13942   2.136   4.278  12.290  0.5916 -0.7608 -0.3669
    9TMC3     H13943   2.391   4.034  12.121  0.6806 -2.7189 -1.4742
    9TMC3    H113944   2.060   4.079  12.391  0.0020  1.2990 -2.1912
    9TMC3    H213945   2.265   3.712  12.350  1.8377  0.8278  0.4957
    9TMC3    C713946   2.079   3.853  12.499  0.2377 -0.0285 -0.0324
    9TMC3    C813947   2.454   3.800  12.205 -0.0529  0.1306  0.5577
    9TMC3    O113948   1.983   3.916  12.546  0.0345  0.3834 -0.2739
    9TMC3    O213949   2.494   3.782  12.088 -0.1322  0.0621 -0.6859
   10MPD2     C13950   2.881   3.623  12.417 -0.2146 -0.0127 -0.1263
   10MPD2    C113951   2.828   3.711  12.504 -0.1858 -0.1349 -0.0578
   10MPD2    C213952   2.715   3.776  12.455 -0.0379 -0.1655  0.4351
   10MPD2    C313953   2.649   3.740  12.343 -0.4720 -0.1389 -0.4725
   10MPD2    C413954   2.702   3.646  12.261  1.1932 -1.0065 -0.0513
   10MPD2    C513955   2.822   3.594  12.297  0.6780  0.0770 -0.6933
   10MPD2     H13956   2.667   3.853  12.514  0.6590 -0.6141  1.5877
   10MPD2    H113957   2.654   3.605  12.173 -0.6456  2.0868 -0.5236
   10MPD2    H213958   2.981   3.584  12.435 -0.4353 -0.7223 -0.4308
   10MPD2    H313959   2.869   3.523  12.231  0.6842 -0.4161 -0.1588
   10MPD2     N13960   2.528   3.801  12.313 -0.4650  0.4145  0.0733
   10MPD2    H513961   2.492   3.850  12.395 -2.5062 -0.5737 -0.2463
   10MPD2    N113962   2.898   3.738  12.622 -0.6817 -0.3131  0.7578
   10MPD2    H713963   2.953   3.661  12.659  1.5273  1.6352  1.4669
   11MPD2     C13964   2.882   3.616  13.975 -0.1642 -0.2668 -0.8667
   11MPD2    C113965   3.011   3.604  14.014  0.2734 -0.7154  0.2215
   11MPD2    C213966   3.100   3.685  13.959 -0.1647 -0.5037  0.2705
   11MPD2    C313967   3.067   3.768  13.849 -0.2604  0.5287 -0.4875
   11MPD2    C413968   2.941   3.781  13.803 -0.5072 -0.3317 -0.6770
   11MPD2    C513969   2.842   3.708  13.874  0.1815 -0.2396  0.0221
   11MPD2     H13970   3.203   3.682  13.993  1.0749 -0.1552 -3.3983
   11MPD2    H113971   2.904   3.844  13.723 -0.0119  1.8726  0.8201
   11MPD2    H213972   2.805   3.558  14.025  0.1870 -0.7613 -0.8995
   11MPD2    H313973   2.739   3.710  13.841  0.5085 -2.2476 -1.1391
   11MPD2     N13974   3.160   3.855  13.789 -0.2834 -0.2805 -0.1274
   11MPD2    H513975   3.138   3.920  13.714  0.3687  0.7656  0.5653
   11MPD2    N113976   3.063   3.528  14.116  0.5532 -0.5086 -0.0363
   11MPD2    H713977   3.158   3.554  14.142  0.0525  1.1393  0.1383
    1MPD1     C13978   4.547   0.825  16.638 -0.0889  1.2576  0.6181
    1MPD1    C113979   4.534   0.921  16.547 -0.6251  0.5463 -0.3510
    1MPD1    C213980   4.650   0.969  16.484 -0.7981 -0.2954 -0.0658
    1MPD1    C313981   0.058   0.922  16.523 -0.2884 -0.0908  0.1016
    1MPD1    C413982   0.068   0.830  16.631 -0.5024 -0.9428 -0.1206
    1MPD1    C513983   4.674   0.786  16.687 -0.5514  0.2184 -0.8945
    1MPD1     H13984   4.640   1.034  16.397  0.3412 -0.2088 -0.1251
    1MPD1    H113985   0.160   0.789  16.669  0.1097  1.3509  0.8265
    1MPD1    H213986   4.460   0.776  16.679  0.9966  1.1506  2.8167
    1MPD1    H313987   4.687   0.705  16.759 -1.3281  0.2273 -0.7441
    1MPD1     N13988   0.183   0.963  16.469  0.5032  0.1379  0.3743
    1MPD1    H513989   0.265   0.933  16.521  0.7543 -0.7458 -0.5398
    1MPD1    N113990   4.407   0.962  16.508  0.1152  0.2213  0.7165
    1MPD1    H613991   4.333   0.944  16.576 -0.4450 -2.3206 -0.6020
    1MPD1    H713992   4.391   1.062  16.495 -0.3104 -0.0755 -1.0252
    2MPD1     C13993   1.173   0.856  16.500 -0.3190 -0.0769  0.1604
    2MPD1    C113994   1.168   0.952  16.407  0.2221  0.0682 -0.6597
    2MPD1    C213995   1.045   0.990  16.368 -0.8995  0.3102 -0.0452
    2MPD1    C313996   0.926   0.940  16.426 -0.2389 -0.0790 -0.7172
    2MPD1    C413997   0.939   0.858  16.534  0.0415 -0.7495  0.4003
    2MPD1    C513998   1.065   0.811  16.564  0.2659  0.7360 -0.1744
    2MPD1     H13999   1.035   1.057  16.283 -0.3219 -1.3142 -1.3828
    2MPD1    H114000   0.858   0.803  16.581 -1.6675  1.8256  0.4809
    2MPD1    H214001   1.269   0.816  16.530  1.3826  2.3135 -2.1245
    2MPD1    H314002   1.071   0.738  16.644 -0.8285 -1.0679 -1.7472
    2MPD1     N14003   0.798   0.985  16.372  0.3015 -0.5529 -1.0360
    2MPD1    H514004   0.804   1.046  16.290  0.2181  1.5706  0.5293
    2MPD1    N114005   1.283   0.970  16.330 -0.2778  0.1854 -0.0617
    2MPD1    H614006   1.272   1.057  16.278 -0.2107  0.5966  0.6037
    2MPD1    H714007   1.370   0.963  16.383 -0.4280  0.5913  0.2451
    3TMC3    C114008   0.556   1.005  16.347  0.0403 -0.1385  0.3425
    3TMC3    C214009   0.587   1.032  16.221  0.0232  0.2323 -0.4571
    3TMC3    C314010   0.481   1.089  16.151  0.4739 -0.7456 -1.2038
    3TMC3    C414011   0.432   1.022  16.402 -0.0977 -0.6732 -0.1129
    3TMC3    C514012   0.328   1.068  16.327 -0.7340  1.1953 -0.1683
    3TMC3    C614013   0.347   1.106  16.197 -0.4947 -0.4523 -0.4712
    3TMC3     C14014   0.667   0.957  16.426  0.6827  0.2258 -0.5314
    3TMC3     O14015   0.636   0.892  16.525 -0.1826 -0.2733 -0.1037
    3TMC3     H14016   0.679   0.998  16.174 -1.5493 -2.8479 -1.2997
    3TMC3    H114017   0.423   1.015  16.510  0.4766 -0.0743 -0.0245
    3TMC3    H214018   0.277   1.154  16.130 -1.7974 -1.1902  0.3651
    3TMC3    C714019   0.193   1.036  16.361  0.4502  0.1913 -0.6685
    3TMC3    C814020   0.515   1.089  16.007 -0.8437 -0.2781 -0.1034
    3TMC3    O114021   0.113   1.073  16.277  0.1107  0.3170  0.0516
    3TMC3    O214022   0.633   1.075  15.978 -0.2657 -0.0091 -0.1454
    4MPD1     C14023   0.386   1.189  15.523  0.2492 -0.4516  0.1037
    4MPD1    C114024   0.272   1.181  15.593 -0.4425  0.7167 -0.0113
    4MPD1    C214025   0.282   1.161  15.727 -0.6117  0.9285 -0.7221
    4MPD1    C314026   0.399   1.145  15.792 -0.2963  0.2574  0.1609
    4MPD1    C414027   0.512   1.137  15.713  0.0516 -0.4024 -0.0441
    4MPD1    C514028   0.502   1.181  15.583  0.3018  0.6279 -0.6460
    4MPD1     H14029   0.182   1.150  15.770 -0.9562  0.2446 -1.6925
    4MPD1    H114030   0.609   1.132  15.762  0.8160  0.0065 -1.5422
    4MPD1    H214031   0.394   1.198  15.415  0.4710 -0.4022  0.1243
    4MPD1    H314032   0.593   1.188  15.524 -0.0318  0.1222 -1.2312
    4MPD1     N14033   0.405   1.119  15.929  0.1345 -0.6101 -0.4915
    4MPD1    H514034   0.315   1.114  15.976  0.0087  0.2367 -0.6323
    4MPD1    N114035   0.148   1.183  15.528 -0.0533  0.7322 -0.2547
    4MPD1    H614036   0.147   1.237  15.442  3.5139 -1.6516 -1.8128
    4MPD1    H714037   0.073   1.221  15.585  0.8391 -1.8913  2.6756
    1TCq1    O114038   1.690   4.705  12.232  0.6591 -0.5405 -0.0252
    1TCq1    C114039   1.556   4.684  12.221  0.2393 -0.3803 -0.1549
    1TCq1    O214040   1.495   4.610  12.148 -0.2374 -0.2183 -0.0372
    1TCq1    C214041   1.491   0.066  12.296 -0.2148  0.1846 -0.1804
    1TCq1    C314042   1.379   0.109  12.244 -0.5045 -0.9133  1.0715
    1TCq1    C414043   1.285   0.178  12.313  0.0058  0.1856 -0.8618
    1TCq1    C514044   1.322   0.221  12.435 -0.3321  0.0441 -0.4899
    1TCq1    C614045   1.438   0.168  12.495  0.1961 -0.7310  0.1000
    1TCq1    C714046   1.520   0.084  12.428 -0.1662 -0.4325  0.3999
    1TCq1    C814047   1.455   0.197  12.635 -0.0766  0.5878 -0.3564
    1TCq1    O414048   1.375   0.268  12.696  0.0464  0.3708 -0.4527
    1TCq1    C914049   1.189   0.258  12.247  0.1798 -0.4173 -0.4920
    1TCq1    O514050   1.180   0.245  12.121  0.3061  0.1118 -0.7939
    1TCq1    O614051   1.119   0.347  12.302  0.3625  0.1021  0.1112
    1TCq1    H114052   1.712   0.080  12.247  4.7153 -1.0524 -2.6647
    1TCq1    H214053   1.389   0.120  12.137  2.0087  1.5692  1.5561
    1TCq1    H314054   1.263   0.294  12.490  1.8620 -1.0215  3.3244
    1TCq1    H414055   1.591   0.016  12.473  1.7695  1.7486  0.6278
    2MPD1     C14056   1.690   0.059  13.073 -0.0229 -0.2326 -0.0797
    2MPD1    C114057   1.769   0.016  12.973  1.4561  0.3564 -0.1846
    2MPD1    C214058   1.717   0.032  12.843  0.2423  0.3005  0.0040
    2MPD1    C314059   1.605   0.118  12.816 -0.0346  0.0293  0.1445
    2MPD1    C414060   1.541   0.171  12.921 -0.3261  0.6436 -0.5761
    2MPD1    C514061   1.586   0.145  13.052  0.0818  0.1249 -0.0674
    2MPD1     H14062   1.767   4.707  12.758 -0.9386 -1.9236  0.4621
    2MPD1    H114063   1.454   0.235  12.908 -0.2662  0.6209 -1.0623
    2MPD1    H214064   1.707   0.043  13.179  0.4935  0.1667 -0.1027
    2MPD1    H314065   1.538   0.181  13.142 -1.7822  2.1781 -1.8877
    2MPD1     N14066   1.564   0.127  12.682 -0.2298 -0.1487 -0.6597
    2MPD1    H514067   1.630   0.091  12.613  0.1436  0.7432 -0.7657
    2MPD1    N114068   1.877   4.641  12.990 -0.1177 -0.1176 -0.6124
    2MPD1    H614069   1.948   4.650  12.919 -0.8704 -1.7776 -1.5808
    2MPD1    H714070   1.926   4.646  13.079 -2.6864 -0.1090  0.8215
    1TCq1    O114071   0.085   3.389   1.623 -0.1784  0.2270 -0.2919
    1TCq1    C114072   0.097   3.523   1.627 -0.0585  0.2433 -0.1471
    1TCq1    O214073   0.022   3.601   1.573  0.1497 -0.8280  0.1782
    1TCq1    C214074   0.237   3.541   1.612 -0.6991  0.4411 -0.0078
    1TCq1    C314075   0.320   3.488   1.707  0.2274  0.3169 -0.0943
    1TCq1    C414076   0.454   3.530   1.695 -0.3195  0.5773 -0.4384
    1TCq1    C514077   0.502   3.599   1.590 -0.0910  0.4076 -0.0950
    1TCq1    C614078   0.406   3.656   1.514 -0.4086 -0.8281  0.0051
    1TCq1    C714079   0.277   3.623   1.515 -0.0792 -0.0292  0.1440
    1TCq1    C814080   0.455   3.708   1.386 -0.7261 -0.4254  0.4665
    1TCq1    O414081   0.558   3.650   1.350 -0.8565 -0.1305  0.3471
    1TCq1    C914082   0.544   3.453   1.773  0.0826 -0.0801  0.5615
    1TCq1    O514083   0.507   3.348   1.827 -0.2848  0.0049 -0.1894
    1TCq1    O614084   0.658   3.503   1.782  0.7578  0.2295 -0.1817
    1TCq1    H114085   0.167   3.335   1.622  0.4508  1.1892  0.2765
    1TCq1    H214086   0.279   3.447   1.798 -2.2238 -0.6827 -1.6493
    1TCq1    H314087   0.606   3.627   1.578 -0.3485  2.7886  3.1403
    1TCq1    H414088   0.205   3.656   1.441  2.7348  1.2947 -2.0013
    2MPD1     C14089   0.289   3.864   0.926 -0.2414  0.0541 -0.3596
    2MPD1    C114090   0.217   3.929   1.024 -0.0761  0.4525  0.1493
    2MPD1    C214091   0.242   3.901   1.155  0.2759 -0.3940  0.7210
    2MPD1    C314092   0.346   3.821   1.194  0.3893 -0.1082  0.4851
    2MPD1    C414093   0.420   3.752   1.096  0.7853  0.5217 -0.6210
    2MPD1    C514094   0.393   3.785   0.964  0.0135 -0.6216  0.7149
    2MPD1     H14095   0.170   3.934   1.229 -2.2920  0.4868 -2.1600
    2MPD1    H114096   0.506   3.688   1.111  0.6351  0.4663  0.0116
    2MPD1    H214097   0.270   3.883   0.820  0.9525 -0.8831 -0.7415
    2MPD1    H314098   0.441   3.725   0.887 -3.3468 -2.7852  0.2910
    2MPD1     N14099   0.366   3.796   1.332 -0.2873  0.5040  0.0481
    2MPD1    H514100   0.293   3.844   1.383 -0.5054 -0.6237  0.8114
    2MPD1    N114101   0.096   3.987   0.991 -0.2934  0.3092  0.5573
    2MPD1    H614102   0.094   4.026   0.897  0.9416  0.5465  0.6259
    2MPD1    H714103   0.072   4.066   1.050  2.0630  2.3857 -1.2374
    1MPD1     C14104   3.895   4.205  12.567  0.0741  0.1732 -0.0724
    1MPD1    C114105   3.932   4.123  12.463  0.5566 -0.4384 -0.1397
    1MPD1    C214106   3.881   4.157  12.338 -0.8658  0.5650 -0.5005
    1MPD1    C314107   3.801   4.269  12.319 -0.2663 -0.6148 -0.3240
    1MPD1    C414108   3.773   4.349  12.429  0.3851  0.4520  0.2030
    1MPD1    C514109   3.816   4.314  12.550  0.1931 -0.5450  0.1944
    1MPD1     H14110   3.910   4.103  12.248  0.9527  0.1954  0.3099
    1MPD1    H114111   3.707   4.435  12.420 -0.5850 -0.3927 -0.7829
    1MPD1    H214112   3.909   4.183  12.672 -1.3213  1.7364  0.4401
    1MPD1    H314113   3.789   4.374  12.637  0.1037  0.0367 -0.2342
    1MPD1     N14114   3.742   4.297  12.188  0.2231 -0.1060  0.2779
    1MPD1    H514115   3.779   4.246  12.109  0.9519 -0.5661  0.9172
    1MPD1    N114116   4.003   4.005  12.482 -0.4245  0.1292  0.2962
    1MPD1    H614117   4.034   3.991  12.578  2.7889 -0.3333 -0.8055
    1MPD1    H714118   4.078   3.992  12.413 -2.7842  0.5981 -2.3404
    2MPD1     C14119   2.960   3.967  11.371  0.3952 -0.1629 -0.0737
    2MPD1    C114120   2.860   3.895  11.305  0.8524  0.1473 -0.4197
    2MPD1    C214121   2.867   3.898  11.170 -0.3309  0.5599 -0.5417
    2MPD1    C314122   2.969   3.963  11.099 -0.1321 -0.0125  0.3603
    2MPD1    C414123   3.062   4.029  11.172  0.8793 -0.2241  1.0827
    2MPD1    C514124   3.061   4.021  11.309 -0.1715  0.4159  0.2778
    2MPD1     H14125   2.786   3.846  11.121  0.1597 -0.6367 -0.0886
    2MPD1    H114126   3.148   4.078  11.128  0.3992 -0.4055 -0.0483
    2MPD1    H214127   2.972   3.983  11.478 -0.5308 -4.6603  0.7025
    2MPD1    H314128   3.137   4.069  11.369  0.5835  0.6435 -0.8585
    2MPD1     N14129   2.975   3.980  10.954  0.3908  0.2547  0.1740
    2MPD1    H514130   3.045   4.046  10.920  0.4047  0.5582  0.7958
    2MPD1    N114131   2.739   3.863  11.368  0.4781 -0.0813 -0.1431
    2MPD1    H614132   2.694   3.781  11.328 -1.4981  1.4768 -1.0990
    2MPD1    H714133   2.751   3.837  11.466  1.0732 -2.6174 -0.8980
    3MPD1     C14134   2.412   3.492  10.263  0.4809 -0.3989 -0.0652
    3MPD1    C114135   2.359   3.579  10.360  0.3206 -0.1085 -0.6609
    3MPD1    C214136   2.452   3.663  10.420 -0.5629  0.0299  0.0521
    3MPD1    C314137   2.589   3.654  10.392  0.7011 -0.8769 -0.2788
    3MPD1    C414138   2.632   3.566  10.296  0.3974 -0.2226  0.0081
    3MPD1    C514139   2.546   3.476  10.239  0.5472 -0.3222  0.0531
    3MPD1     H14140   2.420   3.744  10.485  0.8004 -0.0969  0.8640
    3MPD1    H114141   2.732   3.573  10.257  0.9169 -1.3086  1.1416
    3MPD1    H214142   2.351   3.433  10.195  0.3886 -1.0208  0.5481
    3MPD1    H314143   2.578   3.422  10.151 -0.6310  0.2441 -0.7239
    3MPD1     N14144   2.682   3.735  10.463  0.2727  1.3304  0.0333
    3MPD1    H514145   2.641   3.786  10.540  0.6132  0.7358  0.6094
    3MPD1    N114146   2.220   3.593  10.361 -0.0225 -0.1186 -0.3067
    3MPD1    H614147   2.172   3.504  10.355  0.8944 -0.6522  0.3777
    3MPD1    H714148   2.196   3.628  10.453  1.7188  0.4658 -0.0749
    4MPD2     C14149   3.128   4.632  11.617  0.0400  0.3058 -0.9418
    4MPD2    C114150   3.262   4.657  11.601  0.2691 -0.5657 -0.4601
    4MPD2    C214151   3.313   4.692  11.483 -0.0953 -0.8967  0.7481
    4MPD2    C314152   3.223   4.704  11.371 -0.4102 -0.0904  0.0121
    4MPD2    C414153   3.087   4.678  11.388  0.2043 -0.0689  0.2457
    4MPD2    C514154   3.043   4.636  11.512  0.6393  0.3518 -0.0405
    4MPD2     H14155   3.418   4.714  11.469 -0.4175 -0.8891 -1.7081
    4MPD2    H114156   3.009   4.679  11.313  0.3170  1.1716  0.1354
    4MPD2    H214157   3.086   4.603  11.713  0.4614 -0.9616 -1.1371
    4MPD2    H314158   2.937   4.631  11.537  0.2191  5.0926 -0.8311
    4MPD2     N14159   3.278   0.026  11.244 -0.2466 -0.0252  1.0554
    4MPD2    H514160   3.379   0.038  11.248 -0.2393  0.9582 -2.3183
    4MPD2    N114161   3.356   4.633  11.700 -0.3073 -0.1911 -0.1136
    4MPD2    H714162   3.452   4.653  11.674 -0.5594 -0.1938 -1.0821
    5TMC3    C114163   3.476   4.505  11.839 -0.4120  0.0205 -0.6847
    5TMC3    C214164   3.502   4.471  11.973  0.4993 -0.0402  0.5035
    5TMC3    C314165   3.621   4.413  12.010 -0.3488 -0.2478 -0.0683
    5TMC3    C414166   3.561   4.467  11.742  0.2883  0.7205  0.4443
    5TMC3    C514167   3.678   4.403  11.777 -0.4003  0.8373 -0.8008
    5TMC3    C614168   3.710   4.369  11.909 -0.2286  0.5249 -0.1619
    5TMC3     C14169   3.344   4.552  11.809  0.2854  0.6628 -0.1389
    5TMC3     O14170   3.243   4.503  11.864 -0.3351  0.0246  0.4206
    5TMC3     H14171   3.434   4.496  12.054  0.8150  0.9614  0.4538
    5TMC3    H114172   3.536   4.479  11.637  1.5661 -1.0624 -0.0554
    5TMC3    H214173   3.811   4.337  11.930 -1.2839 -2.1060  0.7921
    5TMC3    C714174   3.787   4.408  11.674  0.1505  0.2601  0.9110
    5TMC3    C814175   3.652   4.396  12.149 -0.2420 -0.1898 -0.1389
    5TMC3    O114176   3.873   4.319  11.666  0.3961 -0.4544 -0.0672
    5TMC3    O214177   3.596   4.478  12.223 -0.0089  0.1415 -0.3691
    6TMC3    C114178   2.913   3.931  10.729  0.3046 -0.6698 -0.0845
    6TMC3    C214179   2.833   3.855  10.649 -0.2874 -0.6652  0.4577
    6TMC3    C314180   2.873   3.851  10.517  0.1274  0.0419 -0.6454
    6TMC3    C414181   3.014   4.012  10.683 -0.7821 -0.1629  0.3331
    6TMC3    C514182   3.045   4.001  10.555  0.2894 -0.4374 -0.3997
    6TMC3    C614183   2.981   3.924  10.473  0.3712 -0.4711  0.3985
    6TMC3     C14184   2.901   3.899  10.867 -0.4785 -0.0659 -0.0714
    6TMC3     O14185   2.847   3.793  10.884  0.2966  1.0921 -0.2529
    6TMC3     H14186   2.745   3.799  10.682 -0.6070  0.0554  0.8296
    6TMC3    H114187   3.069   4.083  10.744 -0.4008  0.0366 -0.2441
    6TMC3    H214188   3.006   3.918  10.368 -0.6361 -1.8383  0.2395
    6TMC3    C714189   3.167   4.060  10.505  0.9047  0.0253 -0.5579
    6TMC3    C814190   2.812   3.754  10.426  0.5524 -0.4082 -0.2940
    6TMC3    O114191   3.208   4.024  10.397  0.5489 -0.3373  0.0819
    6TMC3    O214192   2.873   3.738  10.323  0.5738 -0.1339 -0.1285
    7MPD2     C14193   3.949   4.590  11.222  0.2315  1.0263  0.1530
    7MPD2    C114194   3.821   4.644  11.252  0.3335 -0.0619 -0.3809
    7MPD2    C214195   3.766   4.609  11.380  0.1016 -0.5293  0.0701
    7MPD2    C314196   3.841   4.538  11.472  0.0860 -0.1475  0.8224
    7MPD2    C414197   3.954   4.474  11.428 -0.2760  0.0296 -0.4291
    7MPD2    C514198   4.009   4.504  11.308 -0.2003 -0.2336  0.0993
    7MPD2     H14199   3.670   4.646  11.416  0.6135  1.0301 -0.1706
    7MPD2    H114200   4.004   4.388  11.472 -0.1131  0.3517  0.0186
    7MPD2    H214201   4.002   4.607  11.129 -0.6238 -0.7088 -0.6535
    7MPD2    H314202   4.103   4.462  11.272 -0.7693 -0.5593 -1.0247
    7MPD2     N14203   3.766   4.510  11.590  0.1663  0.5061  0.5997
    7MPD2    H514204   3.685   4.570  11.595 -0.4852 -0.3133 -0.2408
    7MPD2    N114205   3.744   4.710  11.157  0.7831 -0.0054  0.3440
    7MPD2    H714206   3.783   0.010  11.066  1.0491  0.3819  0.5391
    8TMC3    C114207   3.554   0.089  11.057 -0.2442  0.1186  0.0359
    8TMC3    C214208   3.554   4.702  10.969 -0.8403 -0.4535  0.2490
    8TMC3    C314209   3.434   4.675  10.913  0.6519 -0.7491  0.4456
    8TMC3    C414210   3.435   0.147  11.092  0.0081 -0.0706  0.1279
    8TMC3    C514211   3.317   0.112  11.036  0.5622  0.3135 -0.1260
    8TMC3    C614212   3.317   0.029  10.934 -0.4666  0.9042  0.1323
    8TMC3     C14213   3.620   0.051  11.180 -0.5841  0.3240  0.0758
    8TMC3     O14214   3.554   0.053  11.283  0.0518 -0.6601 -0.8214
    8TMC3     H14215   3.644   4.643  10.953  0.0046  1.6306 -2.7285
    8TMC3    H114216   3.423   0.207  11.181  1.5689  1.3014 -0.5812
    8TMC3    H214217   3.229   4.713  10.882  1.5159 -1.6274 -1.5080
    8TMC3    C714218   3.212   0.064  11.129 -0.1549  0.4624  0.0352
    8TMC3    C814219   3.408   4.540  10.863  0.2138  0.2804  0.1226
    8TMC3    O114220   3.095   0.048  11.104  0.0095  0.7507  0.0210
    8TMC3    O214221   3.309   4.486  10.913  0.0363  0.1165  0.2389
    9MPD2     C14222   3.557   4.399  10.556 -0.2496  0.0463  0.0754
    9MPD2    C114223   3.478   4.398  10.672  0.1506 -0.1928 -1.0384
    9MPD2    C214224   3.376   4.308  10.680 -1.0058  0.5631 -0.0940
    9MPD2    C314225   3.342   4.223  10.575 -0.3428  0.0479  0.3216
    9MPD2    C414226   3.430   4.215  10.463 -0.8367  0.2037 -0.2721
    9MPD2    C514227   3.540   4.299  10.465 -0.2740  0.0375  0.0621
    9MPD2     H14228   3.302   4.321  10.759 -2.3410  2.2925 -1.6204
    9MPD2    H114229   3.424   4.131  10.394  1.7308 -0.9874  0.9507
    9MPD2    H214230   3.635   4.471  10.535 -2.1748  1.8081 -1.0313
    9MPD2    H314231   3.600   4.302  10.375 -0.4014 -1.2287 -0.0540
    9MPD2     N14232   3.227   4.144  10.597  0.2051  0.4142 -0.3538
    9MPD2    H514233   3.167   4.169  10.675 -0.2306 -0.1182 -0.5205
    9MPD2    N114234   3.488   4.510  10.755 -0.5378 -0.8369 -0.4147
    9MPD2    H714235   3.539   4.590  10.717  0.7414 -1.0255  0.9005
    1MPD1     C14236   2.868   2.866  17.082 -0.0170 -0.2394 -0.9055
    1MPD1    C114237   2.743   2.890  17.133 -0.6316  0.1154  0.2714
    1MPD1    C214238   2.719   3.024  17.159 -0.4819  0.1504  0.0234
    1MPD1    C314239   2.798   3.127  17.102  0.7558  0.6614  0.2446
    1MPD1    C414240   2.914   3.099  17.047 -0.2638  0.0043 -0.1152
    1MPD1    C514241   2.946   2.965  17.034  0.4237  1.3429 -0.2883
    1MPD1     H14242   2.629   3.045  17.216  1.3227  0.1343  2.8537
    1MPD1    H114243   2.984   3.174  17.011 -0.5532  0.2005 -0.2720
    1MPD1    H214244   2.917   2.769  17.083 -2.0488 -1.2513 -0.2078
    1MPD1    H314245   3.039   2.939  16.984 -0.6878  0.3024 -1.8237
    1MPD1     N14246   2.763   3.260  17.105  0.4099  0.0341  0.1429
    1MPD1    H514247   2.830   3.330  17.074 -2.1161  2.1363 -0.5845
    1MPD1    N114248   2.673   2.789  17.204 -0.0985  0.7440  0.3215
    1MPD1    H614249   2.579   2.822  17.223 -0.0743  2.5212 -2.6728
    1MPD1    H714250   2.669   2.704  17.148  1.7274  0.6326  0.3387
    2MPD1     C14251   3.178   4.053  16.761 -0.2171  0.5259 -0.0449
    2MPD1    C114252   3.072   4.108  16.811 -0.4082  0.0892 -0.2201
    2MPD1    C214253   2.982   4.036  16.881 -0.5063  0.1328  0.4596
    2MPD1    C314254   3.001   3.904  16.900 -0.3897 -0.4857  0.3403
    2MPD1    C414255   3.117   3.847  16.856  0.4405  0.6042  0.3184
    2MPD1    C514256   3.202   3.927  16.784 -0.1946 -0.5334  0.5149
    2MPD1     H14257   2.888   4.079  16.915 -1.9620 -0.1689 -3.1535
    2MPD1    H114258   3.144   3.742  16.855  2.7337  1.1898  0.8072
    2MPD1    H214259   3.246   4.115  16.704  0.6224  0.6758  1.1025
    2MPD1    H314260   3.294   3.882  16.749 -0.2405 -1.3737  1.4633
    2MPD1     N14261   2.905   3.841  16.984  0.3743  0.0335  0.1429
    2MPD1    H514262   2.824   3.898  17.006  0.8545  0.8561 -0.2166
    2MPD1    N114263   3.043   4.237  16.766  0.1513  0.3911  0.4809
    2MPD1    H614264   2.982   4.291  16.826 -2.4043 -0.0196 -1.7258
    2MPD1    H714265   3.131   4.289  16.760  0.8257 -1.0390 -2.2272
    3TCq2    C114266   2.902   3.704  17.013 -0.7319  0.5601 -0.4394
    3TCq2    O214267   2.999   3.629  17.020 -0.4879 -0.0264  0.2092
    3TCq2    C214268   2.772   3.653  17.077  0.2264 -0.2554  0.0671
    3TCq2    C314269   2.656   3.714  17.040  0.1912 -0.3996  0.2723
    3TCq2    C414270   2.538   3.647  17.064 -0.0862 -0.5921 -0.0897
    3TCq2    C514271   2.526   3.524  17.116 -0.2459  0.1779  0.9200
    3TCq2    C614272   2.645   3.459  17.137  0.0720 -0.0050  0.1128
    3TCq2    C714273   2.768   3.521  17.114 -0.1220  0.1336 -0.7602
    3TCq2    C814274   2.645   3.312  17.141  0.6029 -0.2382 -1.0148
    3TCq2    O414275   2.543   3.265  17.191  0.4505 -0.2732  0.6116
    3TCq2    C914276   2.419   3.720  17.035  0.2804  0.4206  0.7188
    3TCq2    O514277   2.420   3.848  17.023  0.1858 -0.1169  0.3510
    3TCq2    O614278   2.318   3.646  17.030  0.2278 -0.2650 -0.4430
    3TCq2    H214279   2.644   3.814  17.001  2.2039  0.2746  1.3933
    3TCq2    H314280   2.432   3.475  17.137 -0.1148  0.5963  2.4840
    3TCq2    H414281   2.861   3.473  17.141 -0.5656  0.0803  0.6867
    1TCq1    O114282   0.433   2.279  12.292  0.8824 -0.1323 -0.1325
    1TCq1    C114283   0.514   2.277  12.187 -0.7528  0.7985 -0.5726
    1TCq1    O214284   0.486   2.287  12.069 -0.1792  0.3147  0.2074
    1TCq1    C214285   0.644   2.320  12.234  0.3835 -0.1615  1.0216
    1TCq1    C314286   0.691   2.271  12.357  0.3559  0.1587 -0.2664
    1TCq1    C414287   0.814   2.314  12.399  0.2729 -0.1793  0.1479
    1TCq1    C514288   0.881   2.414  12.337  0.5452  1.2801  0.3013
    1TCq1    C614289   0.833   2.448  12.212  0.1847 -0.2738 -0.1886
    1TCq1    C714290   0.714   2.402  12.153 -0.4624 -0.3799 -0.2734
    1TCq1    C814291   0.898   2.544  12.122  0.2895  0.1065 -0.3685
    1TCq1    O414292   0.832   2.580  12.024 -0.4667  0.2959  0.0008
    1TCq1    C914293   0.896   2.257  12.506 -0.4971  0.0218 -0.4581
    1TCq1    O514294   0.834   2.180  12.582 -0.0695 -0.0147  0.0260
    1TCq1    O614295   1.014   2.250  12.480 -0.2828 -0.3260 -0.5665
    1TCq1    H114296   0.466   2.317  12.376 -1.1942 -1.3062  1.2134
    1TCq1    H214297   0.640   2.197  12.417 -1.5117  1.9743  0.3769
    1TCq1    H314298   0.982   2.446  12.360  1.0293  0.4245 -0.6158
    1TCq1    H414299   0.681   2.418  12.050  1.7761  2.0092 -0.6282
    2MPD2     C14300   1.078   2.744  11.984  0.4791  0.0389  0.4733
    2MPD2    C114301   1.100   2.692  12.110 -0.0312  0.1563  0.2523
    2MPD2    C214302   1.209   2.735  12.185  0.7692  0.7172 -1.0459
    2MPD2    C314303   1.294   2.830  12.136 -0.1938 -0.0198 -0.1635
    2MPD2    C414304   1.266   2.882  12.015  0.0764 -0.7674  0.2022
    2MPD2    C514305   1.164   2.839  11.942 -0.0365  0.0992 -0.1752
    2MPD2     H14306   1.223   2.693  12.283 -0.8573 -0.9866 -1.5370
    2MPD2    H114307   1.317   2.968  11.972 -1.0288  0.8962  2.2578
    2MPD2    H214308   0.987   2.730  11.926  0.2263 -3.4193  1.7246
    2MPD2    H314309   1.150   2.891  11.847  3.1768 -0.4345 -0.9403
    2MPD2     N14310   1.396   2.875  12.219 -0.2441  0.4557 -0.3355
    2MPD2    H514311   1.380   2.858  12.318  1.4316  2.4806  0.2957
    2MPD2    N114312   1.019   2.597  12.171  0.3582  0.0522 -0.2295
    2MPD2    H714313   1.057   2.563  12.259  0.1473 -1.2232 -0.6291
    3TCq1    O114314   1.970   3.155  12.448 -0.3556  0.4164 -0.0215
    3TCq1    C114315   1.881   3.148  12.350 -0.7990  0.0069  0.3535
    3TCq1    O214316   1.864   3.247  12.284  0.1868  0.0092 -0.7162
    3TCq1    C214317   1.786   3.048  12.382  0.5565  0.0703  0.0732
    3TCq1    C314318   1.800   2.954  12.475 -0.0454  0.1380  0.2463
    3TCq1    C414319   1.695   2.867  12.488  0.8906  0.0441  0.1522
    3TCq1    C514320   1.587   2.868  12.404  0.3182 -0.0860  0.3581
    3TCq1    C614321   1.596   2.955  12.303  0.9964  0.5382  0.2705
    3TCq1    C714322   1.679   3.058  12.301 -0.0909  0.3617  0.9986
    3TCq1    C814323   1.513   2.941  12.181  0.2305 -0.3526  0.2027
    3TCq1    O414324   1.541   3.001  12.077 -0.2398 -0.5993  0.4829
    3TCq1    C914325   1.697   2.770  12.587  0.5687  0.1917  0.2484
    3TCq1    O514326   1.809   2.741  12.637  0.4315  0.2410 -0.0641
    3TCq1    O614327   1.597   2.694  12.595 -0.2176 -0.2826  0.1664
    3TCq1    H114328   1.958   3.078  12.508 -1.4451  0.6969  0.1225
    3TCq1    H214329   1.900   2.935  12.513 -0.3061 -0.5682  0.5709
    3TCq1    H314330   1.513   2.791  12.417 -2.1776  1.9346 -1.8420
    3TCq1    H414331   1.669   3.129  12.220  0.2996  0.0703  0.6924
    1MPD2     C14332   1.363   3.978  14.277  0.2538  0.4848  0.3288
    1MPD2    C114333   1.295   3.943  14.398 -0.4974 -0.0985 -0.0215
    1MPD2    C214334   1.169   3.872  14.387  0.4864  0.2906 -0.0198
    1MPD2    C314335   1.102   3.865  14.262 -0.7212  0.9115  0.6109
    1MPD2    C414336   1.177   3.897  14.150  0.1689  0.1355  0.1120
    1MPD2    C514337   1.306   3.956  14.152 -0.7418 -0.4883 -0.2415
    1MPD2     H14338   1.128   3.835  14.480  1.3651 -1.2517 -0.2405
    1MPD2    H114339   1.130   3.902  14.053 -1.2897  0.3559  0.8445
    1MPD2    H214340   1.464   4.019  14.275  0.1954  0.5566 -1.0007
    1MPD2    H314341   1.363   3.974  14.061  2.4563  3.0437  2.4239
    1MPD2     N14342   0.966   3.829  14.253  0.7998 -0.0624 -0.2204
    1MPD2    H514343   0.923   3.830  14.161  0.6204  1.2439 -0.1186
    1MPD2    N114344   1.357   3.980  14.519 -0.9269 -0.0610  0.4220
    1MPD2    H714345   1.446   4.029  14.513 -0.3181 -0.8764  2.7510
    2TMC3    C114346   1.363   4.016  14.754  0.6154  0.8522  0.1781
    2TMC3    C214347   1.300   3.975  14.866 -0.8525 -0.2527  0.0345
    2TMC3    C314348   1.239   4.060  14.947  0.1257 -0.6003 -0.1092
    2TMC3    C414349   1.370   4.153  14.726  0.0738 -0.1879 -0.5433
    2TMC3    C514350   1.314   4.239  14.813 -0.2237  0.0624  1.1861
    2TMC3    C614351   1.241   4.191  14.920 -0.0106  0.5518  0.9066
    2TMC3     C14352   1.308   3.946  14.644 -0.2983 -0.3191  0.1391
    2TMC3     O14353   1.211   3.881  14.676 -0.4415 -0.0381  0.0080
    2TMC3     H14354   1.275   3.872  14.887 -0.5059 -0.1571  0.9158
    2TMC3    H114355   1.438   4.196  14.652 -2.4125  1.2148 -2.0207
    2TMC3    H214356   1.177   4.261  14.972  0.6073  0.2268  2.1181
    2TMC3    C714357   1.250   4.352  14.763 -0.1477 -0.1389 -0.2903
    2TMC3    C814358   1.113   4.012  15.004  0.0419 -0.0442  0.5613
    2TMC3    O114359   1.131   4.340  14.736 -0.0758  0.2139  0.0995
    2TMC3    O214360   1.062   4.090  15.083 -0.8585  0.6280  0.5412
    3TCq1    O114361   1.847   0.297  13.917 -0.0879 -0.0674 -0.1303
    3TCq1    C114362   1.902   0.340  14.031 -0.0792  0.4548  0.3860
    3TCq1    O214363   1.979   0.436  14.031 -0.2084  0.1337 -0.1925
    3TCq1    C214364   1.860   0.263  14.147 -0.1489 -0.2516 -0.3637
    3TCq1    C314365   1.944   0.249  14.247 -0.4598  0.2558  0.9119
    3TCq1    C414366   1.910   0.161  14.354 -0.3411 -0.3434 -0.0886
    3TCq1    C514367   1.793   0.102  14.356 -0.2025 -0.5570  0.1663
    3TCq1    C614368   1.705   0.122  14.253  0.6682  0.1854 -0.2081
    3TCq1    C714369   1.735   0.206  14.144 -0.2309 -0.3973  0.1631
    3TCq1    C814370   1.570   0.055  14.259 -0.2715  0.3043  0.1260
    3TCq1    O414371   1.499   0.067  14.159 -0.5710 -0.7059 -0.0485
    3TCq1    C914372   1.994   0.147  14.474  0.6152  0.2563  0.3901
    3TCq1    O514373   2.103   0.213  14.478  1.1645 -0.3897 -0.0884
    3TCq1    O614374   1.942   0.070  14.562  0.0491 -0.6247  0.1903
    3TCq1    H114375   1.802   0.210  13.924 -1.3782  0.8688  3.1397
    3TCq1    H214376   2.035   0.307  14.255 -0.2748 -0.1010  1.4849
    3TCq1    H314377   1.758   0.055  14.448 -1.2167 -1.1697 -0.5244
    3TCq1    H414378   1.665   0.219  14.063  1.0954  2.3306 -0.5676
    4MPD2     C14379   1.315   4.632  14.331  0.7180 -0.2782 -0.0046
    4MPD2    C114380   1.432   4.636  14.404  0.0736 -0.0090  0.4922
    4MPD2    C214381   1.439   4.562  14.523 -1.3638 -0.2369  0.1688
    4MPD2    C314382   1.332   4.497  14.576 -0.0462  0.4994  0.1597
    4MPD2    C414383   1.211   4.512  14.512 -0.0945  0.7661  0.0722
    4MPD2    C514384   1.210   4.572  14.387 -0.0712 -0.9502  0.5481
    4MPD2     H14385   1.534   4.549  14.574 -1.2017  0.9724  0.1707
    4MPD2    H114386   1.115   4.482  14.553  0.1926  0.9983  0.9107
    4MPD2    H214387   1.306   4.694  14.243 -1.7959 -0.1968  0.3117
    4MPD2    H314388   1.110   4.572  14.345  0.0194 -3.0795  0.3502
    4MPD2     N14389   1.350   4.419  14.690  0.2165 -0.1855  0.1788
    4MPD2    H514390   1.445   4.411  14.725  1.1051 -0.9555 -2.4657
    4MPD2    N114391   1.541   4.717  14.380  0.0791 -0.1910 -0.2215
    4MPD2    H714392   1.616   4.710  14.448 -0.9365 -0.4404  0.8788
    5TMC2    C114393   0.568   3.742  14.488 -0.0167 -0.3685  0.6677
    5TMC2    C214394   0.539   3.628  14.421 -0.2684  0.1897 -0.4364
    5TMC2    C314395   0.616   3.585  14.315 -0.1801 -0.1851 -0.5024
    5TMC2    C414396   0.665   3.824  14.437 -0.1811  1.0586  0.0344
    5TMC2    C514397   0.751   3.777  14.338 -0.4869 -0.8395  0.0750
    5TMC2    C614398   0.727   3.656  14.273  0.2393  0.5473  0.0400
    5TMC2     C14399   0.569   3.723  14.624  0.7972 -0.0405  0.9544
    5TMC2     O14400   0.470   3.696  14.681 -0.1030  0.0551  0.2419
    5TMC2     H14401   0.474   3.560  14.475 -0.4590 -1.2976 -2.5899
    5TMC2    H114402   0.710   3.914  14.477  1.1648  0.0118  0.8738
    5TMC2    H214403   0.794   3.617  14.197  0.5634  1.4629 -0.1371
    5TMC2    C714404   0.891   3.802  14.367 -0.4398  0.0413 -0.6409
    5TMC2    C814405   0.625   3.444  14.282 -0.2586 -0.3398  0.6352
    5TMC2    O114406   0.915   3.812  14.485  0.1121 -0.0015 -0.8302
    5TMC2    O214407   0.721   3.405  14.220 -0.0728  0.0169  0.9158
    5TMC2    O514408   0.507   3.388  14.293  0.3995  0.2269  0.0006
    5TMC2    H514409   0.439   3.450  14.328 -0.7997 -0.6422 -0.7835
    6MPD2     C14410   0.845   3.894  15.043 -0.4452 -0.3073 -1.1016
    6MPD2    C114411   0.920   3.893  14.926  0.0601 -0.3793 -0.5162
    6MPD2    C214412   0.864   3.829  14.817  0.5920 -0.3626 -0.2293
    6MPD2    C314413   0.736   3.778  14.807 -0.1345 -0.7738 -0.4404
    6MPD2    C414414   0.654   3.790  14.920 -0.9057  0.2172 -0.5768
    6MPD2    C514415   0.710   3.852  15.037  0.6131  0.2644  0.4160
    6MPD2     H14416   0.925   3.832  14.727 -0.1276 -2.3068 -0.7694
    6MPD2    H114417   0.551   3.755  14.916 -1.3701  1.5421 -0.0777
    6MPD2    H214418   0.890   3.925  15.136 -0.0332 -0.7910 -1.1393
    6MPD2    H314419   0.649   3.849  15.127  1.0153  2.1787  0.7578
    6MPD2     N14420   0.694   3.750  14.675  0.3361 -0.2042  0.4784
    6MPD2    H514421   0.764   3.780  14.608  2.4173  1.0026  3.1506
    6MPD2    N114422   1.052   3.940  14.911 -0.2339  0.1600 -0.2911
    6MPD2    H714423   1.102   3.923  14.824  2.0950 -2.2982  1.5214
  945NH4     N114424   2.168   1.174   2.552 -0.4826  0.1516  0.4151
  945NH4     H214425   2.074   1.206   2.519 -0.4526 -0.7206 -0.5172
  945NH4     H314426   2.215   1.127   2.472 -0.9850  2.0117 -0.9707
  945NH4     H414427   2.149   1.103   2.625  1.6924  0.3077  1.1089
  945NH4     H514428   2.223   1.252   2.592  0.2275  0.4893 -1.2271
  946SOD     NA14429   1.881   4.283  10.447  0.4179 -0.2203  0.1249
  947SOD     NA14430   1.634   3.374  14.551  0.6123 -0.2702  0.2511
  948SOD     NA14431   0.052   0.896   2.483 -0.1273 -0.3944 -0.0225
  949SOD     NA14432   3.540   1.700  13.839  0.3499 -0.4281 -0.3508
  950SOD     NA14433   1.495   1.759   0.814 -0.0665 -0.2681  0.1677
  951SOD     NA14434   0.392   1.271  10.435 -0.0198 -0.1813  0.0433
  952SOD     NA14435   2.556   3.669  15.646  0.2715  0.1845  0.1748
  953SOD     NA14436   4.542   0.088  14.698  0.3608  0.2027  0.2401
  954SOD     NA14437   3.696   1.857  15.446  0.2206 -0.1681 -0.6376
  955SOD     NA14438   0.693   0.156   7.872  0.3581  0.9024 -0.2612
  956SOD     NA14439   0.314   2.064  12.529  0.2839 -1.0224  0.4846
  957SOD     NA14440   1.231   0.503  11.840  0.2952 -0.0697  0.1760
  958SOD     NA14441   1.093   0.715  15.721  0.1161  0.0823  0.2988
  959SOD     NA14442   4.672   2.726   9.802 -0.4688  0.1005 -0.0444
  960SOD     NA14443   3.053   1.476  17.309  0.4904  0.1102  0.0122
  961SOD     NA14444   1.898   1.924  11.935  0.5140 -0.7195  0.3446
  962SOD     NA14445   0.448   2.825   1.563 -0.3326  0.2439  0.3923
  963SOD     NA14446   1.182   2.513  12.720 -0.2192  0.3851 -0.6199
  964SOD     NA14447   1.817   0.495  13.784  0.1300  0.1525  0.1202
  965SOD     NA14448   2.856   1.621   4.775  0.1199  0.0470 -0.0586
  966SOD     NA14449   1.264   0.740   8.905 -0.1172 -0.2594 -0.3086
  967SOD     NA14450   3.173   3.636  10.065 -0.9569 -0.3937  0.1866
  968SOD     NA14451   1.828   2.632  12.812 -0.1065  0.4670 -0.0956
  969SOD     NA14452   0.671   3.455   9.975  0.0771  0.2503 -0.0978
  970SOD     NA14453   0.865   2.446   5.232  0.1958  0.2353 -0.0807
  971SOD     NA14454   4.224   2.329   4.075 -0.0074 -0.5134 -0.3688
  972SOD     NA14455   3.210   2.147  11.984  0.2905  0.3884 -0.2323
  973SOD     NA14456   4.554   3.599   1.398  0.6147  0.0793  0.5482
  974SOD     NA14457   2.687   3.504   0.843  0.1037  0.3702 -0.1604
  975SOD     NA14458   4.198   4.402   9.954 -0.8630  0.0807 -0.0972
  976SOD     NA14459   1.816   3.463  12.228 -0.2157  0.2207 -0.1131
  977SOD     NA14460   2.743   3.259  14.031 -0.1043 -0.5880 -0.2849
  978SOD     NA14461   0.086   1.851  11.278  0.4586  0.4912 -0.6260
  979SOD     NA14462   2.663   1.532   8.031 -0.0698 -0.2487  0.3244
  980SOD     NA14463   3.454   3.376  13.944  0.0237 -0.2653 -0.1665
  981SOD     NA14464   1.313   2.370   9.903  0.5705 -0.3953 -0.2541
  982SOD     NA14465   0.189   0.451   2.818  0.1649 -0.0343 -0.2373
  983SOD     NA14466   3.902   0.322  16.107  0.3286  0.0636 -0.1342
  984SOD     NA14467   0.859   1.808   1.802  0.2210  0.2072 -0.2013
  985SOD     NA14468   1.679   2.928  11.933 -0.1267 -0.2646  0.8938
  986SOD     NA14469   2.718   4.118  16.018 -0.1750 -0.0122 -0.0017
  987SOD     NA14470   0.636   0.540  12.715  0.0934 -0.2608 -0.4363
  988SOD     NA14471   0.621   1.350   9.928  0.3418 -0.7579 -0.1958
  989SOD     NA14472   4.528   3.464   0.316 -0.2131 -0.1683 -0.3742
  990SOD     NA14473   2.237   4.324  11.513 -0.1327 -0.3876 -0.8423
  991SOD     NA14474   3.550   3.952  15.156  0.2044  0.2980 -0.0110
  992SOD     NA14475   2.118   2.137  11.431 -0.0796 -0.3155 -0.4917
  993SOD     NA14476   2.673   1.344  14.559  0.4296 -0.1130  0.1753
  994SOD     NA14477   1.983   0.112  16.833 -0.2565  0.3338 -0.9655
  995SOD     NA14478   2.804   3.561   3.708 -0.1585 -0.1712 -0.3379
  996SOD     NA14479   1.937   2.285  11.228  0.4073  0.4368  0.0713
  997SOD     NA14480   1.585   0.427   2.123  0.2677 -0.2058 -0.0104
  998SOD     NA14481   0.825   3.658   1.765  0.3299 -0.1470  0.0790
  999SOD     NA14482   3.583   0.740  13.586 -0.0071 -0.7810 -0.2033
 1000SOD     NA14483   4.542   1.766  13.428 -0.1644 -0.1639 -0.1580
 1001SOD     NA14484   2.543   2.540  14.193 -0.0093 -0.4167 -0.0746
 1002SOD     NA14485   0.114   0.141  10.456 -0.5807  0.2681  0.3534
 1003SOD     NA14486   2.035   1.888   0.127  0.0656  0.3287  0.1043
 1004SOD     NA14487   2.814   0.502  14.585  0.1883 -0.1113  0.0662
 1005SOD     NA14488   0.166   3.106   8.389 -0.0593 -0.1193  0.1297
 1006SOD     NA14489   3.436   3.098  16.925  0.2097 -0.1201  0.5476
 1007SOD     NA14490   4.347   2.172   0.570 -0.0344  0.1880  0.1858
 1008SOD     NA14491   1.668   2.872  11.580  0.4550  0.1783  0.5288
 1009SOD     NA14492   2.914   3.574  10.882  0.6318  0.2675 -0.1524
 1010SOD     NA14493   0.771   1.861   9.025 -0.5900  0.0913 -0.0550
 1011SOL     OW14494   3.944   2.667  14.152  0.2662  0.1834  0.2166
 1011SOL    HW114495   3.894   2.726  14.097  0.8839  0.6561  0.1675
 1011SOL    HW214496   3.873   2.621  14.198  1.6811 -0.9492  1.2870
 1012SOL     OW14497   4.502   1.126   2.015 -0.4666 -0.5159 -0.2267
 1012SOL    HW114498   4.520   1.216   2.042 -1.2758 -0.4824  0.2112
 1012SOL    HW214499   4.499   1.134   1.920  2.5291 -1.8750 -0.4273
 1013SOL     OW14500   3.155   3.035   8.337  0.0524 -0.1810 -0.2060
 1013SOL    HW114501   3.206   2.993   8.406  0.6113 -2.0143 -1.7555
 1013SOL    HW214502   3.177   3.124   8.366 -2.3071  0.7282 -1.1481
 1014SOL     OW14503   3.584   4.381   4.619  0.3888  0.0035 -0.1885
 1014SOL    HW114504   3.644   4.436   4.669  0.8136  0.4080 -1.1418
 1014SOL    HW214505   3.531   4.352   4.693  0.1528 -0.1124 -0.3996
 1015SOL     OW14506   0.258   3.023  10.937 -0.2782  0.2177 -0.0556
 1015SOL    HW114507   0.330   3.074  10.901  0.3793  1.2467  2.7005
 1015SOL    HW214508   0.219   3.099  10.981 -2.8367 -0.4065 -1.2513
 1016SOL     OW14509   1.304   2.938  12.489  0.4133 -0.1816 -0.0376
 1016SOL    HW114510   1.215   2.967  12.469 -0.1658 -2.0238 -0.1906
 1016SOL    HW214511   1.357   3.013  12.465 -0.9083  0.6498 -0.3788
 1017SOL     OW14512   0.916   1.435   7.900  0.6626  0.1585 -0.4362
 1017SOL    HW114513   0.937   1.353   7.946 -1.4645  0.0018  0.2192
 1017SOL    HW214514   0.843   1.463   7.954  0.2496  0.4562 -1.1465
 1018SOL     OW14515   2.917   1.300   8.933  0.2025  0.0372 -0.2993
 1018SOL    HW114516   2.924   1.208   8.910  0.4152  0.4434 -1.8374
 1018SOL    HW214517   3.002   1.332   8.903  1.3117 -1.7699  0.9521
 1019SOL     OW14518   1.657   3.273   5.518  0.0831 -0.3482  0.6441
 1019SOL    HW114519   1.605   3.218   5.576 -3.5235  1.1157 -1.1768
 1019SOL    HW214520   1.619   3.359   5.533  0.2321 -0.1393 -0.1501
 1020SOL     OW14521   1.477   4.648  14.877  0.1756  0.1496 -0.2948
 1020SOL    HW114522   1.528   4.572  14.849 -2.4772 -1.5196 -0.4945
 1020SOL    HW214523   1.430   4.613  14.953 -1.1375  2.6079  0.0146
 1021SOL     OW14524   2.260   1.756   3.102  0.6193 -0.0835  0.4244
 1021SOL    HW114525   2.231   1.724   3.187  0.3984  0.1998  0.4521
 1021SOL    HW214526   2.349   1.780   3.128  0.3182 -0.7518  2.0509
 1022SOL     OW14527   4.252   4.335  15.190 -0.5861 -0.5987 -0.1832
 1022SOL    HW114528   4.280   4.264  15.247 -0.5603 -1.6496 -1.5162
 1022SOL    HW214529   4.279   4.403  15.252 -0.5953 -1.2137  0.4932
 1023SOL     OW14530   0.166   2.375   2.111 -0.0579  0.5546  0.0248
 1023SOL    HW114531   0.146   2.285   2.084 -0.2261  0.0845  1.7214
 1023SOL    HW214532   0.076   2.409   2.115  0.3437  1.5471  0.4536
 1024SOL     OW14533   0.345   0.563  11.068  0.2193 -0.5153  0.2115
 1024SOL    HW114534   0.299   0.647  11.068  1.7689  0.3339 -0.6018
 1024SOL    HW214535   0.399   0.562  11.147 -1.5905 -0.7626  1.4469
 1025SOL     OW14536   1.003   4.377   8.006 -0.1347  0.0365  0.5996
 1025SOL    HW114537   1.007   4.372   7.910 -0.9442 -1.3577  0.6395
 1025SOL    HW214538   0.937   4.311   8.028  0.4700 -0.3064  1.3716
 1026SOL     OW14539   2.311   4.492   6.356  0.4282  1.0152 -0.6064
 1026SOL    HW114540   2.237   4.546   6.382  0.9466  1.1130  0.6682
 1026SOL    HW214541   2.369   4.525   6.425  0.4207 -1.3394  0.5318
 1027SOL     OW14542   0.969   0.247   7.227  0.4058  0.0078  0.6947
 1027SOL    HW114543   0.908   0.174   7.233 -0.5198  0.7623  0.4447
 1027SOL    HW214544   0.898   0.311   7.233  0.2085 -0.1319 -0.1385
 1028SOL     OW14545   1.350   3.790   6.933 -0.0470  0.4098 -0.0249
 1028SOL    HW114546   1.371   3.773   6.841  2.3568 -1.0358  0.7826
 1028SOL    HW214547   1.281   3.856   6.922 -0.0510  0.0347 -2.3348
 1029SOL     OW14548   4.629   4.707  12.098 -0.0924  0.0057  0.3141
 1029SOL    HW114549   4.679   4.633  12.132  2.2741  1.3073 -0.3314
 1029SOL    HW214550   4.539   4.681  12.116 -0.8765  2.2612 -0.3683
 1030SOL     OW14551   3.790   3.239  13.212 -0.5541  0.1467  0.0154
 1030SOL    HW114552   3.796   3.145  13.191 -1.1399  0.2942 -0.8367
 1030SOL    HW214553   3.863   3.285  13.171 -1.5219  1.6174 -0.0528
 1031SOL     OW14554   3.751   1.937  13.286  0.0275  0.0368  0.0717
 1031SOL    HW114555   3.745   2.028  13.257 -2.0032 -0.6769 -1.6787
 1031SOL    HW214556   3.669   1.917  13.331  1.0538  0.0284  1.9427
 1032SOL     OW14557   2.080   1.897  11.701 -0.0862 -0.2772  0.1323
 1032SOL    HW114558   2.064   1.807  11.729 -0.7779 -1.0489 -2.7784
 1032SOL    HW214559   2.013   1.914  11.635 -1.0611 -1.2848  0.8772
 1033SOL     OW14560   0.242   0.360  12.823  0.6162 -0.1389  0.5070
 1033SOL    HW114561   0.179   0.363  12.895  1.7447 -2.5533  1.6058
 1033SOL    HW214562   0.297   0.285  12.844  1.7096  0.7389  0.7363
 1034SOL     OW14563   3.257   3.446   7.050 -0.8099 -0.1783  0.0684
 1034SOL    HW114564   3.229   3.424   7.139  1.9067  0.3266  1.0303
 1034SOL    HW214565   3.199   3.520   7.031  0.9838  1.3668  0.5823
 1035SOL     OW14566   1.654   2.909   3.324 -0.3384  0.2427 -0.6251
 1035SOL    HW114567   1.601   2.842   3.282 -0.0486 -0.2589 -0.1786
 1035SOL    HW214568   1.600   2.988   3.324  3.4039  2.8276  0.4285
 1036SOL     OW14569   0.431   1.355   9.570 -0.5238  0.3803  0.2292
 1036SOL    HW114570   0.471   1.403   9.643 -3.4669 -0.3872  2.3666
 1036SOL    HW214571   0.341   1.353   9.605 -1.2448 -0.0144 -1.6769
 1037SOL     OW14572   1.580   1.786   6.354 -1.5157  0.2628 -0.6645
 1037SOL    HW114573   1.576   1.709   6.297  1.3116 -1.3559  1.3021
 1037SOL    HW214574   1.561   1.742   6.437  3.1667 -1.1410 -0.3491
 1038SOL     OW14575   4.401   4.653   6.970 -0.0780  0.1824 -0.0125
 1038SOL    HW114576   4.311   4.643   6.940 -0.0622  1.7357 -0.5366
 1038SOL    HW214577   4.432   4.568   6.940  0.3926  0.5401 -0.5250
 1039SOL     OW14578   0.596   3.758   6.290 -0.3848 -0.1418  0.0928
 1039SOL    HW114579   0.613   3.807   6.370  0.8132 -1.7797  0.8483
 1039SOL    HW214580   0.655   3.683   6.288 -1.5458 -1.0497 -0.0486
 1040SOL     OW14581   3.377   1.338   0.524  0.4965 -0.2450 -0.3580
 1040SOL    HW114582   3.399   1.306   0.437  1.1161  1.9305 -1.0000
 1040SOL    HW214583   3.454   1.385   0.556  0.7254 -2.2033  1.9323
 1041SOL     OW14584   2.150   3.520   0.562 -0.3895 -0.7150 -0.0866
 1041SOL    HW114585   2.220   3.503   0.626  0.0839 -0.0490 -0.4252
 1041SOL    HW214586   2.139   3.615   0.566  1.5587 -0.6871  4.8995
 1042SOL     OW14587   0.988   2.491   1.458  0.0831  0.2914  0.1781
 1042SOL    HW114588   0.972   2.435   1.534  0.2283  1.2598  0.9185
 1042SOL    HW214589   1.050   2.556   1.490 -0.3281  1.0872 -0.6286
 1043SOL     OW14590   1.013   3.261   2.455 -0.3397 -0.5786 -0.0834
 1043SOL    HW114591   1.028   3.354   2.472  0.4582 -1.0349  1.6623
 1043SOL    HW214592   0.938   3.233   2.508  1.0056 -0.0250  2.0984
 1044SOL     OW14593   3.725   3.668  17.544 -0.3452 -0.3121  0.6829
 1044SOL    HW114594   3.701   3.686  17.635 -1.0347  1.7242  0.0985
 1044SOL    HW214595   3.709   3.751  17.497  1.9699  0.7561  1.7767
 1045SOL     OW14596   1.717   2.336   5.860 -0.2230  0.0711 -0.0632
 1045SOL    HW114597   1.648   2.271   5.877 -0.7740  0.9400  1.0437
 1045SOL    HW214598   1.799   2.298   5.889  0.0198 -0.6288 -1.6899
 1046SOL     OW14599   3.494   1.521  15.613 -0.6777 -0.1246  0.1543
 1046SOL    HW114600   3.469   1.432  15.587 -2.6552  0.4088  0.1627
 1046SOL    HW214601   3.536   1.498  15.695 -0.4798  0.9134  0.3474
 1047SOL     OW14602   2.450   1.758   7.124  0.3424 -0.0792  0.0262
 1047SOL    HW114603   2.425   1.826   7.186 -0.9916  0.7904 -1.4521
 1047SOL    HW214604   2.379   1.694   7.121  0.6726 -0.4019 -0.9652
 1048SOL     OW14605   4.595   0.202   5.853 -0.0818 -0.0140 -0.1836
 1048SOL    HW114606   4.594   0.290   5.814 -0.8355  0.4359  0.8530
 1048SOL    HW214607   4.547   0.148   5.789 -1.6443 -1.1737  1.9862
 1049SOL     OW14608   3.150   3.368   2.651 -0.1598 -0.1619  0.5251
 1049SOL    HW114609   3.077   3.384   2.591  0.5451 -0.0878 -0.3021
 1049SOL    HW214610   3.167   3.452   2.693  0.6724 -0.5856  1.0279
 1050SOL     OW14611   0.932   1.161   4.460 -0.3120  0.4371 -0.4675
 1050SOL    HW114612   0.942   1.065   4.460 -0.5479  0.3949  1.5644
 1050SOL    HW214613   1.023   1.188   4.451  0.0269 -0.3654  0.4150
 1051SOL     OW14614   4.056   1.757  10.779  0.2971  0.2808  1.0128
 1051SOL    HW114615   4.016   1.702  10.846  0.8676  1.5907  2.4382
 1051SOL    HW214616   4.141   1.761  10.823  0.0845  1.9664  1.2945
 1052SOL     OW14617   0.202   2.737   5.622 -0.1793 -0.0572  0.0138
 1052SOL    HW114618   0.177   2.797   5.551  1.5935  1.6222  0.8150
 1052SOL    HW214619   0.149   2.770   5.695  0.4824 -3.3332  1.9830
 1053SOL     OW14620   0.733   3.289   8.644 -0.2107  0.6465  0.1095
 1053SOL    HW114621   0.791   3.222   8.682  0.5990  0.0877 -2.0987
 1053SOL    HW214622   0.647   3.252   8.666  0.2431 -0.4366  0.0880
 1054SOL     OW14623   1.056   0.473   3.816  0.1210 -0.4828 -0.1013
 1054SOL    HW114624   1.104   0.451   3.896 -0.2901  0.8385  0.5136
 1054SOL    HW214625   1.091   0.419   3.746 -1.1007 -1.2840 -0.1057
 1055SOL     OW14626   1.467   0.805  14.110 -0.1880 -0.3269 -0.2602
 1055SOL    HW114627   1.536   0.752  14.151  1.5575  2.0602 -0.1321
 1055SOL    HW214628   1.403   0.797  14.181 -0.9781 -0.0144 -0.9401
 1056SOL     OW14629   4.706   4.490   9.428 -0.2822 -0.0328  0.3604
 1056SOL    HW114630   0.033   4.572   9.447  1.4449 -1.2068  1.1626
 1056SOL    HW214631   4.616   4.504   9.456 -0.5204 -0.0831 -0.3652
 1057SOL     OW14632   1.745   2.214   6.156 -0.3685 -0.3469 -0.5475
 1057SOL    HW114633   1.762   2.178   6.242  0.1693 -2.2819 -1.4722
 1057SOL    HW214634   1.706   2.299   6.179  1.6179  0.1299  1.0463
 1058SOL     OW14635   4.272   0.057   9.099  0.0890 -0.9571 -0.1015
 1058SOL    HW114636   4.318   0.130   9.058 -2.8170  1.9710  1.8220
 1058SOL    HW214637   4.249   0.101   9.181  1.8818  3.5174 -1.9662
 1059SOL     OW14638   1.337   0.081   7.344 -0.1802  0.0541  0.1067
 1059SOL    HW114639   1.369   0.169   7.324 -2.1515  0.6160 -0.5861
 1059SOL    HW214640   1.417   0.039   7.312  0.2745 -0.5580  2.0971
 1060SOL     OW14641   4.148   3.799   7.586 -0.3350  0.1993 -0.1401
 1060SOL    HW114642   4.062   3.795   7.627 -0.0633 -0.8064  0.3275
 1060SOL    HW214643   4.151   3.892   7.562  1.2294  0.3050  0.4850
 1061SOL     OW14644   2.466   1.638   0.073  0.0141 -0.1462  0.0263
 1061SOL    HW114645   2.433   1.607   0.158  0.1398  0.5205  0.3280
 1061SOL    HW214646   2.452   1.732   0.090 -2.8534 -0.5042 -0.4050
 1062SOL     OW14647   0.863   2.778   1.399 -0.0638 -0.3843  0.1776
 1062SOL    HW114648   0.925   2.713   1.367 -2.2209 -2.4221  0.1651
 1062SOL    HW214649   0.871   2.781   1.495  1.4519 -0.3644  0.0459
 1063SOL     OW14650   1.543   3.080   5.710  0.6060 -0.1683 -0.0501
 1063SOL    HW114651   1.486   3.147   5.747  1.1970  0.2959  0.0093
 1063SOL    HW214652   1.504   3.003   5.751  0.1092 -0.2097 -0.6095
 1064SOL     OW14653   2.743   0.928   4.951  0.2253  0.1322 -0.1199
 1064SOL    HW114654   2.777   0.984   4.881  1.1347 -0.9098 -0.5202
 1064SOL    HW214655   2.814   0.916   5.014 -1.1026 -1.5192  1.0588
 1065SOL     OW14656   4.344   1.122  13.454 -0.4755 -0.2736  0.0729
 1065SOL    HW114657   4.391   1.162  13.380 -0.1007 -1.0248 -0.1016
 1065SOL    HW214658   4.412   1.073  13.501  0.3455 -0.5977 -1.4324
 1066SOL     OW14659   1.120   2.740   2.327 -0.1516  0.2967  0.2055
 1066SOL    HW114660   1.125   2.737   2.422 -1.5959  3.0476  0.3583
 1066SOL    HW214661   1.025   2.736   2.313 -0.0463 -5.3850  0.9085
 1067SOL     OW14662   4.276   1.974  15.875  0.8907 -0.4588  0.2781
 1067SOL    HW114663   4.345   1.933  15.927  1.0934  1.6206  1.6465
 1067SOL    HW214664   4.302   2.063  15.900  1.0051  0.0188 -1.5703
 1068SOL     OW14665   1.811   1.598  10.887 -0.1930  0.2716  0.3722
 1068SOL    HW114666   1.814   1.685  10.847  2.6586  0.2787  0.6673
 1068SOL    HW214667   1.857   1.554  10.816  0.9806  0.8679  0.7748
 1069SOL     OW14668   0.975   4.261  16.155  0.5215 -0.1330  0.2690
 1069SOL    HW114669   1.029   4.308  16.218 -1.8745  1.3314  1.2505
 1069SOL    HW214670   0.968   4.176  16.200 -1.2135  0.3668  0.9400
 1070SOL     OW14671   2.875   0.867   6.851 -0.1539  0.2591  0.2627
 1070SOL    HW114672   2.822   0.829   6.921 -2.6020  1.6074 -0.8208
 1070SOL    HW214673   2.919   0.784   6.835  0.2671  0.3912  0.7351
 1071SOL     OW14674   2.975   4.174   1.767 -0.6959  0.1114  0.0293
 1071SOL    HW114675   3.069   4.186   1.783 -0.9192 -0.1941  1.5578
 1071SOL    HW214676   2.947   4.189   1.857 -1.0499 -0.5923  0.0292
 1072SOL     OW14677   3.744   4.167   9.355 -0.3685 -0.6295 -0.2778
 1072SOL    HW114678   3.713   4.180   9.445  1.4154  0.4854  0.1675
 1072SOL    HW214679   3.672   4.202   9.303 -0.4709 -0.4563 -0.0174
 1073SOL     OW14680   0.970   2.523   1.780  0.0056 -0.0254  0.2569
 1073SOL    HW114681   1.020   2.526   1.861 -0.5552  0.3507  0.5952
 1073SOL    HW214682   1.019   2.450   1.742 -0.7890 -0.7202  0.5659
 1074SOL     OW14683   4.397   1.146  12.387 -0.5441 -0.3681 -0.0790
 1074SOL    HW114684   4.403   1.234  12.350 -1.9059  0.2728  1.2345
 1074SOL    HW214685   4.316   1.157  12.436  0.4544 -0.3776  1.5962
 1075SOL     OW14686   4.493   1.193  16.981 -0.6761  0.7326 -0.2405
 1075SOL    HW114687   4.539   1.235  16.908  3.3310  1.5955  2.8263
 1075SOL    HW214688   4.567   1.179  17.038  0.2264 -0.7972 -1.7960
 1076SOL     OW14689   0.717   0.103  12.241  0.3867 -0.4122 -0.4850
 1076SOL    HW114690   0.721   0.153  12.159  2.1235  1.9101  1.0103
 1076SOL    HW214691   0.782   0.157  12.286  0.3858 -0.8427  0.0368
 1077SOL     OW14692   3.593   0.875   3.970  0.2210  0.1889  0.0681
 1077SOL    HW114693   3.637   0.948   4.014 -1.8881  1.1288  0.6107
 1077SOL    HW214694   3.611   0.800   4.026  1.0730  1.4889  1.5357
 1078SOL     OW14695   0.092   0.633   0.651  0.5329 -0.0733  0.3207
 1078SOL    HW114696   0.057   0.556   0.698 -0.0665 -0.3686 -0.6155
 1078SOL    HW214697   0.167   0.651   0.708  1.3723  3.2520 -1.8897
 1079SOL     OW14698   2.269   2.217   3.389  0.3528  0.0345 -0.4361
 1079SOL    HW114699   2.207   2.174   3.450 -0.6759 -0.1194 -1.5876
 1079SOL    HW214700   2.356   2.190   3.417  1.0825 -0.2023 -2.9873
 1080SOL     OW14701   2.503   4.713   9.909  0.2159  0.3617  0.0038
 1080SOL    HW114702   2.430   0.048   9.936  0.8564  0.9304  0.5749
 1080SOL    HW214703   2.517   0.038   9.825 -1.2329  1.9288  0.6166
 1081SOL     OW14704   3.847   3.538   0.786  0.6149  0.2262  0.3291
 1081SOL    HW114705   3.932   3.564   0.751 -0.1773  2.1759 -0.1470
 1081SOL    HW214706   3.871   3.448   0.809 -0.7730  0.2263  1.7412
 1082SOL     OW14707   3.260   3.803   7.285 -0.6286 -0.1054 -0.1240
 1082SOL    HW114708   3.230   3.825   7.197 -0.0252  1.9289  0.1818
 1082SOL    HW214709   3.176   3.817   7.329  0.6185 -1.2051  2.6211
 1083SOL     OW14710   0.047   3.922   5.401 -0.3982  0.1523  0.0153
 1083SOL    HW114711   0.117   3.979   5.431  0.1919 -0.6039  0.0658
 1083SOL    HW214712   0.015   3.880   5.481 -1.7717  1.7968  0.3395
 1084SOL     OW14713   1.837   1.614   6.596  0.4843  0.2180  0.6210
 1084SOL    HW114714   1.914   1.608   6.654  1.7892  0.9792 -1.0357
 1084SOL    HW214715   1.865   1.676   6.529 -0.2532 -0.4582 -0.3137
 1085SOL     OW14716   2.037   1.825  11.097 -0.1591  0.1223  0.1732
 1085SOL    HW114717   2.129   1.830  11.069  0.1280 -2.1860  0.6380
 1085SOL    HW214718   2.047   1.789  11.185 -0.7069  0.0138  0.1898
 1086SOL     OW14719   2.168   4.526   0.078 -0.2147 -0.1648 -0.1202
 1086SOL    HW114720   2.135   4.615   0.068 -0.6106 -0.2083  0.7967
 1086SOL    HW214721   2.264   4.532   0.078 -0.3570  2.0893 -1.4661
 1087SOL     OW14722   1.546   0.385   1.142  0.1107 -0.6887 -0.3608
 1087SOL    HW114723   1.486   0.458   1.130  0.4389 -0.0396  1.8853
 1087SOL    HW214724   1.535   0.324   1.069 -0.7486  0.7723 -1.4315
 1088SOL     OW14725   3.962   3.263   3.138  0.2675  0.2033 -0.1999
 1088SOL    HW114726   4.004   3.343   3.105  1.7438 -0.9484 -1.0726
 1088SOL    HW214727   3.993   3.204   3.069  1.5702  2.1346 -1.2767
 1089SOL     OW14728   0.192   3.188  12.650  0.5197  0.0933  0.2320
 1089SOL    HW114729   0.215   3.112  12.597  0.8776 -0.3001  0.9545
 1089SOL    HW214730   0.261   3.196  12.716 -0.1705  2.2519  0.6966
 1090SOL     OW14731   3.609   4.663  10.178 -0.3080 -0.0376  0.3759
 1090SOL    HW114732   3.525   4.669  10.222 -0.5298 -0.3111 -0.0132
 1090SOL    HW214733   3.674   4.659  10.249  0.4235 -0.7825 -0.3455
 1091SOL     OW14734   0.356   0.382   6.188 -0.4199 -0.1098  0.3257
 1091SOL    HW114735   0.443   0.418   6.173  0.2712 -0.6259  3.0790
 1091SOL    HW214736   0.351   0.329   6.109  0.6362 -0.2299  0.3391
 1092SOL     OW14737   4.157   3.423   0.066 -0.5078  0.0862  0.1044
 1092SOL    HW114738   4.107   3.388   0.140  0.0895  0.3586  0.6331
 1092SOL    HW214739   4.091   3.452   0.003 -0.6628  1.4671  0.8952
 1093SOL     OW14740   2.533   3.961   8.728 -0.0499  0.4879  0.0264
 1093SOL    HW114741   2.473   3.945   8.800 -1.0986 -0.0598 -0.9605
 1093SOL    HW214742   2.561   4.048   8.757 -0.4844  0.2474  1.1630
 1094SOL     OW14743   1.142   0.588   1.909  0.0791  0.0610 -0.0025
 1094SOL    HW114744   1.079   0.604   1.979 -0.6308  0.9836 -0.8571
 1094SOL    HW214745   1.101   0.622   1.830  1.4903 -0.0487 -0.7878
 1095SOL     OW14746   1.808   3.560   6.752 -0.4043 -0.0885 -0.2928
 1095SOL    HW114747   1.712   3.565   6.754 -0.3418  0.8858  0.4878
 1095SOL    HW214748   1.835   3.634   6.806 -1.1032 -1.0747  1.3987
 1096SOL     OW14749   2.202   2.985   5.593  0.4391  0.1949  0.3384
 1096SOL    HW114750   2.107   2.978   5.580  0.3615  0.1919  0.9118
 1096SOL    HW214751   2.234   2.943   5.513 -0.9513  0.0532 -0.1496
 1097SOL     OW14752   4.069   3.737   8.403  0.0575 -0.3121 -0.0602
 1097SOL    HW114753   3.977   3.737   8.428 -0.6824  1.3323 -2.7020
 1097SOL    HW214754   4.109   3.694   8.478  3.0973  2.7988  0.0844
 1098SOL     OW14755   3.194   2.330   3.781  0.1003 -0.5250  0.6092
 1098SOL    HW114756   3.175   2.374   3.698  2.4861  0.6079  0.6552
 1098SOL    HW214757   3.172   2.241   3.754 -0.8872  0.1496 -0.7758
 1099SOL     OW14758   4.394   2.321   1.405  0.4061  0.1530  0.0129
 1099SOL    HW114759   4.354   2.307   1.490 -2.3141 -0.0685 -1.3111
 1099SOL    HW214760   4.487   2.308   1.424  0.6463 -0.7647 -1.7459
 1100SOL     OW14761   4.637   0.243   2.508  0.0724 -0.3475 -0.1351
 1100SOL    HW114762   4.549   0.278   2.517  0.6492  1.7764 -2.8512
 1100SOL    HW214763   4.617   0.150   2.497  2.7406 -0.7861 -1.5549
 1101SOL     OW14764   4.412   0.770  15.800 -0.4357 -0.0331 -0.1178
 1101SOL    HW114765   4.483   0.749  15.861 -1.1729 -1.4874  0.2353
 1101SOL    HW214766   4.443   0.728  15.720 -0.4094 -2.7363  1.3188
 1102SOL     OW14767   4.252   4.027  10.801  0.2187 -1.0405  0.8141
 1102SOL    HW114768   4.255   3.932  10.812 -0.0666 -1.0803  0.5522
 1102SOL    HW214769   4.232   4.041  10.708 -0.6877 -3.0244  0.7033
 1103SOL     OW14770   0.978   2.066   7.514 -0.1939  0.0290  0.0986
 1103SOL    HW114771   0.907   2.130   7.509  0.4054  0.9339  3.1964
 1103SOL    HW214772   0.932   1.993   7.555 -2.3753  1.7693  0.7282
 1104SOL     OW14773   0.702   4.225  13.582  0.2089  0.1192  0.2638
 1104SOL    HW114774   0.699   4.175  13.500 -1.2318 -0.3126  0.5908
 1104SOL    HW214775   0.650   4.301  13.557 -0.3990 -0.7557 -1.1009
 1105SOL     OW14776   0.523   3.365   8.946  0.2819  0.5412 -0.3390
 1105SOL    HW114777   0.463   3.440   8.944 -2.7550 -1.9962 -3.6487
 1105SOL    HW214778   0.497   3.304   8.877 -0.3342  0.7639 -0.3049
 1106SOL     OW14779   2.752   2.194  12.263 -0.0130 -0.6390 -0.2776
 1106SOL    HW114780   2.702   2.170  12.185 -2.5051 -1.9226  1.7307
 1106SOL    HW214781   2.722   2.128  12.326 -2.9256  1.0042  0.0238
 1107SOL     OW14782   1.259   0.061   5.008 -0.0865 -0.3482 -0.0563
 1107SOL    HW114783   1.262   0.077   5.103 -1.5115  0.1334 -0.0912
 1107SOL    HW214784   1.265   0.147   4.967 -0.1195 -0.3964 -0.1605
 1108SOL     OW14785   3.415   3.139   2.283 -0.3619  0.6518 -0.5825
 1108SOL    HW114786   3.507   3.162   2.294 -0.4666  0.8517 -0.1222
 1108SOL    HW214787   3.400   3.064   2.342 -0.8548  1.3279  0.1548
 1109SOL     OW14788   3.005   3.453   8.759  0.6624  0.0473 -0.2263
 1109SOL    HW114789   2.995   3.450   8.664  2.1083 -1.4472 -0.3292
 1109SOL    HW214790   3.097   3.435   8.782  1.1367 -1.6442 -3.3865
 1110SOL     OW14791   1.598   3.542   2.468 -0.3187 -0.4544 -1.0235
 1110SOL    HW114792   1.575   3.492   2.546  5.0885  1.0956  1.6260
 1110SOL    HW214793   1.509   3.553   2.435  0.2096 -0.1862 -2.3461
 1111SOL     OW14794   0.708   0.904  14.630 -0.2660 -0.3475  0.5277
 1111SOL    HW114795   0.759   0.983  14.613 -1.8423  0.6877  0.5616
 1111SOL    HW214796   0.655   0.892  14.551 -1.2829  1.3016  0.9566
 1112SOL     OW14797   2.457   2.526   7.361 -0.1757  0.0776 -0.0900
 1112SOL    HW114798   2.461   2.470   7.283  0.7208 -0.3309  0.2557
 1112SOL    HW214799   2.376   2.487   7.394  0.6352 -3.0603 -1.8053
 1113SOL     OW14800   1.405   1.110   9.644  0.5408 -0.0314 -0.4268
 1113SOL    HW114801   1.415   1.027   9.597 -2.7223 -0.0647 -1.1085
 1113SOL    HW214802   1.368   1.084   9.728  2.2246 -0.7711  0.0784
 1114SOL     OW14803   1.487   1.335   7.547 -0.4002  0.7598 -0.8257
 1114SOL    HW114804   1.474   1.426   7.518  0.0793  1.1185  0.0865
 1114SOL    HW214805   1.451   1.289   7.471  1.0970 -0.7338 -0.6254
 1115SOL     OW14806   1.919   4.087   0.260 -0.0736  0.0222 -0.3662
 1115SOL    HW114807   1.922   4.011   0.201 -0.5505 -0.1833 -0.1199
 1115SOL    HW214808   1.941   4.162   0.205 -0.4142  2.0399  2.2395
 1116SOL     OW14809   0.390   2.518   4.105  0.0486  0.2126 -0.1756
 1116SOL    HW114810   0.425   2.606   4.093  2.4680 -0.8621 -1.1160
 1116SOL    HW214811   0.423   2.501   4.193 -1.2392  1.7618  0.5957
 1117SOL     OW14812   0.718   1.187  12.069  0.6326  0.0055  0.1195
 1117SOL    HW114813   0.747   1.096  12.070  0.1434 -0.1381  0.7918
 1117SOL    HW214814   0.746   1.225  12.152 -0.8860 -0.5315  0.8678
 1118SOL     OW14815   4.211   3.998   3.577  0.6664  0.3684 -0.5325
 1118SOL    HW114816   4.217   4.081   3.530 -0.9115  0.3123 -0.8551
 1118SOL    HW214817   4.276   4.015   3.644 -1.1682  1.4801  0.9784
 1119SOL     OW14818   3.855   4.442   0.615  0.4366 -0.6688  0.2219
 1119SOL    HW114819   3.764   4.431   0.587  0.4907 -0.9756  0.1643
 1119SOL    HW214820   3.846   4.421   0.708  0.9212  0.1960  0.4690
 1120SOL     OW14821   4.174   4.710   6.365 -0.1616  0.5735  0.0071
 1120SOL    HW114822   4.204   4.652   6.295  1.4367 -1.8937  2.7357
 1120SOL    HW214823   4.140   0.074   6.334 -1.3764 -0.5054 -1.5884
 1121SOL     OW14824   1.701   2.967   1.645 -0.3866  0.3652 -0.1702
 1121SOL    HW114825   1.615   2.924   1.640 -0.9395  1.4622 -0.3299
 1121SOL    HW214826   1.699   3.044   1.587 -0.4119 -0.1810 -0.8985
 1122SOL     OW14827   1.416   3.127  16.209  0.0142  0.2505  0.0073
 1122SOL    HW114828   1.363   3.057  16.248 -1.6666  1.2103 -0.5358
 1122SOL    HW214829   1.437   3.082  16.127  2.4500 -3.0842  2.4837
 1123SOL     OW14830   2.181   0.401   3.355 -0.1003  0.5353 -0.1057
 1123SOL    HW114831   2.193   0.495   3.365 -0.3998  0.3447  2.0157
 1123SOL    HW214832   2.153   0.380   3.444  0.0784  0.2106 -0.1251
 1124SOL     OW14833   0.782   3.902  10.691 -0.2495  0.9335 -0.0968
 1124SOL    HW114834   0.877   3.890  10.696 -0.3707  0.3590  0.7859
 1124SOL    HW214835   0.753   3.990  10.714 -0.3283  0.8777  0.0173
 1125SOL     OW14836   3.624   4.632   6.555  0.1255 -0.4329 -0.0408
 1125SOL    HW114837   3.656   4.717   6.584  2.2264 -1.7678  1.4592
 1125SOL    HW214838   3.661   4.557   6.600 -0.2713 -1.2769 -1.1345
 1126SOL     OW14839   4.705   3.104   4.530 -0.5404 -0.0428  0.3947
 1126SOL    HW114840   0.039   3.117   4.452  0.2203  1.4205  1.1707
 1126SOL    HW214841   0.036   3.140   4.603 -0.3710  2.7223 -1.0906
 1127SOL     OW14842   2.986   3.167  10.967  0.6543 -0.7673 -0.4435
 1127SOL    HW114843   2.933   3.216  11.029 -0.5234 -1.3992 -0.9445
 1127SOL    HW214844   2.962   3.075  10.982 -2.4446  0.5785  2.8180
 1128SOL     OW14845   4.646   1.037   7.543 -0.5178  0.2930  0.0261
 1128SOL    HW114846   4.666   0.966   7.605  0.0313 -0.9902 -1.6151
 1128SOL    HW214847   4.624   0.996   7.459 -0.1759 -2.6075  1.3406
 1129SOL     OW14848   4.565   2.009   0.751 -0.3392  0.3461  0.1342
 1129SOL    HW114849   4.564   2.095   0.708 -0.8244  0.0854 -0.3775
 1129SOL    HW214850   4.633   1.963   0.702 -1.4385  1.2374 -2.2060
 1130SOL     OW14851   4.651   3.494   1.218  0.0493  0.1712  0.0491
 1130SOL    HW114852   0.020   3.459   1.218 -0.3144 -0.7436  0.3507
 1130SOL    HW214853   4.666   3.573   1.166 -2.4648  0.3398 -0.4301
 1131SOL     OW14854   0.321   0.470   4.544  0.0512  0.8113  0.9465
 1131SOL    HW114855   0.359   0.445   4.460 -0.6816  1.3811  0.4403
 1131SOL    HW214856   0.394   0.452   4.603 -0.1786 -0.9798  0.6846
 1132SOL     OW14857   2.764   3.042   4.387 -0.4467 -0.6185 -0.1565
 1132SOL    HW114858   2.758   3.129   4.427  2.4880 -0.4840 -0.0308
 1132SOL    HW214859   2.699   2.991   4.435  1.2680 -4.0739 -1.5460
 1133SOL     OW14860   4.544   1.777   9.301  0.1298 -0.0508 -0.1701
 1133SOL    HW114861   4.563   1.702   9.244 -0.2839  0.8220 -1.4606
 1133SOL    HW214862   4.466   1.810   9.256 -1.4438 -2.3505  0.8477
 1134SOL     OW14863   1.932   3.614   3.460 -0.1343 -0.0440  0.4228
 1134SOL    HW114864   1.918   3.705   3.436 -2.1318 -0.4064  0.1944
 1134SOL    HW214865   2.002   3.629   3.524  0.3139  0.7306 -0.2581
 1135SOL     OW14866   3.538   4.348   3.300  0.0684 -0.0552  0.3424
 1135SOL    HW114867   3.621   4.336   3.348  1.4402  0.4250 -1.8954
 1135SOL    HW214868   3.510   4.426   3.348  1.5466  0.7571 -0.0997
 1136SOL     OW14869   2.869   2.260   8.059 -0.7345 -0.1129 -0.1231
 1136SOL    HW114870   2.944   2.202   8.077  0.5537  1.2649 -1.0211
 1136SOL    HW214871   2.809   2.192   8.028 -0.7642  0.2570 -0.8875
 1137SOL     OW14872   3.652   1.529   2.200  0.2118  0.1844  0.8862
 1137SOL    HW114873   3.737   1.541   2.158 -1.3103 -1.1757 -2.6220
 1137SOL    HW214874   3.607   1.613   2.186  1.1026  0.6146  0.6364
 1138SOL     OW14875   4.252   4.511  10.185  0.5846  0.1964 -0.0632
 1138SOL    HW114876   4.319   4.541  10.123  0.4018 -1.6434 -1.1628
 1138SOL    HW214877   4.203   4.589  10.209  1.4447  0.2758  1.4734
 1139SOL     OW14878   2.908   4.490  12.457  0.0953 -0.0735 -0.6211
 1139SOL    HW114879   3.001   4.490  12.480  0.1326  0.3996 -0.7722
 1139SOL    HW214880   2.900   4.579  12.422 -0.0253 -0.0706 -0.5887
 1140SOL     OW14881   2.447   2.298   3.713  0.6148 -0.7824  0.0161
 1140SOL    HW114882   2.527   2.276   3.760  1.3693  3.1150  0.5615
 1140SOL    HW214883   2.411   2.210   3.708 -0.9636 -0.2857  2.4460
 1141SOL     OW14884   0.474   2.152   7.221  0.2439  0.4073  0.2227
 1141SOL    HW114885   0.423   2.123   7.146  0.6227  0.2226  0.0332
 1141SOL    HW214886   0.546   2.200   7.180  0.8673 -1.6281 -1.0738
 1142SOL     OW14887   2.469   0.086  10.664 -0.0807  0.0700 -0.0588
 1142SOL    HW114888   2.557   0.067  10.695 -0.2195  0.0536  0.3294
 1142SOL    HW214889   2.429   0.000  10.679  1.9008 -0.6697  0.9190
 1143SOL     OW14890   2.064   2.525   5.791 -0.9420 -0.2563  0.0205
 1143SOL    HW114891   2.026   2.466   5.856  2.1494 -1.4112  0.8001
 1143SOL    HW214892   2.028   2.611   5.809 -1.0170 -0.4981  1.0140
 1144SOL     OW14893   0.935   4.375  16.811 -0.3479 -0.4036  0.5147
 1144SOL    HW114894   0.843   4.398  16.797 -0.3472 -1.3116 -0.9622
 1144SOL    HW214895   0.980   4.440  16.758 -1.9268  1.0937  1.0357
 1145SOL     OW14896   4.301   4.297  13.255 -0.9735 -0.5398 -0.7005
 1145SOL    HW114897   4.391   4.267  13.242 -0.2416  1.2405  0.2845
 1145SOL    HW214898   4.262   4.302  13.168 -1.0541  2.4279 -0.4743
 1146SOL     OW14899   0.976   4.124   1.451  0.0677 -0.0612 -0.3480
 1146SOL    HW114900   1.000   4.038   1.485  1.1636  1.3871  2.4881
 1146SOL    HW214901   0.922   4.158   1.522  2.1510 -2.3338  2.3055
 1147SOL     OW14902   2.690   3.844   2.271 -0.5867 -0.2849 -0.2995
 1147SOL    HW114903   2.784   3.862   2.264 -0.5530  0.1781  1.1795
 1147SOL    HW214904   2.663   3.880   2.186 -1.5033  1.4684  0.7243
 1148SOL     OW14905   0.960   1.798   5.929 -0.0342 -0.4858  0.0566
 1148SOL    HW114906   1.053   1.821   5.922 -0.1290 -0.6724 -1.6830
 1148SOL    HW214907   0.923   1.796   5.841 -1.5005 -1.5577  0.6984
 1149SOL     OW14908   4.051   4.260  17.395  0.3379  0.2983  0.3083
 1149SOL    HW114909   4.052   4.337  17.337 -0.1027 -0.9374 -1.3197
 1149SOL    HW214910   4.077   4.293  17.481  0.7271 -1.6029  0.9090
 1150SOL     OW14911   1.344   3.246   3.951 -0.5940 -0.3793 -0.3714
 1150SOL    HW114912   1.361   3.334   3.987 -1.2765 -0.4905  0.2204
 1150SOL    HW214913   1.414   3.194   3.991 -0.4643 -1.3877 -1.9112
 1151SOL     OW14914   0.454   0.308   9.222  0.4264  0.1300 -0.2789
 1151SOL    HW114915   0.535   0.292   9.272  1.1380  0.2757 -1.3761
 1151SOL    HW214916   0.393   0.345   9.286  2.3675  2.6060  0.1568
 1152SOL     OW14917   2.076   4.618  14.697 -0.0922  1.1042 -0.1130
 1152SOL    HW114918   2.086   4.547  14.633 -0.2878  1.2147 -0.2675
 1152SOL    HW214919   2.037   4.682  14.637 -1.3157  1.8189  1.4585
 1153SOL     OW14920   1.269   1.240   1.703 -0.2109 -0.2003  0.4185
 1153SOL    HW114921   1.311   1.169   1.654 -1.1202 -0.9210  0.6844
 1153SOL    HW214922   1.182   1.207   1.679  0.1406  0.1256 -1.3545
 1154SOL     OW14923   1.985   3.152   4.718  0.1265  0.2399  0.0882
 1154SOL    HW114924   2.022   3.151   4.805  0.5493 -2.0809 -0.1335
 1154SOL    HW214925   1.952   3.242   4.728 -2.3633 -0.7753  1.0633
 1155SOL     OW14926   2.899   4.184   5.089  0.2622 -0.1727  0.1956
 1155SOL    HW114927   2.837   4.128   5.042 -0.4585 -0.1257  1.0969
 1155SOL    HW214928   2.977   4.149   5.045  0.7420 -0.4477  1.2711
 1156SOL     OW14929   1.203   1.004  11.084 -0.5623 -0.1258  0.4083
 1156SOL    HW114930   1.143   1.000  11.158 -1.1167  0.7835 -0.0029
 1156SOL    HW214931   1.194   0.918  11.043 -0.8235  1.0038 -1.9124
 1157SOL     OW14932   4.096   2.233   6.500  0.1639 -0.4913  0.1970
 1157SOL    HW114933   4.060   2.193   6.421 -1.3866  0.4616  0.4263
 1157SOL    HW214934   4.182   2.256   6.465  0.0540  0.8592  0.8165
 1158SOL     OW14935   0.909   4.159   2.066  0.5372 -0.4168  0.5215
 1158SOL    HW114936   0.907   4.146   1.971 -1.9348  1.8172  0.2732
 1158SOL    HW214937   0.870   4.076   2.093  1.0602 -1.2311 -1.2340
 1159SOL     OW14938   3.080   3.331   0.352 -0.0111  0.3724  0.1755
 1159SOL    HW114939   3.113   3.244   0.329 -1.9454 -1.1999  3.4238
 1159SOL    HW214940   3.145   3.391   0.315 -0.0613  0.5036  0.3002
 1160SOL     OW14941   2.837   4.107   8.776  0.7617  0.0698 -0.3112
 1160SOL    HW114942   2.776   4.180   8.785  0.7139 -0.0857  0.6115
 1160SOL    HW214943   2.836   4.078   8.867 -1.7669  1.6830  0.1681
 1161SOL     OW14944   4.513   1.048   0.188  0.6962  0.3440 -0.7252
 1161SOL    HW114945   4.551   1.025   0.273 -0.8306 -0.8925 -0.3662
 1161SOL    HW214946   4.424   1.067   0.219  1.1224  2.7547 -1.0113
 1162SOL     OW14947   4.468   3.275   7.332 -0.0013  0.3582  0.6399
 1162SOL    HW114948   4.424   3.236   7.256 -1.5837 -1.0501  2.3005
 1162SOL    HW214949   4.506   3.198   7.374  1.3701  0.2605 -0.7920
 1163SOL     OW14950   1.255   2.972   8.688  0.2435  0.2715 -0.3182
 1163SOL    HW114951   1.219   3.044   8.636 -0.2479 -0.3831 -0.8709
 1163SOL    HW214952   1.312   3.030   8.739  0.9751  0.6449 -1.5493
 1164SOL     OW14953   4.718   2.698   2.053  0.1835 -0.0064  0.2063
 1164SOL    HW114954   0.050   2.728   2.129 -0.1253 -0.1453  0.4669
 1164SOL    HW214955   0.060   2.656   1.993 -2.3173 -3.9890  0.4677
 1165SOL     OW14956   1.228   0.270   7.553 -0.5264 -0.1207 -0.1202
 1165SOL    HW114957   1.255   0.188   7.513  0.6175 -0.1175  0.6598
 1165SOL    HW214958   1.314   0.310   7.560 -0.9090  0.7101 -0.1801
 1166SOL     OW14959   3.915   2.751   7.275  0.2290  0.6631  0.0533
 1166SOL    HW114960   3.998   2.709   7.254  0.9021  2.4406 -0.8803
 1166SOL    HW214961   3.861   2.748   7.196 -0.1890  0.9805  0.3255
 1167SOL     OW14962   0.798   2.301   9.555  0.1696  0.0734 -0.3001
 1167SOL    HW114963   0.747   2.220   9.553  1.2347 -0.5834 -0.7671
 1167SOL    HW214964   0.735   2.358   9.600  1.5256  0.9894  0.4285
 1168SOL     OW14965   2.937   4.703  12.237 -0.3545  0.1308  0.3779
 1168SOL    HW114966   2.970   4.616  12.212 -1.4946 -0.3128  0.4249
 1168SOL    HW214967   2.905   0.025  12.157  0.6327  0.1540 -0.0061
 1169SOL     OW14968   1.728   0.699   5.439  0.0588 -0.3912  0.3293
 1169SOL    HW114969   1.788   0.654   5.498  2.3007 -1.1386 -2.5389
 1169SOL    HW214970   1.679   0.755   5.500  0.0963 -1.0228  0.9493
 1170SOL     OW14971   0.659   1.211   7.523  0.5590  0.5324  0.7767
 1170SOL    HW114972   0.585   1.165   7.563  0.6308 -0.7401 -0.5244
 1170SOL    HW214973   0.736   1.167   7.560  1.3465  0.9009 -0.4090
 1171SOL     OW14974   1.431   2.931   1.642 -0.0560  0.4451 -0.0371
 1171SOL    HW114975   1.407   2.858   1.698  0.3888 -0.2107 -0.6921
 1171SOL    HW214976   1.359   2.915   1.580 -0.1087 -1.1788  0.4423
 1172SOL     OW14977   1.245   3.598  12.362  0.1429  0.1515  0.2748
 1172SOL    HW114978   1.337   3.621  12.347 -0.3107  1.1628 -0.9756
 1172SOL    HW214979   1.238   3.543  12.440  1.8965 -2.0473 -1.1234
 1173SOL     OW14980   1.225   1.462   1.833 -0.3188 -0.0000 -0.3466
 1173SOL    HW114981   1.283   1.506   1.771  0.4794 -0.0940  0.3294
 1173SOL    HW214982   1.242   1.374   1.801 -1.3327 -0.1512 -0.4863
 1174SOL     OW14983   4.598   2.045  12.997  0.0703 -0.0782  0.2055
 1174SOL    HW114984   4.514   1.999  12.992  0.0868 -0.3551  2.6622
 1174SOL    HW214985   4.589   2.109  12.926  2.5695  0.0735  0.0168
 1175SOL     OW14986   0.498   0.401  15.361 -0.2811 -0.5582 -0.1148
 1175SOL    HW114987   0.510   0.352  15.280 -1.8086  2.6431 -2.2907
 1175SOL    HW214988   0.550   0.351  15.424 -2.3496  0.8195  2.6967
 1176SOL     OW14989   0.560   1.694  11.078  0.2118 -0.2727 -0.1283
 1176SOL    HW114990   0.584   1.760  11.013  1.2771  3.1337  3.7449
 1176SOL    HW214991   0.469   1.667  11.064 -0.4196  1.2987  0.9482
 1177SOL     OW14992   1.591   0.773   4.382  0.0953 -0.5334  0.5914
 1177SOL    HW114993   1.528   0.739   4.318 -0.3346  0.5956  0.4206
 1177SOL    HW214994   1.557   0.860   4.401  0.6178 -0.1706 -0.1841
 1178SOL     OW14995   2.346   2.751   3.814 -0.6815  0.2794 -0.0444
 1178SOL    HW114996   2.367   2.689   3.883 -2.9786  0.5533  0.9204
 1178SOL    HW214997   2.419   2.811   3.828 -0.6609  0.7616 -2.2934
 1179SOL     OW14998   2.966   4.513   8.888  0.1700  0.0315  0.1311
 1179SOL    HW114999   2.895   4.464   8.930 -0.4115  0.6947 -0.0726
 1179SOL    HW215000   2.998   4.433   8.848 -0.9407 -0.3310 -0.0372
 1180SOL     OW15001   0.859   3.325   3.664  0.2127 -0.0828  0.6330
 1180SOL    HW115002   0.920   3.301   3.594  0.6273  1.9173  0.3032
 1180SOL    HW215003   0.871   3.420   3.653  0.1480  0.0690  1.9278
 1181SOL     OW15004   3.557   0.986   5.224 -0.2237 -0.2207  0.5094
 1181SOL    HW115005   3.482   1.043   5.206 -0.0825 -0.8226 -1.9797
 1181SOL    HW215006   3.531   0.962   5.313  1.5600  2.4161  1.7545
 1182SOL     OW15007   0.488   1.666  14.156 -0.6055 -0.0603 -0.5369
 1182SOL    HW115008   0.581   1.686  14.169 -0.9228  2.1288 -1.7437
 1182SOL    HW215009   0.461   1.729  14.223  0.6135 -2.0158  1.8346
 1183SOL     OW15010   4.560   0.736   9.312 -0.3361  0.4198 -0.0788
 1183SOL    HW115011   4.550   0.681   9.389 -2.0800  1.2298  0.2693
 1183SOL    HW215012   4.558   0.827   9.339 -2.2420  1.0251 -2.2803
 1184SOL     OW15013   1.593   2.415   7.017  0.3710  0.3250 -0.2238
 1184SOL    HW115014   1.676   2.436   6.975  0.8247 -3.2952 -1.1364
 1184SOL    HW215015   1.547   2.497   6.999  2.2277  1.3199 -0.3388
 1185SOL     OW15016   1.003   2.745  16.853 -0.2060  0.6360 -0.1129
 1185SOL    HW115017   1.012   2.702  16.768 -0.5715 -1.2196  0.7861
 1185SOL    HW215018   1.047   2.689  16.917  1.7425  1.3024 -0.8707
 1186SOL     OW15019   4.088   0.390   5.080  0.4715  0.4977  0.5642
 1186SOL    HW115020   3.997   0.418   5.073  0.2495 -0.4085 -0.0455
 1186SOL    HW215021   4.115   0.417   5.168  2.6749 -0.6201  0.2264
 1187SOL     OW15022   0.812   0.009   7.279 -0.4367 -0.0158  0.1225
 1187SOL    HW115023   0.852   4.657   7.329  0.3219  1.0074  0.9773
 1187SOL    HW215024   0.729   0.011   7.325 -1.4487  1.0163 -1.7354
 1188SOL     OW15025   2.998   2.353   5.577  0.4512 -0.1045  0.2932
 1188SOL    HW115026   2.905   2.330   5.570  0.6653 -0.7733 -0.3338
 1188SOL    HW215027   3.008   2.411   5.652 -0.8373 -1.5942  1.6221
 1189SOL     OW15028   0.547   1.414  13.628 -0.5528  0.3972  0.1653
 1189SOL    HW115029   0.563   1.494  13.578 -0.5226 -0.3365 -1.0046
 1189SOL    HW215030   0.452   1.408  13.625 -0.7230  2.3015  1.6742
 1190SOL     OW15031   4.233   3.697   4.169 -0.1085 -0.1188  0.2878
 1190SOL    HW115032   4.235   3.761   4.098  3.3677  1.7764  2.1262
 1190SOL    HW215033   4.315   3.713   4.214  1.1725  0.3307 -2.2247
 1191SOL     OW15034   4.577   0.514   6.657  0.4836  0.3549 -0.3379
 1191SOL    HW115035   4.625   0.584   6.612  2.9295 -1.4037 -0.3985
 1191SOL    HW215036   4.601   0.438   6.605 -0.2217 -0.9121  1.2008
 1192SOL     OW15037   0.978   4.096   6.793  0.6100  0.3668 -0.3235
 1192SOL    HW115038   0.900   4.137   6.830 -0.4195 -0.7775 -1.2233
 1192SOL    HW215039   1.054   4.143   6.828  0.2427  0.8623 -0.1950
 1193SOL     OW15040   4.701   4.127   5.624 -0.1802  0.5648  0.3203
 1193SOL    HW115041   4.611   4.146   5.596 -0.6563 -1.3410  0.5242
 1193SOL    HW215042   4.695   4.032   5.639 -1.8590  0.5477 -0.4649
 1194SOL     OW15043   4.694   4.180   8.977 -0.1866 -0.2924  0.8069
 1194SOL    HW115044   4.681   4.201   9.069 -0.4257  0.5999  0.5710
 1194SOL    HW215045   0.047   4.118   8.966 -1.1465 -1.5733  1.7493
 1195SOL     OW15046   3.058   0.788   8.001 -0.1848 -0.3319  0.7085
 1195SOL    HW115047   2.979   0.764   7.953  0.0507  0.5373 -0.1296
 1195SOL    HW215048   3.130   0.758   7.946  0.2741  0.6967  0.7414
 1196SOL     OW15049   4.117   4.077  13.807  0.0785  0.4205 -0.0747
 1196SOL    HW115050   4.112   4.156  13.861  0.7386  0.7261 -0.4493
 1196SOL    HW215051   4.183   4.023  13.852  0.7193  0.2142 -1.2507
 1197SOL     OW15052   3.178   4.198  12.480 -0.7700 -0.0452 -0.1521
 1197SOL    HW115053   3.256   4.229  12.434 -1.8058  1.4054 -0.9411
 1197SOL    HW215054   3.189   4.224  12.571 -0.8334 -0.2579 -0.0825
 1198SOL     OW15055   4.199   0.781   5.216  0.1313  0.7135 -0.0194
 1198SOL    HW115056   4.121   0.779   5.272 -0.2691 -3.7497 -0.7632
 1198SOL    HW215057   4.168   0.836   5.144  1.0343 -0.4212 -1.2477
 1199SOL     OW15058   4.396   2.603   1.744  0.3773 -0.0237 -0.4041
 1199SOL    HW115059   4.331   2.536   1.720  0.3022 -0.6614  1.5880
 1199SOL    HW215060   4.361   2.629   1.828  1.4755  2.5668 -0.7646
 1200SOL     OW15061   3.348   2.680   0.535 -0.7261 -0.3451  0.5423
 1200SOL    HW115062   3.390   2.605   0.575 -0.3538  0.8121  2.3307
 1200SOL    HW215063   3.378   2.745   0.599  1.1446 -1.0304  0.3337
 1201SOL     OW15064   0.821   2.163   4.045 -0.3836  0.1103  0.0120
 1201SOL    HW115065   0.903   2.212   4.053  1.2579 -2.3010 -1.9738
 1201SOL    HW215066   0.782   2.176   4.132 -1.5415  0.9277 -0.6192
 1202SOL     OW15067   3.772   3.835   7.289 -0.7609 -0.0648 -0.3603
 1202SOL    HW115068   3.692   3.832   7.236  0.0854 -1.5506 -1.5451
 1202SOL    HW215069   3.733   3.862   7.372  0.9510 -0.0134  0.4245
 1203SOL     OW15070   3.483   2.188   2.374  1.0415  0.6101  0.2711
 1203SOL    HW115071   3.543   2.183   2.448  1.5252 -1.1276 -0.2411
 1203SOL    HW215072   3.528   2.133   2.310 -0.2007  1.0634 -1.0100
 1204SOL     OW15073   3.748   3.949  12.648  0.3346 -0.2730 -0.6201
 1204SOL    HW115074   3.723   3.868  12.604  1.8407  0.3641 -2.6727
 1204SOL    HW215075   3.812   3.985  12.586  1.2591 -0.1813  0.3866
 1205SOL     OW15076   1.583   1.090   5.185 -0.4330  0.5853  0.4242
 1205SOL    HW115077   1.675   1.080   5.210 -0.4087  0.3236  0.2278
 1205SOL    HW215078   1.552   1.000   5.193 -1.2635  1.0241  2.3478
 1206SOL     OW15079   1.343   3.621  14.891  0.1037 -0.4567  0.0821
 1206SOL    HW115080   1.322   3.540  14.937 -0.6278  1.3124  2.8592
 1206SOL    HW215081   1.362   3.675  14.968  0.2638  0.5164 -0.6411
 1207SOL     OW15082   2.972   1.198   8.167 -0.6607  0.2053 -0.5177
 1207SOL    HW115083   2.945   1.264   8.231 -0.8739 -0.9684  0.6044
 1207SOL    HW215084   2.887   1.156   8.153 -1.5293  1.2498  1.5877
 1208SOL     OW15085   1.510   0.259   2.508 -0.3386 -0.4799  0.3516
 1208SOL    HW115086   1.567   0.334   2.528 -0.1682 -0.2377 -1.0837
 1208SOL    HW215087   1.564   0.180   2.509  1.5404  0.7846 -2.6854
 1209SOL     OW15088   1.290   3.866   7.873  0.3355  0.1745 -0.0336
 1209SOL    HW115089   1.359   3.877   7.807 -0.5759  2.6149 -0.5577
 1209SOL    HW215090   1.307   3.775   7.898 -1.7877 -0.2500 -0.1419
 1210SOL     OW15091   3.305   3.128   4.064 -0.0548 -0.2481 -0.0706
 1210SOL    HW115092   3.237   3.062   4.048 -0.6609  0.0015  1.4668
 1210SOL    HW215093   3.272   3.208   4.024 -2.3931 -2.1998 -2.0442
 1211SOL     OW15094   2.546   3.913  10.643 -0.2814  0.1096 -0.7085
 1211SOL    HW115095   2.509   3.995  10.610 -1.2598  0.9746  2.5935
 1211SOL    HW215096   2.534   3.937  10.735  2.6158  0.0393 -0.2921
 1212SOL     OW15097   2.043   0.496  12.201 -0.2378  0.1089 -0.4112
 1212SOL    HW115098   2.099   0.564  12.237 -0.8528 -0.0191  0.7925
 1212SOL    HW215099   2.094   0.415  12.206 -1.0371 -0.2964  1.1015
 1213SOL     OW15100   0.038   2.621   6.811  0.2453  0.1325  0.0564
 1213SOL    HW115101   0.030   2.708   6.851 -0.9440 -0.4969  1.1963
 1213SOL    HW215102   0.132   2.600   6.812 -0.5181 -3.3418 -1.7536
 1214SOL     OW15103   2.924   4.212   3.004  0.4938 -0.0923  0.4133
 1214SOL    HW115104   2.877   4.133   3.031 -1.0882  0.3673 -0.9640
 1214SOL    HW215105   2.856   4.273   3.033 -0.2955 -1.0714  0.6267
 1215SOL     OW15106   2.521   1.876  14.009 -0.1472 -0.1460 -0.2146
 1215SOL    HW115107   2.582   1.858  14.080  0.2425  0.8887 -0.2891
 1215SOL    HW215108   2.435   1.849  14.041 -0.1681 -0.3868 -0.4732
 1216SOL     OW15109   4.106   4.656   2.858 -0.2949  0.3522 -0.1737
 1216SOL    HW115110   4.198   4.682   2.858 -0.4894  1.0673 -1.2366
 1216SOL    HW215111   4.099   4.596   2.784 -1.3732  0.0820  0.1435
 1217SOL     OW15112   1.239   0.221   3.810 -0.7602 -0.2383 -0.3762
 1217SOL    HW115113   1.179   0.234   3.883  0.4015  0.0227  0.5457
 1217SOL    HW215114   1.314   0.188   3.861 -1.4715 -0.0524  0.7973
 1218SOL     OW15115   4.372   2.636   8.565  0.1968 -0.4600 -0.1142
 1218SOL    HW115116   4.305   2.665   8.627 -1.1707  0.9464 -2.2461
 1218SOL    HW215117   4.340   2.656   8.478 -3.7402 -2.1468  0.9456
 1219SOL     OW15118   4.160   3.752   2.572  0.3641  0.1277 -0.5309
 1219SOL    HW115119   4.168   3.838   2.532  0.4562  0.5798  0.4524
 1219SOL    HW215120   4.073   3.720   2.548 -0.2053  0.6992  0.7927
 1220SOL     OW15121   2.396   0.214   4.273 -0.2652 -0.1569  0.5883
 1220SOL    HW115122   2.455   0.139   4.272 -0.8833 -0.7034  3.2378
 1220SOL    HW215123   2.362   0.218   4.362  2.4355  2.2905  1.5111
 1221SOL     OW15124   3.551   3.183   5.555 -0.0622  0.1962 -0.3180
 1221SOL    HW115125   3.495   3.181   5.477  0.5330  0.0749 -0.7468
 1221SOL    HW215126   3.564   3.277   5.565 -1.2532  0.4191 -0.9139
 1222SOL     OW15127   1.934   1.241   2.458  0.0903  0.0497  0.4441
 1222SOL    HW115128   1.968   1.287   2.380  4.1887 -0.0668  2.1522
 1222SOL    HW215129   1.860   1.295   2.484  0.7259  1.5887 -0.9153
 1223SOL     OW15130   4.663   3.494   6.177 -0.5421  0.3605 -0.4126
 1223SOL    HW115131   4.623   3.580   6.163 -4.5353 -1.5757 -0.9208
 1223SOL    HW215132   4.711   3.510   6.258 -0.8702  0.1393 -0.1766
 1224SOL     OW15133   0.996   3.953   7.210  0.4170 -0.1840  0.1472
 1224SOL    HW115134   1.001   3.933   7.117 -0.7941 -0.0142  0.0411
 1224SOL    HW215135   1.041   3.871   7.232 -0.3807 -0.8503 -0.7354
 1225SOL     OW15136   1.203   2.321   4.479  0.2141  0.0483  0.3531
 1225SOL    HW115137   1.218   2.392   4.417  2.9652 -0.5067  0.3690
 1225SOL    HW215138   1.116   2.289   4.454  0.1333 -0.4556  1.2810
 1226SOL     OW15139   2.614   1.453   9.751 -0.1102 -0.1349  0.8998
 1226SOL    HW115140   2.610   1.361   9.778  0.0029 -0.1080  1.0081
 1226SOL    HW215141   2.700   1.463   9.711  0.1840 -0.6470  1.4078
 1227SOL     OW15142   2.482   4.428   0.295  0.7297 -0.4885 -0.5886
 1227SOL    HW115143   2.438   4.446   0.378 -1.5849 -1.1841 -1.6505
 1227SOL    HW215144   2.483   4.516   0.258 -1.2740 -0.0728  0.3556
 1228SOL     OW15145   1.313   0.805   6.820  0.0241  0.6551 -0.0532
 1228SOL    HW115146   1.324   0.900   6.828  2.5180  0.4974 -1.5516
 1228SOL    HW215147   1.283   0.777   6.907  0.3195 -2.1744 -0.8615
 1229SOL     OW15148   0.678   1.972  14.977  0.5736  0.2341  0.4024
 1229SOL    HW115149   0.625   1.932  14.908  0.2135  2.0077 -0.3477
 1229SOL    HW215150   0.769   1.951  14.956  0.8051  2.0338 -0.3242
 1230SOL     OW15151   2.568   0.076   3.567  0.0220 -0.2231  0.2137
 1230SOL    HW115152   2.569   0.051   3.475 -0.6100 -1.3316  0.5035
 1230SOL    HW215153   2.482   0.119   3.566  1.2075  2.1793  0.0639
 1231SOL     OW15154   3.992   3.925   2.297  0.7096  0.4622 -0.5016
 1231SOL    HW115155   3.994   3.874   2.378 -1.3849  0.6573 -0.3279
 1231SOL    HW215156   4.034   3.869   2.231  0.9679 -2.6926  2.3527
 1232SOL     OW15157   1.307   4.431   8.934 -0.1782 -0.5526 -0.4705
 1232SOL    HW115158   1.294   4.452   9.026 -2.4086 -1.4290 -0.5698
 1232SOL    HW215159   1.217   4.437   8.902  0.3030 -1.1563 -1.9455
 1233SOL     OW15160   0.866   4.142  15.921 -0.2064 -0.5398  0.0414
 1233SOL    HW115161   0.950   4.165  15.881  0.5475  0.8867  2.3703
 1233SOL    HW215162   0.890   4.166  16.011  2.1042 -2.4533 -0.0512
 1234SOL     OW15163   1.055   1.835   2.807  0.2302  0.3286 -0.2311
 1234SOL    HW115164   0.967   1.862   2.833  0.5815  2.2083 -0.9706
 1234SOL    HW215165   1.052   1.740   2.815 -0.4025  0.4681  1.0788
 1235SOL     OW15166   2.412   4.665   3.062  0.4760 -0.6140 -0.0477
 1235SOL    HW115167   2.431   4.598   3.129  1.9724  1.1034  1.2482
 1235SOL    HW215168   2.431   4.601   2.994 -0.3624 -2.0722  1.0852
 1236SOL     OW15169   2.781   0.513   8.617 -0.8720  0.0140  0.7173
 1236SOL    HW115170   2.825   0.567   8.683 -1.6352 -1.2385  2.2541
 1236SOL    HW215171   2.845   0.510   8.547 -0.2729  1.4808  1.1958
 1237SOL     OW15172   2.525   3.389   8.042 -0.1080  0.2932  1.1515
 1237SOL    HW115173   2.586   3.443   8.092 -0.7021  1.2137  0.8637
 1237SOL    HW215174   2.559   3.299   8.048 -0.5918 -0.0061 -0.6994
 1238SOL     OW15175   3.467   4.092   0.714 -0.1429 -0.0920  0.2830
 1238SOL    HW115176   3.537   4.033   0.742 -0.2702 -0.2861  0.1963
 1238SOL    HW215177   3.441   4.041   0.636  0.3911 -1.2517  0.8608
 1239SOL     OW15178   4.637   0.720   6.484 -0.2868 -0.2610 -0.3493
 1239SOL    HW115179   4.645   0.814   6.502 -0.5488 -0.7949  2.4131
 1239SOL    HW215180   4.714   0.707   6.427  0.2445 -0.0690  0.3299
 1240SOL     OW15181   2.816   1.146   3.564  0.0813 -0.2757  0.3887
 1240SOL    HW115182   2.896   1.184   3.603  0.8270 -1.0322 -0.4094
 1240SOL    HW215183   2.764   1.226   3.562 -1.0056 -1.0645 -2.3180
 1241SOL     OW15184   3.206   4.665   9.857  0.0538  0.2133  0.2811
 1241SOL    HW115185   3.248   4.579   9.858  1.2785  0.7894 -1.7381
 1241SOL    HW215186   3.225   4.682   9.949  0.6513 -1.0114  0.3861
 1242SOL     OW15187   2.779   0.927   8.467 -0.4068  0.1384 -0.2073
 1242SOL    HW115188   2.863   0.968   8.484  0.0838 -1.5817  1.5513
 1242SOL    HW215189   2.807   0.867   8.398 -0.8760 -1.6001  1.0824
 1243SOL     OW15190   4.537   4.709   1.671 -0.1020  0.4496  0.1854
 1243SOL    HW115191   4.472   4.689   1.738 -0.1086 -0.3655 -0.0617
 1243SOL    HW215192   4.593   0.050   1.720  2.4675 -1.1532 -0.7854
 1244SOL     OW15193   4.215   4.331   7.529 -0.1136  0.4562  0.3871
 1244SOL    HW115194   4.137   4.294   7.489  1.4253 -3.6800  1.2860
 1244SOL    HW215195   4.190   4.358   7.617 -2.6910 -0.7010 -0.0012
 1245SOL     OW15196   4.018   1.034   2.919  0.1439  0.0103  0.1064
 1245SOL    HW115197   3.970   0.964   2.963  1.8001 -1.8641 -1.0376
 1245SOL    HW215198   4.087   1.046   2.984  1.1941 -1.0918 -0.8119
 1246SOL     OW15199   1.987   0.207   6.092 -0.0602 -0.4180  0.1944
 1246SOL    HW115200   2.014   0.298   6.103  0.7829 -0.8512  1.6755
 1246SOL    HW215201   2.057   0.175   6.035  0.5875  0.6361  0.3878
 1247SOL     OW15202   0.596   0.383  13.182  0.0152  0.0282 -0.6243
 1247SOL    HW115203   0.659   0.328  13.228 -0.4894 -0.2618 -0.2779
 1247SOL    HW215204   0.527   0.397  13.246 -0.5078 -0.5943 -1.0485
 1248SOL     OW15205   0.467   3.989   3.048  0.5986  0.3655 -0.3983
 1248SOL    HW115206   0.499   4.078   3.065  2.2599 -0.6478  1.6921
 1248SOL    HW215207   0.380   3.986   3.088  0.2326  0.0636 -1.2159
 1249SOL     OW15208   0.950   2.483   2.497 -0.0859 -0.1352 -0.4128
 1249SOL    HW115209   0.935   2.396   2.533  0.0716  0.0996  0.2132
 1249SOL    HW215210   1.042   2.499   2.517  0.0847 -1.8804  0.2373
 1250SOL     OW15211   1.633   1.660   5.514  0.2601  0.1789 -0.3653
 1250SOL    HW115212   1.558   1.677   5.457 -0.2067 -0.0894  0.1720
 1250SOL    HW215213   1.576   1.655   5.591  0.4291  0.8407 -0.1987
 1251SOL     OW15214   1.757   3.347   2.221  0.6816 -0.1447 -0.3279
 1251SOL    HW115215   1.850   3.327   2.205  0.5109 -0.8076 -0.4902
 1251SOL    HW215216   1.744   3.441   2.209  1.4183  0.4077  3.2962
 1252SOL     OW15217   0.703   4.391  12.279  0.1126 -0.2043 -0.3927
 1252SOL    HW115218   0.664   4.478  12.284 -0.1170 -0.2211 -1.9056
 1252SOL    HW215219   0.757   4.397  12.200 -0.6502  0.1944 -0.8835
 1253SOL     OW15220   2.256   0.156   0.197 -0.4426  0.1659 -0.4543
 1253SOL    HW115221   2.185   0.129   0.138  0.5614  0.0943 -1.6129
 1253SOL    HW215222   2.334   0.103   0.180  1.2322  2.4822  0.0250
 1254SOL     OW15223   1.934   0.174   8.074 -0.3952 -0.0780 -0.2950
 1254SOL    HW115224   2.002   0.163   8.140  0.8148 -0.2709 -1.5752
 1254SOL    HW215225   1.897   0.086   8.066 -1.8319  0.4924  0.1096
 1255SOL     OW15226   1.132   2.843   5.595 -0.3066  0.0053 -0.4044
 1255SOL    HW115227   1.038   2.842   5.576 -0.2635  0.7232 -0.6723
 1255SOL    HW215228   1.176   2.905   5.538  0.2131 -0.4086 -0.4465
 1256SOL     OW15229   2.156   3.359  12.378  0.1229  0.0688  0.1403
 1256SOL    HW115230   2.104   3.283  12.353 -0.0604  0.8235 -1.7935
 1256SOL    HW215231   2.090   3.426  12.394  0.4527  0.9593 -2.3238
 1257SOL     OW15232   4.575   4.569  10.968 -0.1258 -0.1601  0.0862
 1257SOL    HW115233   4.655   4.575  11.021  0.0328  0.5817 -0.2366
 1257SOL    HW215234   4.519   4.605  11.037  0.3178 -0.0606  0.3933
 1258SOL     OW15235   0.832   4.562   5.702  0.7568  0.0679 -0.4229
 1258SOL    HW115236   0.896   4.572   5.631  0.8976 -0.9467 -0.4401
 1258SOL    HW215237   0.884   4.560   5.782 -1.2756 -0.1423  0.8903
 1259SOL     OW15238   4.173   3.866   1.477  0.3384 -0.0853  0.1339
 1259SOL    HW115239   4.120   3.790   1.453 -1.0884  1.0422 -0.2989
 1259SOL    HW215240   4.126   3.942   1.443 -2.8958 -0.4268  3.8856
 1260SOL     OW15241   4.714   2.732  15.344 -0.9076  0.2845 -0.4177
 1260SOL    HW115242   0.060   2.785  15.299  1.5935 -1.6233  1.0132
 1260SOL    HW215243   4.640   2.792  15.331 -2.5151 -1.8581 -1.1118
 1261SOL     OW15244   1.263   3.859   4.459 -0.3862  0.7427 -0.1671
 1261SOL    HW115245   1.236   3.928   4.519 -0.0522  1.9942 -1.4723
 1261SOL    HW215246   1.357   3.878   4.461 -0.7898  2.5281  1.8808
 1262SOL     OW15247   1.845   1.462  11.122 -0.3532  0.0149  0.0494
 1262SOL    HW115248   1.751   1.449  11.132 -0.6845  1.4527 -1.2398
 1262SOL    HW215249   1.848   1.526  11.051  0.6522  2.2095  2.0712
 1263SOL     OW15250   3.134   0.988   5.140 -0.4460  0.3599  0.0687
 1263SOL    HW115251   3.215   1.038   5.148 -0.1480  0.2434 -2.1378
 1263SOL    HW215252   3.168   0.927   5.075 -2.2036  0.5285 -1.0033
 1264SOL     OW15253   1.299   0.206   5.714  0.2838  0.0699  0.6126
 1264SOL    HW115254   1.265   0.295   5.709  1.1603  0.3422 -0.3745
 1264SOL    HW215255   1.365   0.213   5.645 -0.1088  0.8551  0.3287
 1265SOL     OW15256   3.445   4.287  14.320  0.2900 -0.0531 -0.1296
 1265SOL    HW115257   3.469   4.195  14.307 -0.3076 -0.2488  0.1285
 1265SOL    HW215258   3.525   4.338  14.308 -0.0126  1.0955  2.7589
 1266SOL     OW15259   4.380   3.340  16.493  0.1153  0.0361  0.2101
 1266SOL    HW115260   4.357   3.416  16.439 -0.8713 -0.5058 -0.1386
 1266SOL    HW215261   4.464   3.318  16.453  0.4756  0.8593  0.5107
 1267SOL     OW15262   4.339   2.767   4.235 -0.3526 -0.2235  0.1025
 1267SOL    HW115263   4.286   2.847   4.237 -0.0067 -0.0567  2.5813
 1267SOL    HW215264   4.322   2.731   4.148  0.2431 -0.3666  0.0491
 1268SOL     OW15265   1.899   0.203   6.516 -0.7777  0.0298 -0.0238
 1268SOL    HW115266   1.889   0.154   6.597 -0.3013 -1.5405 -0.9277
 1268SOL    HW215267   1.984   0.246   6.528 -0.8399 -0.2271  1.2840
 1269SOL     OW15268   1.094   4.623   3.893  0.2440  0.1281  0.5537
 1269SOL    HW115269   1.176   4.646   3.938  0.2588  0.9481  0.1012
 1269SOL    HW215270   1.050   4.583   3.968  1.2032  0.8398  1.5087
 1270SOL     OW15271   1.167   2.207   6.531  0.0649 -0.5701 -0.4961
 1270SOL    HW115272   1.245   2.177   6.484 -0.5036 -1.4111 -0.8924
 1270SOL    HW215273   1.193   2.247   6.614 -0.0088  0.1290 -0.8117
 1271SOL     OW15274   4.288   4.064  13.415  0.6329 -0.4596 -0.2783
 1271SOL    HW115275   4.300   4.148  13.371  0.6391 -0.0967  0.4166
 1271SOL    HW215276   4.201   4.083  13.448  1.1245 -0.4211  0.9830
 1272SOL     OW15277   0.640   4.421   5.563 -0.0250  0.4947 -0.1624
 1272SOL    HW115278   0.704   4.457   5.624  0.6529 -1.7021  0.4052
 1272SOL    HW215279   0.565   4.394   5.617  1.7602 -2.1924  0.9810
 1273SOL     OW15280   2.485   3.709   6.978 -0.2099  0.5901  0.0416
 1273SOL    HW115281   2.533   3.626   6.974  0.5799  1.1798 -2.7265
 1273SOL    HW215282   2.406   3.696   6.925 -0.1371 -2.7999  0.7748
 1274SOL     OW15283   2.794   2.379   8.581 -0.1584 -0.3727  0.1045
 1274SOL    HW115284   2.765   2.469   8.599  0.6182  0.1227 -1.0913
 1274SOL    HW215285   2.849   2.363   8.657 -1.2024  1.6266  1.2955
 1275SOL     OW15286   2.583   2.986   2.339  0.0584 -0.3820  0.0897
 1275SOL    HW115287   2.508   2.982   2.398 -0.2818  0.1609 -0.3067
 1275SOL    HW215288   2.589   2.898   2.302  0.1073 -1.6518  3.0927
 1276SOL     OW15289   4.544   2.214   9.192  0.0442 -0.1430 -0.3444
 1276SOL    HW115290   4.551   2.178   9.103 -0.9277  0.2145 -0.5696
 1276SOL    HW215291   4.532   2.307   9.170 -0.8899  0.0425  0.9442
 1277SOL     OW15292   4.353   2.021  12.901  0.4349 -0.4001  0.6750
 1277SOL    HW115293   4.346   2.106  12.857  1.4288  0.7935  2.8068
 1277SOL    HW215294   4.264   1.993  12.922 -0.7699  2.5787 -0.4015
 1278SOL     OW15295   2.349   1.132  11.329  1.1276  0.1893 -0.3995
 1278SOL    HW115296   2.298   1.213  11.338  2.1470  0.6187  1.5170
 1278SOL    HW215297   2.422   1.181  11.293  1.3109  0.0394 -0.2302
 1279SOL     OW15298   3.691   2.424   3.376  0.0676 -0.4325 -0.6035
 1279SOL    HW115299   3.716   2.477   3.300  1.7135  0.0264  0.2609
 1279SOL    HW215300   3.662   2.490   3.439 -0.7697 -0.1660 -1.2698
 1280SOL     OW15301   3.721   0.388   7.470  0.3942  0.0925  0.2433
 1280SOL    HW115302   3.656   0.343   7.524 -0.0254  0.9951  0.4746
 1280SOL    HW215303   3.667   0.416   7.396 -1.8275 -0.1120  1.7926
 1281SOL     OW15304   0.487   1.689   8.396  0.5222 -0.0668 -0.4733
 1281SOL    HW115305   0.472   1.718   8.306 -0.8646  0.9555  0.0977
 1281SOL    HW215306   0.564   1.739   8.423  1.9307 -1.9981 -0.9585
 1282SOL     OW15307   3.700   2.480  11.766 -0.0551 -0.4956 -0.2662
 1282SOL    HW115308   3.707   2.465  11.671  0.1895  1.4572 -0.5492
 1282SOL    HW215309   3.695   2.388  11.793  1.6882 -0.2923  0.7437
 1283SOL     OW15310   3.246   4.380  12.234  0.2378  0.3662 -0.2160
 1283SOL    HW115311   3.272   4.324  12.162 -0.0029 -0.4330  0.3145
 1283SOL    HW215312   3.155   4.404  12.217  0.1553  0.7067  0.6842
 1284SOL     OW15313   0.568   2.058  13.220  0.0430 -0.3340  0.3280
 1284SOL    HW115314   0.605   2.122  13.160  1.8228 -0.2526  1.5110
 1284SOL    HW215315   0.626   1.982  13.208  2.1958  0.8984  2.8184
 1285SOL     OW15316   0.473   3.562   5.670 -0.2993 -0.6677  0.1126
 1285SOL    HW115317   0.525   3.482   5.657 -0.9715 -1.0626 -0.1614
 1285SOL    HW215318   0.400   3.508   5.699 -0.1793 -0.8187  0.1342
 1286SOL     OW15319   4.636   3.090   3.354  0.3753  0.5534 -0.3297
 1286SOL    HW115320   4.682   3.046   3.282  1.2787  1.0634 -0.0582
 1286SOL    HW215321   4.609   3.013   3.404 -1.3647  2.0281  0.9610
 1287SOL     OW15322   4.263   1.806   3.008  0.1391  0.0025 -0.3663
 1287SOL    HW115323   4.270   1.899   2.988 -0.4218 -0.3990 -2.4072
 1287SOL    HW215324   4.203   1.776   2.940  1.9529 -2.9757 -0.6715
 1288SOL     OW15325   2.383   3.303   4.737  0.5471  0.1138  0.0911
 1288SOL    HW115326   2.421   3.280   4.653  1.9728  4.5095 -0.4753
 1288SOL    HW215327   2.351   3.391   4.715 -2.8581 -1.7172 -2.2539
 1289SOL     OW15328   4.495   1.773   5.115  0.4301 -0.3253  0.2705
 1289SOL    HW115329   4.568   1.827   5.144  0.6880 -0.1013 -0.8168
 1289SOL    HW215330   4.421   1.807   5.167  0.0894 -2.0782  0.9406
 1290SOL     OW15331   1.323   2.658  10.765  0.1884  0.1093  0.5032
 1290SOL    HW115332   1.377   2.726  10.803 -0.0695  1.0003 -0.7065
 1290SOL    HW215333   1.237   2.701  10.767 -0.4897 -1.1464 -1.3363
 1291SOL     OW15334   2.594   3.904   4.770  0.7246  0.1330 -0.1551
 1291SOL    HW115335   2.664   3.969   4.769  0.1371  0.7621 -0.4914
 1291SOL    HW215336   2.604   3.874   4.860 -0.5952 -1.5329 -0.5653
 1292SOL     OW15337   0.344   4.531   9.486 -0.3916 -0.3777 -0.3791
 1292SOL    HW115338   0.284   4.520   9.412  0.6168 -1.8257 -0.9848
 1292SOL    HW215339   0.326   4.448   9.530  0.6246 -0.7262 -0.6196
 1293SOL     OW15340   0.963   3.170  11.092 -0.1174  0.0970 -0.1789
 1293SOL    HW115341   1.036   3.124  11.052 -0.0858  0.7307 -0.8488
 1293SOL    HW215342   0.913   3.103  11.139  0.9296  0.0726  0.9057
 1294SOL     OW15343   2.571   1.608  16.900 -0.6405  0.4358  0.4645
 1294SOL    HW115344   2.476   1.618  16.908 -1.0620 -2.4783 -1.0354
 1294SOL    HW215345   2.576   1.538  16.964  0.4688 -0.3004 -0.4360
 1295SOL     OW15346   1.515   0.095   3.874  0.0042 -0.3678  0.0839
 1295SOL    HW115347   1.547   0.030   3.811 -1.2886 -1.7104  0.7894
 1295SOL    HW215348   1.488   0.034   3.943  0.2027  1.7507  2.0140
 1296SOL     OW15349   1.781   2.660  11.230  0.2637 -0.4305 -0.0883
 1296SOL    HW115350   1.850   2.612  11.276  0.3077 -0.2659  0.0191
 1296SOL    HW215351   1.722   2.666  11.305  1.0128 -1.5320  0.5682
 1297SOL     OW15352   0.596   4.127   7.208 -0.0089 -0.4393  0.5734
 1297SOL    HW115353   0.658   4.175   7.263 -1.5299  2.8157 -0.6081
 1297SOL    HW215354   0.534   4.091   7.271 -1.0947  2.7910  1.3282
 1298SOL     OW15355   2.115   2.141  11.174 -0.2103  0.2705 -0.2850
 1298SOL    HW115356   2.093   2.148  11.081 -0.7419 -0.3992 -0.2150
 1298SOL    HW215357   2.196   2.092  11.158 -1.9285 -2.4753 -0.5908
 1299SOL     OW15358   1.085   2.111  10.328 -0.2165  0.1954 -0.1792
 1299SOL    HW115359   1.094   2.063  10.410  0.9616  1.0918  0.2188
 1299SOL    HW215360   1.162   2.080  10.281 -0.9924  0.0523 -1.3683
 1300SOL     OW15361   2.496   2.986   3.808  0.0394  0.0852 -0.3111
 1300SOL    HW115362   2.536   2.990   3.721 -0.1111 -1.8389 -0.4755
 1300SOL    HW215363   2.551   3.046   3.858 -1.6207 -0.8102  2.5805
 1301SOL     OW15364   0.961   0.905   2.572  0.0373  0.1290  0.2896
 1301SOL    HW115365   1.056   0.920   2.564  0.2994  0.3864  3.8685
 1301SOL    HW215366   0.928   0.977   2.518 -1.2153 -0.7823 -0.1627
 1302SOL     OW15367   0.241   2.184   5.646  0.1860 -0.2252 -0.3034
 1302SOL    HW115368   0.243   2.089   5.659  2.7347  0.0497  1.1879
 1302SOL    HW215369   0.259   2.197   5.553  0.6194 -0.9799 -0.3223
 1303SOL     OW15370   2.691   4.421   3.912 -0.2552 -0.4224 -0.0443
 1303SOL    HW115371   2.710   4.328   3.896  0.6730 -0.3683  0.7154
 1303SOL    HW215372   2.766   4.461   3.957 -1.7626  0.6237  1.5717
 1304SOL     OW15373   3.981   2.443   4.494 -0.5264  0.1980 -0.1539
 1304SOL    HW115374   3.935   2.463   4.413 -1.0708  0.4787  0.2190
 1304SOL    HW215375   4.057   2.501   4.488  1.4212 -2.0767  2.2931
 1305SOL     OW15376   0.758   1.727   6.695  0.1221  0.4872 -0.1775
 1305SOL    HW115377   0.828   1.731   6.630 -0.2236 -1.8313 -0.6888
 1305SOL    HW215378   0.736   1.820   6.691 -0.2220  0.4038 -0.1738
 1306SOL     OW15379   1.547   2.300   4.898 -0.7117 -0.2955  0.1686
 1306SOL    HW115380   1.600   2.230   4.860 -0.4167 -0.1055  0.2330
 1306SOL    HW215381   1.458   2.294   4.863 -0.9068  0.8162  0.4797
 1307SOL     OW15382   2.424   1.333   6.344  0.3188  0.0582 -0.3955
 1307SOL    HW115383   2.415   1.427   6.330 -1.4334  0.2542  2.0154
 1307SOL    HW215384   2.515   1.326   6.373  1.2470  1.9859 -2.8544
 1308SOL     OW15385   0.927   2.031   1.848  0.2465  0.2383  0.1026
 1308SOL    HW115386   0.908   2.080   1.768  1.9876 -0.6789 -0.8569
 1308SOL    HW215387   0.938   2.101   1.913 -2.1871  0.8138 -0.0711
 1309SOL     OW15388   2.650   3.103   2.599  0.2969  0.1878  0.0193
 1309SOL    HW115389   2.721   3.039   2.606  0.3638  0.4002  1.2451
 1309SOL    HW215390   2.645   3.092   2.504 -0.1822  0.1242  0.0508
 1310SOL     OW15391   4.157   1.537  16.038  0.1540 -0.6043  0.5159
 1310SOL    HW115392   4.111   1.592  15.974  1.6815 -0.1549 -0.1756
 1310SOL    HW215393   4.145   1.593  16.115 -0.1837  2.3145 -1.6450
 1311SOL     OW15394   1.139   3.334   8.283  0.6883 -0.2797 -0.8736
 1311SOL    HW115395   1.227   3.366   8.302  1.4346 -3.1982  0.5846
 1311SOL    HW215396   1.091   3.410   8.252  0.6070 -0.5331 -1.3544
 1312SOL     OW15397   1.978   2.452   6.093  0.2774 -0.0829  0.1441
 1312SOL    HW115398   1.976   2.379   6.030  1.2691 -1.6003  1.8582
 1312SOL    HW215399   2.071   2.453   6.116  0.3385  0.9024 -0.1779
 1313SOL     OW15400   3.725   3.277   2.021 -0.6324 -0.4363 -0.0902
 1313SOL    HW115401   3.683   3.204   1.976 -1.6341  1.6926 -2.6156
 1313SOL    HW215402   3.787   3.231   2.078  0.9288  1.3732 -0.3367
 1314SOL     OW15403   1.761   1.146  10.883  0.5149  0.0755 -0.0362
 1314SOL    HW115404   1.770   1.242  10.888  3.2645 -0.0706 -1.9580
 1314SOL    HW215405   1.685   1.143  10.826 -1.3742 -3.0467  2.6675
 1315SOL     OW15406   0.013   3.138   3.810  0.3820 -0.1831  0.1054
 1315SOL    HW115407   0.094   3.087   3.811  0.5822  0.1161 -0.9296
 1315SOL    HW215408   4.679   3.078   3.758  0.6989 -1.4169  1.1890
 1316SOL     OW15409   1.313   0.002   8.833 -0.3857  0.0562 -0.5386
 1316SOL    HW115410   1.347   4.633   8.818 -2.1089 -0.9902  1.5285
 1316SOL    HW215411   1.246   4.691   8.895  1.2987 -1.9777  0.3001
 1317SOL     OW15412   4.409   1.391   9.725 -0.3992 -0.0276 -0.1478
 1317SOL    HW115413   4.413   1.307   9.770  1.8007  0.4795  0.6713
 1317SOL    HW215414   4.359   1.368   9.647  1.8532  0.8573 -1.8586
 1318SOL     OW15415   3.333   4.552   1.221  0.8856  0.6134  0.6691
 1318SOL    HW115416   3.422   4.585   1.235 -0.2154  3.4464  1.1049
 1318SOL    HW215417   3.345   4.467   1.179 -0.9311 -1.1008  3.6222
 1319SOL     OW15418   0.842   3.317   1.743  0.2587  0.4949  0.6740
 1319SOL    HW115419   0.818   3.298   1.652 -0.6282 -1.4464  1.2996
 1319SOL    HW215420   0.776   3.384   1.757 -0.4119  0.2376 -1.2690
 1320SOL     OW15421   4.678   3.909   1.699  0.1922 -0.0933 -0.0128
 1320SOL    HW115422   4.671   3.996   1.736 -0.3315 -1.4476  3.0976
 1320SOL    HW215423   4.602   3.913   1.641 -2.4189 -0.7239  3.4123
 1321SOL     OW15424   4.350   1.464   8.002 -0.3226 -0.0158  0.3104
 1321SOL    HW115425   4.324   1.556   8.004 -1.3985 -0.2548 -2.2764
 1321SOL    HW215426   4.364   1.445   8.095  2.1633  1.6636  0.2748
 1322SOL     OW15427   1.250   2.573  17.535  0.2599 -0.2850  0.3880
 1322SOL    HW115428   1.321   2.637  17.535  0.7563 -0.8273  0.7615
 1322SOL    HW215429   1.182   2.608  17.592 -1.7195 -0.4734 -1.8551
 1323SOL     OW15430   3.963   4.440   1.945 -0.4500  0.3186 -0.0620
 1323SOL    HW115431   3.913   4.460   1.866 -1.1696 -0.3941  0.2192
 1323SOL    HW215432   4.013   4.521   1.955  0.0021 -0.1979  1.8798
 1324SOL     OW15433   0.905   0.474  12.230 -0.2436  0.0783 -0.3320
 1324SOL    HW115434   0.971   0.434  12.287 -1.6572 -0.5908  0.8159
 1324SOL    HW215435   0.869   0.401  12.179 -0.1772 -0.5225  0.4928
 1325SOL     OW15436   0.742   3.118   4.497  0.1883  0.1377 -0.2000
 1325SOL    HW115437   0.708   3.145   4.412  0.7478  0.2714 -0.3852
 1325SOL    HW215438   0.834   3.144   4.490  0.6145 -0.9766  1.1210
 1326SOL     OW15439   0.385   4.056   4.582 -0.0441  0.0132 -0.0070
 1326SOL    HW115440   0.338   4.113   4.643  1.0828 -0.7994  1.6160
 1326SOL    HW215441   0.432   4.119   4.528  0.4649 -0.8240 -0.5391
 1327SOL     OW15442   1.890   3.293   0.591 -0.0675 -0.6420 -0.3857
 1327SOL    HW115443   1.929   3.239   0.660  0.3899 -1.2481 -1.1252
 1327SOL    HW215444   1.963   3.353   0.575 -1.6708  0.8425 -2.1045
 1328SOL     OW15445   0.920   1.861  14.908 -0.1669  0.0822  0.2110
 1328SOL    HW115446   0.872   1.778  14.900 -2.0689  1.0448  1.4907
 1328SOL    HW215447   0.953   1.875  14.819 -2.9082 -3.3387 -1.3932
 1329SOL     OW15448   3.635   3.295   9.761 -0.1512  0.1270 -0.5966
 1329SOL    HW115449   3.583   3.316   9.684 -1.9557  2.0699  1.1672
 1329SOL    HW215450   3.636   3.378   9.810 -0.8315  0.5970 -1.3836
 1330SOL     OW15451   0.647   1.150   2.909  0.2570  0.0476  0.1802
 1330SOL    HW115452   0.633   1.112   2.822 -0.6956 -0.6091  0.6223
 1330SOL    HW215453   0.694   1.075   2.945  1.8918  0.1791 -1.6641
 1331SOL     OW15454   4.634   1.035   1.673 -0.1860  0.0773  0.2708
 1331SOL    HW115455   4.604   0.996   1.591  0.2891  2.7314 -1.1755
 1331SOL    HW215456   4.572   1.107   1.682  0.3612  0.6112 -0.2476
 1332SOL     OW15457   2.081   3.928  13.217  0.1767 -0.2339 -0.3775
 1332SOL    HW115458   2.099   4.017  13.184  0.0062 -0.2480 -0.5060
 1332SOL    HW215459   2.124   3.937  13.302 -1.2876  1.2632  0.2185
 1333SOL     OW15460   1.525   1.503   9.570  0.0543 -0.0359  0.6476
 1333SOL    HW115461   1.560   1.586   9.538  1.4384 -1.5284 -1.6822
 1333SOL    HW215462   1.519   1.516   9.664 -2.2282  1.9103  0.2486
 1334SOL     OW15463   3.700   2.827   6.372  0.2237  0.6349 -0.0038
 1334SOL    HW115464   3.742   2.911   6.387 -0.1445  0.7827  0.1944
 1334SOL    HW215465   3.635   2.849   6.439 -0.4018  0.8189 -0.6797
 1335SOL     OW15466   4.296   3.551  16.307  0.0787  0.4704 -0.3286
 1335SOL    HW115467   4.263   3.548  16.217  1.2796  0.0576 -0.7586
 1335SOL    HW215468   4.254   3.629  16.343  1.2998  1.3359 -0.7639
 1336SOL     OW15469   3.146   2.369  12.035 -0.4613 -0.1810  0.0184
 1336SOL    HW115470   3.102   2.353  12.118  1.1882  1.2519  1.1486
 1336SOL    HW215471   3.157   2.463  12.049  1.2328 -0.7204  2.2977
 1337SOL     OW15472   2.604   4.035   6.708 -0.6521 -0.9590 -0.1669
 1337SOL    HW115473   2.636   4.092   6.778  0.5715 -0.7665 -0.8811
 1337SOL    HW215474   2.534   3.988   6.753 -0.5544  0.4087  1.4078
 1338SOL     OW15475   4.239   4.376   8.589 -0.0805  0.7917  0.8511
 1338SOL    HW115476   4.218   4.290   8.626  0.7324  0.3772  0.3373
 1338SOL    HW215477   4.188   4.373   8.508 -0.8278  2.5880  1.2587
 1339SOL     OW15478   0.000   1.204   2.540 -0.0314 -0.1081 -0.1168
 1339SOL    HW115479   0.019   1.136   2.604 -0.8957  0.2407  0.5060
 1339SOL    HW215480   0.037   1.283   2.580  0.5236  0.0291 -0.9097
 1340SOL     OW15481   0.526   0.685  10.535  0.2559 -0.0031  0.2283
 1340SOL    HW115482   0.494   0.769  10.567  1.2368  1.1634 -1.8673
 1340SOL    HW215483   0.476   0.682  10.453  0.8400 -0.6269 -0.1046
 1341SOL     OW15484   2.286   4.059   3.685  0.3412  0.0037  0.2993
 1341SOL    HW115485   2.306   3.974   3.644 -1.1035  0.4993 -1.4612
 1341SOL    HW215486   2.372   4.072   3.723  0.2796  2.1470 -0.3230
 1342SOL     OW15487   1.315   3.441  13.532 -0.3130 -0.4991 -0.5007
 1342SOL    HW115488   1.375   3.434  13.606  0.9975  0.3122 -1.4696
 1342SOL    HW215489   1.303   3.350  13.505 -1.9152 -0.8559  1.4928
 1343SOL     OW15490   2.008   1.802   7.411 -0.6043  0.0818  0.0577
 1343SOL    HW115491   2.043   1.882   7.450 -0.3963  0.9307 -1.8838
 1343SOL    HW215492   2.038   1.732   7.469 -1.8045 -0.4244  0.0674
 1344SOL     OW15493   0.367   3.040  11.797 -0.2419  0.0955  0.5198
 1344SOL    HW115494   0.280   3.079  11.809 -1.7594 -2.8903 -0.8049
 1344SOL    HW215495   0.366   3.009  11.706  0.4452  2.8949 -0.4659
 1345SOL     OW15496   3.309   0.669   5.971  0.4076 -0.0337 -0.6553
 1345SOL    HW115497   3.367   0.625   5.910  0.8538  1.5115 -1.3370
 1345SOL    HW215498   3.249   0.720   5.918 -0.6440 -1.3271 -0.7078
 1346SOL     OW15499   2.566   1.346   8.319  0.0033  0.2361  0.6748
 1346SOL    HW115500   2.476   1.336   8.287 -0.1251 -0.8312  1.3651
 1346SOL    HW215501   2.571   1.301   8.403  0.2807  0.3370  0.7117
 1347SOL     OW15502   3.910   3.580   2.290 -0.3130 -0.0263 -0.4491
 1347SOL    HW115503   3.862   3.548   2.214 -0.2403  0.6302 -0.7745
 1347SOL    HW215504   3.995   3.584   2.246 -1.2521  2.4577 -1.9806
 1348SOL     OW15505   2.527   4.047  10.365 -0.8118  0.6065 -0.4901
 1348SOL    HW115506   2.438   4.081  10.361 -0.5873  1.0220 -1.9499
 1348SOL    HW215507   2.520   3.954  10.345  0.9944  0.2520  0.5048
 1349SOL     OW15508   2.824   0.186   6.613  0.2438  0.1529 -0.4005
 1349SOL    HW115509   2.877   0.138   6.677 -1.2847  0.9712  1.4678
 1349SOL    HW215510   2.879   0.263   6.609 -0.3069  0.5204 -0.9596
 1350SOL     OW15511   0.256   2.138   8.190  0.2619 -0.0429  0.2735
 1350SOL    HW115512   0.334   2.120   8.136  0.7404  2.0345  0.2832
 1350SOL    HW215513   0.257   2.234   8.195 -0.7762  0.0132 -0.5551
 1351SOL     OW15514   1.903   0.385   8.278  0.4224  0.5319  0.0663
 1351SOL    HW115515   1.929   0.337   8.357 -1.6998 -0.9947 -0.1679
 1351SOL    HW215516   1.892   0.325   8.205  0.6315  0.4555  0.0998
 1352SOL     OW15517   1.568   1.599   6.174  0.1283  0.2401  0.1193
 1352SOL    HW115518   1.567   1.512   6.133 -0.2838  0.4037 -0.2164
 1352SOL    HW215519   1.506   1.654   6.127  1.3018  0.8142 -0.7657
 1353SOL     OW15520   2.439   4.691   2.249  0.0190 -0.3351 -0.7564
 1353SOL    HW115521   2.505   4.701   2.180  0.7281 -2.9765 -0.4599
 1353SOL    HW215522   2.456   0.051   2.299 -0.9663 -0.4052 -0.3022
 1354SOL     OW15523   3.282   0.560  10.139  0.4664 -0.0160 -0.0291
 1354SOL    HW115524   3.272   0.491  10.074  0.8174 -0.2777  0.1982
 1354SOL    HW215525   3.249   0.510  10.214  0.0549 -0.2573 -0.3715
 1355SOL     OW15526   0.650   1.491   1.515 -0.4235 -0.5181  0.6930
 1355SOL    HW115527   0.654   1.501   1.420  1.1080 -0.4786  0.7640
 1355SOL    HW215528   0.558   1.513   1.533 -0.5686 -1.2115  0.8062
 1356SOL     OW15529   0.057   2.714  11.406  0.5096 -0.0161  0.0091
 1356SOL    HW115530   0.066   2.705  11.500  1.3037 -2.1451 -0.2634
 1356SOL    HW215531   0.021   2.802  11.396 -0.1543 -0.5552 -2.3440
 1357SOL     OW15532   1.069   1.178   4.797 -0.2152 -0.4970 -0.7339
 1357SOL    HW115533   1.032   1.092   4.777 -0.7917 -0.0809 -1.4326
 1357SOL    HW215534   0.997   1.240   4.784  2.8908  3.1579 -0.6558
 1358SOL     OW15535   0.527   2.360   4.291 -0.5183  0.4480  0.0272
 1358SOL    HW115536   0.518   2.284   4.233 -1.0809  0.8394 -0.4043
 1358SOL    HW215537   0.602   2.324   4.337 -0.4747 -1.1257 -1.2670
 1359SOL     OW15538   1.296   0.209   8.641 -0.4068  0.2898  0.1517
 1359SOL    HW115539   1.285   0.139   8.706 -1.0074  2.1860  2.0768
 1359SOL    HW215540   1.219   0.259   8.668  0.6467  1.5707  0.7444
 1360SOL     OW15541   3.526   1.848  14.377  0.8317  0.1647 -0.2504
 1360SOL    HW115542   3.561   1.926  14.334 -0.5910  1.5597  1.0952
 1360SOL    HW215543   3.522   1.781  14.309  0.2540 -0.6394  0.5730
 1361SOL     OW15544   4.585   1.591   6.309  0.2429  0.0558 -0.0916
 1361SOL    HW115545   4.665   1.630   6.274 -0.3375  2.6874  1.5258
 1361SOL    HW215546   4.519   1.620   6.247  0.6794 -0.1150 -0.6382
 1362SOL     OW15547   0.625   4.696   5.796  0.3718  0.4162 -0.9147
 1362SOL    HW115548   0.699   4.651   5.755  0.1692 -0.3456 -0.4558
 1362SOL    HW215549   0.606   0.040   5.727  0.2814  1.1238 -0.2477
 1363SOL     OW15550   0.957   4.340   2.976  0.1633  0.2800  0.3946
 1363SOL    HW115551   1.034   4.354   2.920  0.8184  1.0627  1.4946
 1363SOL    HW215552   0.994   4.377   3.056 -0.5541  0.8073  0.4908
 1364SOL     OW15553   4.707   1.390   3.872 -0.2041  0.4866 -0.3566
 1364SOL    HW115554   4.623   1.345   3.875  0.4576 -0.7314 -0.2478
 1364SOL    HW215555   0.015   1.360   3.959 -0.5633 -2.8734 -1.4264
 1365SOL     OW15556   2.108   0.929   2.659 -0.2179  0.4445  0.2095
 1365SOL    HW115557   2.126   0.850   2.709 -2.2967 -2.0366 -2.9773
 1365SOL    HW215558   2.097   0.887   2.574 -0.0867  0.9259 -0.0443
 1366SOL     OW15559   1.899   2.006   7.119 -0.8180  0.0269  0.2912
 1366SOL    HW115560   1.916   2.094   7.086 -0.7993 -0.1037 -0.0495
 1366SOL    HW215561   1.838   2.029   7.188  0.6252  0.8450  1.2911
 1367SOL     OW15562   3.811   2.308   8.103 -0.4289  0.1974 -0.0141
 1367SOL    HW115563   3.752   2.383   8.098 -0.9981 -0.0877  2.5676
 1367SOL    HW215564   3.884   2.340   8.051 -0.5618  2.4483  1.1746
 1368SOL     OW15565   4.549   1.410   2.824  0.4142 -0.2932 -0.9660
 1368SOL    HW115566   4.507   1.346   2.881  1.3518 -0.4268 -0.4208
 1368SOL    HW215567   4.474   1.447   2.778 -0.9123 -0.7644  0.8444
 1369SOL     OW15568   0.341   1.161   7.829  0.6107  0.1164  0.2274
 1369SOL    HW115569   0.309   1.251   7.823  0.0500 -0.2276 -1.8220
 1369SOL    HW215570   0.338   1.138   7.736 -3.0621 -0.8783  0.6123
 1370SOL     OW15571   2.381   1.001  17.104  0.2817 -0.5018  1.0868
 1370SOL    HW115572   2.332   0.993  17.186  0.1194  0.9724  1.1467
 1370SOL    HW215573   2.381   0.910  17.075 -1.4564 -0.0052 -0.4986
 1371SOL     OW15574   3.887   1.561   7.481  0.1967  0.3787  0.8186
 1371SOL    HW115575   3.972   1.552   7.524  2.1267  1.2523 -2.8067
 1371SOL    HW215576   3.882   1.656   7.480  2.5100  0.4899  0.0032
 1372SOL     OW15577   0.960   2.494   8.291 -0.1102  0.5463 -0.5772
 1372SOL    HW115578   1.000   2.412   8.321 -2.8984 -0.4129  0.5308
 1372SOL    HW215579   1.024   2.563   8.307 -0.3356  0.5615  0.3052
 1373SOL     OW15580   4.546   0.360  12.868 -0.2680 -0.1756 -0.4753
 1373SOL    HW115581   4.636   0.370  12.901 -0.5829 -0.7105  0.5462
 1373SOL    HW215582   4.504   0.378  12.952  0.3547  1.1197 -0.4417
 1374SOL     OW15583   2.804   0.958   3.370  0.2652  0.4056  0.5315
 1374SOL    HW115584   2.725   0.909   3.391  1.8267 -1.5780  1.7304
 1374SOL    HW215585   2.815   1.020   3.442  1.0954 -0.5824  1.2369
 1375SOL     OW15586   0.168   2.269  13.344  0.1094 -0.2235  0.1709
 1375SOL    HW115587   0.114   2.209  13.293 -1.2041  2.0544 -1.1149
 1375SOL    HW215588   0.173   2.347  13.289  1.6917  0.4973  1.3505
 1376SOL     OW15589   2.709   0.416   4.856 -0.0509 -0.6726  0.8532
 1376SOL    HW115590   2.654   0.470   4.913 -0.5795 -1.4078  1.0461
 1376SOL    HW215591   2.789   0.466   4.865  0.4786 -1.3015 -0.3507
 1377SOL     OW15592   2.856   0.602   0.045  0.0416 -0.1144 -0.0295
 1377SOL    HW115593   2.875   0.509   0.060  0.6112 -0.0845 -0.5800
 1377SOL    HW215594   2.888   0.625  17.639 -2.1609 -1.5297 -1.2012
 1378SOL     OW15595   0.879   0.873   3.330 -0.0754  0.1314 -0.5217
 1378SOL    HW115596   0.883   0.818   3.251 -0.7080 -1.5947  0.6540
 1378SOL    HW215597   0.860   0.806   3.395 -2.3033  1.7515  0.5258
 1379SOL     OW15598   4.464   4.346   7.812  0.0491 -0.4812  0.0722
 1379SOL    HW115599   4.433   4.281   7.874  1.8891 -1.5438 -0.1205
 1379SOL    HW215600   4.509   4.415   7.860  0.0480  0.0481 -0.6890
 1380SOL     OW15601   2.006   3.197  10.633  0.4495 -0.2674 -0.3326
 1380SOL    HW115602   1.924   3.247  10.632  0.6446  0.0113 -2.0401
 1380SOL    HW215603   1.965   3.111  10.620 -1.3927  0.4862  0.5049
 1381SOL     OW15604   0.740   1.517   5.703 -0.4750  0.0668  0.5834
 1381SOL    HW115605   0.646   1.502   5.691 -0.6065  1.3148  0.0376
 1381SOL    HW215606   0.744   1.530   5.798  1.0446 -1.0132  0.6561
 1382SOL     OW15607   2.850   3.762  16.147 -0.0616  0.4312 -0.3573
 1382SOL    HW115608   2.902   3.820  16.091  0.5888  1.1316  0.9673
 1382SOL    HW215609   2.773   3.744  16.094 -0.0704  2.1112 -0.9212
 1383SOL     OW15610   2.432   2.638  10.654  0.1984  0.2565 -0.5403
 1383SOL    HW115611   2.527   2.651  10.659 -0.1720  2.4591  0.9540
 1383SOL    HW215612   2.409   2.610  10.743 -3.4534 -2.9321 -2.5268
 1384SOL     OW15613   2.679   1.359   8.786  0.2005  0.1035 -0.3690
 1384SOL    HW115614   2.615   1.317   8.844  1.4801 -1.5336 -0.1491
 1384SOL    HW215615   2.753   1.329   8.839 -1.7910 -2.0407  1.2342
 1385SOL     OW15616   1.895   1.200  11.281 -0.5409  0.0071  0.2392
 1385SOL    HW115617   1.882   1.164  11.369 -0.8450 -1.4953 -0.4185
 1385SOL    HW215618   1.891   1.293  11.303 -0.2587  0.0333  0.1734
 1386SOL     OW15619   1.056   2.705  12.730  0.2279  0.0528 -0.0919
 1386SOL    HW115620   1.065   2.794  12.764  2.7363 -0.1298 -0.2499
 1386SOL    HW215621   1.049   2.729  12.638 -0.4297 -2.3738 -0.6904
 1387SOL     OW15622   0.884   3.826   3.017  0.8579  0.5283 -0.5571
 1387SOL    HW115623   0.893   3.917   2.989  2.0537  1.6297  3.3748
 1387SOL    HW215624   0.788   3.820   3.014  0.9217 -1.2847  0.8535
 1388SOL     OW15625   2.381   3.266   7.365 -0.1384  0.2615  0.2722
 1388SOL    HW115626   2.389   3.344   7.309  0.0301  0.9353  1.2248
 1388SOL    HW215627   2.360   3.303   7.450  0.7904  1.7328 -0.1314
 1389SOL     OW15628   0.418   4.378   5.720 -0.0853  0.2388  0.5240
 1389SOL    HW115629   0.485   4.365   5.786  1.8640  0.2755 -1.4567
 1389SOL    HW215630   0.353   4.313   5.748  0.4255 -0.3376  0.3585
 1390SOL     OW15631   4.189   0.512   2.956 -0.5243  0.5553 -0.4790
 1390SOL    HW115632   4.138   0.475   3.029  1.0593  0.4106  0.5418
 1390SOL    HW215633   4.151   0.468   2.881 -1.6922 -0.6664  0.8235
 1391SOL     OW15634   3.254   1.712   6.015 -0.0384 -0.1061 -0.1700
 1391SOL    HW115635   3.288   1.684   6.099  0.8077  3.2537  0.6287
 1391SOL    HW215636   3.223   1.628   5.982 -1.3530 -0.2269  1.3945
 1392SOL     OW15637   0.901   2.780   2.053  0.0252 -0.1903  0.6512
 1392SOL    HW115638   0.812   2.768   2.023 -0.1363  1.2652  0.5395
 1392SOL    HW215639   0.911   2.875   2.044 -1.6549 -0.1519 -0.5592
 1393SOL     OW15640   2.051   1.341   5.531  0.7327 -0.5639  0.2602
 1393SOL    HW115641   1.991   1.372   5.599 -1.3138  0.4129 -1.9685
 1393SOL    HW215642   2.117   1.296   5.584  0.0322 -0.9309  0.8164
 1394SOL     OW15643   0.219   4.214   0.450  0.4400 -0.3089  0.4282
 1394SOL    HW115644   0.153   4.240   0.514  0.7226 -0.9927  0.9920
 1394SOL    HW215645   0.161   4.204   0.374  1.8638  1.3610 -0.8880
 1395SOL     OW15646   1.404   2.892   6.837  0.1787 -0.0159 -0.0959
 1395SOL    HW115647   1.321   2.919   6.797 -0.9934 -1.8322  1.1029
 1395SOL    HW215648   1.465   2.938   6.779  1.9718  0.1926  1.9529
 1396SOL     OW15649   0.829   0.248   7.705  0.0974  0.3061 -0.0684
 1396SOL    HW115650   0.908   0.265   7.756  0.2231  2.0658 -0.8316
 1396SOL    HW215651   0.826   0.338   7.672  2.2179  1.0625  1.8276
 1397SOL     OW15652   4.063   2.919   2.368  0.0852  0.1722  0.8936
 1397SOL    HW115653   4.067   3.004   2.412 -0.5423 -0.3877  2.0470
 1397SOL    HW215654   4.097   2.941   2.282 -1.3856  0.4260  0.3833
 1398SOL     OW15655   1.313   2.826  14.329  0.7402 -0.0916 -1.1663
 1398SOL    HW115656   1.354   2.827  14.416 -0.8948  0.4092 -0.4022
 1398SOL    HW215657   1.225   2.796  14.354  0.1980  1.8225 -0.7988
 1399SOL     OW15658   2.355   4.224   4.186 -0.3662 -0.1042  0.1335
 1399SOL    HW115659   2.387   4.269   4.108 -0.4139  0.7207  0.5893
 1399SOL    HW215660   2.268   4.194   4.159  0.8523 -1.5448 -2.1294
 1400SOL     OW15661   1.797   0.586   4.867 -0.2140 -0.4730 -0.2931
 1400SOL    HW115662   1.825   0.604   4.957 -1.7454  0.8226 -0.0921
 1400SOL    HW215663   1.832   0.660   4.818  1.2157  0.0937  1.6008
 1401SOL     OW15664   2.313   1.977  14.562  0.2585 -0.1900  0.1311
 1401SOL    HW115665   2.246   1.942  14.621 -0.5916  1.6073  0.2377
 1401SOL    HW215666   2.269   2.061  14.548 -1.9366 -1.6176 -1.4744
 1402SOL     OW15667   4.666   3.527  16.235  0.0652  0.2128 -0.2409
 1402SOL    HW115668   4.625   3.441  16.227  0.5612  0.0062 -0.5542
 1402SOL    HW215669   4.607   3.583  16.285  0.7259  0.5513  0.1689
 1403SOL     OW15670   4.398   1.889  16.682  0.1709  0.0108  0.2401
 1403SOL    HW115671   4.407   1.869  16.589 -1.6067  0.8622 -0.1162
 1403SOL    HW215672   4.372   1.803  16.714 -0.2719  0.0348 -0.0604
 1404SOL     OW15673   4.452   4.043   5.953  0.3897  0.1361  0.2521
 1404SOL    HW115674   4.451   4.038   6.048  0.1549 -1.0609  0.1861
 1404SOL    HW215675   4.387   3.978   5.929 -1.2573  1.1959  1.8817
 1405SOL     OW15676   2.805   1.975   0.755  0.4185 -0.0855 -0.2660
 1405SOL    HW115677   2.849   1.963   0.840  1.7468  1.4573 -0.7304
 1405SOL    HW215678   2.780   1.885   0.734  2.8236 -0.5266 -1.2475
 1406SOL     OW15679   1.902   2.631  15.771 -0.4211  0.0784  0.0192
 1406SOL    HW115680   1.943   2.547  15.790  0.3402  0.1375 -1.3370
 1406SOL    HW215681   1.838   2.639  15.842  0.6742 -0.1023  1.0210
 1407SOL     OW15682   2.527   1.438   7.871  0.0474  0.1702 -0.5424
 1407SOL    HW115683   2.571   1.404   7.793 -0.9991 -0.9077 -0.6639
 1407SOL    HW215684   2.440   1.398   7.867  1.1321 -2.3383  1.4907
 1408SOL     OW15685   2.231   4.490   7.665 -0.4034 -0.4152 -0.1995
 1408SOL    HW115686   2.189   4.521   7.745 -0.9688  1.3279 -1.1662
 1408SOL    HW215687   2.187   4.528   7.589 -0.4060 -0.2389 -0.1081
 1409SOL     OW15688   3.711   1.172   6.172 -0.0961  0.3590 -0.8244
 1409SOL    HW115689   3.710   1.255   6.220 -0.7478 -1.4316  2.2456
 1409SOL    HW215690   3.623   1.167   6.135 -1.3069  1.1892  1.9437
 1410SOL     OW15691   1.102   0.723   1.360  0.7702  0.2340  0.3600
 1410SOL    HW115692   1.012   0.696   1.346  1.0132 -0.3302 -0.0833
 1410SOL    HW215693   1.089   0.797   1.421 -2.0839  0.0864 -0.0652
 1411SOL     OW15694   3.734   1.078   0.879 -0.2720  0.4714 -0.1334
 1411SOL    HW115695   3.769   1.145   0.937 -0.1285  1.0655 -0.9105
 1411SOL    HW215696   3.807   1.017   0.881 -0.6724  0.0438  1.0781
 1412SOL     OW15697   0.921   4.145   5.627  0.1132 -0.2983 -0.0959
 1412SOL    HW115698   0.829   4.166   5.615 -0.5684 -1.3837  2.9565
 1412SOL    HW215699   0.954   4.146   5.537  0.5188 -0.0420  0.0534
 1413SOL     OW15700   3.766   0.474   8.785  0.3748  0.0508  0.2001
 1413SOL    HW115701   3.823   0.421   8.730 -0.9868 -0.0001 -1.1532
 1413SOL    HW215702   3.829   0.495   8.854  0.8275 -1.2199  0.1695
 1414SOL     OW15703   2.881   3.431   7.974  0.4611 -0.4923 -0.0788
 1414SOL    HW115704   2.921   3.369   8.035 -1.1751  1.2932  2.8244
 1414SOL    HW215705   2.838   3.491   8.035 -0.5041 -1.5352  0.2659
 1415SOL     OW15706   2.073   3.734  17.042  0.3406  1.0446  0.1184
 1415SOL    HW115707   2.025   3.697  16.968 -0.2035 -0.3377  1.1804
 1415SOL    HW215708   2.152   3.681  17.036 -0.8947 -0.9022  1.0629
 1416SOL     OW15709   0.130   4.511   8.260  0.2107 -0.1514  0.5967
 1416SOL    HW115710   0.161   4.424   8.285  0.7502 -0.2264 -0.3347
 1416SOL    HW215711   0.082   4.487   8.181  1.3235 -1.3968  0.3140
 1417SOL     OW15712   0.780   3.496   2.037 -0.2319  0.2189  0.4335
 1417SOL    HW115713   0.731   3.427   2.081 -0.5880  0.2506  0.0914
 1417SOL    HW215714   0.715   3.515   1.969  2.0709  3.1520 -0.9146
 1418SOL     OW15715   4.561   0.868   2.407 -0.2426 -0.2419 -0.1286
 1418SOL    HW115716   4.540   0.847   2.316 -1.5921  0.3361  0.0450
 1418SOL    HW215717   4.483   0.831   2.450  0.6646 -1.7633  0.2175
 1419SOL     OW15718   2.299   2.741   9.124 -0.1293 -0.6232  0.0076
 1419SOL    HW115719   2.297   2.793   9.204  1.5275  1.2132 -1.1477
 1419SOL    HW215720   2.206   2.723   9.120 -0.2540 -0.3042  1.3380
 1420SOL     OW15721   0.650   0.252   9.597  0.4619  0.0007  0.1000
 1420SOL    HW115722   0.663   0.285   9.509 -1.6032 -0.9176 -0.5508
 1420SOL    HW215723   0.579   0.309   9.626  0.5974  0.2303 -0.0184
 1421SOL     OW15724   2.713   3.772   9.555 -0.0134 -0.0846  0.4004
 1421SOL    HW115725   2.705   3.859   9.517 -0.1616  0.0921  0.8355
 1421SOL    HW215726   2.719   3.723   9.473  0.2667 -0.0192  0.3820
 1422SOL     OW15727   1.229   3.813  17.564  0.3844  0.7186  0.1347
 1422SOL    HW115728   1.238   3.890  17.508  0.0538  0.1239 -0.7518
 1422SOL    HW215729   1.319   3.780  17.565  0.4202  0.7384 -3.0451
 1423SOL     OW15730   3.736   2.623   6.198 -0.1048  0.3854 -0.2737
 1423SOL    HW115731   3.738   2.700   6.254 -2.1120  1.5020 -1.7211
 1423SOL    HW215732   3.731   2.546   6.255 -0.6457 -0.4147 -1.3823
 1424SOL     OW15733   1.741   2.723   3.546  0.1392  0.0052  0.2801
 1424SOL    HW115734   1.699   2.805   3.521  2.0776  0.9604  0.2457
 1424SOL    HW215735   1.677   2.686   3.607 -1.1305 -1.0170 -1.6475
 1425SOL     OW15736   3.790   1.823  15.650  0.1057  0.3810  0.2706
 1425SOL    HW115737   3.866   1.767  15.637 -0.8220 -0.6928 -0.4961
 1425SOL    HW215738   3.785   1.818  15.746 -0.6268  0.7881  0.2555
 1426SOL     OW15739   2.535   4.374   1.620 -0.2354  0.0264  0.4395
 1426SOL    HW115740   2.552   4.348   1.530  1.6947 -0.0418  0.8229
 1426SOL    HW215741   2.574   4.461   1.623 -1.1307  0.3450  2.4883
 1427SOL     OW15742   0.134   1.557   5.116 -0.0268  0.5237 -0.4415
 1427SOL    HW115743   0.095   1.505   5.045 -1.4786  0.6188  0.2710
 1427SOL    HW215744   0.173   1.497   5.180  1.1471  2.9673  1.0996
 1428SOL     OW15745   3.631   3.935   0.884  0.2820  0.0284  0.3253
 1428SOL    HW115746   3.643   3.841   0.892  0.4749  0.1526  1.3812
 1428SOL    HW215747   3.717   3.973   0.899 -0.0763  0.7827  0.5235
 1429SOL     OW15748   3.743   2.561   5.522 -0.4078  0.5509  0.2429
 1429SOL    HW115749   3.826   2.515   5.536 -2.1983 -2.2132  1.7488
 1429SOL    HW215750   3.756   2.608   5.439  0.7301  0.5979  0.4372
 1430SOL     OW15751   3.401   3.711   7.502  0.6157 -0.0549 -0.2376
 1430SOL    HW115752   3.317   3.673   7.530 -0.1333  0.3405 -1.9356
 1430SOL    HW215753   3.364   3.741   7.419 -0.8291 -1.0668  0.0415
 1431SOL     OW15754   1.508   0.523   3.168 -0.3123  0.2192 -0.8113
 1431SOL    HW115755   1.533   0.599   3.115  0.4810  0.3504 -0.2336
 1431SOL    HW215756   1.441   0.485   3.111  0.9798 -0.6581 -1.7464
 1432SOL     OW15757   0.235   2.303   0.329 -0.2081  0.2860  1.1300
 1432SOL    HW115758   0.241   2.382   0.384  1.5965  0.0998  1.1985
 1432SOL    HW215759   0.142   2.299   0.307 -0.1132  0.3607  0.7267
 1433SOL     OW15760   1.356   1.050   3.052 -0.3136 -0.0095  0.0332
 1433SOL    HW115761   1.367   1.036   2.958  0.0803 -2.6653  0.4819
 1433SOL    HW215762   1.410   1.128   3.065  0.7527 -0.6592 -0.4983
 1434SOL     OW15763   0.772   2.402   6.758  0.6033 -0.5762  0.3376
 1434SOL    HW115764   0.729   2.428   6.676  1.2365 -2.8445 -0.7136
 1434SOL    HW215765   0.752   2.477   6.814 -0.1630 -0.3199 -0.2770
 1435SOL     OW15766   4.582   1.227  10.039 -0.2369 -0.0531  0.2161
 1435SOL    HW115767   4.645   1.179  10.094 -0.1116 -0.5747 -0.3910
 1435SOL    HW215768   4.536   1.283  10.102  0.3741  0.1291  0.5016
 1436SOL     OW15769   2.233   0.843   7.939  0.5582 -0.3548 -0.3258
 1436SOL    HW115770   2.154   0.827   7.991  0.7488 -2.6927 -0.7646
 1436SOL    HW215771   2.291   0.769   7.958  2.1762 -0.0825 -4.3349
 1437SOL     OW15772   1.399   2.090   1.589  0.4971  0.0501 -0.1255
 1437SOL    HW115773   1.360   2.171   1.557 -0.8747 -1.6425 -2.7950
 1437SOL    HW215774   1.476   2.087   1.532 -1.3337 -0.0549 -2.5740
 1438SOL     OW15775   1.212   0.152   3.008 -0.5201  0.6488 -0.1373
 1438SOL    HW115776   1.181   0.151   3.098  2.5441  0.8052  0.9047
 1438SOL    HW215777   1.252   0.238   2.996  0.6011  0.2405  0.7317
 1439SOL     OW15778   1.028   3.824   4.675 -0.0769  0.6780 -0.8330
 1439SOL    HW115779   0.992   3.799   4.590 -0.5040 -0.1782 -0.3989
 1439SOL    HW215780   1.100   3.762   4.689  1.7775  3.2145  0.9981
 1440SOL     OW15781   2.300   0.925   4.134  0.7808 -0.4212  0.3372
 1440SOL    HW115782   2.372   0.926   4.071  1.2284  0.6068  0.8742
 1440SOL    HW215783   2.274   1.017   4.141 -0.7009 -0.7337 -0.9537
 1441SOL     OW15784   4.577   4.482   6.239 -0.2167 -0.3400 -0.5885
 1441SOL    HW115785   4.596   4.487   6.145 -1.5539 -2.6927 -0.9973
 1441SOL    HW215786   4.650   4.526   6.282  0.8148 -1.7279 -0.9026
 1442SOL     OW15787   0.996   2.877   7.676  0.1391  0.1330  0.0329
 1442SOL    HW115788   1.054   2.803   7.659 -1.4414 -1.1993  0.3930
 1442SOL    HW215789   0.932   2.833   7.733 -0.1965 -0.1912 -0.5906
 1443SOL     OW15790   4.574   1.999  15.782 -0.0100  0.1570  0.2264
 1443SOL    HW115791   4.602   2.077  15.829  0.6837 -0.6035  1.0744
 1443SOL    HW215792   4.654   1.947  15.784 -0.6325 -0.7760  0.7577
 1444SOL     OW15793   2.170   0.728   3.318  0.2355  0.8247 -0.1519
 1444SOL    HW115794   2.093   0.706   3.371  0.9629  0.9003  0.9466
 1444SOL    HW215795   2.168   0.822   3.333 -0.6401  1.0370 -1.5768
 1445SOL     OW15796   4.691   1.374  13.545  0.4595 -0.2595 -0.2035
 1445SOL    HW115797   4.653   1.311  13.605 -0.0442  0.9763  0.7709
 1445SOL    HW215798   4.640   1.363  13.465  1.2943 -0.1747 -0.7493
 1446SOL     OW15799   4.718   1.891   4.009  0.2482  0.3301 -0.5669
 1446SOL    HW115800   0.050   1.833   3.952  1.4469  0.8358 -0.0165
 1446SOL    HW215801   0.047   1.882   4.091  0.1130  0.7915 -0.4330
 1447SOL     OW15802   3.577   4.449   9.497  0.0286  0.3073  0.1213
 1447SOL    HW115803   3.643   4.432   9.564 -1.1687 -1.6894  0.8115
 1447SOL    HW215804   3.565   4.543   9.503 -1.2853  0.1386  0.2592
 1448SOL     OW15805   0.426   2.495  10.134 -0.3824 -0.3228 -0.1959
 1448SOL    HW115806   0.509   2.495  10.182 -1.2805  2.1512  1.3863
 1448SOL    HW215807   0.451   2.557  10.066  3.2980 -1.0270  0.5115
 1449SOL     OW15808   3.613   1.031  15.145 -0.0902  0.0128 -0.2625
 1449SOL    HW115809   3.659   1.114  15.156  0.7627 -0.3926 -0.7423
 1449SOL    HW215810   3.653   0.967  15.203  0.5354  0.8320  0.2077
 1450SOL     OW15811   2.058   1.935   5.323 -0.0394 -0.6135 -0.2982
 1450SOL    HW115812   2.042   2.023   5.289 -0.4282 -0.5764 -0.0208
 1450SOL    HW215813   2.000   1.876   5.276  1.0126 -0.1348 -2.1696
 1451SOL     OW15814   3.828   4.697   6.935  0.3805 -0.0874 -0.0102
 1451SOL    HW115815   3.822   0.048   6.871  1.2323 -0.6192 -0.6714
 1451SOL    HW215816   3.786   0.026   7.006 -2.8098  0.7318 -2.5060
 1452SOL     OW15817   3.101   4.589   1.384  0.2817  0.2787  0.3800
 1452SOL    HW115818   3.154   4.590   1.304  1.5475 -1.2284  1.2001
 1452SOL    HW215819   3.166   4.609   1.451  0.8074  1.9382 -0.6193
 1453SOL     OW15820   2.394   1.192   5.392  0.7844  0.9227 -0.1106
 1453SOL    HW115821   2.470   1.249   5.401  0.8982  1.0195 -1.6886
 1453SOL    HW215822   2.360   1.231   5.311 -1.0671  0.6718  0.5477
 1454SOL     OW15823   0.898   1.637  12.916 -0.5752  0.3109  0.1294
 1454SOL    HW115824   0.965   1.702  12.939  0.1461 -0.3412 -0.1157
 1454SOL    HW215825   0.820   1.682  12.949 -0.8226  1.6273 -2.2894
 1455SOL     OW15826   3.011   1.715  12.835 -0.0644 -0.3135 -0.5222
 1455SOL    HW115827   2.962   1.713  12.918  1.2706  0.9759  0.3041
 1455SOL    HW215828   3.010   1.809  12.819 -1.5007 -0.5286 -1.7429
 1456SOL     OW15829   0.108   3.195   2.195 -0.5040  0.2655  0.4392
 1456SOL    HW115830   0.040   3.192   2.128 -2.1209  0.6750  2.0740
 1456SOL    HW215831   0.189   3.182   2.145  0.5012  2.5334  1.5114
 1457SOL     OW15832   3.411   2.559   2.191 -0.1794 -0.6605  0.2246
 1457SOL    HW115833   3.328   2.515   2.210 -1.1150  1.8622  2.0697
 1457SOL    HW215834   3.451   2.510   2.120 -0.1456  0.3345 -0.4428
 1458SOL     OW15835   2.787   0.441  13.841 -0.1406  0.0896 -0.4579
 1458SOL    HW115836   2.774   0.377  13.771  0.7090  0.7871 -1.2610
 1458SOL    HW215837   2.709   0.493  13.823 -1.8972 -1.5769  2.3038
 1459SOL     OW15838   3.388   2.430   7.376 -0.1576  0.7915 -0.0779
 1459SOL    HW115839   3.370   2.385   7.293 -1.0320 -0.8679  1.0386
 1459SOL    HW215840   3.302   2.437   7.418  0.1864 -0.0070  0.7320
 1460SOL     OW15841   3.253   4.261   1.844 -0.1015 -0.3165 -0.0601
 1460SOL    HW115842   3.331   4.283   1.794 -1.1918 -1.7846 -2.4201
 1460SOL    HW215843   3.257   4.168   1.826 -0.8886 -0.1588 -1.0746
 1461SOL     OW15844   0.814   3.481   8.183  0.2555  0.2104 -0.0794
 1461SOL    HW115845   0.896   3.526   8.204  0.5502  0.2849 -1.3977
 1461SOL    HW215846   0.769   3.488   8.267  2.7410 -0.8079  1.3592
 1462SOL     OW15847   1.164   2.488   6.412  0.3415  0.2576 -0.7405
 1462SOL    HW115848   1.170   2.452   6.501 -1.5637  3.8609  0.8526
 1462SOL    HW215849   1.124   2.408   6.379  1.6565 -0.9443  0.5346
 1463SOL     OW15850   4.071   1.708   7.170 -0.0162  0.0856 -0.5253
 1463SOL    HW115851   4.121   1.790   7.175 -3.1895  1.8845  1.6615
 1463SOL    HW215852   4.117   1.650   7.109 -1.2333 -2.2038  0.7492
 1464SOL     OW15853   1.821   1.943  11.008 -0.8562  0.0522  0.2556
 1464SOL    HW115854   1.901   1.898  11.035  0.4048  1.9858 -0.2693
 1464SOL    HW215855   1.868   2.021  10.976 -0.6444 -0.9812 -1.9290
 1465SOL     OW15856   1.669   3.427   8.429 -0.4852  0.1496 -0.0173
 1465SOL    HW115857   1.708   3.341   8.410 -0.6094  0.1380 -0.2230
 1465SOL    HW215858   1.640   3.410   8.518 -2.2187 -0.1273 -0.6357
 1466SOL     OW15859   4.459   2.428   0.211  0.6663 -0.3464  0.1003
 1466SOL    HW115860   4.416   2.377   0.143  0.0384  1.0278 -0.5347
 1466SOL    HW215861   4.491   2.504   0.163  0.6352  0.6874  1.6895
 1467SOL     OW15862   4.118   4.157   1.423 -0.4009  0.4162  0.1573
 1467SOL    HW115863   4.030   4.126   1.446 -0.3105 -1.3178 -1.8198
 1467SOL    HW215864   4.093   4.244   1.393  1.5376  0.4995 -1.2339
 1468SOL     OW15865   1.770   4.382   6.349  0.2379 -0.1424  0.3646
 1468SOL    HW115866   1.740   4.351   6.263 -2.9568  0.5799  1.2051
 1468SOL    HW215867   1.708   4.454   6.357  1.2781  1.1719 -3.5469
 1469SOL     OW15868   2.537   2.070  17.676 -0.7563 -0.0372  0.5423
 1469SOL    HW115869   2.474   2.105  17.613 -0.6921 -0.2935  0.3349
 1469SOL    HW215870   2.605   2.040  17.615  0.8555  3.2677  0.7565
 1470SOL     OW15871   2.433   2.103   3.997  0.0456  0.3680 -0.3709
 1470SOL    HW115872   2.369   2.044   4.036 -0.3024  1.5602  0.8631
 1470SOL    HW215873   2.379   2.116   3.919 -2.2439  1.8371  1.4666
 1471SOL     OW15874   1.205   1.929   1.438 -0.1632 -0.1441  0.0314
 1471SOL    HW115875   1.179   2.002   1.382 -1.2993 -0.7016 -0.1711
 1471SOL    HW215876   1.295   1.919   1.410  0.0329  1.6920 -0.0038
 1472SOL     OW15877   1.398   2.091   8.057  0.3979  0.3294 -0.3932
 1472SOL    HW115878   1.339   2.148   8.107 -0.3904 -0.2195 -0.6945
 1472SOL    HW215879   1.422   2.148   7.984 -1.1261  1.7638  0.2230
 1473SOL     OW15880   4.551   0.051   7.884 -0.4345 -0.2131 -0.0801
 1473SOL    HW115881   4.557   0.000   7.965  2.5628  2.1584  1.2151
 1473SOL    HW215882   4.637   0.088   7.863 -1.1046 -0.6613 -3.5958
 1474SOL     OW15883   3.790   4.394  13.696 -0.1619 -0.0105  0.8651
 1474SOL    HW115884   3.706   4.439  13.684 -0.2230  0.6339  3.8004
 1474SOL    HW215885   3.792   4.321  13.634 -2.3839 -0.0505  0.8375
 1475SOL     OW15886   0.264   0.177   9.424  0.3028  0.5889  0.0356
 1475SOL    HW115887   0.234   0.135   9.505  0.1321 -0.5264 -0.6007
 1475SOL    HW215888   0.179   0.202   9.386  1.1501  1.8018 -1.0732
 1476SOL     OW15889   4.614   0.964  16.155  0.3576  0.0452  0.2686
 1476SOL    HW115890   4.555   0.900  16.193  3.2427 -1.9057  1.4841
 1476SOL    HW215891   4.682   0.985  16.219 -0.1862  0.2288  0.7779
 1477SOL     OW15892   4.268   1.645   6.339 -0.4293 -0.2335 -0.0538
 1477SOL    HW115893   4.294   1.591   6.414 -0.0759  1.3543  0.9722
 1477SOL    HW215894   4.174   1.633   6.355 -0.3549  2.6160  2.6525
 1478SOL     OW15895   2.881   1.596   0.981 -0.5643 -0.4819  0.1663
 1478SOL    HW115896   2.931   1.677   0.972 -2.2703  0.5733  0.3924
 1478SOL    HW215897   2.873   1.564   0.891 -0.0007  0.1157 -0.0992
 1479SOL     OW15898   0.658   1.924   1.735 -0.5251 -0.0580 -0.4017
 1479SOL    HW115899   0.611   2.003   1.708  0.0738  0.3118 -0.3675
 1479SOL    HW215900   0.598   1.871   1.788  0.8149  1.5297  2.7424
 1480SOL     OW15901   0.308   4.609   7.388 -0.1784 -0.0673 -0.0507
 1480SOL    HW115902   0.230   4.663   7.405 -0.3163 -0.4672  0.5936
 1480SOL    HW215903   0.348   4.656   7.315 -0.9719 -3.5240 -2.7288
 1481SOL     OW15904   4.264   1.132   5.920 -0.2543 -0.4579  0.2479
 1481SOL    HW115905   4.278   1.215   5.965  2.0246  0.3202 -1.9167
 1481SOL    HW215906   4.267   1.069   5.992  0.6568 -3.2213 -2.2312
 1482SOL     OW15907   2.795   3.741   6.968 -0.6239 -0.6413  0.2784
 1482SOL    HW115908   2.744   3.660   6.967 -1.4474 -0.1113 -1.4403
 1482SOL    HW215909   2.748   3.777   7.043 -0.5026 -0.3011  0.1897
 1483SOL     OW15910   3.058   0.311  13.133  0.1080 -0.0829 -0.2697
 1483SOL    HW115911   3.114   0.301  13.211 -0.0743 -0.6415 -0.2129
 1483SOL    HW215912   3.060   0.406  13.117  0.8714  0.0602  0.6230
 1484SOL     OW15913   1.418   3.219   1.959 -0.2655 -0.1086 -0.1622
 1484SOL    HW115914   1.490   3.259   1.910 -0.3954  0.0191 -0.2491
 1484SOL    HW215915   1.469   3.154   2.007 -0.2778  1.7085  2.3311
 1485SOL     OW15916   2.270   2.780  14.219 -0.0824  0.1693  0.1774
 1485SOL    HW115917   2.287   2.690  14.191 -1.9574 -0.1092 -0.0380
 1485SOL    HW215918   2.185   2.798  14.180 -0.4227  0.5201  1.0706
 1486SOL     OW15919   3.685   1.022   8.223  0.0248 -0.4027  0.2014
 1486SOL    HW115920   3.708   1.049   8.312  0.0981 -1.1387  0.3983
 1486SOL    HW215921   3.773   0.999   8.194  0.5907  2.5042 -0.4361
 1487SOL     OW15922   1.289   2.315  10.461  0.0407  0.5059 -0.5668
 1487SOL    HW115923   1.295   2.268  10.378 -1.9310 -2.1191  0.7959
 1487SOL    HW215924   1.354   2.268  10.512 -1.1649 -1.1190 -0.5202
 1488SOL     OW15925   2.678   4.244   4.353  0.2290 -0.9034 -0.2097
 1488SOL    HW115926   2.597   4.202   4.381  0.2334  0.1173  1.3102
 1488SOL    HW215927   2.748   4.223   4.414 -0.0904 -0.5020  0.2920
 1489SOL     OW15928   1.378   2.193  16.037  0.5840 -0.2094 -0.0381
 1489SOL    HW115929   1.415   2.197  15.949 -3.2679 -0.2085 -1.6807
 1489SOL    HW215930   1.293   2.230  16.011  0.0643 -1.6247 -0.3950
 1490SOL     OW15931   4.714   3.090   1.651 -0.0822  0.4321 -0.3309
 1490SOL    HW115932   4.708   3.092   1.556 -1.2716 -0.7102 -0.2804
 1490SOL    HW215933   0.085   3.119   1.664 -0.0940  0.6924 -0.8263
 1491SOL     OW15934   2.559   1.273   4.448 -0.0920  0.4161 -0.0707
 1491SOL    HW115935   2.482   1.270   4.505 -1.7373 -2.3000 -2.3910
 1491SOL    HW215936   2.630   1.268   4.512  0.1460 -0.1945 -0.3772
 1492SOL     OW15937   0.287   1.059   6.312 -0.4836 -0.2421  0.1290
 1492SOL    HW115938   0.379   1.032   6.315 -0.5985 -0.6217  0.3118
 1492SOL    HW215939   0.265   1.050   6.405  0.6954 -0.8147  0.3571
 1493SOL     OW15940   0.104   4.140   3.720 -0.3026 -0.5774 -0.3317
 1493SOL    HW115941   0.034   4.096   3.769 -0.1277 -0.4426  0.0370
 1493SOL    HW215942   0.067   4.137   3.632 -2.2743 -1.2015  0.4989
 1494SOL     OW15943   3.428   2.649   7.565 -0.3218 -0.4866 -0.2970
 1494SOL    HW115944   3.445   2.643   7.471 -2.1660  0.4045 -0.6944
 1494SOL    HW215945   3.392   2.566   7.595 -0.5132 -0.8507 -1.5248
 1495SOL     OW15946   2.350   4.184   0.330 -0.2525  0.1917 -0.3463
 1495SOL    HW115947   2.280   4.220   0.385  0.3690 -0.8586  1.1563
 1495SOL    HW215948   2.362   4.246   0.259  1.4568 -0.2004 -0.4011
 1496SOL     OW15949   1.009   0.078  11.315 -0.2042  0.2686  0.5582
 1496SOL    HW115950   0.971   0.084  11.402  1.4063  1.4272  1.1804
 1496SOL    HW215951   1.066   0.002  11.331 -1.6005 -1.0359 -0.5969
 1497SOL     OW15952   1.396   2.749  13.299  0.3238 -0.4074 -0.1218
 1497SOL    HW115953   1.359   2.787  13.379 -1.4188 -0.1412 -1.0505
 1497SOL    HW215954   1.479   2.724  13.340  0.0922 -0.6169  0.2242
 1498SOL     OW15955   0.051   1.997   3.524  0.1688  0.0820  0.2490
 1498SOL    HW115956   0.112   2.069   3.543 -0.5809  1.0086 -0.8458
 1498SOL    HW215957   0.024   2.024   3.437 -1.0988  4.2112  1.8998
 1499SOL     OW15958   2.131   4.395   3.921 -0.4873  0.3440  0.1835
 1499SOL    HW115959   2.160   4.474   3.967  1.3731 -0.5022  0.4597
 1499SOL    HW215960   2.205   4.334   3.929 -0.7670 -0.3168 -2.4440
 1500SOL     OW15961   3.479   2.097  11.656 -0.0543 -0.1062  0.8032
 1500SOL    HW115962   3.568   2.101  11.692 -1.0733 -1.8757  3.5663
 1500SOL    HW215963   3.500   2.133  11.570  0.7215 -2.1167  0.1667
 1501SOL     OW15964   0.977   0.156  17.575  0.8464 -0.1274 -0.1404
 1501SOL    HW115965   0.943   0.137  17.487 -1.5962  3.4667  0.0311
 1501SOL    HW215966   1.031   0.083  17.603  0.3210 -1.0109 -1.4217
 1502SOL     OW15967   1.077   4.652   8.989  0.2429  0.2896  0.4566
 1502SOL    HW115968   1.037   4.708   9.056 -1.6322  0.6290 -0.9780
 1502SOL    HW215969   1.048   4.706   8.916  1.2108 -2.2167 -1.7665
 1503SOL     OW15970   4.209   1.439   4.873 -0.2414 -0.0607 -0.7606
 1503SOL    HW115971   4.254   1.380   4.933 -1.5850 -0.5021 -0.1915
 1503SOL    HW215972   4.285   1.491   4.847  0.1313 -0.9747 -1.4863
 1504SOL     OW15973   2.291   1.976  11.397  0.1101 -0.0733  0.5849
 1504SOL    HW115974   2.317   1.925  11.474  0.0452  0.5839  1.0494
 1504SOL    HW215975   2.370   1.987  11.345 -0.4765  1.3730 -0.0022
 1505SOL     OW15976   1.898   0.076  16.291 -0.1229  0.2488  0.1811
 1505SOL    HW115977   1.850   0.010  16.340  1.8345 -0.1818  1.5524
 1505SOL    HW215978   1.896   0.042  16.202 -2.3411  2.3967 -0.5868
 1506SOL     OW15979   2.261   0.494   9.037  0.2661 -0.7850  0.3025
 1506SOL    HW115980   2.292   0.493   9.128  1.3006 -0.1624 -0.0523
 1506SOL    HW215981   2.258   0.588   9.019 -1.1941 -1.0408 -0.8005
 1507SOL     OW15982   4.318   1.729  10.152 -0.0850 -0.1386 -0.6375
 1507SOL    HW115983   4.238   1.777  10.132 -0.3851  0.6420  2.4019
 1507SOL    HW215984   4.318   1.664  10.082 -2.0858 -0.0359 -0.7250
 1508SOL     OW15985   2.324   1.113   8.431  0.0460 -0.7867 -0.3298
 1508SOL    HW115986   2.239   1.131   8.392  0.0306 -0.8306 -0.3166
 1508SOL    HW215987   2.316   1.126   8.526 -3.7043 -0.8867 -0.6421
 1509SOL     OW15988   1.633   1.350   2.371 -0.0916  0.1276  0.5835
 1509SOL    HW115989   1.626   1.435   2.329 -1.2335  1.0557  2.6955
 1509SOL    HW215990   1.682   1.298   2.306  1.9054  0.1307  2.0825
 1510SOL     OW15991   1.987   2.079   4.296  0.2890 -0.0347  0.5650
 1510SOL    HW115992   2.023   2.068   4.208 -0.0333  1.5479  0.2370
 1510SOL    HW215993   1.900   2.111   4.273  0.6811  0.0005 -0.8554
 1511SOL     OW15994   0.198   3.462   3.880  0.6680  0.8281  0.0483
 1511SOL    HW115995   0.140   3.436   3.808  0.7106  0.9723 -0.0375
 1511SOL    HW215996   0.165   3.552   3.882 -2.3756 -0.2359 -1.4619
 1512SOL     OW15997   3.914   1.802   5.335 -0.2909  0.3362  0.3900
 1512SOL    HW115998   3.831   1.838   5.366 -0.1347  1.6816 -0.7344
 1512SOL    HW215999   3.939   1.735   5.399 -1.4946  0.1978  0.7188
 1513SOL     OW16000   4.339   3.246   5.383  0.3441 -0.2452  0.9358
 1513SOL    HW116001   4.257   3.262   5.430  1.0243  1.2517  1.5960
 1513SOL    HW216002   4.341   3.151   5.399  1.0658 -0.1673  1.3075
 1514SOL     OW16003   2.278   3.231   5.467 -0.1382 -0.7545  0.5000
 1514SOL    HW116004   2.261   3.140   5.491  0.3788 -0.8621  0.4543
 1514SOL    HW216005   2.319   3.261   5.548 -1.0366 -1.0161  1.0505
 1515SOL     OW16006   0.770   3.452   0.357  0.8658 -0.5207  0.0778
 1515SOL    HW116007   0.675   3.451   0.347  0.7580  1.5970  0.8387
 1515SOL    HW216008   0.775   3.442   0.453 -0.3759 -0.2688  0.1664
 1516SOL     OW16009   3.476   0.759   4.704  0.0653  0.1884 -0.0026
 1516SOL    HW116010   3.458   0.807   4.785  0.8044 -0.3820  0.5070
 1516SOL    HW216011   3.386   0.734   4.686  0.8323 -0.5085 -2.8749
 1517SOL     OW16012   3.612   3.982   1.498  0.2055  0.4335 -0.3199
 1517SOL    HW116013   3.577   3.896   1.477 -1.2657  0.6192  1.3070
 1517SOL    HW216014   3.705   3.966   1.515  0.5345  0.2781 -2.3018
 1518SOL     OW16015   4.672   4.634   4.125 -0.8273 -0.2139  0.0230
 1518SOL    HW116016   4.712   4.711   4.165  2.5484 -2.5708  1.2176
 1518SOL    HW216017   4.628   4.680   4.053 -1.0123  1.0483  0.9589
 1519SOL     OW16018   0.391   0.713   3.796 -0.1840 -0.1090 -0.1373
 1519SOL    HW116019   0.401   0.798   3.753 -0.9066  0.4316  0.7407
 1519SOL    HW216020   0.449   0.729   3.871  1.5867  0.3617 -1.6096
 1520SOL     OW16021   4.650   0.718   6.868 -0.5460  0.4420  0.2451
 1520SOL    HW116022   4.612   0.649   6.814 -1.4068  0.4080  0.8926
 1520SOL    HW216023   4.703   0.662   6.925 -0.9452 -1.1833 -0.9762
 1521SOL     OW16024   3.059   2.486   7.846 -0.1306 -0.8144  0.0668
 1521SOL    HW116025   3.022   2.430   7.915  0.2334 -3.4434 -1.8467
 1521SOL    HW216026   3.009   2.565   7.863 -0.1963 -0.8758  0.1657
 1522SOL     OW16027   0.283   2.146   5.381 -0.4070  0.1015 -0.6622
 1522SOL    HW116028   0.286   2.050   5.378  0.8106  0.1602 -1.3934
 1522SOL    HW216029   0.254   2.183   5.299 -1.3757 -0.0234 -0.3726
 1523SOL     OW16030   1.102   2.633   4.577 -0.0657  0.1934  0.3605
 1523SOL    HW116031   1.008   2.642   4.561  0.2101  1.0846 -0.7921
 1523SOL    HW216032   1.119   2.572   4.506 -0.1034 -1.8076  2.0661
 1524SOL     OW16033   1.823   0.818   6.711 -0.2329 -0.5593 -0.2935
 1524SOL    HW116034   1.879   0.740   6.704  2.9241  1.7700 -0.7089
 1524SOL    HW216035   1.743   0.776   6.743  1.2779 -1.6256  2.0736
 1525SOL     OW16036   0.019   1.584   1.832  0.1425  0.1677  0.3976
 1525SOL    HW116037   0.021   1.488   1.821 -1.1487  0.2329 -0.2874
 1525SOL    HW216038   4.674   1.602   1.764  0.8501  0.1491 -0.2818
 1526SOL     OW16039   4.272   2.178  17.036 -0.5120  0.1520  0.0615
 1526SOL    HW116040   4.357   2.218  17.018 -0.2844  0.3027  1.4190
 1526SOL    HW216041   4.236   2.246  17.094 -1.1056 -0.8483  0.8704
 1527SOL     OW16042   3.750   3.711  14.693  0.0980 -0.4947 -0.5618
 1527SOL    HW116043   3.729   3.704  14.600  0.6854 -2.5127 -0.5510
 1527SOL    HW216044   3.760   3.621  14.726  3.0190  0.0509  0.1122
 1528SOL     OW16045   2.011   1.878   3.438 -0.1009 -0.0821 -0.5597
 1528SOL    HW116046   2.048   1.934   3.506 -2.8807  1.9891 -0.7497
 1528SOL    HW216047   2.088   1.828   3.410  1.8306  2.0573  1.0513
 1529SOL     OW16048   2.809   3.485  15.408 -0.4001  0.2666 -0.4044
 1529SOL    HW116049   2.842   3.405  15.367 -3.4213 -1.0555 -0.2364
 1529SOL    HW216050   2.883   3.545  15.399  0.3713 -0.4640  0.9815
 1530SOL     OW16051   2.046   1.343   7.580 -0.0411 -0.1893  0.2788
 1530SOL    HW116052   1.955   1.355   7.607 -0.0923  2.1499 -0.8925
 1530SOL    HW216053   2.052   1.310   7.491 -0.5198 -2.4223  1.0888
 1531SOL     OW16054   4.379   3.709   1.314 -0.8948  0.8884  0.1532
 1531SOL    HW116055   4.336   3.787   1.349 -1.1884  0.7335  0.1383
 1531SOL    HW216056   4.356   3.713   1.221  1.5491 -1.0663 -0.5452
 1532SOL     OW16057   0.864   3.870   0.156  0.6445  0.1850  0.5457
 1532SOL    HW116058   0.788   3.814   0.141 -0.3201  1.7377 -0.5346
 1532SOL    HW216059   0.918   3.812   0.209  0.5312 -0.9207 -0.5655
 1533SOL     OW16060   4.392   4.160   2.599  0.4190  0.7906 -0.2787
 1533SOL    HW116061   4.427   4.179   2.511 -1.5239 -0.7165 -1.3768
 1533SOL    HW216062   4.400   4.249   2.633  2.6021 -0.4369  2.3808
 1534SOL     OW16063   4.238   0.236   7.371 -0.0109  0.1086 -0.1916
 1534SOL    HW116064   4.278   0.317   7.338  1.5264 -1.0528 -1.1969
 1534SOL    HW216065   4.215   0.180   7.296 -1.3784  2.2772 -1.3843
 1535SOL     OW16066   0.809   4.171   9.910 -0.2195 -0.2945 -0.2231
 1535SOL    HW116067   0.880   4.194   9.849 -1.9319  0.9616 -1.7588
 1535SOL    HW216068   0.746   4.236   9.878  0.8997  1.1256  0.4337
 1536SOL     OW16069   0.493   3.419   4.927  0.1920 -0.6705  0.2165
 1536SOL    HW116070   0.566   3.442   4.869 -1.0568  3.8162  0.4556
 1536SOL    HW216071   0.424   3.448   4.868 -0.1392  0.3494  1.1141
 1537SOL     OW16072   3.162   0.566   4.349 -0.5127  0.0976  0.3458
 1537SOL    HW116073   3.084   0.511   4.350  0.7497 -1.7557 -1.6012
 1537SOL    HW216074   3.230   0.498   4.351  0.0450  0.6842  1.1763
 1538SOL     OW16075   0.330   0.712   8.884  0.0234  0.5748 -0.5731
 1538SOL    HW116076   0.404   0.772   8.875  0.4089  0.1921  0.0254
 1538SOL    HW216077   0.362   0.651   8.950 -0.3651 -0.6769 -1.5348
 1539SOL     OW16078   3.475   0.936   7.112  0.4100  0.3820 -0.8703
 1539SOL    HW116079   3.499   1.001   7.046 -1.2442  2.1713  0.3084
 1539SOL    HW216080   3.498   0.856   7.065  0.1791 -0.0885 -0.1845
 1540SOL     OW16081   0.085   3.035   2.911  0.0509 -0.3557  0.2904
 1540SOL    HW116082   0.113   3.127   2.918 -0.4911 -0.5635  5.3643
 1540SOL    HW216083   0.074   3.012   3.003 -1.2101  2.0948  0.7394
 1541SOL     OW16084   3.406   3.665  10.029 -0.3035  0.5609  0.0585
 1541SOL    HW116085   3.470   3.637  10.094 -0.7056 -0.5123 -0.0078
 1541SOL    HW216086   3.469   3.698   9.966  0.5089 -1.2862 -0.0988
 1542SOL     OW16087   1.546   4.548  12.667 -0.7470 -0.5184  0.5674
 1542SOL    HW116088   1.556   4.454  12.681  1.4744 -0.5221 -1.0587
 1542SOL    HW216089   1.541   4.583  12.756  0.8284  0.4620  0.2756
 1543SOL     OW16090   0.729   1.270  11.727 -0.5337 -0.1421 -0.3542
 1543SOL    HW116091   0.788   1.297  11.656  0.1571  2.0484  1.0418
 1543SOL    HW216092   0.788   1.264  11.802  0.9852 -3.5324 -1.8001
 1544SOL     OW16093   1.628   0.109   8.863  0.2949 -0.1192  0.4728
 1544SOL    HW116094   1.630   0.090   8.957 -1.4777  1.4468  0.8318
 1544SOL    HW216095   1.543   0.151   8.849  0.2074 -0.5366 -0.2888
 1545SOL     OW16096   3.620   3.347  15.702  0.1651 -0.2431  0.6735
 1545SOL    HW116097   3.632   3.397  15.783  0.3641 -1.0515  1.1343
 1545SOL    HW216098   3.557   3.403  15.656  0.0021 -0.1168  1.0511
 1546SOL     OW16099   4.260   2.523   6.982 -0.1769  0.1634 -0.0392
 1546SOL    HW116100   4.261   2.489   6.892  0.7304 -0.4414  0.2090
 1546SOL    HW216101   4.236   2.613   6.960 -1.7358 -0.5898 -1.4703
 1547SOL     OW16102   2.367   3.686   7.225  0.2073 -0.0436 -0.7805
 1547SOL    HW116103   2.379   3.702   7.132 -1.5927 -1.2021 -1.2052
 1547SOL    HW216104   2.277   3.653   7.231  0.2490 -0.1849 -0.9256
 1548SOL     OW16105   3.826   1.374   2.929  0.2856 -0.3021 -0.0634
 1548SOL    HW116106   3.783   1.323   2.861  0.0070  0.5902 -0.5534
 1548SOL    HW216107   3.915   1.371   2.893 -1.1101  0.5742 -3.4776
 1549SOL     OW16108   1.112   1.088   9.227  0.3672  0.3569  0.3639
 1549SOL    HW116109   1.129   0.996   9.249 -1.6053 -0.3762 -1.2171
 1549SOL    HW216110   1.158   1.108   9.146  0.8214 -0.7473  0.3466
 1550SOL     OW16111   1.839   0.984  11.067 -0.7245 -0.0710 -0.4555
 1550SOL    HW116112   1.812   1.052  11.129  0.0559  2.5468 -2.9699
 1550SOL    HW216113   1.823   1.041  10.991  1.5016  0.8505 -0.2374
 1551SOL     OW16114   4.586   0.585   2.085 -0.8011  0.0887  0.3313
 1551SOL    HW116115   4.585   0.681   2.081  1.1875  0.1945  2.4838
 1551SOL    HW216116   4.617   0.559   2.172  3.0383  0.7656 -0.8227
 1552SOL     OW16117   4.485   2.415   7.083  0.3338 -0.4562 -0.5856
 1552SOL    HW116118   4.555   2.464   7.039  0.7904 -0.6087 -0.0364
 1552SOL    HW216119   4.411   2.449   7.032  1.1925  1.7217 -0.4164
 1553SOL     OW16120   2.962   3.299  15.250 -0.3496 -0.7878 -0.0612
 1553SOL    HW116121   2.975   3.295  15.155  1.3306 -2.8690  0.2626
 1553SOL    HW216122   3.051   3.290  15.285 -1.1220  0.9434  2.3803
 1554SOL     OW16123   4.070   2.545  10.730 -0.2180 -0.0818  0.0997
 1554SOL    HW116124   4.002   2.549  10.662 -0.2430  1.3311  0.1951
 1554SOL    HW216125   4.154   2.539  10.685 -0.2857 -2.5515  0.3372
 1555SOL     OW16126   0.992   4.385   2.176 -0.0007  0.2071  0.1995
 1555SOL    HW116127   0.956   4.309   2.130  1.4192  0.6769 -1.6943
 1555SOL    HW216128   0.915   4.419   2.222 -0.9910 -1.9401  0.1321
 1556SOL     OW16129   4.402   2.806  15.071 -0.0496  0.0663  0.0158
 1556SOL    HW116130   4.376   2.739  15.134 -0.4607 -0.0950 -0.3245
 1556SOL    HW216131   4.406   2.751  14.992 -0.4906  1.6237 -1.1020
 1557SOL     OW16132   4.596   0.794  10.007  0.5475  0.3300  0.1082
 1557SOL    HW116133   4.535   0.844   9.952  2.1870  3.1136  0.8058
 1557SOL    HW216134   4.538   0.735  10.056  0.2759  2.3631  2.2100
 1558SOL     OW16135   0.953   3.329   6.389  0.3987  0.0344  0.3527
 1558SOL    HW116136   0.903   3.266   6.338  0.7550 -0.4082  0.5555
 1558SOL    HW216137   1.035   3.347   6.342 -0.0131  0.7211 -0.1065
 1559SOL     OW16138   4.684   0.033  16.245  0.1406 -0.8014 -0.4463
 1559SOL    HW116139   0.009   4.683  16.293 -2.3344 -3.2012 -1.6927
 1559SOL    HW216140   4.711   0.108  16.299 -1.7315 -0.0339 -0.5643
 1560SOL     OW16141   4.310   0.141   5.087  0.2735  0.3595 -0.1735
 1560SOL    HW116142   4.347   0.058   5.118  0.6370  0.0539 -1.4259
 1560SOL    HW216143   4.221   0.148   5.122 -0.3340 -1.2472 -1.3996
 1561SOL     OW16144   3.960   4.069  15.988 -0.2030 -0.9148 -0.1125
 1561SOL    HW116145   3.930   4.159  15.978 -1.2371 -1.0152  2.2450
 1561SOL    HW216146   3.974   4.049  15.895  2.3680  0.9892 -0.1288
 1562SOL     OW16147   0.816   0.129  12.762  0.7773 -0.1829 -0.6647
 1562SOL    HW116148   0.766   0.177  12.827 -1.6454 -1.5700 -1.5058
 1562SOL    HW216149   0.805   0.184  12.685 -1.9856 -0.9855 -0.8520
 1563SOL     OW16150   2.402   1.290   3.247 -0.0514  0.0716  0.7415
 1563SOL    HW116151   2.366   1.230   3.313 -0.6762 -0.3234  0.0360
 1563SOL    HW216152   2.451   1.232   3.189 -0.0109 -0.2271  1.0780
 1564SOL     OW16153   3.385   1.611   0.108  0.3132 -0.1841  0.1832
 1564SOL    HW116154   3.393   1.606   0.013 -1.0375 -2.0582  0.1656
 1564SOL    HW216155   3.439   1.538   0.138  1.8064  0.4071 -1.0909
 1565SOL     OW16156   1.095   3.000  16.853 -0.0433 -0.0792 -0.3380
 1565SOL    HW116157   1.171   2.957  16.893 -0.4594  1.2990  1.8808
 1565SOL    HW216158   1.059   2.920  16.814  1.3660 -0.2886 -1.2064
 1566SOL     OW16159   3.208   3.103  13.796 -0.6916 -0.1177  0.1353
 1566SOL    HW116160   3.186   3.186  13.755 -2.4594  0.1556  1.6389
 1566SOL    HW216161   3.218   3.056  13.714  0.6397  0.1684  0.1238
 1567SOL     OW16162   0.253   4.145   7.607 -0.4443 -0.4122  0.3328
 1567SOL    HW116163   0.324   4.210   7.605 -0.8345 -0.0270 -0.9148
 1567SOL    HW216164   0.210   4.155   7.692  0.4896 -0.2997  0.7889
 1568SOL     OW16165   4.292   4.623   3.801  0.1968 -0.2403 -0.0698
 1568SOL    HW116166   4.234   4.667   3.738  0.4386 -0.8126 -0.6917
 1568SOL    HW216167   4.251   4.655   3.882  2.7299 -4.1598  2.7620
 1569SOL     OW16168   0.864   4.082   1.814  0.3811 -0.8352  0.8552
 1569SOL    HW116169   0.812   4.139   1.758  0.8395  0.1302  1.4067
 1569SOL    HW216170   0.801   4.013   1.834  0.6830 -1.6212 -0.9084
 1570SOL     OW16171   1.178   0.958  12.121  0.2173  0.3660 -0.7279
 1570SOL    HW116172   1.193   0.866  12.142 -1.4988  0.2767  0.0900
 1570SOL    HW216173   1.258   0.985  12.075 -0.0357  2.1690 -0.1286
 1571SOL     OW16174   4.073   2.524   4.143 -0.1621 -0.1333  0.3093
 1571SOL    HW116175   4.090   2.513   4.236  1.1899  1.4769  0.2482
 1571SOL    HW216176   4.005   2.590   4.153  1.4752  1.6078 -0.1426
 1572SOL     OW16177   1.866   0.339  13.626 -0.1481  0.5613 -0.0114
 1572SOL    HW116178   1.956   0.370  13.631 -0.0458  0.1503  0.7797
 1572SOL    HW216179   1.863   0.295  13.541  0.7713 -1.5999  1.0855
 1573SOL     OW16180   0.918   1.898   4.079 -0.3872  0.1546 -0.0608
 1573SOL    HW116181   0.884   1.987   4.069 -0.3621  0.0605 -1.0140
 1573SOL    HW216182   0.860   1.872   4.149  0.6619 -2.0213  0.0119
 1574SOL     OW16183   3.819   4.166  10.156 -0.0355  0.2924 -0.3093
 1574SOL    HW116184   3.831   4.071  10.155  2.5111  0.5836  2.1916
 1574SOL    HW216185   3.724   4.171  10.143 -0.2859 -1.4905  0.8012
 1575SOL     OW16186   1.266   1.220   5.414 -0.6247  0.1547 -0.4002
 1575SOL    HW116187   1.188   1.205   5.361 -0.6095 -0.7927 -0.1593
 1575SOL    HW216188   1.291   1.304   5.377 -1.0373  0.4844  0.0652
 1576SOL     OW16189   3.417   2.980  14.953 -0.3650  0.4094 -0.7836
 1576SOL    HW116190   3.322   2.990  14.952 -0.5555 -0.9350  2.4311
 1576SOL    HW216191   3.447   3.033  14.880  0.7875  1.0117  0.1299
 1577SOL     OW16192   4.584   2.616   6.490 -0.0301 -0.2228 -0.0286
 1577SOL    HW116193   4.507   2.656   6.450  0.3112  0.5996  0.1394
 1577SOL    HW216194   4.623   2.696   6.525  1.0613 -1.3911  1.4573
 1578SOL     OW16195   3.330   0.978   4.361 -0.4434  0.6422  0.5509
 1578SOL    HW116196   3.383   1.006   4.436  1.4831 -0.5426 -0.3796
 1578SOL    HW216197   3.389   0.942   4.296 -3.0626 -0.1383 -1.4016
 1579SOL     OW16198   0.781   3.773   2.612 -0.2272 -0.1317 -0.1608
 1579SOL    HW116199   0.743   3.845   2.561 -0.3146 -0.8383 -1.0982
 1579SOL    HW216200   0.745   3.708   2.551 -0.6643  1.3592 -1.4899
 1580SOL     OW16201   3.724   1.142   2.791  0.5265 -0.0784 -0.0098
 1580SOL    HW116202   3.792   1.158   2.725 -0.4858  1.0772 -0.7908
 1580SOL    HW216203   3.647   1.151   2.735 -0.4366  1.7654  1.6153
 1581SOL     OW16204   4.446   2.766  10.974 -0.1347 -0.5735  1.5303
 1581SOL    HW116205   4.393   2.809  10.907  1.9864 -0.9530 -0.3887
 1581SOL    HW216206   4.476   2.687  10.930 -1.9365 -1.1411  1.3439
 1582SOL     OW16207   3.986   4.357   2.430 -0.2111 -0.3102  0.3142
 1582SOL    HW116208   3.990   4.342   2.335 -2.1886  3.0421 -0.2743
 1582SOL    HW216209   3.895   4.374   2.454 -0.9365  1.6248 -3.8053
 1583SOL     OW16210   0.114   0.093   9.803  0.2995  0.3882 -0.0521
 1583SOL    HW116211   0.041   0.104   9.864  0.6796  0.8242  0.3189
 1583SOL    HW216212   0.183   0.137   9.853  0.5152  2.7217 -2.3683
 1584SOL     OW16213   4.176   2.607  10.345 -0.3350  0.4100  0.2690
 1584SOL    HW116214   4.093   2.587  10.390 -0.5404  2.4678  0.8256
 1584SOL    HW216215   4.157   2.688  10.298 -0.2282  0.7261  0.7649
 1585SOL     OW16216   1.117   3.842  10.658  0.3198  0.6440  1.0019
 1585SOL    HW116217   1.209   3.841  10.633  0.1989 -0.2527  0.6079
 1585SOL    HW216218   1.087   3.765  10.610 -0.4711  0.7639  1.3007
 1586SOL     OW16219   1.638   3.889  16.031  0.2174  0.3146 -0.6053
 1586SOL    HW116220   1.691   3.876  16.109 -0.7171 -0.8702 -0.1848
 1586SOL    HW216221   1.635   3.799  15.999 -2.2178  0.4344 -0.6911
 1587SOL     OW16222   0.181   1.456  16.065 -0.7382  0.2972 -0.8421
 1587SOL    HW116223   0.244   1.467  15.994  3.1135 -2.2026  2.1641
 1587SOL    HW216224   0.138   1.374  16.041  0.4132 -0.1876 -1.2325
 1588SOL     OW16225   2.741   1.348   9.141  0.6153  0.4888  0.0266
 1588SOL    HW116226   2.740   1.439   9.111  1.9634  0.4659 -0.0934
 1588SOL    HW216227   2.825   1.326   9.101  1.0904  0.9061  0.7786
 1589SOL     OW16228   3.265   4.145   1.399 -0.0540  0.3532  0.7796
 1589SOL    HW116229   3.303   4.168   1.483  0.3054 -0.3234  0.8032
 1589SOL    HW216230   3.223   4.059   1.406 -2.0118  1.0728 -1.8441
 1590SOL     OW16231   3.220   1.229   2.674  0.5120  0.0628  0.0647
 1590SOL    HW116232   3.163   1.246   2.599  1.8052  0.5148 -0.8067
 1590SOL    HW216233   3.176   1.283   2.740 -0.9380 -1.2389  0.1641
 1591SOL     OW16234   3.936   0.755   2.731  0.3501 -0.2697 -0.4622
 1591SOL    HW116235   3.872   0.784   2.796 -0.3640  0.5750 -1.5519
 1591SOL    HW216236   3.890   0.690   2.678 -1.1153  0.8645 -0.5794
 1592SOL     OW16237   2.945   0.181  16.014  0.1967 -0.1251  0.0744
 1592SOL    HW116238   3.014   0.208  16.074  0.0050 -0.8053  0.5990
 1592SOL    HW216239   2.939   0.251  15.949 -1.8681 -0.0763  0.2983
 1593SOL     OW16240   1.507   0.273   5.541  0.0732  0.2888  0.4607
 1593SOL    HW116241   1.508   0.362   5.507 -0.6053 -0.2060 -0.8507
 1593SOL    HW216242   1.565   0.217   5.490 -0.2158  0.5578 -0.1641
 1594SOL     OW16243   1.910   3.843   2.019  0.0685 -0.8583  0.6167
 1594SOL    HW116244   1.837   3.904   2.035  0.9347  0.9338 -2.4043
 1594SOL    HW216245   1.897   3.810   1.931  2.1778  2.4021 -0.9240
 1595SOL     OW16246   3.552   4.161   2.519 -0.2788 -0.3802 -0.3670
 1595SOL    HW116247   3.539   4.162   2.614 -1.8972  0.6710 -0.6048
 1595SOL    HW216248   3.614   4.088   2.521 -0.7506 -0.7814 -0.3911
 1596SOL     OW16249   2.923   3.712   3.595 -0.5209 -0.2883  0.1841
 1596SOL    HW116250   2.982   3.727   3.521 -0.2974  0.1900  0.4576
 1596SOL    HW216251   2.942   3.795   3.639 -0.4988 -1.2385  1.9821
 1597SOL     OW16252   1.390   2.647   6.539  0.3352 -0.2519  0.4246
 1597SOL    HW116253   1.381   2.715   6.472 -2.5063 -0.5662  0.4842
 1597SOL    HW216254   1.303   2.612   6.521  1.1230 -1.9891  0.0115
 1598SOL     OW16255   1.041   2.263   6.214 -0.0378 -0.6673  0.1007
 1598SOL    HW116256   1.036   2.193   6.149  0.8778 -0.2974 -0.3838
 1598SOL    HW216257   0.967   2.237   6.268 -0.7060  0.6287 -0.1815
 1599SOL     OW16258   2.754   3.441   5.748  0.3160 -0.1174  0.3066
 1599SOL    HW116259   2.771   3.376   5.817  2.0729 -0.4553 -0.4672
 1599SOL    HW216260   2.816   3.513   5.757  0.0018 -0.0772  2.1765
 1600SOL     OW16261   4.006   4.116   9.343 -0.1899  0.2666 -0.1708
 1600SOL    HW116262   3.915   4.124   9.315  0.0415  0.1451 -0.9586
 1600SOL    HW216263   3.998   4.108   9.438 -1.0267 -0.6862 -0.3221
 1601SOL     OW16264   1.600   0.368   2.870  0.3030  0.5728 -0.2063
 1601SOL    HW116265   1.674   0.311   2.893 -0.2377 -0.0044  0.0977
 1601SOL    HW216266   1.648   0.451   2.868  1.2810  0.0234  0.2765
 1602SOL     OW16267   2.261   2.719  11.158  0.0326  0.1416 -0.4179
 1602SOL    HW116268   2.178   2.762  11.142  1.0369  2.5066  0.7089
 1602SOL    HW216269   2.268   2.667  11.077 -0.1297 -0.5995  0.0392
 1603SOL     OW16270   3.679   3.544   8.238  0.2591  0.0466  0.2226
 1603SOL    HW116271   3.758   3.490   8.238  1.3329  1.6174 -1.4305
 1603SOL    HW216272   3.665   3.545   8.333 -0.5448  1.1649  0.0994
 1604SOL     OW16273   2.410   1.631   2.384 -0.2718 -0.9948  0.3524
 1604SOL    HW116274   2.495   1.657   2.420  0.1928 -1.3734 -0.4915
 1604SOL    HW216275   2.398   1.660   2.294  0.6591 -2.9875 -0.4210
 1605SOL     OW16276   0.666   0.128   1.701 -0.0355  0.4184 -0.3739
 1605SOL    HW116277   0.601   0.199   1.705 -0.5020 -0.1316  1.9306
 1605SOL    HW216278   0.746   0.167   1.735 -0.1169  0.3474 -0.1014
 1606SOL     OW16279   0.571   3.722   3.761  0.2546  0.0229  0.0266
 1606SOL    HW116280   0.521   3.726   3.842  1.5220  2.3425  0.6768
 1606SOL    HW216281   0.543   3.800   3.714 -1.8977 -1.2828 -0.8853
 1607SOL     OW16282   0.189   3.772   3.431  0.2284 -0.1797  0.1247
 1607SOL    HW116283   0.168   3.792   3.340 -0.6195 -0.4672  0.2603
 1607SOL    HW216284   0.219   3.682   3.417  0.2179 -0.0564 -0.6976
 1608SOL     OW16285   2.622   0.933   2.555 -0.0777 -0.0386 -0.0286
 1608SOL    HW116286   2.705   0.942   2.508  0.1794  2.8531  1.0256
 1608SOL    HW216287   2.563   0.890   2.493 -0.8488  1.4469 -0.3139
 1609SOL     OW16288   3.168   3.202   3.797 -0.0789 -0.4613 -0.7973
 1609SOL    HW116289   3.196   3.281   3.842 -1.5230 -0.5128  0.2022
 1609SOL    HW216290   3.252   3.165   3.769  0.7973  0.4880  0.5659
 1610SOL     OW16291   0.244   2.302   4.072  0.6514  0.5904 -0.3107
 1610SOL    HW116292   0.328   2.256   4.077  0.0243 -0.6540 -1.4120
 1610SOL    HW216293   0.283   2.390   4.077 -2.2197  1.7387  1.4286
 1611SOL     OW16294   0.996   0.723   5.685 -0.1457 -0.1299 -0.2138
 1611SOL    HW116295   1.088   0.718   5.712  0.7428  3.7408 -2.3908
 1611SOL    HW216296   0.958   0.664   5.750 -1.2420 -0.8078 -1.4659
 1612SOL     OW16297   2.314   2.541   9.347 -0.1441  0.2010  0.0238
 1612SOL    HW116298   2.223   2.518   9.367 -0.1233  0.5101  0.4634
 1612SOL    HW216299   2.303   2.572   9.257 -0.3595 -0.3392 -0.1343
 1613SOL     OW16300   1.095   3.838   3.977 -0.1242  0.1978  0.5827
 1613SOL    HW116301   1.095   3.904   3.908 -1.0249 -1.4077 -0.9386
 1613SOL    HW216302   1.117   3.754   3.937 -1.2181 -0.7536  1.9706
 1614SOL     OW16303   4.005   1.787  10.162  0.1184 -0.4945 -0.0250
 1614SOL    HW116304   3.925   1.833  10.186  0.5955 -0.4615  1.4703
 1614SOL    HW216305   4.022   1.732  10.238  0.5634 -0.4726 -0.1051
 1615SOL     OW16306   0.704   3.474   8.439  0.2132  0.3254 -0.8033
 1615SOL    HW116307   0.720   3.410   8.508 -1.9223 -0.3374 -0.9324
 1615SOL    HW216308   0.730   3.556   8.482 -0.0167 -0.0792  0.1139
 1616SOL     OW16309   3.389   0.015   6.388  0.5507 -0.2657 -0.2780
 1616SOL    HW116310   3.338   0.023   6.469  0.2165  1.4431 -0.6558
 1616SOL    HW216311   3.483   0.027   6.405  0.1307  1.4133  0.8558
 1617SOL     OW16312   0.269   0.089  13.634  0.5164  0.3089  0.5272
 1617SOL    HW116313   0.363   0.074  13.644  0.4357 -2.3982 -2.7487
 1617SOL    HW216314   0.229   0.007  13.664  2.2793 -0.6467  0.3018
 1618SOL     OW16315   2.738   0.508   8.928 -0.3377 -0.0127  0.0245
 1618SOL    HW116316   2.817   0.487   8.978  2.0213  1.0010 -3.2572
 1618SOL    HW216317   2.749   0.598   8.899 -0.2029 -0.4856 -1.4129
 1619SOL     OW16318   3.080   0.569   2.983  0.7125  0.8548  0.2005
 1619SOL    HW116319   3.071   0.662   3.003 -1.6670  0.3883  1.3840
 1619SOL    HW216320   3.004   0.566   2.924  1.4290 -3.2769 -0.4951
 1620SOL     OW16321   0.847   1.968   4.579  0.6849 -0.2124  0.0974
 1620SOL    HW116322   0.799   2.046   4.610  0.7700  0.2940 -1.0311
 1620SOL    HW216323   0.893   1.947   4.660  0.6513  3.0505  0.9982
 1621SOL     OW16324   1.418   1.603   8.261 -0.3529  0.0144  1.0241
 1621SOL    HW116325   1.410   1.693   8.229  0.8174 -0.1886  0.1697
 1621SOL    HW216326   1.344   1.604   8.322 -0.7057 -0.8693  0.6103
 1622SOL     OW16327   0.178   1.752   0.883 -0.4003 -0.2247 -0.4993
 1622SOL    HW116328   0.083   1.747   0.879 -0.3077 -0.0210 -3.0646
 1622SOL    HW216329   0.197   1.682   0.946  1.5992 -0.3555 -1.2475
 1623SOL     OW16330   2.027   2.868  11.112 -0.0053 -0.0286  0.1022
 1623SOL    HW116331   2.030   2.905  11.024 -0.9557  0.8771  0.4604
 1623SOL    HW216332   1.950   2.812  11.113  1.0846 -1.5663 -0.9906
 1624SOL     OW16333   1.438   1.046   2.813  0.1957  0.0750  0.7833
 1624SOL    HW116334   1.524   1.010   2.790  0.6550  1.6021  0.1062
 1624SOL    HW216335   1.405   1.102   2.744  0.1482  1.8913  2.2692
 1625SOL     OW16336   2.721   3.394   2.342  0.1900 -0.0351 -0.4609
 1625SOL    HW116337   2.770   3.327   2.295 -0.4578 -1.1681  0.4890
 1625SOL    HW216338   2.650   3.410   2.280  1.2379  1.1996 -1.3609
 1626SOL     OW16339   0.148   2.079  12.737 -0.3354  0.4408 -0.3818
 1626SOL    HW116340   0.164   1.993  12.776  1.9391  0.0961 -2.0429
 1626SOL    HW216341   0.057   2.097  12.758 -0.0519  0.3892  0.9204
 1627SOL     OW16342   3.403   1.749   5.552 -0.3030 -0.1746 -0.5597
 1627SOL    HW116343   3.316   1.711   5.536  0.1317 -2.3608  2.2179
 1627SOL    HW216344   3.396   1.807   5.628 -3.0271  0.3566 -1.1929
 1628SOL     OW16345   3.486   2.081  11.352 -0.6689  0.0217 -0.0897
 1628SOL    HW116346   3.476   2.110  11.261  2.4438 -2.1013 -1.1083
 1628SOL    HW216347   3.547   2.008  11.351  0.9216  1.3109  2.1073
 1629SOL     OW16348   0.811   4.505   7.069 -0.1664  0.0782 -0.1180
 1629SOL    HW116349   0.821   4.537   6.979 -0.2280  1.2923  0.3155
 1629SOL    HW216350   0.864   4.566   7.119  1.1252  0.7703 -2.3043
 1630SOL     OW16351   3.799   0.421   5.076  0.1601 -0.0890 -0.6070
 1630SOL    HW116352   3.746   0.473   5.016  1.9849  0.0040 -2.1270
 1630SOL    HW216353   3.740   0.347   5.091  2.3189 -1.9056 -1.0553
 1631SOL     OW16354   2.900   1.301   6.565  0.6888  0.2198 -0.0979
 1631SOL    HW116355   2.918   1.258   6.649 -1.0724  0.8861  0.6226
 1631SOL    HW216356   2.847   1.375   6.594  0.4794 -0.0914  0.3233
 1632SOL     OW16357   1.539   1.145   3.417  0.5664  0.1687  0.3948
 1632SOL    HW116358   1.573   1.056   3.406 -1.2249 -0.3146 -1.1419
 1632SOL    HW216359   1.622   1.193   3.411  0.5878 -0.0677 -1.1126
 1633SOL     OW16360   1.241   0.371   1.746 -0.0866  0.0813  0.1612
 1633SOL    HW116361   1.215   0.438   1.809  1.6395  1.7035 -0.8226
 1633SOL    HW216362   1.196   0.398   1.666 -0.3228 -3.4450 -0.9160
 1634SOL     OW16363   0.264   1.660  12.352  0.1919 -0.1562 -0.5163
 1634SOL    HW116364   0.351   1.675  12.315  0.1082  1.2223 -0.1735
 1634SOL    HW216365   0.227   1.748  12.341  0.5406  0.0114 -0.3559
 1635SOL     OW16366   1.107   4.700  10.109 -0.4089 -0.0268  0.2299
 1635SOL    HW116367   1.046   0.036  10.158 -0.7236 -0.4975  0.3614
 1635SOL    HW216368   1.086   4.718  10.017  2.1247  0.1848 -0.3178
 1636SOL     OW16369   2.020   2.506   3.007 -0.0604 -0.1438  0.0297
 1636SOL    HW116370   1.990   2.562   3.079 -2.0786 -0.3675 -0.6443
 1636SOL    HW216371   1.933   2.495   2.969 -0.4501 -0.3408  0.9633
 1637SOL     OW16372   4.683   1.295  14.348 -0.3159 -0.0314  0.0439
 1637SOL    HW116373   4.678   1.248  14.431  0.9617 -2.0116 -1.0052
 1637SOL    HW216374   4.590   1.294  14.326 -0.3825  0.4774  0.2965
 1638SOL     OW16375   0.787   1.816  17.539 -0.3487  0.5736  0.4118
 1638SOL    HW116376   0.808   1.757  17.611 -0.2998 -0.9626 -0.8590
 1638SOL    HW216377   0.873   1.814  17.497  1.0839  0.6342  3.3004
 1639SOL     OW16378   1.300   2.339   8.440  0.0970  0.1956  0.1405
 1639SOL    HW116379   1.296   2.404   8.510 -0.1805  0.5279 -0.1843
 1639SOL    HW216380   1.388   2.363   8.411  0.3716  0.3843  1.1389
 1640SOL     OW16381   0.244   0.127   6.672 -0.0551  0.0427  0.0468
 1640SOL    HW116382   0.233   0.047   6.620  0.7582  1.0133 -1.5844
 1640SOL    HW216383   0.334   0.111   6.700  0.4336  1.6816 -0.5900
 1641SOL     OW16384   3.166   2.766   6.874  0.4647  0.1304 -0.1616
 1641SOL    HW116385   3.164   2.855   6.910 -1.8472  0.9771 -2.3174
 1641SOL    HW216386   3.077   2.735   6.893  0.9626 -0.3059  1.4451
 1642SOL     OW16387   1.634   2.123   8.348  0.3117  0.1587 -0.1831
 1642SOL    HW116388   1.681   2.071   8.414 -1.9120 -1.1497  0.3749
 1642SOL    HW216389   1.645   2.211   8.386 -0.4065  1.8845 -4.0108
 1643SOL     OW16390   1.757   0.457   9.926  0.0187  0.7372 -0.6445
 1643SOL    HW116391   1.763   0.368   9.893 -0.6023  0.2460  0.5546
 1643SOL    HW216392   1.851   0.473   9.922 -0.1948  1.1613 -4.3334
 1644SOL     OW16393   1.980   0.193   5.536  0.2872 -0.1061 -1.0658
 1644SOL    HW116394   1.987   0.118   5.595  1.3689 -0.2549 -1.3777
 1644SOL    HW216395   2.049   0.245   5.578 -1.3323  1.9642 -0.9426
 1645SOL     OW16396   1.971   1.234   1.735  0.2592  0.6385  0.4139
 1645SOL    HW116397   1.971   1.272   1.647  0.7107  0.0570  0.1706
 1645SOL    HW216398   1.879   1.244   1.763 -0.2244  0.7076 -1.1831
 1646SOL     OW16399   1.106   2.168   1.296  0.0133  0.0565  0.3177
 1646SOL    HW116400   1.033   2.228   1.280  0.1388  0.6110  1.8585
 1646SOL    HW216401   1.167   2.205   1.234  0.1829 -2.7012 -1.1539
 1647SOL     OW16402   0.003   1.808  11.658  0.0150 -0.0088 -0.2678
 1647SOL    HW116403   0.017   1.875  11.591  1.2117  1.0963  1.0856
 1647SOL    HW216404   4.692   1.737  11.601  0.8215 -0.4809 -0.1148
 1648SOL     OW16405   2.387   0.439   7.141 -0.4151 -0.5829  0.3016
 1648SOL    HW116406   2.306   0.474   7.105 -0.9158 -1.3877  0.6530
 1648SOL    HW216407   2.393   0.362   7.085  1.9932  0.6293 -1.0696
 1649SOL     OW16408   1.395   3.569   8.869 -0.6487  0.1451 -0.0041
 1649SOL    HW116409   1.383   3.658   8.902 -2.5863  0.0852 -0.5339
 1649SOL    HW216410   1.454   3.538   8.937  0.7413  1.4924 -0.6026
 1650SOL     OW16411   2.382   0.462  14.746 -0.2698  0.2695  0.4062
 1650SOL    HW116412   2.336   0.538  14.780  1.5650  1.5859 -0.0436
 1650SOL    HW216413   2.311   0.400  14.761 -0.4178  0.2131 -0.5625
 1651SOL     OW16414   0.110   2.361   8.516  0.0298  0.2142 -0.0719
 1651SOL    HW116415   0.070   2.402   8.593 -1.5064  1.0141 -1.3047
 1651SOL    HW216416   0.119   2.273   8.553 -1.5202 -0.7682 -2.0313
 1652SOL     OW16417   4.586   4.555   8.875 -0.3533 -0.5884 -0.4501
 1652SOL    HW116418   4.603   4.493   8.946 -2.2995 -0.3322  0.2198
 1652SOL    HW216419   4.505   4.513   8.846 -1.4034  0.7473  0.5570
 1653SOL     OW16420   3.309   1.746  16.578  0.0700 -0.2299  0.0508
 1653SOL    HW116421   3.308   1.668  16.521 -2.3898  0.3419 -0.6882
 1653SOL    HW216422   3.218   1.769  16.598  0.6078  2.0394 -0.1339
 1654SOL     OW16423   4.366   2.933  12.318 -0.1372 -0.3879 -0.0948
 1654SOL    HW116424   4.357   2.841  12.342 -1.9635  0.8036  3.7267
 1654SOL    HW216425   4.423   2.966  12.387  0.0401  0.0174 -0.4299
 1655SOL     OW16426   3.923   2.762  10.817 -0.2301 -0.5098  0.6897
 1655SOL    HW116427   3.864   2.732  10.886 -1.1405  1.3400  0.7278
 1655SOL    HW216428   3.967   2.681  10.792 -0.5825 -0.3532 -0.4296
 1656SOL     OW16429   0.928   2.774   3.722 -0.1671 -0.0565  0.2840
 1656SOL    HW116430   0.938   2.852   3.666  0.3997  0.1765  0.7114
 1656SOL    HW216431   0.882   2.812   3.796  0.6760  0.4300  0.5645
 1657SOL     OW16432   3.081   0.638  17.412  0.2235  0.4965  0.5772
 1657SOL    HW116433   3.068   0.720  17.363 -1.3409  0.6252  1.2020
 1657SOL    HW216434   2.995   0.599  17.395 -0.4468  1.5742  1.4356
 1658SOL     OW16435   3.260   2.524  10.079 -0.2620 -0.5540  0.1710
 1658SOL    HW116436   3.180   2.479  10.108 -0.8732  1.1835  1.1478
 1658SOL    HW216437   3.313   2.454  10.041  0.4624 -0.7845  1.5708
 1659SOL     OW16438   3.690   0.610   0.797 -0.4516 -0.2344 -0.6636
 1659SOL    HW116439   3.661   0.519   0.808  0.9203 -0.3350  2.2562
 1659SOL    HW216440   3.768   0.607   0.742 -0.6068 -0.6501 -0.8650
 1660SOL     OW16441   0.671   3.506  11.624  0.5222  0.0598  0.2780
 1660SOL    HW116442   0.725   3.543  11.554 -2.8659  0.5854 -2.1031
 1660SOL    HW216443   0.609   3.460  11.567 -1.4074  1.4629  1.2632
 1661SOL     OW16444   3.128   2.720   9.615  0.1585  0.4849 -0.0684
 1661SOL    HW116445   3.124   2.626   9.630 -0.7887  0.4730 -0.3914
 1661SOL    HW216446   3.134   2.731   9.520 -1.4680  0.4683 -0.1725
 1662SOL     OW16447   3.203   0.410   0.458 -0.3879  0.1230  0.1579
 1662SOL    HW116448   3.250   0.474   0.511  1.1540 -0.8117 -0.0729
 1662SOL    HW216449   3.112   0.439   0.467 -0.2750  0.7492 -0.7652
 1663SOL     OW16450   3.185   0.509  11.704 -0.1487 -0.3738 -0.2213
 1663SOL    HW116451   3.110   0.535  11.651  0.0658  1.0799  0.1688
 1663SOL    HW216452   3.240   0.587  11.701 -1.6508  0.6391 -1.4164
 1664SOL     OW16453   4.259   2.960  16.500  0.0486 -0.5235  0.5161
 1664SOL    HW116454   4.330   2.953  16.437 -1.7754 -1.3362 -1.4569
 1664SOL    HW216455   4.215   2.880  16.470  2.6415 -1.6608 -0.2708
 1665SOL     OW16456   0.570   4.007   8.643  0.2340 -0.0738  0.0165
 1665SOL    HW116457   0.653   4.031   8.601 -1.1461  1.8065 -1.6289
 1665SOL    HW216458   0.551   4.074   8.709 -0.1946  1.3939 -1.6210
 1666SOL     OW16459   1.050   4.402   7.753 -0.3690  0.5094  0.0562
 1666SOL    HW116460   1.132   4.419   7.707  0.8785  0.0609  2.0979
 1666SOL    HW216461   1.025   4.489   7.784  2.1221  1.6595 -1.1362
 1667SOL     OW16462   0.857   1.781  14.482  0.0798 -0.2488  0.3812
 1667SOL    HW116463   0.900   1.726  14.416 -0.3869  1.1093 -1.0647
 1667SOL    HW216464   0.777   1.809  14.437  1.0410 -0.7394 -1.6534
 1668SOL     OW16465   3.049   0.987   7.631  0.0363  0.8134  0.3711
 1668SOL    HW116466   3.142   0.978   7.649  0.4380  3.5817 -0.3904
 1668SOL    HW216467   3.043   0.995   7.536  0.3357 -1.7082  0.1162
 1669SOL     OW16468   1.079   0.691  10.422  0.1914  0.1896 -0.4348
 1669SOL    HW116469   1.169   0.688  10.456  0.1835  0.2663 -0.4060
 1669SOL    HW216470   1.060   0.598  10.426  0.4697  0.2019  1.2369
 1670SOL     OW16471   0.047   1.089   5.141  0.2737  0.2046  0.4856
 1670SOL    HW116472   0.066   1.085   5.047 -1.2650  0.1733  0.1630
 1670SOL    HW216473   4.700   1.020   5.135 -0.2108  0.7795 -0.8138
 1671SOL     OW16474   0.734   4.447   9.027  0.5805 -0.3679 -0.1121
 1671SOL    HW116475   0.696   4.475   8.944 -1.5596 -0.7101  0.7630
 1671SOL    HW216476   0.660   4.470   9.083 -1.0463 -1.0581 -2.0079
 1672SOL     OW16477   0.291   2.304   1.498  0.8746 -0.0609  0.2470
 1672SOL    HW116478   0.265   2.214   1.478  1.4182 -0.0870 -0.3469
 1672SOL    HW216479   0.304   2.296   1.593 -1.1235 -0.3850  0.4869
 1673SOL     OW16480   2.076   2.382   3.655 -0.2202  0.4493  0.2563
 1673SOL    HW116481   2.048   2.459   3.605 -2.9351 -1.4295 -1.1100
 1673SOL    HW216482   2.076   2.418   3.744  0.0539 -0.0054  0.4382
 1674SOL     OW16483   4.301   1.623   9.877  0.0916 -0.3810  0.8505
 1674SOL    HW116484   4.360   1.590   9.810  0.5649 -2.0843  2.1162
 1674SOL    HW216485   4.248   1.546   9.896 -0.9421 -0.3578 -1.9890
 1675SOL     OW16486   0.681   4.117   4.655  0.8681  0.3845 -0.2441
 1675SOL    HW116487   0.651   4.030   4.631 -0.2135  0.3728  1.0980
 1675SOL    HW216488   0.671   4.121   4.750 -0.6189 -1.5776 -0.3230
 1676SOL     OW16489   0.294   4.055   2.755 -0.1850  0.4325  0.2773
 1676SOL    HW116490   0.232   4.054   2.828  0.7588  2.8864  1.1013
 1676SOL    HW216491   0.346   3.974   2.751 -3.1019 -1.4915  1.1566
 1677SOL     OW16492   0.595   3.671   5.424 -0.3359  0.3806  0.5450
 1677SOL    HW116493   0.569   3.623   5.503  1.0513 -1.1696  0.0506
 1677SOL    HW216494   0.626   3.599   5.369  1.3603  0.5741  1.2496
 1678SOL     OW16495   3.064   2.831   9.070  0.0050  0.1395 -0.6072
 1678SOL    HW116496   3.107   2.916   9.077  1.9895 -0.8580 -0.8251
 1678SOL    HW216497   2.978   2.850   9.108  0.1002 -1.0124  0.1881
 1679SOL     OW16498   4.615   2.741  14.806 -0.1657 -0.1548  0.4160
 1679SOL    HW116499   4.661   2.771  14.884  1.7691  2.0879 -1.5764
 1679SOL    HW216500   4.679   2.687  14.760 -1.5671 -1.0993 -0.4562
 1680SOL     OW16501   3.752   3.686  13.680 -0.3007 -0.6946 -0.0592
 1680SOL    HW116502   3.814   3.729  13.738 -1.0808  4.0210 -2.7710
 1680SOL    HW216503   3.714   3.766  13.644 -1.1880 -1.0364  0.1191
 1681SOL     OW16504   0.936   3.003  12.177 -0.1293  0.0375 -0.0656
 1681SOL    HW116505   0.889   2.950  12.241  0.7811 -2.4044 -1.3801
 1681SOL    HW216506   1.021   2.958  12.166 -0.8939 -1.1894 -0.9813
 1682SOL     OW16507   1.790   2.644   7.236  0.1650 -0.0134 -0.5302
 1682SOL    HW116508   1.796   2.705   7.163  2.2102  0.2908 -0.1124
 1682SOL    HW216509   1.702   2.663   7.270  0.4039  2.8140 -1.5623
 1683SOL     OW16510   4.518   3.764  10.543  0.1941 -0.1827 -0.5235
 1683SOL    HW116511   4.586   3.789  10.480 -0.0427 -0.0771 -0.7387
 1683SOL    HW216512   4.563   3.790  10.623 -0.9895  0.5397 -0.0988
 1684SOL     OW16513   2.931   1.665  14.825 -0.5794 -0.1587 -0.3959
 1684SOL    HW116514   2.858   1.636  14.880  0.4363 -1.6692  0.1645
 1684SOL    HW216515   2.905   1.756  14.821  0.3438  0.0908 -0.8694
 1685SOL     OW16516   1.534   2.548  12.401 -0.0321 -0.5987  0.1645
 1685SOL    HW116517   1.440   2.553  12.414 -0.2981 -2.6745 -1.0031
 1685SOL    HW216518   1.560   2.603  12.476  0.3063  0.9355 -1.0808
 1686SOL     OW16519   1.147   2.956   6.744 -0.4907  0.5603  0.3518
 1686SOL    HW116520   1.082   2.918   6.684 -1.9250  0.9360  1.6465
 1686SOL    HW216521   1.107   2.941   6.830 -1.1951 -1.6277 -0.3458
 1687SOL     OW16522   3.116   0.848   1.214 -0.0976  0.2700 -0.6767
 1687SOL    HW116523   3.176   0.919   1.239  1.3791 -0.8269 -1.0716
 1687SOL    HW216524   3.044   0.866   1.274 -1.0172 -1.1904 -1.3359
 1688SOL     OW16525   4.094   4.538   3.137 -0.6170  0.2010 -0.2606
 1688SOL    HW116526   4.002   4.540   3.164 -1.0777 -0.4248 -1.8008
 1688SOL    HW216527   4.089   4.576   3.049  1.6457 -2.2619 -1.4255
 1689SOL     OW16528   2.092   3.545   7.800 -0.3371 -0.4095 -0.6215
 1689SOL    HW116529   2.113   3.465   7.752  1.4817 -0.7789  0.8295
 1689SOL    HW216530   2.004   3.533   7.837 -0.1784 -1.2622 -0.5151
 1690SOL     OW16531   3.403   2.321   4.927  0.5933 -0.4894  0.1035
 1690SOL    HW116532   3.428   2.270   4.850  0.3081  1.4557 -1.2800
 1690SOL    HW216533   3.329   2.269   4.959  0.4131 -0.7656 -0.7834
 1691SOL     OW16534   1.657   0.402  17.001  0.1448 -0.2320  0.7036
 1691SOL    HW116535   1.649   0.465  16.929 -2.7432 -1.6046 -0.1806
 1691SOL    HW216536   1.565   0.378  17.012 -0.3068  1.8484  1.6013
 1692SOL     OW16537   1.920   1.498   2.733  0.3867  0.0105  0.2430
 1692SOL    HW116538   1.930   1.566   2.799 -0.6475  0.7266 -0.3485
 1692SOL    HW216539   1.899   1.549   2.655  0.6978  0.8205  0.6867
 1693SOL     OW16540   2.572   0.469   3.076  0.3493 -0.0259 -0.6537
 1693SOL    HW116541   2.494   0.509   3.114  0.6527 -1.1730  1.1733
 1693SOL    HW216542   2.645   0.495   3.132  0.5804 -1.1261 -0.4513
 1694SOL     OW16543   3.261   4.680   1.590 -0.2969  0.0327  0.7199
 1694SOL    HW116544   3.354   4.660   1.589 -0.2758  0.0820  1.5714
 1694SOL    HW216545   3.260   0.027   1.659 -1.9377  0.3204  0.4167
 1695SOL     OW16546   0.337   4.627   5.869  0.1741  0.3103  0.3484
 1695SOL    HW116547   0.419   4.622   5.820 -1.1722  0.6114 -1.9226
 1695SOL    HW216548   0.309   4.537   5.887 -0.6997  0.3568 -0.8129
 1696SOL     OW16549   0.770   2.578  15.389 -0.3703 -0.3717  0.0633
 1696SOL    HW116550   0.719   2.626  15.453  0.2492 -0.2928  0.4982
 1696SOL    HW216551   0.858   2.592  15.425 -0.2238  0.5974 -0.6626
 1697SOL     OW16552   1.121   3.148   8.524  0.5027 -0.1597 -0.0584
 1697SOL    HW116553   1.122   3.208   8.449 -0.7577 -1.1275 -0.8423
 1697SOL    HW216554   1.033   3.109   8.517  0.4369 -0.3848  1.9604
 1698SOL     OW16555   4.149   2.340   5.941  0.9395  0.1077  0.0711
 1698SOL    HW116556   4.189   2.372   5.860  0.9578  1.3780  0.5720
 1698SOL    HW216557   4.060   2.370   5.922  1.4815  0.8843 -1.2724
 1699SOL     OW16558   1.562   0.582   6.543  0.1148 -0.4297  0.2579
 1699SOL    HW116559   1.636   0.526   6.516  1.4167  0.7771  1.3292
 1699SOL    HW216560   1.584   0.584   6.636 -1.4575 -1.8641  0.6635
 1700SOL     OW16561   3.713   3.651  14.422 -0.0997  0.5376 -0.9035
 1700SOL    HW116562   3.673   3.695  14.347 -0.1023  1.6872 -0.2351
 1700SOL    HW216563   3.679   3.562  14.411  0.9082  0.3009 -2.0708
 1701SOL     OW16564   2.093   3.231  15.608  0.1674  0.0680  0.3946
 1701SOL    HW116565   2.181   3.253  15.637  1.2482 -1.2738 -1.8382
 1701SOL    HW216566   2.115   3.138  15.597 -0.3458  0.2523 -2.2769
 1702SOL     OW16567   0.220   2.960   3.780 -0.0027  0.2802  0.6110
 1702SOL    HW116568   0.168   2.889   3.817 -0.9489  1.5535  1.6876
 1702SOL    HW216569   0.230   2.926   3.691  2.0019  4.5604 -0.8240
 1703SOL     OW16570   1.094   3.309  15.142  0.3740  0.8490 -0.4968
 1703SOL    HW116571   1.090   3.403  15.158  0.0616  0.6460  0.6702
 1703SOL    HW216572   1.181   3.295  15.106  0.1585  1.1701 -1.1296
 1704SOL     OW16573   1.756   4.027   7.754 -0.5897 -0.3446 -0.2136
 1704SOL    HW116574   1.822   4.095   7.771  0.2049 -1.5156  1.4248
 1704SOL    HW216575   1.817   3.958   7.728 -1.6928 -1.3252 -0.1450
 1705SOL     OW16576   3.265   2.038   6.977 -0.2423  0.2057  0.8815
 1705SOL    HW116577   3.311   2.027   7.060  1.1731  1.3110  0.2431
 1705SOL    HW216578   3.300   1.969   6.922 -0.5991  0.6056  0.1467
 1706SOL     OW16579   1.720   2.969   7.396  0.1641  0.4651 -0.8784
 1706SOL    HW116580   1.685   3.005   7.314 -1.4075  0.1368 -0.3579
 1706SOL    HW216581   1.673   3.015   7.464  1.5631  1.7443 -0.7771
 1707SOL     OW16582   3.384   4.278   3.898  0.7008 -0.2791  0.5024
 1707SOL    HW116583   3.454   4.313   3.843  1.2865 -0.2818  1.2504
 1707SOL    HW216584   3.432   4.215   3.951 -0.3270 -0.4613  1.2133
 1708SOL     OW16585   4.488   4.383   7.138 -0.0198  0.1805  0.7481
 1708SOL    HW116586   4.466   4.325   7.211  1.5731  0.6737  1.6266
 1708SOL    HW216587   4.456   4.470   7.161  1.7005  1.0063 -0.0334
 1709SOL     OW16588   4.221   0.051   8.302 -0.0210  0.0159  0.3928
 1709SOL    HW116589   4.276   4.709   8.349  0.8657 -0.4022 -1.1885
 1709SOL    HW216590   4.182   0.095   8.378 -0.1980 -1.0719  0.9302
 1710SOL     OW16591   2.237   2.629   5.441 -0.3984 -0.5351  0.8861
 1710SOL    HW116592   2.324   2.594   5.427 -0.2076  0.1196  0.4294
 1710SOL    HW216593   2.251   2.723   5.426 -1.8850 -0.6042 -1.0365
 1711SOL     OW16594   3.305   1.564   6.271 -0.1247  0.5073  0.2861
 1711SOL    HW116595   3.361   1.566   6.349  0.3513 -0.0195 -0.0491
 1711SOL    HW216596   3.228   1.531   6.317 -0.2096  0.0213 -0.2015
 1712SOL     OW16597   3.835   1.865  14.595  0.3370  0.3722 -0.2743
 1712SOL    HW116598   3.851   1.958  14.612 -2.3628  0.4693  1.7265
 1712SOL    HW216599   3.744   1.861  14.565 -0.6201 -3.6989  3.1635
 1713SOL     OW16600   1.701   2.309  11.422 -0.3755  0.1488 -0.1724
 1713SOL    HW116601   1.772   2.246  11.409 -0.9621 -0.4104 -0.6842
 1713SOL    HW216602   1.629   2.279  11.366  0.1374 -1.0732 -0.1547
 1714SOL     OW16603   2.552   4.688   2.597 -0.6943  0.2108  0.1719
 1714SOL    HW116604   2.472   0.019   2.606 -0.0052  1.0965  1.3034
 1714SOL    HW216605   2.515   4.602   2.578  0.8106 -0.8501  1.9749
 1715SOL     OW16606   3.262   4.718  14.423 -0.0834 -0.3071  1.1041
 1715SOL    HW116607   3.189   0.008  14.361 -0.0057  2.3574  1.4182
 1715SOL    HW216608   3.215   4.717  14.507 -1.8331 -2.1399  0.1070
 1716SOL     OW16609   4.107   1.466   5.999 -0.0967 -0.3097  0.1814
 1716SOL    HW116610   4.046   1.539   6.009 -0.2682 -0.4482  0.1419
 1716SOL    HW216611   4.050   1.390   6.006  0.8679 -1.0634 -0.1008
 1717SOL     OW16612   2.597   2.687  14.363 -0.3727 -0.1080 -0.0831
 1717SOL    HW116613   2.535   2.760  14.375 -2.0818 -1.4634 -0.6466
 1717SOL    HW216614   2.673   2.731  14.327 -0.6112 -0.1684 -0.6526
 1718SOL     OW16615   1.635   0.288   3.190 -0.4118 -0.9372  0.4506
 1718SOL    HW116616   1.594   0.373   3.173  0.3558 -1.2022 -2.7900
 1718SOL    HW216617   1.602   0.256   3.274 -0.6180  0.1818  0.7898
 1719SOL     OW16618   2.714   0.707   6.198  0.4524  0.1867 -0.2897
 1719SOL    HW116619   2.693   0.782   6.141  1.0324 -0.0201 -0.7805
 1719SOL    HW216620   2.772   0.765   6.247  1.5998 -1.0216 -0.2412
 1720SOL     OW16621   3.659   3.613   4.255 -0.3550  0.4959  0.3853
 1720SOL    HW116622   3.613   3.553   4.197  1.0039 -0.1304 -0.0204
 1720SOL    HW216623   3.613   3.585   4.334 -2.8478  1.2952 -0.7529
 1721SOL     OW16624   4.610   3.229  13.359 -0.6158 -0.1056 -0.1076
 1721SOL    HW116625   4.619   3.139  13.391 -1.8640 -0.4375 -0.6903
 1721SOL    HW216626   4.540   3.264  13.413  0.1499  0.2097  0.6860
 1722SOL     OW16627   4.526   1.745   2.288  0.0589 -0.4948 -0.2798
 1722SOL    HW116628   4.446   1.696   2.269 -0.4539  0.3672 -0.3105
 1722SOL    HW216629   4.576   1.668   2.316  0.0025 -0.5239 -0.2585
 1723SOL     OW16630   3.532   0.371   6.068 -0.4505  0.2427 -0.5040
 1723SOL    HW116631   3.560   0.285   6.098 -2.5421 -0.2199  0.1378
 1723SOL    HW216632   3.617   0.415   6.059 -0.7690  1.1674  0.9905
 1724SOL     OW16633   3.789   1.464   6.278 -0.1986 -0.1167 -0.1240
 1724SOL    HW116634   3.724   1.516   6.231  1.1246  0.6126 -1.1562
 1724SOL    HW216635   3.731   1.443   6.352 -1.4984 -2.4708 -1.7861
 1725SOL     OW16636   2.318   3.011   5.112 -0.0499 -0.1202 -0.6232
 1725SOL    HW116637   2.324   3.106   5.124  0.1713 -0.0963 -0.9163
 1725SOL    HW216638   2.299   3.003   5.019 -2.2439 -1.4224 -0.0444
 1726SOL     OW16639   3.552   2.204  10.178 -0.1560 -0.0552 -0.7301
 1726SOL    HW116640   3.493   2.215  10.104  0.8192  0.8985 -1.3712
 1726SOL    HW216641   3.632   2.248  10.149 -0.1405 -1.1455 -2.3355
 1727SOL     OW16642   4.269   1.506  15.133 -0.5771 -0.0599  0.4612
 1727SOL    HW116643   4.215   1.501  15.054  3.9850 -0.2068 -2.5944
 1727SOL    HW216644   4.229   1.435  15.184 -0.2421 -0.1163  0.6432
 1728SOL     OW16645   4.129   0.863   6.545  0.4589 -0.3301  0.1456
 1728SOL    HW116646   4.182   0.811   6.484  2.5175 -1.8145  3.2370
 1728SOL    HW216647   4.194   0.902   6.603  0.9583 -0.3107 -0.4220
 1729SOL     OW16648   2.789   1.536   6.579  0.0684 -0.2266  0.8608
 1729SOL    HW116649   2.714   1.584   6.545 -0.7524 -0.8178  1.8323
 1729SOL    HW216650   2.866   1.594   6.574 -0.6850  0.6771 -0.0903
 1730SOL     OW16651   1.559   3.848   4.834  0.0587  0.3867 -0.0796
 1730SOL    HW116652   1.522   3.788   4.769  2.1024  0.9071 -1.6940
 1730SOL    HW216653   1.533   3.933   4.800 -1.5130  0.5262  1.4226
 1731SOL     OW16654   3.215   3.672   7.786  0.4200  0.0485  0.5821
 1731SOL    HW116655   3.210   3.766   7.767 -1.8346 -0.8798 -3.3277
 1731SOL    HW216656   3.243   3.687   7.877  1.2867 -0.0486  0.3225
 1732SOL     OW16657   1.664   2.455   6.327  0.0306 -0.4057 -0.3873
 1732SOL    HW116658   1.576   2.449   6.290 -0.6086  0.8184  0.8980
 1732SOL    HW216659   1.661   2.392   6.400 -1.4440  2.2915  1.9096
 1733SOL     OW16660   4.315   2.287  17.658 -0.5407 -0.0524  0.2217
 1733SOL    HW116661   4.317   2.195   0.002 -0.5688 -0.3509 -0.8872
 1733SOL    HW216662   4.368   2.279  17.578 -2.4280 -1.1345 -0.9208
 1734SOL     OW16663   2.951   0.113   2.407 -0.0508 -0.6520  0.4711
 1734SOL    HW116664   2.948   0.180   2.339  0.0332  0.2678  1.3622
 1734SOL    HW216665   2.864   0.124   2.446  0.1417  0.6390  0.5255
 1735SOL     OW16666   1.667   2.895   1.914 -0.6213  0.3341  0.1183
 1735SOL    HW116667   1.722   2.967   1.944  0.9331 -0.5711 -0.5683
 1735SOL    HW216668   1.647   2.915   1.823 -1.1059 -2.6197 -0.4552
 1736SOL     OW16669   1.941   3.859   4.235 -0.4847  0.6422  1.1731
 1736SOL    HW116670   1.956   3.812   4.317  2.3376 -3.0633 -1.4156
 1736SOL    HW216671   2.033   3.871   4.211 -0.5569  0.3646  0.7439
 1737SOL     OW16672   1.569   1.879   2.289 -0.1326  0.0120  0.2876
 1737SOL    HW116673   1.635   1.919   2.345 -0.0595  2.2722 -1.3970
 1737SOL    HW216674   1.491   1.927   2.318  1.0404 -0.2493  3.7819
 1738SOL     OW16675   3.489   2.499   9.193 -0.3365 -0.1009 -0.7899
 1738SOL    HW116676   3.548   2.457   9.256 -1.9621  0.4606  1.0869
 1738SOL    HW216677   3.496   2.441   9.117  1.2095 -1.6853  0.5638
 1739SOL     OW16678   3.086   1.020   8.416 -0.0363 -0.2426  0.5206
 1739SOL    HW116679   3.137   0.940   8.426 -1.9741 -1.5927 -0.3956
 1739SOL    HW216680   3.086   1.045   8.324  0.6700  2.2108  1.1890
 1740SOL     OW16681   2.549   0.071   6.283  0.5934  0.1088 -0.3073
 1740SOL    HW116682   2.615   0.066   6.213 -0.0019  1.1592 -0.9399
 1740SOL    HW216683   2.486   0.134   6.251  0.6932 -0.1797 -1.0812
 1741SOL     OW16684   4.502   4.347   7.535 -0.3130  0.0947 -0.1321
 1741SOL    HW116685   4.417   4.345   7.491 -0.9501 -1.1173  1.1566
 1741SOL    HW216686   4.486   4.348   7.630  0.8748  0.0544  0.0723
 1742SOL     OW16687   3.154   1.407   2.897 -0.0771 -0.3139  0.8078
 1742SOL    HW116688   3.218   1.459   2.946  0.9156 -0.9598  0.2075
 1742SOL    HW216689   3.179   1.324   2.938  1.1817 -1.6305 -2.6754
 1743SOL     OW16690   2.165   0.362   5.674 -0.3453  0.4292 -0.5341
 1743SOL    HW116691   2.214   0.425   5.621 -2.3498  1.3183 -1.3593
 1743SOL    HW216692   2.239   0.335   5.728 -0.9635  1.1103  0.6583
 1744SOL     OW16693   0.538   4.482  12.800 -0.0346  0.1386  0.1041
 1744SOL    HW116694   0.628   4.490  12.831 -0.1010  0.5295  0.1923
 1744SOL    HW216695   0.504   4.424  12.868  0.4956 -0.0018  0.2458
 1745SOL     OW16696   0.776   1.443   9.563 -0.7746  0.0417  0.0880
 1745SOL    HW116697   0.816   1.457   9.477 -0.3269 -1.1404  0.1079
 1745SOL    HW216698   0.763   1.534   9.590  0.6311  0.8395 -1.8920
 1746SOL     OW16699   0.236   4.386  13.572 -0.1488 -0.3272  0.3071
 1746SOL    HW116700   0.194   4.437  13.502  1.3722 -0.0659 -0.4066
 1746SOL    HW216701   0.247   4.304  13.524  0.8317  0.5707 -1.0054
 1747SOL     OW16702   2.470   4.678   0.135  0.6284 -1.3311  0.4574
 1747SOL    HW116703   2.478   4.611   0.067  2.2392  0.0823 -0.7608
 1747SOL    HW216704   2.549   0.012   0.125 -1.8271  1.9912 -1.3880
 1748SOL     OW16705   1.023   0.585  13.568 -0.3267  0.5217 -0.7608
 1748SOL    HW116706   0.967   0.634  13.508  0.7866  2.7912  0.0511
 1748SOL    HW216707   1.069   0.659  13.607 -1.1170 -0.2567  1.6597
 1749SOL     OW16708   0.793   2.607   7.152 -0.5205  0.6265 -0.5907
 1749SOL    HW116709   0.803   2.697   7.184 -2.9859  0.9916 -0.8780
 1749SOL    HW216710   0.820   2.567   7.235 -1.8140 -0.3949 -0.6596
 1750SOL     OW16711   3.257   4.188   7.578  0.7546 -0.1169 -0.1909
 1750SOL    HW116712   3.327   4.226   7.630  1.5620 -3.1609  0.9698
 1750SOL    HW216713   3.272   4.096   7.600 -0.6274 -0.7950 -2.0973
 1751SOL     OW16714   1.926   1.958  16.004 -1.0442  0.2201  0.2850
 1751SOL    HW116715   1.971   1.881  15.968 -1.8514 -1.4446  2.8479
 1751SOL    HW216716   1.994   1.997  16.059 -1.1885  1.6822 -0.5794
 1752SOL     OW16717   2.679   0.329   5.985 -0.4549  0.7733 -0.2047
 1752SOL    HW116718   2.680   0.306   5.892 -0.6192 -1.8522  0.4657
 1752SOL    HW216719   2.685   0.243   6.026  0.8888  1.3407  0.7868
 1753SOL     OW16720   2.975   3.425   3.752 -0.4055 -0.1668 -0.5069
 1753SOL    HW116721   2.977   3.348   3.695  0.1744 -0.8676  0.4592
 1753SOL    HW216722   3.055   3.474   3.734 -1.0132  1.0552  0.1134
 1754SOL     OW16723   4.280   1.522   7.099 -0.0249 -0.0288  0.2518
 1754SOL    HW116724   4.351   1.460   7.117  0.2351  0.0575 -0.4702
 1754SOL    HW216725   4.295   1.575   7.178  1.0107  0.2193 -0.1007
 1755SOL     OW16726   4.660   3.133   0.712  0.1602  0.3510  0.0142
 1755SOL    HW116727   4.585   3.104   0.764 -2.4908  0.6588 -3.5521
 1755SOL    HW216728   4.634   3.220   0.679  0.3354 -0.4403 -2.1757
 1756SOL     OW16729   3.378   0.936   8.726 -0.0435 -0.5204  1.0129
 1756SOL    HW116730   3.324   1.013   8.708 -1.1301 -1.4755  0.1370
 1756SOL    HW216731   3.339   0.870   8.668  1.6171 -1.7251  1.2854
 1757SOL     OW16732   1.069   2.001   9.748 -0.0882 -0.4115  0.3757
 1757SOL    HW116733   0.995   2.030   9.695  0.2454 -1.1314 -0.4892
 1757SOL    HW216734   1.113   1.960   9.674  1.5589  0.2724  0.9805
 1758SOL     OW16735   3.424   1.052  14.266 -0.2223 -0.3448 -0.5501
 1758SOL    HW116736   3.508   1.071  14.309  0.3389  0.0323 -1.7995
 1758SOL    HW216737   3.385   0.985  14.321 -0.7654  0.5596  0.1608
 1759SOL     OW16738   4.095   0.042   9.590  0.2571  0.2564  0.4477
 1759SOL    HW116739   4.032   0.079   9.652  1.1519 -0.0943  1.5586
 1759SOL    HW216740   4.069   4.670   9.584  1.3666  0.0431 -1.0549
 1760SOL     OW16741   0.022   1.403   4.916  0.2879 -0.0522  0.0960
 1760SOL    HW116742   0.086   1.446   4.858 -0.1196  1.0952  0.4970
 1760SOL    HW216743   0.038   1.313   4.885  0.8268 -0.3676  1.3040
 1761SOL     OW16744   0.884   0.965   4.749 -0.3555 -0.6609 -0.2940
 1761SOL    HW116745   0.869   0.878   4.711 -1.4805 -0.5772 -0.0469
 1761SOL    HW216746   0.800   1.009   4.734  0.5182  1.6653  1.6804
 1762SOL     OW16747   0.518   1.467   7.545 -0.1407  0.0459  0.1755
 1762SOL    HW116748   0.453   1.469   7.474  0.6632 -0.2308 -0.5724
 1762SOL    HW216749   0.565   1.385   7.530  0.3842  0.6718 -1.6167
 1763SOL     OW16750   0.597   3.698   3.265  0.4261  0.5354 -0.0735
 1763SOL    HW116751   0.578   3.638   3.337  2.2898  0.8439  0.6911
 1763SOL    HW216752   0.565   3.782   3.297 -0.3282 -0.2997  1.3311
 1764SOL     OW16753   2.082   3.158  10.903  0.4856 -0.6330 -0.1464
 1764SOL    HW116754   2.120   3.241  10.931 -1.2756 -1.0794  3.6128
 1764SOL    HW216755   2.053   3.187  10.817  0.1941  1.4391  0.6579
 1765SOL     OW16756   0.952   0.142   5.595  0.9039 -0.2496  0.5932
 1765SOL    HW116757   0.950   0.229   5.634 -0.8490  0.7463 -1.7347
 1765SOL    HW216758   0.890   0.168   5.527  2.2328 -0.9888 -0.8997
 1766SOL     OW16759   2.866   0.237   3.276  0.2067 -0.4136 -0.7982
 1766SOL    HW116760   2.806   0.175   3.234 -2.4150  1.6866 -0.1841
 1766SOL    HW216761   2.865   0.203   3.365 -1.6978  0.7746 -0.3794
 1767SOL     OW16762   4.580   4.299   2.998  0.3811 -0.3561  0.6122
 1767SOL    HW116763   4.611   4.238   2.930 -1.0360 -0.2863 -0.0872
 1767SOL    HW216764   4.633   4.377   2.983 -2.7084  1.6319  0.0628
 1768SOL     OW16765   0.179   2.580  14.092 -0.4435  0.5033  0.3678
 1768SOL    HW116766   0.117   2.651  14.107 -2.1531 -0.5660 -1.7090
 1768SOL    HW216767   0.176   2.562  13.998  1.8228  0.3360  0.3276
 1769SOL     OW16768   3.917   2.444   2.110 -0.1891 -0.1615 -0.0785
 1769SOL    HW116769   3.850   2.425   2.176  1.1215 -0.9258  1.0188
 1769SOL    HW216770   3.874   2.416   2.029  0.1299 -2.1783  0.4536
 1770SOL     OW16771   2.214   2.902   8.163 -0.0867  0.1647 -0.1458
 1770SOL    HW116772   2.208   2.827   8.104  0.3286  0.9376 -1.1645
 1770SOL    HW216773   2.309   2.897   8.167 -0.1862 -1.4741  0.2635
 1771SOL     OW16774   4.623   1.990   6.103  0.1345 -0.7307  0.7448
 1771SOL    HW116775   4.683   2.052   6.061 -1.2598 -1.2395 -2.0310
 1771SOL    HW216776   4.536   2.010   6.067  0.5224 -0.6293 -0.1309
 1772SOL     OW16777   1.962   1.927  10.736  0.8453  0.0550 -0.4227
 1772SOL    HW116778   1.869   1.907  10.723  1.2936 -2.9123  0.9322
 1772SOL    HW216779   1.992   1.973  10.658 -2.1626  2.5959 -0.0847
 1773SOL     OW16780   2.235   0.236   4.556 -0.0195  0.1918  0.0835
 1773SOL    HW116781   2.203   0.229   4.646  0.7250  2.4002  0.5230
 1773SOL    HW216782   2.306   0.172   4.554  0.4546  0.6986  0.3685
 1774SOL     OW16783   0.107   3.868  15.669 -0.1144 -0.4250  0.5173
 1774SOL    HW116784   0.162   3.906  15.738  0.7285 -1.7366  0.5733
 1774SOL    HW216785   0.104   3.937  15.603 -0.6019 -0.5864  0.3682
 1775SOL     OW16786   2.050   0.300   0.861 -0.4285 -0.9138 -0.1904
 1775SOL    HW116787   2.006   0.265   0.783  0.0406 -1.1701 -0.3454
 1775SOL    HW216788   2.021   0.245   0.933  1.4347 -0.1336  1.1403
 1776SOL     OW16789   3.696   1.355   1.912  0.4359 -0.1025 -0.2311
 1776SOL    HW116790   3.668   1.295   1.843 -0.2808 -1.0512  0.8872
 1776SOL    HW216791   3.611   1.389   1.940  0.6468 -0.7673  1.2143
 1777SOL     OW16792   0.484   1.759   1.856  0.6121  0.1238 -0.1696
 1777SOL    HW116793   0.395   1.754   1.892  0.6874  2.9013  0.3771
 1777SOL    HW216794   0.520   1.783   1.941  1.3843 -1.6705  0.0084
 1778SOL     OW16795   4.053   1.360   4.107  0.0332 -0.0172 -0.2671
 1778SOL    HW116796   4.029   1.437   4.055 -1.9948  1.1213  2.3959
 1778SOL    HW216797   4.026   1.283   4.057  3.1801 -1.8042  0.7632
 1779SOL     OW16798   2.115   1.881  14.693 -0.1202 -0.1901  0.6810
 1779SOL    HW116799   2.072   1.797  14.675 -0.7900  0.0049  1.4017
 1779SOL    HW216800   2.071   1.914  14.771  1.4222  0.3021  1.3431
 1780SOL     OW16801   2.060   1.205   7.315  0.1957 -0.1063 -0.1216
 1780SOL    HW116802   2.014   1.225   7.234 -2.0497  0.2282  1.2480
 1780SOL    HW216803   2.150   1.213   7.282  1.2879 -2.0510  2.2993
 1781SOL     OW16804   3.296   0.014  12.055  0.3821  0.2515  0.7905
 1781SOL    HW116805   3.331   0.007  12.144 -1.3704  0.3752  1.5027
 1781SOL    HW216806   3.270   4.643  12.034  1.1074  0.2407 -0.0522
 1782SOL     OW16807   4.558   1.557   5.293 -0.1933 -0.9297 -0.2121
 1782SOL    HW116808   4.537   1.610   5.216  1.1574  0.0346  0.0789
 1782SOL    HW216809   4.554   1.466   5.263  0.9045 -1.1517  0.2918
 1783SOL     OW16810   4.295   0.170  13.608  0.5538  0.2895 -0.2308
 1783SOL    HW116811   4.229   0.171  13.538 -0.4137  1.3532  0.6869
 1783SOL    HW216812   4.317   0.263  13.606  1.2072  0.1408  0.0059
 1784SOL     OW16813   4.551   2.889   1.094 -0.0464  0.0853 -0.5699
 1784SOL    HW116814   4.510   2.835   1.162  1.3527 -0.1289  0.1070
 1784SOL    HW216815   4.619   2.827   1.067 -0.7487 -1.1294  0.4306
 1785SOL     OW16816   3.718   0.862   2.848  1.2456 -0.2944  0.5346
 1785SOL    HW116817   3.628   0.832   2.860  0.8082  0.6826 -0.2241
 1785SOL    HW216818   3.701   0.951   2.816  1.8547 -0.3130  0.1584
 1786SOL     OW16819   3.267   1.243  14.014 -0.7064 -0.1852 -0.3537
 1786SOL    HW116820   3.332   1.312  14.030 -2.1016  1.7427 -3.1866
 1786SOL    HW216821   3.312   1.194  13.945  1.9731  2.3651 -0.4018
 1787SOL     OW16822   2.373   3.154  17.358  0.0558 -0.2264  0.0265
 1787SOL    HW116823   2.307   3.185  17.296 -1.7831  0.0575  2.1272
 1787SOL    HW216824   2.443   3.166  17.294  0.6582  1.2253  0.9625
 1788SOL     OW16825   3.461   2.762   5.245 -0.0127 -0.5209  0.4777
 1788SOL    HW116826   3.389   2.702   5.227  1.3807 -1.8626 -0.6303
 1788SOL    HW216827   3.426   2.851   5.233  0.5543 -0.0786  2.0918
 1789SOL     OW16828   4.640   2.669   8.555  0.1378 -0.4097 -0.3132
 1789SOL    HW116829   4.636   2.736   8.487  0.3876  1.0618  1.1134
 1789SOL    HW216830   4.549   2.638   8.555 -1.3987  4.1905 -1.4183
 1790SOL     OW16831   4.458   3.075   8.165  0.0456  0.2147 -0.0744
 1790SOL    HW116832   4.368   3.045   8.175  0.1514 -0.1881 -0.3007
 1790SOL    HW216833   4.444   3.131   8.089  2.0736 -0.0446 -0.6481
 1791SOL     OW16834   3.812   1.478  13.089  0.2377 -0.5788  0.2764
 1791SOL    HW116835   3.813   1.548  13.024  0.2174  0.1145  1.0276
 1791SOL    HW216836   3.800   1.397  13.039 -0.3554  0.0181 -0.5397
 1792SOL     OW16837   0.007   1.087   2.294 -0.4129 -0.4836  0.4087
 1792SOL    HW116838   0.030   1.160   2.351  1.2587 -0.8521  0.2164
 1792SOL    HW216839   4.632   1.079   2.308 -0.7471  1.1232 -0.8626
 1793SOL     OW16840   1.301   3.018   4.581 -0.6498  0.1091  0.2057
 1793SOL    HW116841   1.304   3.089   4.516  1.3359  0.4304  0.6587
 1793SOL    HW216842   1.217   3.041   4.622 -0.4015  1.3014  0.0538
 1794SOL     OW16843   1.363   0.571   1.061 -0.2827 -0.2305  0.0625
 1794SOL    HW116844   1.348   0.658   1.097  0.5204  1.1519 -2.9139
 1794SOL    HW216845   1.381   0.595   0.970 -1.8079 -0.4406 -0.2914
 1795SOL     OW16846   1.196   1.016  17.346  0.3305 -0.7201  0.5194
 1795SOL    HW116847   1.134   0.948  17.321  0.4084 -0.4907 -0.2917
 1795SOL    HW216848   1.236   1.021  17.260  1.1389 -0.9578  0.8863
 1796SOL     OW16849   2.461   1.315   9.108 -1.0918 -0.1515 -0.0139
 1796SOL    HW116850   2.452   1.374   9.183  1.0407  0.0920  0.0572
 1796SOL    HW216851   2.556   1.308   9.102 -0.9416  1.9937 -0.4666
 1797SOL     OW16852   3.447   4.363   5.752 -1.0547  0.2898  1.2604
 1797SOL    HW116853   3.537   4.373   5.781 -0.2371  1.8855 -1.8086
 1797SOL    HW216854   3.408   4.371   5.839 -0.4930  1.7412  1.3731
 1798SOL     OW16855   4.370   3.291   0.350  0.0310  0.1438  0.1535
 1798SOL    HW116856   4.300   3.306   0.414 -0.7464  1.7289 -1.0680
 1798SOL    HW216857   4.414   3.217   0.391 -0.9411 -0.4225  0.1856
 1799SOL     OW16858   1.199   2.319  17.658  0.1051  0.5330 -0.1632
 1799SOL    HW116859   1.236   2.403  17.632 -0.3753  0.6687 -0.4192
 1799SOL    HW216860   1.107   2.339  17.641 -1.2754 -4.9896  0.8007
 1800SOL     OW16861   0.288   1.770   3.495  0.4126  1.1856  0.4702
 1800SOL    HW116862   0.222   1.817   3.547  0.4229 -0.3387  1.8607
 1800SOL    HW216863   0.231   1.737   3.426  0.0326 -0.6102  1.6359
 1801SOL     OW16864   4.530   0.865   1.437 -0.6718  0.1143 -0.1453
 1801SOL    HW116865   4.490   0.884   1.352  2.3625  0.1066 -1.5867
 1801SOL    HW216866   4.460   0.810   1.473  0.9249 -1.7166  0.1584
 1802SOL     OW16867   1.413   1.057  13.975 -0.0782  0.0651 -0.0840
 1802SOL    HW116868   1.346   1.066  14.043 -1.1081  0.0562 -1.0866
 1802SOL    HW216869   1.473   0.988  14.002  0.6959  0.8596  0.2033
 1803SOL     OW16870   2.763   3.965   6.226  0.0331 -0.2047  0.2220
 1803SOL    HW116871   2.743   3.989   6.316  1.9006  1.6297  0.1327
 1803SOL    HW216872   2.856   3.987   6.215 -0.1860  0.8768  0.6238
 1804SOL     OW16873   3.078   4.063   2.059 -0.3846  0.7503 -0.0357
 1804SOL    HW116874   3.025   4.130   2.102 -1.5812 -1.1079  1.3923
 1804SOL    HW216875   3.154   4.059   2.116 -1.7723 -1.7672  1.6203
 1805SOL     OW16876   1.519   1.171   1.474 -0.1666  0.1530  0.4562
 1805SOL    HW116877   1.515   1.265   1.457  1.8320  0.3419  0.9847
 1805SOL    HW216878   1.465   1.127   1.409  1.0364  0.3104 -0.6610
 1806SOL     OW16879   4.363   1.717   5.688 -0.5709  0.2917  0.6786
 1806SOL    HW116880   4.313   1.638   5.711 -2.1512  1.1674  0.2391
 1806SOL    HW216881   4.338   1.734   5.597  0.6527 -1.6601 -0.0119
 1807SOL     OW16882   0.061   4.391   8.039 -0.2186 -0.1742  0.1706
 1807SOL    HW116883   0.104   4.442   7.970  1.1359  0.1404  1.2509
 1807SOL    HW216884   0.080   4.303   8.008 -1.7520 -0.6668  0.6479
 1808SOL     OW16885   1.713   2.693   5.576 -0.7197 -0.1750  0.6154
 1808SOL    HW116886   1.804   2.668   5.565 -0.6383 -0.8682  2.8847
 1808SOL    HW216887   1.688   2.655   5.661 -0.5371 -0.8780  0.3543
 1809SOL     OW16888   2.357   4.273  17.481  0.3204 -0.0511  0.2253
 1809SOL    HW116889   2.416   4.302  17.411 -0.5915  0.4879 -0.3083
 1809SOL    HW216890   2.284   4.249  17.424  0.7817 -1.1215  0.0721
 1810SOL     OW16891   1.370   4.710   6.673  0.3422  0.3934 -0.2175
 1810SOL    HW116892   1.280   4.715   6.706 -0.3703  0.0065 -2.0795
 1810SOL    HW216893   1.367   4.629   6.622 -0.0992  0.0754  0.3181
 1811SOL     OW16894   3.514   2.696   0.258 -0.5737 -0.3282 -0.3823
 1811SOL    HW116895   3.554   2.707   0.344  1.0895  2.0888 -1.4699
 1811SOL    HW216896   3.577   2.640   0.212  1.5018  1.1636  0.6576
 1812SOL     OW16897   2.204   4.620   2.502 -0.2904  0.4089  0.1875
 1812SOL    HW116898   2.119   4.594   2.464  0.1770 -0.8053 -0.0467
 1812SOL    HW216899   2.253   4.540   2.483  0.9616  0.8045  1.8319
 1813SOL     OW16900   2.462   0.865   3.125  0.6161  0.4177 -0.0445
 1813SOL    HW116901   2.552   0.897   3.138  0.8862  0.5301 -2.1763
 1813SOL    HW216902   2.405   0.938   3.148  2.4839  1.5083  1.1281
 1814SOL     OW16903   4.708   0.443   0.841 -0.7829  0.0457 -0.4864
 1814SOL    HW116904   0.013   0.436   0.933  0.2158  0.6154 -0.7043
 1814SOL    HW216905   4.668   0.357   0.834 -1.2104  0.2143 -0.0659
 1815SOL     OW16906   2.232   2.974  15.621  0.3349 -0.3454 -0.0652
 1815SOL    HW116907   2.283   2.897  15.599  0.6145  0.0598 -0.8444
 1815SOL    HW216908   2.218   2.957  15.714  1.5297  0.9736  0.3684
 1816SOL     OW16909   4.155   1.948   5.107  0.3374  0.6321 -0.4232
 1816SOL    HW116910   4.174   1.951   5.014  2.3446  1.3021  0.0013
 1816SOL    HW216911   4.061   1.932   5.117  0.2621  0.4430 -1.5313
 1817SOL     OW16912   3.183   0.206   5.466 -0.2571  0.0626  0.1072
 1817SOL    HW116913   3.158   0.118   5.436  0.2535  0.8899 -2.7265
 1817SOL    HW216914   3.278   0.210   5.458 -0.0818 -0.1993  1.9936
 1818SOL     OW16915   0.679   1.663   7.450 -0.0973  0.1124 -0.4730
 1818SOL    HW116916   0.764   1.621   7.448 -0.2522 -0.2212  0.2934
 1818SOL    HW216917   0.630   1.608   7.511  1.2267 -2.5410 -1.8504
 1819SOL     OW16918   1.164   2.141   2.606  0.4659  1.0661  0.1907
 1819SOL    HW116919   1.254   2.115   2.628  0.1183  0.1646  0.5823
 1819SOL    HW216920   1.189   2.176   2.521 -1.3614  2.2914  0.1703
 1820SOL     OW16921   0.966   4.517   4.102  0.8134  0.2298 -0.0541
 1820SOL    HW116922   1.024   4.529   4.178  0.9362  0.0544 -0.1190
 1820SOL    HW216923   0.896   4.461   4.135  1.7457 -0.4312  0.8412
 1821SOL     OW16924   3.502   3.331   9.519  0.0124 -0.1105 -0.2335
 1821SOL    HW116925   3.431   3.274   9.489  2.1195 -1.5889 -2.4352
 1821SOL    HW216926   3.527   3.374   9.437  1.9743 -0.3291  0.2517
 1822SOL     OW16927   2.698   1.211   2.631  0.0665 -0.2023 -0.2454
 1822SOL    HW116928   2.642   1.282   2.600 -1.7500 -2.1022 -1.3208
 1822SOL    HW216929   2.656   1.135   2.592 -0.4236 -1.2353  2.3202
 1823SOL     OW16930   3.283   1.364   7.465 -0.1789 -0.1184 -0.4917
 1823SOL    HW116931   3.288   1.451   7.504 -1.8868  0.1753 -0.9123
 1823SOL    HW216932   3.203   1.377   7.415  0.0358  2.4704 -0.1452
 1824SOL     OW16933   1.609   1.434   7.924  0.2472 -0.2429  0.3162
 1824SOL    HW116934   1.586   1.504   7.864  0.4207 -2.0310 -1.8309
 1824SOL    HW216935   1.611   1.483   8.006  1.4574 -2.2794  1.5024
 1825SOL     OW16936   4.402   2.106   5.980 -0.0116  0.8038 -0.2929
 1825SOL    HW116937   4.410   2.169   6.051  0.6134  1.6260 -1.0992
 1825SOL    HW216938   4.310   2.124   5.959 -0.5830  0.8228  2.2696
 1826SOL     OW16939   2.419   4.379   7.172 -0.1035  0.3667  0.1770
 1826SOL    HW116940   2.376   4.357   7.255  0.8185 -1.9064  0.0411
 1826SOL    HW216941   2.376   4.312   7.119 -0.8261  2.3730 -1.8048
 1827SOL     OW16942   2.774   4.450   1.835 -0.2291 -0.9504 -0.0837
 1827SOL    HW116943   2.824   4.493   1.766 -0.2842 -1.0831 -0.2072
 1827SOL    HW216944   2.711   4.404   1.779 -0.3877 -1.5761  0.6094
 1828SOL     OW16945   3.619   1.773   7.182 -0.2180 -0.1464  0.1107
 1828SOL    HW116946   3.702   1.726   7.170 -1.2861 -1.6532 -1.5030
 1828SOL    HW216947   3.625   1.832   7.106  1.5933  0.3184  0.6152
 1829SOL     OW16948   0.483   4.262   8.739 -0.1568  0.2843  0.0267
 1829SOL    HW116949   0.399   4.308   8.740 -0.3331 -0.0550  1.5530
 1829SOL    HW216950   0.542   4.317   8.687 -0.9205  2.0134  0.9791
 1830SOL     OW16951   3.126   0.962   3.827  0.6627  0.1529  0.3694
 1830SOL    HW116952   3.194   0.903   3.859  1.0651  0.4010 -0.0384
 1830SOL    HW216953   3.053   0.934   3.883 -0.0345  1.3078  0.0553
 1831SOL     OW16954   2.659   1.188   4.689 -0.4984  0.2858 -0.0392
 1831SOL    HW116955   2.599   1.138   4.744 -0.8358  0.7244 -0.0041
 1831SOL    HW216956   2.716   1.113   4.670  0.0498 -0.4903  4.6382
 1832SOL     OW16957   1.379   1.434  16.481  0.0167  0.7544 -0.0160
 1832SOL    HW116958   1.303   1.488  16.505 -0.4382  0.1881 -0.1821
 1832SOL    HW216959   1.355   1.440  16.388 -1.8629  0.0186  0.4197
 1833SOL     OW16960   0.243   1.716   7.680 -0.1714  0.4881 -0.0442
 1833SOL    HW116961   0.236   1.754   7.592  0.6222  1.4703  0.3263
 1833SOL    HW216962   0.335   1.725   7.705 -0.7488  1.2203  1.8445
 1834SOL     OW16963   2.843   1.446  17.413  0.6036 -0.0121  0.1714
 1834SOL    HW116964   2.769   1.487  17.458 -0.1492 -1.5477  0.3561
 1834SOL    HW216965   2.836   1.353  17.436  2.1442  0.1608  1.3564
 1835SOL     OW16966   2.586   4.710  13.073  0.1836  0.1593  0.3293
 1835SOL    HW116967   2.643   4.718  13.150  0.5480  1.0465 -0.0341
 1835SOL    HW216968   2.648   4.661  13.020 -1.4400 -1.8492  0.3017
 1836SOL     OW16969   3.360   4.086  17.589 -0.3650  0.5477 -0.1895
 1836SOL    HW116970   3.278   4.127  17.616 -0.1728 -0.8558  2.5500
 1836SOL    HW216971   3.405   4.167  17.566  2.4278 -1.1067 -0.5726
 1837SOL     OW16972   3.572   3.803   4.007 -0.6021  0.1728  0.1109
 1837SOL    HW116973   3.665   3.811   3.988 -0.9749 -0.8887 -2.1648
 1837SOL    HW216974   3.569   3.763   4.094  0.7470  1.1987  0.6185
 1838SOL     OW16975   3.945   3.409  16.056  0.0492 -0.0063 -0.0298
 1838SOL    HW116976   3.938   3.379  16.147  1.9499  0.3919  0.2409
 1838SOL    HW216977   3.933   3.328  16.006 -0.0425 -0.6425  1.0174
 1839SOL     OW16978   1.165   1.033   1.985 -0.2540 -0.3508 -0.2073
 1839SOL    HW116979   1.210   1.023   1.901 -0.0722  2.4172 -0.4242
 1839SOL    HW216980   1.077   1.059   1.956 -0.2531  0.6959  0.7702
 1840SOL     OW16981   4.037   2.724   6.605  0.1387  0.2310 -0.3720
 1840SOL    HW116982   4.017   2.640   6.646  1.2805  1.1976  2.1517
 1840SOL    HW216983   4.004   2.717   6.515 -1.8619 -0.8988  0.4448
 1841SOL     OW16984   3.043   3.561   2.420 -0.2169  0.4053 -0.1223
 1841SOL    HW116985   2.954   3.562   2.455 -0.8703  2.7109 -1.8875
 1841SOL    HW216986   3.039   3.531   2.330  0.7237 -0.8505  0.2591
 1842SOL     OW16987   3.496   0.644   8.344 -0.0009 -0.0005  0.6090
 1842SOL    HW116988   3.523   0.701   8.272  0.2258  0.4090  1.0187
 1842SOL    HW216989   3.524   0.561   8.305  1.7939  1.9182 -2.1467
 1843SOL     OW16990   3.337   3.710   5.688  0.4120 -0.2953  0.0797
 1843SOL    HW116991   3.246   3.694   5.714  0.9897 -1.0157  1.6385
 1843SOL    HW216992   3.366   3.731   5.776 -2.6101 -1.7146  1.4076
 1844SOL     OW16993   3.194   3.383   4.009  0.8285  0.1348  0.4909
 1844SOL    HW116994   3.171   3.453   4.070  2.5624  2.5052 -1.5600
 1844SOL    HW216995   3.193   3.441   3.933  2.4579 -0.7855 -0.2380
 1845SOL     OW16996   2.703   2.611   5.885  0.2166  0.3125 -0.1422
 1845SOL    HW116997   2.777   2.633   5.942  0.2674 -0.3118  0.0289
 1845SOL    HW216998   2.622   2.628   5.932 -0.1863  0.7541 -0.9851
 1846SOL     OW16999   0.361   3.494   7.899 -0.1262  0.7213 -0.1429
 1846SOL    HW117000   0.419   3.439   7.846 -0.7444  0.1278 -0.2009
 1846SOL    HW217001   0.323   3.549   7.831 -0.7829  1.2857  0.6794
 1847SOL     OW17002   0.790   1.360   4.568  0.4804  0.0155  0.3865
 1847SOL    HW117003   0.827   1.282   4.526 -0.9240 -0.8087  0.6957
 1847SOL    HW217004   0.696   1.357   4.551  0.4734  0.6414  0.3366
 1848SOL     OW17005   0.776   0.720  12.269 -0.0913 -0.5081  0.6364
 1848SOL    HW117006   0.822   0.645  12.231  1.2896  0.3742  0.5810
 1848SOL    HW217007   0.832   0.758  12.337  1.7331  0.7966 -1.6035
 1849SOL     OW17008   2.626   3.174   4.876  0.3579 -0.0337  0.5436
 1849SOL    HW117009   2.641   3.082   4.898  0.3819 -0.2452 -0.3575
 1849SOL    HW217010   2.588   3.184   4.788  2.4480  2.1952 -0.1069
 1850SOL     OW17011   2.480   1.234  14.665  0.0510  0.4809 -0.9032
 1850SOL    HW117012   2.406   1.274  14.711  0.0661 -0.1899 -0.2826
 1850SOL    HW217013   2.431   1.163  14.623  0.0624  0.0504 -0.1802
 1851SOL     OW17014   3.684   3.713  11.687  0.3251 -0.1345  0.4236
 1851SOL    HW117015   3.605   3.750  11.727  1.1977  0.1759  1.8593
 1851SOL    HW217016   3.684   3.755  11.601  1.2237  2.3521  1.6388
 1852SOL     OW17017   2.482   3.965  17.575 -0.1266 -0.5032  0.4494
 1852SOL    HW117018   2.424   4.038  17.552 -0.3190 -0.2907  1.6066
 1852SOL    HW217019   2.485   3.917  17.492  0.3285 -2.1325  1.3965
 1853SOL     OW17020   4.630   2.472  14.120  0.9880 -0.6906 -0.7271
 1853SOL    HW117021   4.566   2.515  14.177  1.3303 -2.5337  1.0478
 1853SOL    HW217022   4.663   2.552  14.078 -0.1375 -1.1042 -2.3930
 1854SOL     OW17023   4.130   0.856   0.291  0.1359  0.4713 -0.0727
 1854SOL    HW117024   4.057   0.838   0.351  0.0175 -1.0764 -0.6996
 1854SOL    HW217025   4.177   0.930   0.331 -0.9821  1.3501 -0.3662
 1855SOL     OW17026   3.615   0.877  11.212 -0.3167  0.4142 -0.3206
 1855SOL    HW117027   3.624   0.820  11.135  0.7294  0.2567 -0.0790
 1855SOL    HW217028   3.559   0.948  11.180 -0.5569  0.2736 -0.2131
 1856SOL     OW17029   2.041   4.247   8.632  0.0378  0.0482  0.6831
 1856SOL    HW117030   2.098   4.176   8.603  2.9654  2.2383  1.0556
 1856SOL    HW217031   2.019   4.204   8.715  1.6272 -1.2088  0.4609
 1857SOL     OW17032   2.404   2.684   4.773 -0.3470  0.4179  0.2730
 1857SOL    HW117033   2.322   2.732   4.782  0.5326  2.1438 -0.7995
 1857SOL    HW217034   2.410   2.659   4.681  2.5486 -2.4290  1.2419
 1858SOL     OW17035   3.831   3.833   1.557  0.6920  0.2261  0.1589
 1858SOL    HW117036   3.778   3.755   1.539  1.7317 -0.6193  0.7272
 1858SOL    HW217037   3.911   3.794   1.522  0.2298  2.3884 -3.2390
 1859SOL     OW17038   3.195   0.769   8.613 -0.0573 -0.6716 -0.0384
 1859SOL    HW117039   3.164   0.698   8.669 -0.5644  1.0306  1.8489
 1859SOL    HW217040   3.222   0.727   8.531 -2.9374  1.9730 -2.3558
 1860SOL     OW17041   0.574   0.051   5.231  0.2813  0.1665  0.0802
 1860SOL    HW117042   0.621   4.696   5.270 -3.3798 -2.5424 -0.5959
 1860SOL    HW217043   0.603   0.128   5.279 -0.3328  0.1699  0.4435
 1861SOL     OW17044   4.609   3.683   9.206  0.1342 -0.2266 -0.1126
 1861SOL    HW117045   4.573   3.772   9.202 -1.1440 -0.7468 -0.2676
 1861SOL    HW217046   4.537   3.630   9.240 -2.4731  1.6892 -2.6236
 1862SOL     OW17047   2.473   4.171   1.907  0.1626 -0.1554  0.3595
 1862SOL    HW117048   2.510   4.259   1.912 -3.4302  1.3071  0.7922
 1862SOL    HW217049   2.382   4.198   1.893  1.0980  1.7699 -2.0282
 1863SOL     OW17050   2.677   3.314  15.017 -0.2884  0.0622 -0.2240
 1863SOL    HW117051   2.596   3.276  15.052 -1.0495  1.3621 -0.5772
 1863SOL    HW217052   2.648   3.365  14.941 -0.1706 -0.5282 -0.6653
 1864SOL     OW17053   2.095   3.716  16.451 -0.3552  0.0217 -0.5696
 1864SOL    HW117054   2.024   3.770  16.486 -0.7885  1.3175 -3.4994
 1864SOL    HW217055   2.059   3.667  16.378 -2.7108  1.7524 -0.5496
 1865SOL     OW17056   1.295   4.101   5.272 -0.4464  0.0558 -0.2853
 1865SOL    HW117057   1.390   4.113   5.270 -0.2461 -1.1322  2.9028
 1865SOL    HW217058   1.282   4.008   5.251  1.3366  0.1350 -1.8048
 1866SOL     OW17059   1.497   0.512   5.429 -0.0081 -0.4424  0.5608
 1866SOL    HW117060   1.564   0.579   5.414 -1.4089  1.1024  1.1904
 1866SOL    HW217061   1.437   0.528   5.356  2.1541 -1.4005 -1.4707
 1867SOL     OW17062   4.383   3.570   9.330  0.0094 -0.3847 -0.1191
 1867SOL    HW117063   4.386   3.630   9.405  0.1638 -1.5615  0.8115
 1867SOL    HW217064   4.305   3.520   9.350  1.3935 -3.4932 -2.5415
 1868SOL     OW17065   4.297   2.778   0.408  0.2863  0.7199 -0.1354
 1868SOL    HW117066   4.318   2.684   0.408  0.7055  0.8079 -2.0170
 1868SOL    HW217067   4.239   2.791   0.483  0.7746  0.7050  0.2480
 1869SOL     OW17068   4.622   0.348   4.183 -0.2646 -0.3988  0.2685
 1869SOL    HW117069   4.711   0.347   4.218 -0.2007  1.4022  0.1587
 1869SOL    HW217070   4.586   0.417   4.239  2.9338  0.0093  1.8043
 1870SOL     OW17071   3.950   2.546   0.658  0.9028 -0.1613  0.1027
 1870SOL    HW117072   3.911   2.502   0.734  1.4775 -2.3728 -0.8744
 1870SOL    HW217073   3.873   2.557   0.602 -0.3281 -2.3318  1.3455
 1871SOL     OW17074   0.812   1.681  12.244  0.3792  0.2642 -0.5141
 1871SOL    HW117075   0.797   1.769  12.209 -0.1051  0.0549 -0.8293
 1871SOL    HW217076   0.900   1.690  12.281  0.9723 -1.4503 -1.5424
 1872SOL     OW17077   4.309   1.344   7.720  0.3485 -0.1363 -0.3546
 1872SOL    HW117078   4.240   1.279   7.706  1.3195 -1.3017  0.3494
 1872SOL    HW217079   4.292   1.354   7.814  0.7607  1.1804 -0.4186
 1873SOL     OW17080   4.074   1.932   6.575 -0.3415 -0.1240  0.4852
 1873SOL    HW117081   3.983   1.925   6.546 -0.5699  0.6893  1.0140
 1873SOL    HW217082   4.090   1.855   6.629 -0.8988  0.5249  1.5839
 1874SOL     OW17083   3.352   2.108   7.263  0.8057 -0.2638 -0.1080
 1874SOL    HW117084   3.446   2.125   7.265  0.7895 -0.5640  2.5899
 1874SOL    HW217085   3.330   2.088   7.354 -0.6469 -0.6770 -0.5392
 1875SOL     OW17086   2.431   0.979  10.624 -0.1264  0.1854 -0.0773
 1875SOL    HW117087   2.480   1.032  10.687  0.6369 -2.0763  1.2364
 1875SOL    HW217088   2.381   0.932  10.690  1.9719  0.3586  1.6455
 1876SOL     OW17089   2.408   1.234   3.944  0.0938 -0.2452  0.1816
 1876SOL    HW117090   2.351   1.164   3.913 -1.7025  1.8966 -1.4150
 1876SOL    HW217091   2.440   1.204   4.029  0.1306 -0.8344 -0.0466
 1877SOL     OW17092   1.884   3.820   6.297 -0.0657 -0.1839  0.3396
 1877SOL    HW117093   1.823   3.813   6.371 -1.2191 -0.4919 -0.6304
 1877SOL    HW217094   1.830   3.872   6.238  0.2047  1.0708  1.2028
 1878SOL     OW17095   2.137   0.056  12.878  0.6883 -0.5239  0.3057
 1878SOL    HW117096   2.160   0.147  12.899  2.2276 -0.2817 -2.5448
 1878SOL    HW217097   2.194   0.040  12.804  1.1809  1.2467  0.3067
 1879SOL     OW17098   2.727   1.198   5.416  0.5874  0.2094 -0.0418
 1879SOL    HW117099   2.728   1.211   5.321  1.7750  2.2134  0.2405
 1879SOL    HW217100   2.685   1.276   5.453 -1.6087 -1.6809  1.4657
 1880SOL     OW17101   1.074   1.899   9.262 -0.6078  0.1706  0.1095
 1880SOL    HW117102   1.023   1.819   9.266  2.6229 -1.9646 -1.2521
 1880SOL    HW217103   1.149   1.865   9.213  0.4695 -0.3350  2.1218
 1881SOL     OW17104   1.061   2.277   9.500  0.0213  0.6148  0.3015
 1881SOL    HW117105   1.034   2.213   9.435  0.6416  0.5034  0.1573
 1881SOL    HW217106   0.977   2.311   9.531 -1.4615  0.0221 -3.1280
 1882SOL     OW17107   0.352   2.796   6.161  0.7741  0.2800 -0.5729
 1882SOL    HW117108   0.404   2.724   6.126 -0.3380 -0.2085 -1.1919
 1882SOL    HW217109   0.310   2.751   6.234  0.8105 -0.9445 -1.3132
 1883SOL     OW17110   3.279   0.178   1.752 -0.4713  0.2525 -0.4301
 1883SOL    HW117111   3.372   0.199   1.759 -0.9560  1.5864  1.7132
 1883SOL    HW217112   3.261   0.134   1.835  1.0718 -0.1283 -0.3076
 1884SOL     OW17113   1.625   1.895   5.822 -0.5367 -0.6515 -0.0531
 1884SOL    HW117114   1.590   1.939   5.745  0.7339  0.1350 -0.1779
 1884SOL    HW217115   1.580   1.811   5.815  1.0889 -1.3267 -2.5005
 1885SOL     OW17116   3.784   4.666   5.904 -0.1802  0.0730  0.1562
 1885SOL    HW117117   3.809   4.661   5.812 -0.9987  2.3146 -0.1928
 1885SOL    HW217118   3.867   4.644   5.946  0.3490 -0.6660 -1.2636
 1886SOL     OW17119   3.777   4.308   2.784 -0.5031  0.0007 -0.5762
 1886SOL    HW117120   3.779   4.376   2.716  2.2580 -0.7840 -1.2679
 1886SOL    HW217121   3.765   4.360   2.864 -2.3436 -2.5947  0.8174
 1887SOL     OW17122   2.223   0.438   2.956  1.0619  0.0908 -0.4075
 1887SOL    HW117123   2.256   0.350   2.976 -0.1829 -0.3877 -0.4370
 1887SOL    HW217124   2.279   0.487   3.016  0.1891  0.2790  0.2370
 1888SOL     OW17125   0.572   2.270   6.386 -0.6141 -0.1782  0.4431
 1888SOL    HW117126   0.609   2.185   6.410  2.1355  0.5853 -1.0929
 1888SOL    HW217127   0.490   2.258   6.433 -0.1294 -3.3551  0.5003
 1889SOL     OW17128   3.081   1.071   4.612  0.5479 -0.0833  0.3211
 1889SOL    HW117129   3.099   1.157   4.574 -0.4102 -0.0259 -0.0035
 1889SOL    HW217130   3.031   1.034   4.539  0.8659  0.5978 -0.2410
 1890SOL     OW17131   4.028   3.648   3.802 -0.3749  0.0480  0.1674
 1890SOL    HW117132   4.035   3.587   3.876 -2.8434  1.6446  1.7360
 1890SOL    HW217133   4.052   3.585   3.734  1.3558  1.5083 -0.5560
 1891SOL     OW17134   2.194   3.913   4.161  0.2411  0.1351 -0.6034
 1891SOL    HW117135   2.282   3.883   4.185 -0.4918  0.6805  2.7969
 1891SOL    HW217136   2.197   3.883   4.070  0.6660 -0.2755 -0.4579
 1892SOL     OW17137   2.550   2.128   7.785 -0.1979 -0.1939  0.1840
 1892SOL    HW117138   2.471   2.099   7.740  0.6069 -1.3759 -0.4799
 1892SOL    HW217139   2.541   2.223   7.775  1.4951  0.0668  1.2206
 1893SOL     OW17140   0.091   3.268   4.292  0.7441 -0.2552  0.1320
 1893SOL    HW117141   0.154   3.227   4.233 -1.0254  0.7483 -2.4989
 1893SOL    HW217142   0.134   3.352   4.309  1.7469 -0.9893  1.1633
 1894SOL     OW17143   2.382   2.812   6.664  0.0072  0.0887 -0.0773
 1894SOL    HW117144   2.323   2.768   6.603 -1.0925  1.0957  0.2382
 1894SOL    HW217145   2.341   2.898   6.670  2.7060  1.2853  1.1043
 1895SOL     OW17146   0.519   1.778   7.726  0.8295  0.5572  0.4282
 1895SOL    HW117147   0.578   1.716   7.683 -0.5725 -0.7695  0.4033
 1895SOL    HW217148   0.505   1.740   7.813 -0.1717  0.3493  0.1815
 1896SOL     OW17149   2.299   2.918   5.896 -0.2891  0.5550  0.0166
 1896SOL    HW117150   2.323   3.009   5.913 -4.4828  1.5445  0.6813
 1896SOL    HW217151   2.286   2.913   5.801 -2.4042 -1.3868  0.4144
 1897SOL     OW17152   1.178   1.887   7.476 -0.7195  0.0273  0.1026
 1897SOL    HW117153   1.105   1.949   7.486 -0.3155  0.3055  1.3671
 1897SOL    HW217154   1.151   1.828   7.406  0.6282 -0.3627 -0.0987
 1898SOL     OW17155   1.132   4.010   8.791 -0.2254 -0.5255  0.2918
 1898SOL    HW117156   1.100   4.031   8.878 -0.2820  0.8027 -0.0508
 1898SOL    HW217157   1.131   3.915   8.803  1.4898 -0.1945  2.9149
 1899SOL     OW17158   3.661   1.134  10.893 -0.0889 -0.2472 -0.3989
 1899SOL    HW117159   3.597   1.204  10.883  1.3793  1.1113 -0.3764
 1899SOL    HW217160   3.640   1.117  10.985  0.2622 -1.9511 -0.6372
 1900SOL     OW17161   3.389   0.739  13.745 -0.4485 -0.4774 -0.6533
 1900SOL    HW117162   3.375   0.755  13.839  1.4804 -0.0544 -0.4180
 1900SOL    HW217163   3.345   0.815  13.709  1.9714  1.0523 -0.4309
 1901SOL     OW17164   0.411   0.924  10.579 -0.3993  0.0134 -0.6043
 1901SOL    HW117165   0.437   0.936  10.487  1.4629  0.2485 -0.0560
 1901SOL    HW217166   0.384   1.010  10.611 -0.0553 -0.2310  0.3331
 1902SOL     OW17167   2.703   0.077   6.062 -0.2239  0.3614  0.0439
 1902SOL    HW117168   2.756   0.064   5.983  0.5588 -1.0768  0.8008
 1902SOL    HW217169   2.780   0.085   6.119 -0.0693 -1.2784  0.0659
 1903SOL     OW17170   1.043   4.476   7.295  0.1621  0.3715 -0.0169
 1903SOL    HW117171   1.120   4.470   7.239 -0.4920  0.1552 -0.9138
 1903SOL    HW217172   1.033   4.384   7.317 -0.5279  0.1607 -1.1943
 1904SOL     OW17173   4.644   4.031   8.401 -0.4042 -0.0901 -0.6056
 1904SOL    HW117174   4.708   4.075   8.457  1.3972 -1.3716 -1.6544
 1904SOL    HW217175   4.566   4.085   8.409  0.9619  1.7216  0.3129
 1905SOL     OW17176   2.759   2.347   5.878 -0.1689 -0.0653 -0.1075
 1905SOL    HW117177   2.836   2.332   5.932 -0.1565  1.3008  0.2510
 1905SOL    HW217178   2.770   2.439   5.855 -0.1101  0.3966  1.7775
 1906SOL     OW17179   3.289   0.711   7.853 -0.8342 -0.4987  0.4075
 1906SOL    HW117180   3.341   0.765   7.794 -1.0074  1.7207  2.2718
 1906SOL    HW217181   3.252   0.649   7.790  1.0343 -0.7502 -0.4179
 1907SOL     OW17182   1.766   1.677   3.867 -0.0891 -0.4573 -0.0195
 1907SOL    HW117183   1.750   1.584   3.853  0.7091 -0.5604 -0.2495
 1907SOL    HW217184   1.684   1.713   3.833  0.6326 -0.3851 -1.6815
 1908SOL     OW17185   0.121   4.419   4.039 -0.7520  0.0700  0.3280
 1908SOL    HW117186   0.071   4.347   4.076  1.3425 -1.5166  0.1039
 1908SOL    HW217187   0.071   4.494   4.069  0.5896  1.0676  0.0712
 1909SOL     OW17188   4.285   4.262   1.621  0.2599  0.3415 -0.4338
 1909SOL    HW117189   4.292   4.196   1.690  0.3594  1.0316  0.2153
 1909SOL    HW217190   4.231   4.213   1.558  1.2845 -1.2578 -0.0622
 1910SOL     OW17191   4.603   2.545  12.406  0.3048 -0.2752 -0.0026
 1910SOL    HW117192   4.596   2.522  12.313  0.1152 -0.6412  0.1038
 1910SOL    HW217193   4.511   2.533  12.428  0.4162 -2.5909 -0.7809
 1911SOL     OW17194   4.681   3.214   8.342 -0.4576  0.3899 -0.0374
 1911SOL    HW117195   4.645   3.291   8.385  0.5032  0.5849  0.4197
 1911SOL    HW217196   4.606   3.163   8.312  0.7670 -1.3682 -0.0947
 1912SOL     OW17197   3.702   2.196   4.860 -0.3454  0.1580 -0.1998
 1912SOL    HW117198   3.680   2.238   4.943 -1.2807 -0.5617 -0.0816
 1912SOL    HW217199   3.781   2.152   4.891  0.7657  1.4444 -1.1660
 1913SOL     OW17200   2.559   2.142  17.284 -0.1389  0.5169 -0.6189
 1913SOL    HW117201   2.594   2.144  17.195 -0.0081  0.5840 -0.5661
 1913SOL    HW217202   2.559   2.235  17.306 -1.5287  0.0265  1.4922
 1914SOL     OW17203   3.078   3.634   8.936  0.0068 -0.4818 -0.2704
 1914SOL    HW117204   3.162   3.600   8.905  1.4212  2.1835  0.6295
 1914SOL    HW217205   3.014   3.589   8.881  0.7357 -0.4332 -1.1488
 1915SOL     OW17206   3.899   4.391  10.311  0.1885 -0.0028 -0.2014
 1915SOL    HW117207   3.889   4.296  10.322  0.4408 -0.3574 -3.0228
 1915SOL    HW217208   3.986   4.393  10.272  0.2134 -0.1513 -0.1543
 1916SOL     OW17209   1.268   1.228   9.028 -0.5233 -0.3319  0.0024
 1916SOL    HW117210   1.261   1.182   8.944 -1.8797  1.2796 -0.7794
 1916SOL    HW217211   1.335   1.296   9.018 -0.5796 -0.2543  0.1488
 1917SOL     OW17212   4.606   3.407   2.889  0.3190 -0.0360  0.5524
 1917SOL    HW117213   4.663   3.460   2.945  1.6263  0.4493 -1.2295
 1917SOL    HW217214   4.563   3.472   2.833 -0.7857 -1.3216 -0.1062
 1918SOL     OW17215   4.212   0.189   7.001  0.6521  1.0736 -0.2103
 1918SOL    HW117216   4.183   0.108   6.957  2.8524  0.2025 -0.0670
 1918SOL    HW217217   4.302   0.175   7.028  0.4687  0.1594 -0.0605
 1919SOL     OW17218   0.068   4.609   3.244 -0.0518 -0.1722 -0.0401
 1919SOL    HW117219   0.144   4.652   3.284  0.4576 -0.0235 -1.1699
 1919SOL    HW217220   0.116   4.574   3.169 -1.1906  0.1398 -0.9276
 1920SOL     OW17221   4.021   0.518   3.168  0.5646 -0.2158 -0.2382
 1920SOL    HW117222   4.031   0.441   3.225  3.5125  1.3072  1.3030
 1920SOL    HW217223   3.931   0.514   3.135  0.6817 -1.8869 -0.3678
 1921SOL     OW17224   2.655   1.164   6.956  0.5173 -0.3985  0.0768
 1921SOL    HW117225   2.725   1.183   6.894  0.0698  0.7668 -0.0804
 1921SOL    HW217226   2.655   1.069   6.950 -2.0712 -0.3614 -0.5071
 1922SOL     OW17227   4.308   2.013  16.403  1.0149 -0.2581 -0.6848
 1922SOL    HW117228   4.273   1.925  16.411  3.5383 -1.1446  0.5725
 1922SOL    HW217229   4.281   2.037  16.314  0.6236  3.4094  0.4238
 1923SOL     OW17230   1.981   3.971   4.712 -1.3825 -0.1228 -0.0098
 1923SOL    HW117231   1.917   3.951   4.780 -0.4424  0.0911  0.9279
 1923SOL    HW217232   2.064   3.979   4.760 -1.6647 -0.7344  0.5817
 1924SOL     OW17233   4.309   0.522   9.817 -0.1230  0.0164 -0.3501
 1924SOL    HW117234   4.350   0.609   9.814 -1.7199  0.7363 -1.3582
 1924SOL    HW217235   4.223   0.545   9.850  0.0599  2.7016 -1.7101
 1925SOL     OW17236   2.553   0.652   4.336 -0.1572 -0.2343  0.4907
 1925SOL    HW117237   2.552   0.713   4.410  1.6092 -1.1827  1.2850
 1925SOL    HW217238   2.648   0.657   4.328 -0.0863 -1.8858  0.2619
 1926SOL     OW17239   2.033   4.510   5.511  0.8832  0.3751  0.4023
 1926SOL    HW117240   2.091   4.562   5.455  1.9027  0.9579  2.0122
 1926SOL    HW217241   2.010   4.572   5.580  3.0369  0.7880  0.7585
 1927SOL     OW17242   3.740   1.230   4.391  0.7943  0.7039 -0.4606
 1927SOL    HW117243   3.675   1.221   4.320  1.5410  0.4255 -1.1057
 1927SOL    HW217244   3.685   1.212   4.467  0.6708 -2.8921 -1.4390
 1928SOL     OW17245   3.086   0.952   5.420  0.4017 -0.1839 -0.4613
 1928SOL    HW117246   3.131   1.010   5.481 -0.3796  0.0780 -0.1357
 1928SOL    HW217247   3.117   0.983   5.335 -2.6594 -0.5064 -1.6995
 1929SOL     OW17248   3.999   3.180   7.164  0.2934  0.7335  0.3636
 1929SOL    HW117249   3.933   3.190   7.096  1.1566 -1.4077 -0.7805
 1929SOL    HW217250   3.974   3.099   7.209  0.2885  0.2433 -0.5098
 1930SOL     OW17251   2.678   1.941   7.632  0.0549  0.1779 -0.1608
 1930SOL    HW117252   2.615   1.957   7.561  0.1915  0.9469 -0.1093
 1930SOL    HW217253   2.651   2.007   7.696  1.2538 -0.0679  0.5980
 1931SOL     OW17254   2.703   3.900  15.205 -0.2189 -0.1270  0.4766
 1931SOL    HW117255   2.768   3.970  15.214 -1.8321  1.3008  1.0894
 1931SOL    HW217256   2.674   3.922  15.116  3.0260  0.3848 -0.4686
 1932SOL     OW17257   2.189   2.014   8.154 -0.0623 -0.7204 -0.6415
 1932SOL    HW117258   2.214   1.975   8.238  0.3362 -1.5121 -1.1336
 1932SOL    HW217259   2.100   1.979   8.145  0.2230 -0.9823 -2.5523
 1933SOL     OW17260   4.054   3.782   5.976 -0.1296 -0.1078 -0.0350
 1933SOL    HW117261   3.988   3.716   5.954  0.9175 -0.8291 -1.0453
 1933SOL    HW217262   3.991   3.848   6.006 -1.0030 -0.5284 -0.9447
 1934SOL     OW17263   0.104   4.475  12.009 -1.4618 -0.3877  0.0902
 1934SOL    HW117264   0.191   4.514  12.016 -1.5167 -0.0433 -0.9996
 1934SOL    HW217265   0.105   4.421  12.087  0.2339 -1.3163 -0.5807
 1935SOL     OW17266   1.658   4.212   1.939 -0.2053  0.2175  0.0947
 1935SOL    HW117267   1.637   4.177   1.852  0.7374  0.6973 -0.3194
 1935SOL    HW217268   1.582   4.266   1.960 -1.2402 -2.3655  3.1715
 1936SOL     OW17269   0.974   0.906   8.165 -0.3264  0.0581 -0.3009
 1936SOL    HW117270   0.932   0.977   8.117  0.9835  0.9259 -0.1720
 1936SOL    HW217271   0.896   0.853   8.181 -0.9054  1.0520  0.1573
 1937SOL     OW17272   1.505   1.385   5.435  0.4004 -0.2492  0.2727
 1937SOL    HW117273   1.466   1.341   5.359  0.5426  1.9577 -1.0886
 1937SOL    HW217274   1.521   1.472   5.399 -0.7144 -0.9267 -1.8644
 1938SOL     OW17275   0.089   0.718  10.185 -0.1262 -0.3218  0.6532
 1938SOL    HW117276   0.144   0.782  10.231 -0.2990  0.0484  0.3363
 1938SOL    HW217277   0.047   0.766  10.114  2.6077 -2.5394 -2.4533
 1939SOL     OW17278   4.260   0.953  12.099  0.5043 -1.0686  0.1652
 1939SOL    HW117279   4.318   0.931  12.026  0.6964 -0.4206  0.1177
 1939SOL    HW217280   4.273   1.047  12.086 -1.7116 -0.9169 -0.8551
 1940SOL     OW17281   3.631   1.955   0.517  0.4264  0.0999  0.3493
 1940SOL    HW117282   3.557   2.013   0.496  0.1726  0.2107  1.6005
 1940SOL    HW217283   3.603   1.891   0.581 -0.9500 -0.1531 -0.5098
 1941SOL     OW17284   3.995   0.300   2.768 -0.2832 -0.8304  0.1137
 1941SOL    HW117285   3.981   0.322   2.677 -0.0066  0.3748  0.3693
 1941SOL    HW217286   3.905   0.296   2.800  0.0550 -1.1115  1.0401
 1942SOL     OW17287   0.964   2.563   5.066 -0.3493 -0.8937 -0.2510
 1942SOL    HW117288   1.011   2.640   5.099 -1.3447  0.8614 -2.8566
 1942SOL    HW217289   0.981   2.572   4.972  2.1383 -1.1020  0.1667
 1943SOL     OW17290   1.331   2.576   5.280 -0.6330 -0.6986  0.1239
 1943SOL    HW117291   1.388   2.513   5.323 -2.6617 -2.4431  0.2660
 1943SOL    HW217292   1.395   2.626   5.229 -0.7673 -0.2262  0.4120
 1944SOL     OW17293   0.444   0.914  14.726 -0.3087  0.4945  0.0016
 1944SOL    HW117294   0.426   0.884  14.815 -2.3302 -0.1900 -0.6538
 1944SOL    HW217295   0.540   0.906  14.721 -0.5039 -2.9730  1.9605
 1945SOL     OW17296   0.815   1.828  13.916  0.3958  0.1804 -0.3159
 1945SOL    HW117297   0.902   1.789  13.905  0.2997 -0.8556  2.5010
 1945SOL    HW217298   0.832   1.922  13.911  2.1149 -0.0492  1.1792
 1946SOL     OW17299   0.791   3.550   7.924  0.3316  0.0137  0.6231
 1946SOL    HW117300   0.746   3.552   8.008  0.9445  0.2835  0.9420
 1946SOL    HW217301   0.860   3.486   7.941  1.1473  0.0717 -2.3763
 1947SOL     OW17302   0.988   4.152   2.599  0.3177  0.3545 -0.1222
 1947SOL    HW117303   1.055   4.176   2.535 -0.2627  1.0172 -0.4776
 1947SOL    HW217304   1.018   4.064   2.622 -0.9281 -0.4353 -1.4715
 1948SOL     OW17305   2.315   3.874  16.543 -0.4426  0.1312  0.0140
 1948SOL    HW117306   2.247   3.828  16.494 -0.5264  0.3489 -0.0766
 1948SOL    HW217307   2.302   3.844  16.632  1.3321  0.9037  0.5433
 1949SOL     OW17308   0.206   3.185   8.869  0.0785 -0.2325 -0.2856
 1949SOL    HW117309   0.132   3.146   8.823  1.2793 -1.2635 -1.3896
 1949SOL    HW217310   0.231   3.254   8.808 -1.0961  1.1612  0.8240
 1950SOL     OW17311   1.665   4.338   7.130 -0.4028  0.4014 -0.2352
 1950SOL    HW117312   1.739   4.368   7.078  0.9609 -1.7636  0.4534
 1950SOL    HW217313   1.680   4.244   7.140 -1.2819  0.4226  1.3473
 1951SOL     OW17314   0.242   1.651  12.649 -0.2204  0.0965 -0.2985
 1951SOL    HW117315   0.211   1.562  12.633 -2.3529  0.6021  0.9955
 1951SOL    HW217316   0.253   1.676  12.558 -2.0209  0.9290 -0.2824
 1952SOL     OW17317   4.452   2.277  15.186  0.0234 -0.4616  0.3581
 1952SOL    HW117318   4.363   2.301  15.160  0.0615 -1.1457 -0.4033
 1952SOL    HW217319   4.439   2.183  15.204  1.1656 -0.7687 -0.4572
 1953SOL     OW17320   4.005   2.872   3.364  0.2539  0.0358  0.5179
 1953SOL    HW117321   4.065   2.932   3.409  0.3006  1.3341 -1.3167
 1953SOL    HW217322   3.919   2.907   3.387  0.9391  1.2629  1.1822
 1954SOL     OW17323   3.608   4.380   6.217  0.1145  1.3206  0.3494
 1954SOL    HW117324   3.523   4.409   6.185 -0.2027  1.0749  0.9741
 1954SOL    HW217325   3.638   4.471   6.223 -2.0710  2.0486  0.3727
 1955SOL     OW17326   4.053   4.697   2.008  0.2471 -0.1469  0.0579
 1955SOL    HW117327   4.033   0.067   1.980 -0.5218 -0.9024 -1.7925
 1955SOL    HW217328   3.987   4.682   2.075 -1.2313  0.9328 -1.1440
 1956SOL     OW17329   0.268   1.354   4.304  0.2120 -0.6832  0.1952
 1956SOL    HW117330   0.273   1.277   4.359 -2.9993 -0.7440  0.3540
 1956SOL    HW217331   0.194   1.406   4.336  0.1150 -1.3824  1.0774
 1957SOL     OW17332   0.007   2.039   9.267 -0.3782  0.0403  0.8450
 1957SOL    HW117333   4.658   2.095   9.230  0.0932 -0.1399 -0.3180
 1957SOL    HW217334   0.058   2.113   9.301  0.5034 -0.2258  0.1228
 1958SOL     OW17335   3.580   2.017   6.065 -0.1899  0.0345 -0.1110
 1958SOL    HW117336   3.609   1.977   5.983  1.8207 -1.2312  1.2052
 1958SOL    HW217337   3.557   1.941   6.119  0.3423 -1.1872 -1.5999
 1959SOL     OW17338   1.952   2.958  15.562 -0.3429  0.2025  0.0410
 1959SOL    HW117339   1.957   2.990  15.472 -0.6759 -0.3098 -0.1618
 1959SOL    HW217340   2.044   2.930  15.566  0.0301  1.3326 -0.6380
 1960SOL     OW17341   3.500   2.118   3.775 -0.5606  0.1008 -0.1678
 1960SOL    HW117342   3.464   2.055   3.712 -0.2456 -1.3707  1.1397
 1960SOL    HW217343   3.588   2.123   3.739 -0.3190 -1.8384  0.1425
 1961SOL     OW17344   4.543   1.237  13.704 -0.0762  0.0410  0.0491
 1961SOL    HW117345   4.541   1.188  13.786 -0.8745 -0.2512 -0.1528
 1961SOL    HW217346   4.478   1.306  13.716 -0.1335  0.2521 -1.4472
 1962SOL     OW17347   1.090   3.755   8.889 -0.2149  0.3416  0.2869
 1962SOL    HW117348   1.066   3.666   8.918 -0.4340  0.5361  0.7085
 1962SOL    HW217349   1.169   3.760   8.943  1.3140 -0.0509 -1.9028
 1963SOL     OW17350   0.233   3.175   6.025 -0.0185  0.4362 -0.5567
 1963SOL    HW117351   0.163   3.223   5.982  2.6598  2.0522 -3.0981
 1963SOL    HW217352   0.227   3.205   6.116  2.2298 -2.6809  0.6436
 1964SOL     OW17353   1.325   0.938   1.688 -0.2487 -0.5975 -0.1419
 1964SOL    HW117354   1.414   0.959   1.718 -0.4354 -0.4880  0.3334
 1964SOL    HW217355   1.354   0.896   1.607 -1.1791 -1.7294  0.1132
 1965SOL     OW17356   4.636   1.754   4.597 -0.2157 -0.4620  0.5499
 1965SOL    HW117357   4.596   1.707   4.670  0.4945 -1.6756  0.1457
 1965SOL    HW217358   4.688   1.822   4.639  1.3648 -1.2723 -0.1070
 1966SOL     OW17359   3.337   0.347   4.386 -0.2444 -0.4919  0.3489
 1966SOL    HW117360   3.289   0.307   4.459 -1.1110 -2.0789 -1.0794
 1966SOL    HW217361   3.425   0.324   4.416  0.0861 -0.5984 -0.6816
 1967SOL     OW17362   1.279   2.592   2.972  0.0991  0.0967 -0.4775
 1967SOL    HW117363   1.205   2.644   3.003  0.8973  0.8883  0.0963
 1967SOL    HW217364   1.303   2.550   3.055  0.0014 -0.8423 -0.9178
 1968SOL     OW17365   3.231   0.620   8.378 -0.1322  0.5564 -0.2474
 1968SOL    HW117366   3.322   0.650   8.365  0.2303 -1.5229 -2.4487
 1968SOL    HW217367   3.232   0.556   8.307  1.4466 -0.6291  0.8412
 1969SOL     OW17368   3.864   3.317   7.705 -0.3664  0.4049 -0.3741
 1969SOL    HW117369   3.787   3.330   7.760 -1.8198 -0.0434 -2.2924
 1969SOL    HW217370   3.829   3.364   7.629  1.6771  0.3335 -1.3764
 1970SOL     OW17371   2.459   0.493   4.675 -0.4968  0.3086 -0.1504
 1970SOL    HW117372   2.490   0.576   4.713  1.9477  0.2564 -2.0737
 1970SOL    HW217373   2.517   0.429   4.717 -0.5009  0.3794 -0.0353
 1971SOL     OW17374   4.696   1.540   2.378  0.1273 -0.3307  0.2987
 1971SOL    HW117375   0.054   1.526   2.432  1.4290  1.5341 -1.0588
 1971SOL    HW217376   4.628   1.483   2.415 -0.9194  0.5102 -0.3181
 1972SOL     OW17377   1.244   1.268   8.107 -0.4617  0.1819 -0.2578
 1972SOL    HW117378   1.174   1.296   8.166  0.5359  1.9564  0.0692
 1972SOL    HW217379   1.313   1.286   8.171 -1.1457 -0.7682  0.7508
 1973SOL     OW17380   1.501   3.029   8.108  0.1337  0.2979 -0.0443
 1973SOL    HW117381   1.491   2.987   8.193 -0.2790 -0.5075 -0.5008
 1973SOL    HW217382   1.555   2.964   8.064  0.2067  3.3177 -4.3643
 1974SOL     OW17383   1.248   0.902  15.703 -0.4963  0.8181 -0.0437
 1974SOL    HW117384   1.327   0.856  15.730 -0.5649  0.2728 -0.7973
 1974SOL    HW217385   1.279   0.990  15.725 -0.2740 -0.1606  3.6566
 1975SOL     OW17386   4.286   4.276   5.804 -0.1207 -0.4409 -0.3463
 1975SOL    HW117387   4.303   4.205   5.866 -0.4257  0.8013  1.1549
 1975SOL    HW217388   4.192   4.293   5.817 -0.6687 -2.5635 -1.6212
 1976SOL     OW17389   1.748   4.708   5.830  0.2568 -0.1489  0.1181
 1976SOL    HW117390   1.704   4.646   5.889 -0.5560 -0.0931 -0.4163
 1976SOL    HW217391   1.678   0.053   5.842 -0.6543 -1.0823 -0.1686
 1977SOL     OW17392   2.042   1.740  11.384  0.0941  0.4000  0.3330
 1977SOL    HW117393   2.130   1.729  11.420  0.4446  0.0464 -0.6195
 1977SOL    HW217394   2.007   1.824  11.412 -0.4040  0.4010 -0.2861
 1978SOL     OW17395   4.203   4.147   5.512  0.3565 -0.3246 -0.6831
 1978SOL    HW117396   4.230   4.115   5.426 -1.1768 -0.0562 -1.2570
 1978SOL    HW217397   4.262   4.087   5.557 -0.1354  0.3439  0.8621
 1979SOL     OW17398   1.660   3.867  10.580 -0.2602  0.5739 -0.5512
 1979SOL    HW117399   1.726   3.800  10.563  0.5702  0.7205  2.1056
 1979SOL    HW217400   1.707   3.918  10.645  0.5138 -0.9380  0.0688
 1980SOL     OW17401   0.699   2.179   8.833  0.4385 -0.0552 -0.6357
 1980SOL    HW117402   0.621   2.232   8.817 -0.6732 -1.7420 -0.8025
 1980SOL    HW217403   0.674   2.105   8.889  2.8031 -0.3396  0.0426
 1981SOL     OW17404   1.644   2.247   5.140 -0.9029  0.1252 -0.1481
 1981SOL    HW117405   1.605   2.270   5.056  2.7450  0.6569 -1.7055
 1981SOL    HW217406   1.689   2.165   5.120  1.2559  1.6266 -1.4886
 1982SOL     OW17407   2.160   1.088   5.961  0.8074  0.4104 -0.2741
 1982SOL    HW117408   2.120   1.164   5.918 -2.2440 -1.9816 -1.6169
 1982SOL    HW217409   2.091   1.028   5.935  1.6536 -0.1744 -1.2116
 1983SOL     OW17410   2.199   3.915  17.205 -0.3649 -0.6648  0.0874
 1983SOL    HW117411   2.273   3.938  17.149 -0.2474  0.1792  0.6085
 1983SOL    HW217412   2.160   3.839  17.161 -0.8133  0.8155 -2.0532
 1984SOL     OW17413   2.126   1.509   2.994 -0.0786  0.1660 -0.3569
 1984SOL    HW117414   2.170   1.587   3.027 -0.7355  0.6493 -0.6006
 1984SOL    HW217415   2.119   1.458   3.075  0.0254  1.4010  0.4412
 1985SOL     OW17416   4.107   0.932   3.501 -0.0655  0.0080  0.6872
 1985SOL    HW117417   4.167   0.891   3.438  1.4640 -0.7656  2.6665
 1985SOL    HW217418   4.027   0.888   3.473  0.7681 -2.0459  1.5352
 1986SOL     OW17419   1.817   2.679   4.922  0.1518  0.4879 -0.3067
 1986SOL    HW117420   1.824   2.766   4.883  0.8603  0.3141 -0.5684
 1986SOL    HW217421   1.754   2.636   4.865  1.5764  0.4537 -1.8332
 1987SOL     OW17422   1.556   3.073   7.581  0.0641  0.1367 -0.1418
 1987SOL    HW117423   1.477   3.114   7.545  1.4887  2.2850 -0.8280
 1987SOL    HW217424   1.548   3.097   7.673 -2.1567 -0.5647 -0.1430
 1988SOL     OW17425   1.780   1.377  17.350 -0.3272 -0.4532  0.1833
 1988SOL    HW117426   1.692   1.371  17.387 -0.2921  3.0662  0.8675
 1988SOL    HW217427   1.813   1.451  17.401 -2.7880  0.6065  0.2255
 1989SOL     OW17428   3.240   2.737   3.496  0.7750  0.3548  0.5185
 1989SOL    HW117429   3.224   2.773   3.583  1.9011  1.9395  0.0747
 1989SOL    HW217430   3.150   2.733   3.465  0.2357 -0.8790  2.2977
 1990SOL     OW17431   3.271   3.500   0.271 -0.5424  0.1016  0.2810
 1990SOL    HW117432   3.226   3.584   0.259  0.3245  0.7238  1.3334
 1990SOL    HW217433   3.315   3.511   0.356  0.3986 -0.0235 -0.1923
 1991SOL     OW17434   1.294   4.339   8.131  0.2228  0.5408  0.3826
 1991SOL    HW117435   1.209   4.377   8.109  0.6398 -0.5406 -3.1915
 1991SOL    HW217436   1.279   4.293   8.213 -0.1122  1.2722  0.7322
 1992SOL     OW17437   0.532   0.465   4.705  0.5039  0.0872 -0.4840
 1992SOL    HW117438   0.532   0.392   4.766 -1.1604 -0.0136 -0.6056
 1992SOL    HW217439   0.611   0.514   4.728 -0.5274  1.2937  0.5130
 1993SOL     OW17440   1.167   4.004   8.492  0.5550 -0.1193  0.0606
 1993SOL    HW117441   1.193   4.026   8.582 -3.4943 -0.9035  1.4272
 1993SOL    HW217442   1.180   3.909   8.504  1.0919 -0.1039 -0.4102
 1994SOL     OW17443   0.452   1.642   7.946 -0.1714  0.1815 -0.6126
 1994SOL    HW117444   0.367   1.602   7.958 -0.4462  1.1453  0.7178
 1994SOL    HW217445   0.499   1.561   7.930  0.2381  0.0230  1.2993
 1995SOL     OW17446   3.937   2.643   4.728  0.5277 -0.3633  0.2840
 1995SOL    HW117447   3.936   2.553   4.696  0.9655  0.4964 -2.0980
 1995SOL    HW217448   3.908   2.627   4.818 -0.5230 -2.1751 -0.3648
 1996SOL     OW17449   4.252   0.595   9.464  0.0343 -0.0678  0.6434
 1996SOL    HW117450   4.310   0.647   9.520 -0.3110 -0.7216  1.6054
 1996SOL    HW217451   4.164   0.608   9.499 -0.3608 -2.4628  0.5782
 1997SOL     OW17452   4.224   3.398   6.813 -0.1889 -0.0054 -0.3606
 1997SOL    HW117453   4.161   3.327   6.827 -2.6822  1.9256 -1.6416
 1997SOL    HW217454   4.191   3.460   6.878 -3.3904 -1.4743 -0.5992
 1998SOL     OW17455   3.705   1.639   4.986 -0.0802 -0.4376 -0.1598
 1998SOL    HW117456   3.782   1.585   5.006 -1.3312 -2.0143  0.4075
 1998SOL    HW217457   3.677   1.591   4.908 -1.9708  0.0670  0.2285
 1999SOL     OW17458   3.461   4.244   9.790  0.4419 -0.0757  0.1960
 1999SOL    HW117459   3.506   4.320   9.829 -0.7325  0.8912 -0.3387
 1999SOL    HW217460   3.373   4.280   9.799  0.3048 -0.2092 -0.6999
 2000SOL     OW17461   2.792   2.596  12.973  0.4784  0.7040  0.0434
 2000SOL    HW117462   2.759   2.510  12.997  0.6362  0.1707 -1.6336
 2000SOL    HW217463   2.860   2.602  13.040  0.8389  1.3378 -0.3734
 2001SOL     OW17464   0.314   2.249   1.758  0.0700  0.1633  0.2735
 2001SOL    HW117465   0.229   2.279   1.791 -0.1811 -2.6909  2.1932
 2001SOL    HW217466   0.294   2.156   1.760  1.5016 -0.1439 -0.0517
 2002SOL     OW17467   0.298   2.180   4.605 -0.1450  0.6119 -0.1286
 2002SOL    HW117468   0.231   2.142   4.662 -0.8662 -0.1397 -1.4693
 2002SOL    HW217469   0.270   2.266   4.574 -2.1937 -0.1873 -0.4905
 2003SOL     OW17470   2.220   4.685   3.736  0.4754  0.1934  0.3105
 2003SOL    HW117471   2.133   4.718   3.715  0.2014  0.3254  1.6513
 2003SOL    HW217472   2.269   0.048   3.727 -0.9324  0.9915 -0.0018
 2004SOL     OW17473   2.377   2.392  15.290  0.0223 -0.5112 -0.3413
 2004SOL    HW117474   2.292   2.354  15.269  0.0682 -0.8552  0.1098
 2004SOL    HW217475   2.428   2.332  15.235 -0.9849 -1.3539 -0.3572
 2005SOL     OW17476   3.017   4.579   6.434 -0.0275  0.3483  0.2750
 2005SOL    HW117477   3.096   4.624   6.465  0.5315  1.2350 -2.4037
 2005SOL    HW217478   2.982   4.559   6.521  1.4135  1.9317  1.2296
 2006SOL     OW17479   0.422   0.253   8.335  0.7616  0.1745 -0.3416
 2006SOL    HW117480   0.328   0.239   8.328  0.6394  2.2230 -2.6175
 2006SOL    HW217481   0.449   0.165   8.362  0.8637  0.7898  1.5684
 2007SOL     OW17482   0.573   2.161   5.229  0.1252 -0.4574 -0.2857
 2007SOL    HW117483   0.513   2.230   5.202 -0.4581 -1.6136 -1.9005
 2007SOL    HW217484   0.538   2.089   5.176 -0.1339  0.1122 -0.8889
 2008SOL     OW17485   2.457   2.586   6.385  0.2021  0.1634 -0.1363
 2008SOL    HW117486   2.368   2.593   6.419  1.0803  1.2870  1.8786
 2008SOL    HW217487   2.472   2.679   6.366  3.2019  0.0890  1.8352
 2009SOL     OW17488   2.124   4.581   1.492 -0.2822 -0.0179  0.6944
 2009SOL    HW117489   2.151   4.563   1.582 -0.9283 -0.0518  0.8830
 2009SOL    HW217490   2.054   4.645   1.506  0.7127  1.2843 -0.3383
 2010SOL     OW17491   0.256   0.787   7.155  0.0054  0.0735 -0.8081
 2010SOL    HW117492   0.189   0.855   7.163  0.8654  0.8950 -0.5859
 2010SOL    HW217493   0.259   0.780   7.060  1.6266  2.4697 -0.9334
 2011SOL     OW17494   1.307   3.154  13.463 -0.0738  0.0869  0.3521
 2011SOL    HW117495   1.291   3.157  13.369 -0.0548  0.0930  0.3490
 2011SOL    HW217496   1.325   3.062  13.484 -0.3788  0.0402  0.4128
 2012SOL     OW17497   4.604   2.571  16.664  0.2454 -0.4263 -0.1640
 2012SOL    HW117498   4.572   2.648  16.711 -0.3814 -1.1885  0.6662
 2012SOL    HW217499   4.541   2.504  16.693  0.8789 -0.6499  0.7126
 2013SOL     OW17500   4.257   0.664   4.693  0.3539  0.1553  0.4687
 2013SOL    HW117501   4.334   0.696   4.647  0.5229 -3.5393 -1.7614
 2013SOL    HW217502   4.278   0.683   4.785  0.4402  0.4171  0.3941
 2014SOL     OW17503   0.055   3.253   9.388 -0.2259 -0.2402 -0.0047
 2014SOL    HW117504   0.129   3.281   9.443  0.3303  2.8319 -2.2564
 2014SOL    HW217505   4.705   3.276   9.450  0.7226 -0.2717  1.0861
 2015SOL     OW17506   2.617   3.469   2.808  0.1783 -0.2848  0.4126
 2015SOL    HW117507   2.649   3.549   2.767  2.0123 -0.2867  1.8865
 2015SOL    HW217508   2.695   3.436   2.852 -0.6874 -1.0370  1.4064
 2016SOL     OW17509   0.320   3.083   5.128 -0.3735 -0.8062  0.4045
 2016SOL    HW117510   0.364   3.040   5.056 -0.5392  0.3665 -0.3957
 2016SOL    HW217511   0.322   3.173   5.095  1.6461 -0.9208  0.2378
 2017SOL     OW17512   1.182   2.763  17.201  0.3299  0.2865 -1.3176
 2017SOL    HW117513   1.186   2.692  17.137 -1.0272  0.8095 -1.9730
 2017SOL    HW217514   1.271   2.798  17.199  0.1945  0.7165  0.6222
 2018SOL     OW17515   4.190   4.466   2.241 -0.5722  0.2173 -0.4367
 2018SOL    HW117516   4.205   4.500   2.329  0.2328  1.2933 -0.9853
 2018SOL    HW217517   4.120   4.517   2.199 -2.8161  0.6662  3.9148
 2019SOL     OW17518   1.349   1.748   1.282 -0.4157  0.6609  0.3482
 2019SOL    HW117519   1.309   1.747   1.369  1.4191  0.2425  1.1773
 2019SOL    HW217520   1.408   1.673   1.279  0.8249  1.5820  2.2690
 2020SOL     OW17521   2.725   1.503   5.832 -0.3789  0.3190  0.3366
 2020SOL    HW117522   2.703   1.508   5.925 -1.8738 -2.6037  0.1564
 2020SOL    HW217523   2.643   1.518   5.784 -1.4475 -0.3779  1.9253
 2021SOL     OW17524   0.065   2.108   2.438  0.4884  0.0530  0.5397
 2021SOL    HW117525   0.059   2.203   2.450  0.0845 -0.2264  2.5442
 2021SOL    HW217526   0.159   2.090   2.445  0.8604  1.3740 -0.9334
 2022SOL     OW17527   2.505   1.643   5.649 -0.1856 -0.4110 -0.0768
 2022SOL    HW117528   2.443   1.607   5.587  0.0151 -0.9092  0.0157
 2022SOL    HW217529   2.460   1.723   5.676  0.4734 -0.2340  0.5124
 2023SOL     OW17530   3.704   2.220   6.550  0.5637 -0.2261  0.1682
 2023SOL    HW117531   3.705   2.264   6.465 -0.1310  0.0930  0.3261
 2023SOL    HW217532   3.637   2.268   6.599 -1.0125 -1.5818 -0.6338
 2024SOL     OW17533   3.430   2.280   3.983 -0.0988  0.0287  0.1654
 2024SOL    HW117534   3.447   2.204   3.928  1.9538  1.0273 -0.5833
 2024SOL    HW217535   3.368   2.324   3.924 -0.3605 -1.2571 -0.5060
 2025SOL     OW17536   3.429   1.731  14.084 -0.1593  0.2905 -0.1794
 2025SOL    HW117537   3.468   1.818  14.074  0.9327 -0.4594 -2.5377
 2025SOL    HW217538   3.337   1.739  14.111  0.1306 -2.4495  1.5700
 2026SOL     OW17539   1.888   3.538   7.614  0.3652 -0.8014  0.2409
 2026SOL    HW117540   1.869   3.461   7.561 -0.1356  0.3019 -1.1821
 2026SOL    HW217541   1.869   3.518   7.706 -0.4158  0.3285  0.3324
 2027SOL     OW17542   1.031   2.580   3.124 -0.0884 -0.4730 -0.5228
 2027SOL    HW117543   0.963   2.602   3.060 -0.6300 -0.6027  0.0056
 2027SOL    HW217544   1.039   2.485   3.119  2.3367 -0.2796 -0.6173
 2028SOL     OW17545   4.335   3.921   4.492 -0.2970 -0.4086 -0.5742
 2028SOL    HW117546   4.363   3.924   4.401 -0.7724 -0.1195 -0.7151
 2028SOL    HW217547   4.240   3.923   4.480 -0.2693  0.2712 -0.6852
 2029SOL     OW17548   1.640   1.626   7.678 -0.3806 -0.3851 -0.6499
 2029SOL    HW117549   1.630   1.720   7.696  0.2015 -0.3207 -0.6713
 2029SOL    HW217550   1.574   1.610   7.611 -1.6699  0.3895  0.4209
 2030SOL     OW17551   0.616   1.411   1.249  0.0999 -0.0371 -0.1369
 2030SOL    HW117552   0.555   1.337   1.240  0.7766 -0.6221  0.1061
 2030SOL    HW217553   0.698   1.373   1.218 -1.9343 -2.2527 -2.8658
 2031SOL     OW17554   3.894   2.911  10.005 -0.0923  0.4756 -0.6700
 2031SOL    HW117555   3.820   2.951   9.958 -0.5604 -0.7840 -1.0053
 2031SOL    HW217556   3.885   2.827   9.961  0.3161 -0.9730  2.0330
 2032SOL     OW17557   2.561   4.116   3.691 -0.0707  0.0380  0.1047
 2032SOL    HW117558   2.631   4.069   3.646  0.0122 -1.0473  1.3818
 2032SOL    HW217559   2.538   4.183   3.627  0.5179  0.6744  0.5607
 2033SOL     OW17560   0.398   2.661  14.476 -0.3726  0.5988  0.1608
 2033SOL    HW117561   0.338   2.735  14.486  0.2624  0.9957  1.1253
 2033SOL    HW217562   0.428   2.675  14.387  3.4535  0.6542  1.4537
 2034SOL     OW17563   3.995   4.361  10.028 -0.1338  0.0726  0.0332
 2034SOL    HW117564   3.933   4.308  10.078  2.4532 -1.8138  1.2779
 2034SOL    HW217565   3.938   4.429   9.993  1.6009  0.9084 -1.1870
 2035SOL     OW17566   3.350   2.039   6.393  0.0499 -0.4846 -0.0704
 2035SOL    HW117567   3.290   2.050   6.467  0.1106  2.3460 -0.4395
 2035SOL    HW217568   3.381   2.129   6.386  2.2529 -1.3249 -0.8982
 2036SOL     OW17569   1.459   4.648   7.080  0.4562  0.1304 -0.5636
 2036SOL    HW117570   1.533   4.692   7.122 -0.2682  0.5063  0.3157
 2036SOL    HW217571   1.452   4.708   7.006  1.9028  1.4629  0.3697
 2037SOL     OW17572   4.106   3.150   1.992 -0.1899 -0.2800  0.4974
 2037SOL    HW117573   4.075   3.240   1.987  0.7332  0.1198  2.0329
 2037SOL    HW217574   4.160   3.153   1.914  2.1199 -0.8957  2.0667
 2038SOL     OW17575   0.668   0.581  12.489  0.2993  0.3355  0.0424
 2038SOL    HW117576   0.591   0.553  12.440  0.4550 -0.1550  0.0818
 2038SOL    HW217577   0.705   0.625  12.412  0.2713 -0.6422 -0.5244
 2039SOL     OW17578   1.711   2.268  14.292 -0.0748 -0.1161 -0.4249
 2039SOL    HW117579   1.701   2.308  14.205 -3.3486  0.2745  0.1507
 2039SOL    HW217580   1.805   2.270  14.308 -0.2498 -1.7328  0.7683
 2040SOL     OW17581   1.822   2.680   8.847 -0.1825 -0.4290  0.3759
 2040SOL    HW117582   1.741   2.633   8.826  0.0165  0.3955 -2.2973
 2040SOL    HW217583   1.817   2.673   8.942 -1.4169  0.5539  0.4014
 2041SOL     OW17584   4.605   4.534   5.973  0.5493  0.2634  0.1876
 2041SOL    HW117585   4.680   4.551   5.917  1.5392 -2.4001  0.6892
 2041SOL    HW217586   4.582   4.448   5.937  1.5455  0.3209 -0.5715
 2042SOL     OW17587   2.231   4.041   8.620  0.1699 -0.2786 -0.0636
 2042SOL    HW117588   2.300   3.976   8.607  0.7415  0.0755  1.1926
 2042SOL    HW217589   2.275   4.100   8.682  0.1844  1.2072 -1.4813
 2043SOL     OW17590   1.613   0.412  11.163 -1.0722 -0.3427 -0.2177
 2043SOL    HW117591   1.688   0.364  11.199  0.0879  0.9618 -0.8963
 2043SOL    HW217592   1.542   0.348  11.157  1.2774 -2.8537 -1.6294
 2044SOL     OW17593   2.563   0.789   3.541  0.1094  0.5677  0.0891
 2044SOL    HW117594   2.556   0.697   3.514 -0.1737  0.5153  0.3459
 2044SOL    HW217595   2.613   0.781   3.622  1.6688 -0.6182 -0.9784
 2045SOL     OW17596   3.313   3.801   6.564  0.0444  0.4897  0.0571
 2045SOL    HW117597   3.268   3.796   6.480 -1.3406 -0.0205  0.8275
 2045SOL    HW217598   3.333   3.892   6.546  0.0748  0.3700 -0.5325
 2046SOL     OW17599   4.598   2.083  16.701 -0.3865  0.5669  0.4842
 2046SOL    HW117600   4.508   2.088  16.670 -1.3676  3.0518  3.6860
 2046SOL    HW217601   4.600   1.987  16.696  0.3226  0.6784 -1.5389
 2047SOL     OW17602   3.631   0.141   6.750 -0.0301 -0.0968  0.3197
 2047SOL    HW117603   3.581   0.218   6.721  1.3608  0.0299 -1.7855
 2047SOL    HW217604   3.713   0.188   6.766 -0.0065 -0.7685  2.1230
 2048SOL     OW17605   2.079   0.142  12.512 -0.2372  0.1973 -0.3986
 2048SOL    HW117606   2.135   0.087  12.566 -0.9277  1.3049  1.4497
 2048SOL    HW217607   2.139   0.215  12.497 -2.0132  1.2113 -2.4880
 2049SOL     OW17608   1.576   1.691   1.727  0.2016 -0.2088  0.2111
 2049SOL    HW117609   1.550   1.656   1.812  0.0834  1.1822  0.7470
 2049SOL    HW217610   1.593   1.784   1.737  0.0966 -0.2338  0.6258
 2050SOL     OW17611   0.607   0.681   7.305  0.3018 -0.0587  0.3087
 2050SOL    HW117612   0.604   0.585   7.301  0.1198 -0.0928  1.2093
 2050SOL    HW217613   0.640   0.701   7.217  1.3408 -1.6974  0.3125
 2051SOL     OW17614   0.967   2.380   8.660  0.8545 -0.0550 -0.3821
 2051SOL    HW117615   1.034   2.436   8.622 -0.1592  2.7318  1.9072
 2051SOL    HW217616   0.909   2.394   8.586 -0.2419 -1.6855  0.1717
 2052SOL     OW17617   1.516   3.506   8.150 -0.2272  0.0033 -0.0078
 2052SOL    HW117618   1.604   3.468   8.143 -0.5436 -0.3123 -2.3644
 2052SOL    HW217619   1.475   3.443   8.209 -1.1949 -0.0856 -0.7837
 2053SOL     OW17620   4.194   2.900   1.788  0.3018  0.1159 -0.1372
 2053SOL    HW117621   4.117   2.925   1.736  0.1226 -0.0686  0.0435
 2053SOL    HW217622   4.256   2.971   1.773 -1.6162  1.6136 -1.0798
 2054SOL     OW17623   2.940   4.039   8.507 -0.5253 -0.1216 -0.0118
 2054SOL    HW117624   2.936   4.016   8.600 -4.0616 -1.0590 -0.4025
 2054SOL    HW217625   2.852   4.031   8.472 -0.1381  2.3422 -1.5605
 2055SOL     OW17626   1.220   4.362   4.555  0.0076 -0.1586 -0.0466
 2055SOL    HW117627   1.166   4.357   4.476 -1.4109 -1.7490  1.0302
 2055SOL    HW217628   1.303   4.365   4.507  0.6433 -2.3746  0.8913
 2056SOL     OW17629   2.580   0.853  11.701 -0.2709 -0.0886 -0.7226
 2056SOL    HW117630   2.487   0.850  11.724 -0.1886 -0.9948 -0.5281
 2056SOL    HW217631   2.569   0.861  11.606  0.9196 -0.7682 -0.9172
 2057SOL     OW17632   1.314   1.595   4.541  0.0017 -0.2574  0.1612
 2057SOL    HW117633   1.232   1.558   4.573  1.5336 -1.5834  2.5029
 2057SOL    HW217634   1.288   1.630   4.455  0.8690  0.3009  0.1157
 2058SOL     OW17635   2.858   2.243  16.809 -0.5686 -0.6462 -0.4483
 2058SOL    HW117636   2.855   2.303  16.883 -3.9311  0.1684 -1.2534
 2058SOL    HW217637   2.940   2.195  16.816 -0.8336 -1.1254 -0.6790
 2059SOL     OW17638   0.361   1.352   2.038 -0.4219 -0.3954  0.1985
 2059SOL    HW117639   0.314   1.277   2.074  0.0169 -0.1543  1.2745
 2059SOL    HW217640   0.321   1.420   2.093 -2.2983 -1.3348 -0.0183
 2060SOL     OW17641   1.956   0.502   5.772  0.4285 -0.0004  0.1616
 2060SOL    HW117642   2.034   0.457   5.739  0.1867  0.0653 -0.4958
 2060SOL    HW217643   1.897   0.489   5.697  1.6914  1.5453 -1.0977
 2061SOL     OW17644   0.801   0.342   8.896  0.2280 -0.7754  0.4749
 2061SOL    HW117645   0.732   0.378   8.952 -1.2945 -0.0508 -1.8411
 2061SOL    HW217646   0.760   0.259   8.871  1.3266 -0.4989 -2.3008
 2062SOL     OW17647   2.408   1.342   0.050  0.1104  0.1805 -0.6146
 2062SOL    HW117648   2.429   1.435   0.063  0.6338 -0.1504  0.8624
 2062SOL    HW217649   2.414   1.346  17.635 -1.1305  1.0631 -0.6675
 2063SOL     OW17650   4.710   0.963   4.085  0.3071  0.1266  0.5227
 2063SOL    HW117651   4.678   0.876   4.109 -2.0233  1.6028  2.8453
 2063SOL    HW217652   4.659   1.012   4.150 -0.6815 -0.8343  0.4659
 2064SOL     OW17653   2.125   3.386   9.984  0.6902  0.0703  0.1507
 2064SOL    HW117654   2.064   3.448   9.945  0.2137  0.6051  1.7404
 2064SOL    HW217655   2.074   3.304   9.983  0.3898  0.3042 -2.1498
 2065SOL     OW17656   0.282   2.261  10.026 -0.0738 -0.2366  0.1900
 2065SOL    HW117657   0.257   2.335  10.080  1.6512  0.1257  0.5016
 2065SOL    HW217658   0.377   2.261  10.035  0.1325  0.1040 -1.9042
 2066SOL     OW17659   4.070   4.700   4.991 -0.4239  0.1383 -0.2647
 2066SOL    HW117660   4.149   4.708   4.938 -2.0932 -0.3769 -2.8508
 2066SOL    HW217661   4.004   0.041   4.955 -1.7766  1.5994  4.5855
 2067SOL     OW17662   1.873   0.610   4.112  0.7632 -0.1349  0.5679
 2067SOL    HW117663   1.798   0.552   4.125  2.3460 -2.1374  0.7423
 2067SOL    HW217664   1.920   0.605   4.195  1.3237  1.1862  0.3363
 2068SOL     OW17665   0.974   1.006   6.941 -0.4377  0.6126 -0.3996
 2068SOL    HW117666   0.936   0.940   6.883 -0.1690 -0.1119  0.2520
 2068SOL    HW217667   1.050   1.036   6.891 -0.1491 -0.2838 -0.5029
 2069SOL     OW17668   0.571   1.358   4.872  0.0423  0.4840  0.3182
 2069SOL    HW117669   0.544   1.336   4.961 -0.3090 -1.0331 -0.1581
 2069SOL    HW217670   0.666   1.344   4.870 -0.3666 -2.2626  0.1090
 2070SOL     OW17671   2.047   0.498  13.759  0.1474  0.5683  0.1398
 2070SOL    HW117672   2.140   0.515  13.739  0.6630  2.6277  4.3853
 2070SOL    HW217673   2.050   0.463  13.848 -2.3463  0.7072  0.2775
 2071SOL     OW17674   0.609   3.068  11.939  0.2936  0.0301  0.3502
 2071SOL    HW117675   0.517   3.059  11.915  0.3759  0.0691  0.0177
 2071SOL    HW217676   0.635   2.993  11.886  2.6482  1.4222 -0.4802
 2072SOL     OW17677   3.671   2.302   5.101  0.3255 -0.1374  0.2351
 2072SOL    HW117678   3.577   2.297   5.119  0.2828  3.9119  1.1742
 2072SOL    HW217679   3.712   2.276   5.184  1.2286  1.5742  0.3121
 2073SOL     OW17680   1.632   3.239   6.466  0.1257 -0.3694 -0.4481
 2073SOL    HW117681   1.703   3.243   6.531 -0.7270  0.0457  0.4566
 2073SOL    HW217682   1.655   3.309   6.405 -0.3151  0.8782  0.8052
 2074SOL     OW17683   1.293   3.359  16.157  0.3782 -0.1124 -0.2250
 2074SOL    HW117684   1.348   3.280  16.155 -0.1937 -0.5288  0.4766
 2074SOL    HW217685   1.246   3.346  16.075 -2.0568 -2.5842  1.5974
 2075SOL     OW17686   3.345   2.494   5.198  0.3083 -0.1549  0.8119
 2075SOL    HW117687   3.410   2.445   5.249  1.6820  0.4754 -0.3250
 2075SOL    HW217688   3.401   2.519   5.125 -0.9868 -1.1609 -0.5309
 2076SOL     OW17689   4.472   2.371  11.368  0.4267  0.1317 -0.7013
 2076SOL    HW117690   4.558   2.380  11.328  1.4602 -0.2422  1.4348
 2076SOL    HW217691   4.452   2.458  11.402 -3.2649 -1.1594  0.5493
 2077SOL     OW17692   0.644   2.171   4.657 -0.8462  0.7950  0.6629
 2077SOL    HW117693   0.600   2.126   4.585  1.1506  0.4415 -0.3160
 2077SOL    HW217694   0.695   2.243   4.620  0.5203 -0.9691 -0.8889
 2078SOL     OW17695   0.138   0.580   8.773  0.2534  0.2731 -0.0342
 2078SOL    HW117696   0.211   0.627   8.815  0.0738 -1.3970  2.1570
 2078SOL    HW217697   0.116   0.639   8.700  3.0112  1.7600  0.3127
 2079SOL     OW17698   3.755   0.032   4.979 -0.2227 -0.0433 -0.8408
 2079SOL    HW117699   3.822   0.076   4.928 -1.6978  0.2094 -2.5842
 2079SOL    HW217700   3.709   0.105   5.020  1.4196  0.8023 -0.5474
 2080SOL     OW17701   2.619   1.507   7.152 -0.9820  0.0437  0.0752
 2080SOL    HW117702   2.645   1.597   7.135 -1.7014  0.5826  1.8151
 2080SOL    HW217703   2.553   1.482   7.087  0.5521  2.4564 -2.3909
 2081SOL     OW17704   1.381   0.009   5.359 -0.0589 -0.1247 -0.3317
 2081SOL    HW117705   1.301   4.699   5.402 -0.1135 -0.3423 -0.5825
 2081SOL    HW217706   1.449   4.662   5.369 -1.4763 -1.4254  0.4965
 2082SOL     OW17707   1.481   4.427   5.420 -0.3049  0.0227  0.1450
 2082SOL    HW117708   1.496   4.441   5.514 -0.7083  1.3178  0.0163
 2082SOL    HW217709   1.386   4.422   5.412 -0.2908  0.6417 -0.3684
 2083SOL     OW17710   0.390   4.364   5.261 -0.5776 -0.5340 -0.0452
 2083SOL    HW117711   0.380   4.422   5.337 -0.2485 -0.6914  0.1189
 2083SOL    HW217712   0.463   4.310   5.292 -1.1070 -0.2088  1.8064
 2084SOL     OW17713   0.720   0.900   5.169 -0.2930  0.1411 -0.6901
 2084SOL    HW117714   0.661   0.933   5.237  0.9593 -0.9644  0.9375
 2084SOL    HW217715   0.665   0.841   5.118  0.5640  0.3772 -1.8859
 2085SOL     OW17716   2.120   0.473  14.609 -0.2115 -0.7180 -0.2997
 2085SOL    HW117717   2.108   0.515  14.524  2.6526 -0.6915 -0.6937
 2085SOL    HW217718   2.135   0.382  14.584  0.5571 -0.6425 -0.0993
 2086SOL     OW17719   1.964   0.397   3.155 -0.2633 -0.2610  0.1289
 2086SOL    HW117720   1.903   0.418   3.225 -1.7783  2.3211 -1.9796
 2086SOL    HW217721   2.041   0.405   3.211  2.5098 -2.1620 -3.4240
 2087SOL     OW17722   2.784   4.084   8.210  0.7593 -0.9528 -0.2793
 2087SOL    HW117723   2.729   4.162   8.219  2.4635 -0.1998  3.8141
 2087SOL    HW217724   2.722   4.012   8.216  0.2312 -0.4541  0.3361
 2088SOL     OW17725   1.171   2.670   7.695 -0.0989 -0.3741  0.1825
 2088SOL    HW117726   1.219   2.594   7.663 -0.1342  1.4073 -4.1818
 2088SOL    HW217727   1.193   2.669   7.788  0.2166  1.4861  0.1382
 2089SOL     OW17728   3.690   0.965   9.138  0.1287  0.0444  0.2865
 2089SOL    HW117729   3.632   0.945   9.065  0.5315 -0.5121  0.1123
 2089SOL    HW217730   3.628   0.984   9.207  0.0634  1.8085 -0.2673
 2090SOL     OW17731   2.880   1.645   4.543 -1.1981  0.2654  0.0299
 2090SOL    HW117732   2.830   1.721   4.512 -2.3137  0.6640  2.8304
 2090SOL    HW217733   2.857   1.576   4.480 -1.0982 -0.7524  1.1005
 2091SOL     OW17734   1.070   2.672   9.079  0.1049  0.4106 -0.2593
 2091SOL    HW117735   0.978   2.661   9.102  0.4555 -0.9011  0.5226
 2091SOL    HW217736   1.069   2.718   8.995 -1.7106  0.2234 -0.3401
 2092SOL     OW17737   1.396   3.783  15.108  0.8782 -0.4397 -0.1713
 2092SOL    HW117738   1.329   3.847  15.134  0.5249 -0.6079 -0.6717
 2092SOL    HW217739   1.473   3.839  15.114 -0.0085  0.8737 -0.9706
 2093SOL     OW17740   1.152   2.109   8.730  0.2214  0.3553  0.3190
 2093SOL    HW117741   1.210   2.057   8.675 -1.5478 -1.0465 -0.2213
 2093SOL    HW217742   1.191   2.097   8.816  0.2877  1.3977  0.4382
 2094SOL     OW17743   0.778   3.906   3.796 -0.3348 -0.0405  0.1599
 2094SOL    HW117744   0.823   3.846   3.736  1.6483  0.9948  0.6391
 2094SOL    HW217745   0.704   3.855   3.828 -0.6573 -0.7623 -1.7205
 2095SOL     OW17746   2.729   3.316   7.743  0.1160  0.0238 -0.3850
 2095SOL    HW117747   2.804   3.362   7.779 -1.2923  2.0835 -0.0426
 2095SOL    HW217748   2.752   3.225   7.762  0.1455 -0.2241 -1.5568
 2096SOL     OW17749   1.126   2.400   3.991 -0.8982  0.0217  0.3176
 2096SOL    HW117750   1.121   2.399   3.896 -0.9662  0.3279  0.3204
 2096SOL    HW217751   1.199   2.459   4.011 -0.6511 -0.8326  2.0013
 2097SOL     OW17752   0.642   2.886   5.976  0.0626  0.2175 -0.7533
 2097SOL    HW117753   0.690   2.857   6.053 -0.2281 -0.2089 -0.7355
 2097SOL    HW217754   0.650   2.820   5.907  1.3691 -0.6072  0.2046
 2098SOL     OW17755   1.019   3.607  15.114 -0.0487 -0.0406 -0.2964
 2098SOL    HW117756   1.005   3.607  15.019 -0.6599  0.0022 -0.2069
 2098SOL    HW217757   0.932   3.583  15.146  0.8283 -1.8532  0.7555
 2099SOL     OW17758   4.682   4.242   6.481 -0.1338 -0.6309 -0.0811
 2099SOL    HW117759   0.020   4.193   6.421  0.1950  2.2538 -2.1469
 2099SOL    HW217760   0.029   4.292   6.528 -0.4419 -0.0126 -0.3121
 2100SOL     OW17761   2.812   2.896  17.456 -0.1546  0.2118  0.2364
 2100SOL    HW117762   2.733   2.949  17.468 -0.6123 -0.0554 -1.5877
 2100SOL    HW217763   2.796   2.878  17.364  1.0613 -0.8468  0.2346
 2101SOL     OW17764   4.676   0.101  10.073  0.2049 -0.2553  0.7298
 2101SOL    HW117765   4.692   0.007  10.074 -0.2433 -0.3744 -1.4255
 2101SOL    HW217766   4.602   0.117  10.014 -0.3208  1.2009  1.7736
 2102SOL     OW17767   1.242   3.155  17.033 -0.2054  0.1663  0.4375
 2102SOL    HW117768   1.159   3.110  17.016 -1.4489  2.5999  0.0493
 2102SOL    HW217769   1.303   3.085  17.010 -0.4121  0.5981 -1.4252
 2103SOL     OW17770   0.790   1.960  12.192  0.3443  0.0383 -0.2738
 2103SOL    HW117771   0.766   2.012  12.115 -1.5164  0.3176  0.4914
 2103SOL    HW217772   0.864   2.010  12.227  1.0425 -1.9037  1.0241
 2104SOL     OW17773   0.156   4.254   7.251  0.0967 -0.5314 -0.4554
 2104SOL    HW117774   0.244   4.269   7.216 -0.4477  1.5957 -0.9037
 2104SOL    HW217775   0.132   4.343   7.275  0.1193 -0.6223 -0.0807
 2105SOL     OW17776   3.056   0.898   8.828  0.3199  0.4082 -0.1289
 2105SOL    HW117777   3.052   0.985   8.789  1.3997 -0.5986 -2.5117
 2105SOL    HW217778   3.125   0.861   8.772 -1.2171 -0.3276 -1.5394
 2106SOL     OW17779   2.102   4.148  17.345 -0.4185  0.0307  0.1477
 2106SOL    HW117780   2.130   4.068  17.301  0.2773 -1.3270  3.0489
 2106SOL    HW217781   2.041   4.105  17.404  0.7530 -0.6963  0.8449
 2107SOL     OW17782   4.415   1.292  14.403 -0.0241  0.0783  0.3247
 2107SOL    HW117783   4.359   1.255  14.335 -0.1876 -0.2671  0.6487
 2107SOL    HW217784   4.371   1.260  14.482 -3.5818  3.2975 -0.3869
 2108SOL     OW17785   1.578   4.419  15.324 -0.5303  0.2366  0.6800
 2108SOL    HW117786   1.671   4.444  15.319 -0.0365 -2.5191 -3.5549
 2108SOL    HW217787   1.546   4.435  15.236 -0.4203  1.9134  0.9436
 2109SOL     OW17788   2.349   3.366   0.689  0.3756 -0.4107  0.2448
 2109SOL    HW117789   2.434   3.408   0.676  1.1008 -0.9653  3.0898
 2109SOL    HW217790   2.359   3.291   0.748 -0.8750 -1.8423 -1.3986
 2110SOL     OW17791   4.540   4.542  15.135 -0.6073  0.0751 -0.1482
 2110SOL    HW117792   4.450   4.508  15.134  0.0061 -1.5942  0.3198
 2110SOL    HW217793   4.549   4.572  15.226  2.4352  1.9857 -1.0926
 2111SOL     OW17794   4.417   3.999   3.758 -0.6928  0.0329 -0.1876
 2111SOL    HW117795   4.483   3.957   3.702  0.0767  2.2770 -0.9606
 2111SOL    HW217796   4.470   4.053   3.817 -1.3434 -1.8255  2.0735
 2112SOL     OW17797   4.173   0.471   0.466 -0.7027  0.3669  0.4275
 2112SOL    HW117798   4.086   0.450   0.431 -0.6497  0.4438  0.2489
 2112SOL    HW217799   4.213   0.385   0.453  1.7293  1.6387 -0.4252
 2113SOL     OW17800   1.708   0.896  17.362  0.2883  0.1235  0.0156
 2113SOL    HW117801   1.637   0.838  17.335 -0.4196  1.0634 -0.1426
 2113SOL    HW217802   1.781   0.834  17.364  0.0750 -0.1329 -0.1021
 2114SOL     OW17803   2.645   0.307   3.775 -0.3141 -0.3296 -0.3459
 2114SOL    HW117804   2.560   0.351   3.767  0.3484  0.9775 -0.1354
 2114SOL    HW217805   2.609   0.238   3.831 -0.1107  0.9699  1.3539
 2115SOL     OW17806   2.080   3.663  17.490  0.0569 -0.2510  0.5130
 2115SOL    HW117807   2.111   3.747  17.454  1.0916 -1.0399 -0.4173
 2115SOL    HW217808   2.126   3.609  17.426 -1.2535 -1.6370  0.7375
 2116SOL     OW17809   0.100   2.227   3.066  0.0972 -0.2326  0.0721
 2116SOL    HW117810   0.081   2.200   2.976  0.2565  0.3605 -0.1410
 2116SOL    HW217811   0.176   2.284   3.058  0.2161 -0.6622 -1.8961
 2117SOL     OW17812   3.818   3.276  13.477  0.0444 -0.3678 -0.5010
 2117SOL    HW117813   3.852   3.364  13.497 -0.7983  0.1508 -1.3574
 2117SOL    HW217814   3.821   3.267  13.382 -0.9959 -0.4762 -0.5267
 2118SOL     OW17815   3.995   4.598   8.441  0.1096  1.2554 -0.7615
 2118SOL    HW117816   3.994   4.645   8.524  0.3760  0.5444 -0.3529
 2118SOL    HW217817   3.994   4.668   8.376  1.8440  0.8329 -1.2593
 2119SOL     OW17818   1.994   2.486  11.076  0.1508  0.6005 -1.1017
 2119SOL    HW117819   1.982   2.537  11.156 -1.2253  1.3710 -1.8003
 2119SOL    HW217820   1.942   2.529  11.008  0.4627  0.0743 -1.6674
 2120SOL     OW17821   4.055   2.606   6.328  0.2348 -0.7738  0.3269
 2120SOL    HW117822   4.080   2.525   6.282 -1.1260  0.3496 -2.3802
 2120SOL    HW217823   4.027   2.661   6.254 -1.1930  1.3682  2.4768
 2121SOL     OW17824   1.113   0.117   1.121  0.4111 -0.5503  0.2618
 2121SOL    HW117825   1.056   0.107   1.197  0.5096  3.1856  0.8091
 2121SOL    HW217826   1.143   0.207   1.129  0.2758 -0.7957  3.3963
 2122SOL     OW17827   4.602   0.926   7.312  0.0518  0.0379  0.1302
 2122SOL    HW117828   4.671   0.988   7.289 -0.8741  0.8250 -0.4969
 2122SOL    HW217829   4.566   0.891   7.230 -0.4381 -0.5449  0.5960
 2123SOL     OW17830   0.367   0.775   7.404  0.2981 -0.0293 -0.2166
 2123SOL    HW117831   0.449   0.738   7.371  0.5918 -0.1253  0.6247
 2123SOL    HW217832   0.331   0.798   7.318 -2.9432 -0.2996  1.0939
 2124SOL     OW17833   0.645   0.956   4.416 -0.6094 -0.2311  0.2099
 2124SOL    HW117834   0.645   0.861   4.419 -0.5998 -0.2352  0.0489
 2124SOL    HW217835   0.659   0.978   4.509 -3.7768  0.8440  0.4196
 2125SOL     OW17836   0.886   3.749   3.286 -0.3045  0.8078 -0.3378
 2125SOL    HW117837   0.906   3.759   3.193 -0.0816 -0.3350 -0.4162
 2125SOL    HW217838   0.793   3.772   3.283  0.2316  2.7465 -1.3888
 2126SOL     OW17839   3.895   3.586   4.409  0.2393  0.2241  0.6323
 2126SOL    HW117840   3.849   3.611   4.329  1.2422  0.3172  0.0931
 2126SOL    HW217841   3.899   3.491   4.402  1.8632  0.5356 -2.3883
 2127SOL     OW17842   3.120   3.809   8.712  0.1311  0.0064 -0.3895
 2127SOL    HW117843   3.092   3.788   8.801 -0.9674  1.9849 -0.2788
 2127SOL    HW217844   3.149   3.900   8.717  1.0106 -0.3399  0.6618
 2128SOL     OW17845   1.301   1.022   3.497 -0.7390  0.0500 -0.1746
 2128SOL    HW117846   1.363   1.087   3.464 -2.4674  0.9836 -1.5569
 2128SOL    HW217847   1.314   0.943   3.445 -2.1164 -1.8261  2.3057
 2129SOL     OW17848   2.203   1.874   6.103  0.0251  0.0298  0.2200
 2129SOL    HW117849   2.109   1.891   6.112 -0.2431 -1.4361  0.2376
 2129SOL    HW217850   2.242   1.948   6.058 -0.9835  0.0333 -0.6468
 2130SOL     OW17851   2.787   3.669   7.424  0.2428  0.1336 -0.7938
 2130SOL    HW117852   2.750   3.588   7.458 -1.7294  1.9943  1.4826
 2130SOL    HW217853   2.714   3.709   7.378 -0.6952 -1.9212 -1.0401
 2131SOL     OW17854   1.025   4.034   0.423 -0.9069 -0.3102 -0.3434
 2131SOL    HW117855   1.024   4.095   0.349 -0.5734 -0.8365 -0.7846
 2131SOL    HW217856   1.116   4.007   0.439 -0.8180 -0.1356 -0.5549
 2132SOL     OW17857   2.058   2.278   6.647  0.3035 -0.1211  0.2602
 2132SOL    HW117858   1.998   2.215   6.686 -0.5168  1.5689  1.7102
 2132SOL    HW217859   2.121   2.267   6.719  0.2809 -3.2173 -0.2096
 2133SOL     OW17860   0.647   4.507   9.485 -0.2167  0.2301 -0.2347
 2133SOL    HW117861   0.634   4.560   9.406 -0.6064  0.8289  0.2286
 2133SOL    HW217862   0.559   4.490   9.518  0.3834  0.7427  1.6535
 2134SOL     OW17863   3.313   1.028   7.675 -0.6287 -0.3616 -0.1977
 2134SOL    HW117864   3.351   0.959   7.620  0.5483 -0.6374  0.9386
 2134SOL    HW217865   3.373   1.091   7.635 -0.2635 -1.4565 -1.3818
 2135SOL     OW17866   2.395   0.915  16.136 -0.0204 -0.3257  0.4423
 2135SOL    HW117867   2.412   0.993  16.083  0.7709  0.3894  1.7391
 2135SOL    HW217868   2.312   0.949  16.169  0.6119  2.9479 -1.3369
 2136SOL     OW17869   2.030   0.281   8.534  0.1207 -0.2199  0.1702
 2136SOL    HW117870   1.951   0.277   8.587 -0.7681 -1.1124 -1.2039
 2136SOL    HW217871   2.062   0.367   8.560 -0.7620  0.3861 -0.7289
 2137SOL     OW17872   1.170   4.288   4.801  0.1915  0.3742 -0.3469
 2137SOL    HW117873   1.198   4.374   4.830  0.0838  0.7682 -1.3983
 2137SOL    HW217874   1.194   4.280   4.708  0.9521  1.5598 -0.2477
 2138SOL     OW17875   1.011   3.273   3.451  0.0741  0.0774  0.1745
 2138SOL    HW117876   1.052   3.205   3.397 -1.5099 -0.2063 -0.6748
 2138SOL    HW217877   1.083   3.336   3.444  0.7197 -0.4985  1.6705
 2139SOL     OW17878   2.982   3.878  16.364 -0.4791 -0.3538 -0.2126
 2139SOL    HW117879   2.928   3.839  16.295  0.0501 -0.6837 -0.4401
 2139SOL    HW217880   3.051   3.914  16.308  1.0344 -2.8735  0.0269
 2140SOL     OW17881   0.507   0.774   7.862  0.1579 -0.5263 -0.2009
 2140SOL    HW117882   0.429   0.745   7.908 -0.4409  1.0820 -0.2152
 2140SOL    HW217883   0.464   0.808   7.784 -0.7703 -1.9012 -0.2830
 2141SOL     OW17884   1.922   1.446   3.732  0.1006 -0.3028 -0.1890
 2141SOL    HW117885   1.910   1.507   3.659  3.5013  3.1526  2.1180
 2141SOL    HW217886   1.836   1.437   3.773 -0.2539 -0.9360 -1.0999
 2142SOL     OW17887   0.687   0.754   6.270 -0.0721  0.3823 -0.0059
 2142SOL    HW117888   0.634   0.710   6.336 -0.4999 -0.3428 -0.8289
 2142SOL    HW217889   0.770   0.714   6.295 -0.7114 -1.0436 -0.1842
 2143SOL     OW17890   4.442   1.785   8.379  0.0426 -0.1834 -0.1077
 2143SOL    HW117891   4.521   1.731   8.379  0.5119  0.5107  1.2866
 2143SOL    HW217892   4.473   1.863   8.425 -1.0402 -0.1096  0.4986
 2144SOL     OW17893   2.876   0.536   6.016 -0.3205 -0.0891  0.5028
 2144SOL    HW117894   2.799   0.483   5.997 -0.7635  0.5420  0.5368
 2144SOL    HW217895   2.848   0.576   6.098  0.8518 -1.0285  1.3542
 2145SOL     OW17896   2.217   4.516   4.783  0.0960 -0.2139  0.0530
 2145SOL    HW117897   2.177   4.595   4.746  0.5362  0.3550  0.7930
 2145SOL    HW217898   2.165   4.446   4.744  0.4653 -0.8183  0.6554
 2146SOL     OW17899   3.466   3.811   2.203  0.0732  0.1795 -0.0715
 2146SOL    HW117900   3.500   3.832   2.117  0.4294 -0.1976 -0.0219
 2146SOL    HW217901   3.385   3.863   2.201 -0.0109  0.0581  0.1228
 2147SOL     OW17902   0.804   3.757   4.856 -0.0748  0.2018 -0.5400
 2147SOL    HW117903   0.781   3.816   4.927 -1.7606 -2.1370  0.8307
 2147SOL    HW217904   0.889   3.787   4.822 -0.3137  0.2072 -1.1405
 2148SOL     OW17905   4.325   4.670   9.725 -0.3253  0.5968  0.0055
 2148SOL    HW117906   4.382   4.602   9.688  0.6529  0.5967  1.5269
 2148SOL    HW217907   4.274   4.693   9.648  0.5003 -1.4998 -1.1681
 2149SOL     OW17908   0.786   1.353   6.329  0.1165 -0.2407 -0.2609
 2149SOL    HW117909   0.854   1.286   6.317  1.2070  1.0493 -1.2008
 2149SOL    HW217910   0.842   1.389   6.398 -0.8957 -2.7138  1.8714
 2150SOL     OW17911   1.816   1.762  11.817 -0.0894 -0.2465  0.2360
 2150SOL    HW117912   1.873   1.713  11.758 -1.2354 -1.1740 -0.0870
 2150SOL    HW217913   1.737   1.710  11.806 -0.4825  0.6321 -1.1273
 2151SOL     OW17914   1.462   2.505   8.272 -0.3452  0.4106  0.1319
 2151SOL    HW117915   1.536   2.480   8.327 -1.0991 -0.2016  0.8819
 2151SOL    HW217916   1.494   2.522   8.184 -0.8186  1.6326  0.2015
 2152SOL     OW17917   3.682   3.670   7.539  0.7749 -0.2146  0.7194
 2152SOL    HW117918   3.594   3.670   7.500  0.3746  2.1857  1.6377
 2152SOL    HW217919   3.702   3.578   7.522 -1.8329 -0.1866 -2.4933
 2153SOL     OW17920   3.894   1.109  16.482  0.5650 -0.5807 -0.4613
 2153SOL    HW117921   3.851   1.159  16.412  0.3577  1.2840  1.0066
 2153SOL    HW217922   3.898   1.022  16.442  0.7581 -0.7383 -0.0947
 2154SOL     OW17923   0.795   0.740  16.885 -0.2536 -0.1322  0.3057
 2154SOL    HW117924   0.765   0.689  16.810  0.2212  1.0117 -0.6637
 2154SOL    HW217925   0.767   0.685  16.958  1.3733 -0.8666  0.3650
 2155SOL     OW17926   0.939   1.656   2.266  0.1451  0.1580  0.0151
 2155SOL    HW117927   0.955   1.599   2.342 -1.7067  0.4287  0.6077
 2155SOL    HW217928   0.963   1.741   2.304  0.5275 -0.2697  0.7513
 2156SOL     OW17929   3.067   3.888  14.692 -0.1125  0.4085  0.5889
 2156SOL    HW117930   3.004   3.856  14.628  2.3226 -0.3095 -1.4186
 2156SOL    HW217931   3.021   3.851  14.768 -2.2914  0.8205 -0.5316
 2157SOL     OW17932   2.624   1.120   7.507 -0.1804  0.4578 -0.2758
 2157SOL    HW117933   2.617   1.134   7.413 -1.1843 -2.7729 -0.6885
 2157SOL    HW217934   2.600   1.027   7.507  1.8911 -0.0874 -2.3249
 2158SOL     OW17935   4.017   4.447   4.851  0.1807 -0.3359  0.4665
 2158SOL    HW117936   4.104   4.436   4.890 -0.7927 -0.3425  2.6216
 2158SOL    HW217937   3.971   4.501   4.915  0.6233  0.7676 -0.1399
 2159SOL     OW17938   1.453   2.770  17.541 -0.0699 -0.6657 -0.1505
 2159SOL    HW117939   1.516   2.798  17.608  0.8910 -0.6250 -1.0660
 2159SOL    HW217940   1.509   2.768  17.464  0.1750  0.9735 -0.0287
 2160SOL     OW17941   3.559   4.583   0.898  0.1997 -0.1465  0.4955
 2160SOL    HW117942   3.508   4.505   0.875 -0.1318 -0.1009  1.0632
 2160SOL    HW217943   3.588   4.567   0.988 -1.8398  3.7738  1.8540
 2161SOL     OW17944   4.163   3.349   8.222 -0.3572  0.3741  0.0314
 2161SOL    HW117945   4.194   3.428   8.265  2.3808 -1.4242  1.3796
 2161SOL    HW217946   4.191   3.366   8.131 -2.5991 -2.2207 -1.1479
 2162SOL     OW17947   0.291   4.670   3.955 -0.2650  0.0235  0.2098
 2162SOL    HW117948   0.277   4.582   3.991 -0.7816  0.5934  1.4033
 2162SOL    HW217949   0.311   4.638   3.867  1.5144  0.4461  0.4538
 2163SOL     OW17950   2.489   2.718   8.927  1.0191 -0.2388  0.8112
 2163SOL    HW117951   2.421   2.729   8.860  0.4378 -0.1102  1.4267
 2163SOL    HW217952   2.429   2.720   9.002  0.4226 -0.3160  0.3366
 2164SOL     OW17953   0.995   1.008  10.729 -0.4653 -0.3879 -0.2530
 2164SOL    HW117954   0.934   0.964  10.670 -0.1411 -2.7242  1.1544
 2164SOL    HW217955   1.014   0.941  10.794 -2.2508 -1.2463 -0.6233
 2165SOL     OW17956   3.152   0.054   7.612 -0.1498  0.2438 -0.3310
 2165SOL    HW117957   3.062   0.069   7.641  0.2113  0.6921  0.5513
 2165SOL    HW217958   3.204   0.107   7.673 -2.5458  1.1848  0.9120
 2166SOL     OW17959   4.289   2.605   6.468 -0.2214  0.5926 -0.5770
 2166SOL    HW117960   4.196   2.621   6.451 -0.8288 -0.1744  1.9493
 2166SOL    HW217961   4.322   2.686   6.430  1.1143 -0.1351 -0.9418
 2167SOL     OW17962   0.678   4.479   5.996  0.3403 -0.1302  0.0654
 2167SOL    HW117963   0.675   4.389   5.965 -0.6045 -0.1905  0.3476
 2167SOL    HW217964   0.649   4.527   5.919  2.2301 -0.7791 -1.0525
 2168SOL     OW17965   2.837   2.501  17.289  0.3256 -0.1141  0.1524
 2168SOL    HW117966   2.925   2.539  17.294 -0.4349  1.7531 -0.5691
 2168SOL    HW217967   2.790   2.550  17.221  0.0723 -1.2662 -0.5016
 2169SOL     OW17968   2.517   1.922   2.775 -0.0121  0.5086 -0.8289
 2169SOL    HW117969   2.584   1.983   2.806  0.4581 -0.9582  0.9739
 2169SOL    HW217970   2.534   1.920   2.680 -2.1223  0.2703 -1.2055
 2170SOL     OW17971   2.203   4.631   1.050 -0.2012 -0.0498 -0.1916
 2170SOL    HW117972   2.166   4.550   1.087 -0.1241  0.0102  0.0142
 2170SOL    HW217973   2.237   4.594   0.969  1.0327  1.7516 -0.5040
 2171SOL     OW17974   4.130   0.774  12.251  0.8082 -0.3330  0.2244
 2171SOL    HW117975   4.172   0.844  12.201  0.8958  1.4118  2.7319
 2171SOL    HW217976   4.153   0.803  12.340  1.5627 -3.0258  0.8971
 2172SOL     OW17977   2.613   1.192   6.618  0.3282  0.3732  0.0734
 2172SOL    HW117978   2.521   1.170   6.605  0.6493 -0.8744 -0.1404
 2172SOL    HW217979   2.628   1.257   6.549  1.3129 -0.4176 -0.4576
 2173SOL     OW17980   3.980   0.175  15.929 -0.2610  0.0181  0.0965
 2173SOL    HW117981   4.034   0.128  15.866 -0.8983  0.2810 -0.6437
 2173SOL    HW217982   3.982   0.113  16.002 -1.2456  0.9237  0.8975
 2174SOL     OW17983   4.163   1.931  13.905 -0.2791  0.6351  0.2796
 2174SOL    HW117984   4.083   1.965  13.865 -1.0620 -2.4193 -0.7568
 2174SOL    HW217985   4.224   2.002  13.886 -2.0893  1.7109 -1.5316
 2175SOL     OW17986   2.244   2.862   4.476 -0.1714 -0.2122 -0.1177
 2175SOL    HW117987   2.194   2.781   4.466  1.0964 -0.8562 -1.3041
 2175SOL    HW217988   2.243   2.900   4.388 -0.6580 -0.1158 -0.0706
 2176SOL     OW17989   3.954   1.707  14.772  0.0985 -0.5782  0.2937
 2176SOL    HW117990   4.047   1.732  14.769  0.1060 -0.5071  0.9561
 2176SOL    HW217991   3.919   1.767  14.707 -0.6728 -0.9544  0.3577
 2177SOL     OW17992   2.816   3.249   8.389  0.1423 -0.0817 -0.4884
 2177SOL    HW117993   2.871   3.174   8.414 -1.4390 -1.7583 -2.0470
 2177SOL    HW217994   2.843   3.313   8.454  0.9925 -0.1934 -0.7267
 2178SOL     OW17995   4.500   0.925   5.093 -0.0937  0.4359 -0.2153
 2178SOL    HW117996   4.570   0.892   5.149 -1.0150  0.8983  1.1912
 2178SOL    HW217997   4.435   0.975   5.142 -1.9115 -3.5228  1.4226
 2179SOL     OW17998   3.096   3.112   7.805  0.4016 -0.0588  0.2165
 2179SOL    HW117999   3.051   3.037   7.845  0.9820 -0.2418  0.5308
 2179SOL    HW218000   3.099   3.087   7.713 -0.6607  2.8696 -0.5935
 2180SOL     OW18001   3.729   4.569   3.720 -0.4941  0.0366 -0.2014
 2180SOL    HW118002   3.736   4.480   3.687  0.1524 -0.1356  0.4144
 2180SOL    HW218003   3.670   4.606   3.654  0.7176 -0.8100 -1.7672
 2181SOL     OW18004   2.096   4.536   5.912 -0.2295 -0.0800  0.4955
 2181SOL    HW118005   2.003   4.516   5.922 -0.4505  0.7096  0.0049
 2181SOL    HW218006   2.137   4.500   5.991  0.6969 -0.4696 -0.1669
 2182SOL     OW18007   3.653   3.530  11.932  0.2481 -0.1829 -0.0171
 2182SOL    HW118008   3.607   3.567  11.856 -0.9388 -3.6367 -0.9633
 2182SOL    HW218009   3.725   3.490  11.883  0.0376  0.2520 -0.6988
 2183SOL     OW18010   3.289   1.466  17.300  0.0897 -0.1693 -0.3372
 2183SOL    HW118011   3.347   1.534  17.333  0.3713  0.1116 -1.4018
 2183SOL    HW218012   3.313   1.391  17.355 -1.0311 -0.2293  0.0671
 2184SOL     OW18013   3.559   0.803   5.009 -0.0132 -0.1117 -0.3546
 2184SOL    HW118014   3.465   0.789   5.015  0.2255  0.2360  4.1811
 2184SOL    HW218015   3.560   0.876   5.072 -2.3861  0.2905 -0.7781
 2185SOL     OW18016   3.677   0.409   9.923  0.6712 -0.0885 -0.2945
 2185SOL    HW118017   3.650   0.324   9.958  0.6650  0.9561  2.2788
 2185SOL    HW218018   3.753   0.388   9.870  1.1827 -0.0086  0.4025
 2186SOL     OW18019   4.434   4.372   6.413 -0.1300 -0.2874 -0.5151
 2186SOL    HW118020   4.491   4.410   6.346  0.2533 -0.3505 -0.2274
 2186SOL    HW218021   4.497   4.310   6.451  0.6976  1.0384  0.2746
 2187SOL     OW18022   4.246   4.382   5.193 -0.2831  0.0278  0.3409
 2187SOL    HW118023   4.155   4.381   5.220  0.3556  0.0043  2.5169
 2187SOL    HW218024   4.274   4.295   5.222  1.5895  0.8655  1.0414
 2188SOL     OW18025   4.639   2.296   3.686 -0.2238 -0.6801 -0.6990
 2188SOL    HW118026   4.663   2.231   3.752 -1.5415 -0.0352  0.4257
 2188SOL    HW218027   4.549   2.317   3.713  0.1327  0.8899 -0.7259
 2189SOL     OW18028   2.944   0.970   4.413 -0.6131 -0.2157 -0.5040
 2189SOL    HW118029   2.899   1.032   4.355 -0.0685 -0.1412 -0.8414
 2189SOL    HW218030   3.017   0.930   4.365  0.2962  1.5504 -0.5768
 2190SOL     OW18031   2.295   0.048   6.532 -0.2080 -0.5364 -0.4029
 2190SOL    HW118032   2.251   0.121   6.487 -2.9734 -2.4207 -0.7203
 2190SOL    HW218033   2.378   0.093   6.551 -1.4022  0.0018  3.6918
 2191SOL     OW18034   3.769   0.678  11.071  0.6840  0.2907  0.1102
 2191SOL    HW118035   3.810   0.728  11.000  0.8240 -0.7849 -0.5690
 2191SOL    HW218036   3.840   0.674  11.135 -0.3260  2.8821  1.3809
 2192SOL     OW18037   0.050   2.036  14.083 -0.2972  0.2827  0.3647
 2192SOL    HW118038   0.130   1.983  14.083 -1.6684 -1.7467  0.2238
 2192SOL    HW218039   0.096   2.114  14.115 -0.7285 -0.8820  3.8342
 2193SOL     OW18040   1.353   4.194  12.588  0.3639  0.3326 -0.2734
 2193SOL    HW118041   1.376   4.101  12.589  1.6884  0.6683  0.4180
 2193SOL    HW218042   1.438   4.228  12.613  0.0629 -0.1041  1.3068
 2194SOL     OW18043   3.948   3.900   6.421  0.1904  1.0984 -0.1718
 2194SOL    HW118044   3.898   3.936   6.347 -2.1197 -2.1726 -0.2090
 2194SOL    HW218045   3.889   3.836   6.462  1.5472 -1.6879 -2.4765
 2195SOL     OW18046   2.006   3.900   5.888 -0.0091  0.2143 -0.7736
 2195SOL    HW118047   2.087   3.944   5.914  0.2838  0.6247 -2.3960
 2195SOL    HW218048   2.041   3.827   5.838  0.5351  0.4168 -0.6903
 2196SOL     OW18049   1.214   1.880   5.921 -0.4843 -0.2437 -0.1939
 2196SOL    HW118050   1.207   1.954   5.982  0.8016 -0.0858 -0.2380
 2196SOL    HW218051   1.292   1.832   5.949 -1.1198 -0.3566  1.3629
 2197SOL     OW18052   2.884   1.760  10.449 -0.8173 -0.1235  0.2354
 2197SOL    HW118053   2.821   1.705  10.496 -1.0720  0.7677  0.9235
 2197SOL    HW218054   2.963   1.730  10.494  1.6959  0.9139 -3.5072
 2198SOL     OW18055   3.255   2.901   2.671 -0.1964  0.6185  0.2277
 2198SOL    HW118056   3.265   2.995   2.685  1.7836  0.5027 -0.4960
 2198SOL    HW218057   3.213   2.871   2.752 -1.6428  0.3371 -0.6206
 2199SOL     OW18058   0.086   2.947   6.860  0.1432 -0.1722  0.2808
 2199SOL    HW118059   0.134   3.007   6.918  0.6598 -0.7592  0.4597
 2199SOL    HW218060   0.121   2.981   6.778 -3.7208  0.9260 -0.8894
 2200SOL     OW18061   1.531   3.001   7.065 -0.3390  0.6984  0.1375
 2200SOL    HW118062   1.473   3.000   7.141  0.8624 -0.8214  1.0172
 2200SOL    HW218063   1.469   2.982   6.996 -2.4029 -0.8332  2.4314
 2201SOL     OW18064   1.333   0.154   4.673  0.3847 -0.0593  0.0275
 2201SOL    HW118065   1.290   0.072   4.650 -0.6831  0.2788  0.8394
 2201SOL    HW218066   1.365   0.148   4.763 -2.7486  0.4600  1.1537
 2202SOL     OW18067   3.727   1.868   1.390 -0.2862  0.6323 -0.8106
 2202SOL    HW118068   3.760   1.898   1.475 -0.1632 -2.1379  0.1375
 2202SOL    HW218069   3.753   1.776   1.389 -0.5761  0.5441 -0.2841
 2203SOL     OW18070   1.620   0.566   8.578  0.7977 -0.2473 -0.1943
 2203SOL    HW118071   1.613   0.472   8.596  0.0168  0.0847  1.2050
 2203SOL    HW218072   1.530   0.599   8.573  0.5042 -0.9029  0.8536
 2204SOL     OW18073   1.154   4.151   8.278 -0.0164  0.1308  0.5476
 2204SOL    HW118074   1.183   4.086   8.214  1.9080  0.6956  0.8269
 2204SOL    HW218075   1.139   4.097   8.355 -1.7142  1.6950  1.2985
 2205SOL     OW18076   3.547   3.487  14.987  0.1243  0.1725  0.2030
 2205SOL    HW118077   3.610   3.416  14.977 -1.6221 -1.4141  0.5833
 2205SOL    HW218078   3.475   3.455  14.932  1.9980 -0.8875 -1.5953
 2206SOL     OW18079   0.639   4.249   5.849  0.0061  0.3560 -0.1931
 2206SOL    HW118080   0.628   4.165   5.805 -0.5805 -0.4946  1.6177
 2206SOL    HW218081   0.632   4.220   5.940  1.0847 -0.0089 -0.2215
 2207SOL     OW18082   1.092   0.862   1.064 -0.0113  0.0398  0.1238
 2207SOL    HW118083   1.115   0.783   1.113 -2.9865 -1.1841 -0.4529
 2207SOL    HW218084   1.079   0.826   0.977 -0.6280  1.0801 -0.2170
 2208SOL     OW18085   3.445   0.421  15.936  0.1910  0.3163 -0.1280
 2208SOL    HW118086   3.361   0.449  15.974  0.2601 -0.3449  0.5197
 2208SOL    HW218087   3.407   0.369  15.866 -2.6770  1.2992  0.6838
 2209SOL     OW18088   0.541   3.048   6.207 -0.3183  0.0506 -0.0537
 2209SOL    HW118089   0.471   2.988   6.235 -2.1035  2.2010  0.0623
 2209SOL    HW218090   0.573   3.008   6.127  3.1084  0.3596  1.1558
 2210SOL     OW18091   2.405   0.264   6.143 -0.4590 -0.4061 -0.0622
 2210SOL    HW118092   2.395   0.263   6.048  1.0003 -0.4717 -0.2155
 2210SOL    HW218093   2.446   0.348   6.161  0.5778 -0.8294 -0.4795
 2211SOL     OW18094   1.162   2.104  12.651  0.6120 -0.0107 -0.2454
 2211SOL    HW118095   1.211   2.178  12.687 -0.2974  0.8855 -0.8452
 2211SOL    HW218096   1.114   2.150  12.582  2.3888 -1.5585 -2.5125
 2212SOL     OW18097   1.159   0.813  13.643 -0.3885 -0.2068 -0.2414
 2212SOL    HW118098   1.131   0.902  13.665  0.0467  0.0672 -0.8276
 2212SOL    HW218099   1.207   0.777  13.718  1.7545  0.0934 -1.4764
 2213SOL     OW18100   3.785   2.581   3.926  0.5216 -0.0084 -0.2347
 2213SOL    HW118101   3.800   2.527   4.003  2.5768  1.0916  0.1385
 2213SOL    HW218102   3.869   2.582   3.880  1.9961 -0.1512  2.4876
 2214SOL     OW18103   2.501   3.372   6.798 -0.4419  0.3935 -0.2291
 2214SOL    HW118104   2.540   3.388   6.712  1.3825  1.2464  0.7463
 2214SOL    HW218105   2.413   3.336   6.788 -0.8444  1.6187 -1.1465
 2215SOL     OW18106   0.095   0.424   4.383  0.2865  0.1796  0.0977
 2215SOL    HW118107   0.029   0.425   4.452 -0.2106 -1.2594 -0.3479
 2215SOL    HW218108   0.175   0.457   4.424 -0.2346  2.0050 -0.3815
 2216SOL     OW18109   0.066   3.747   3.893 -0.2559  0.1464  0.0463
 2216SOL    HW118110   4.710   3.689   3.904  0.3487 -1.0290 -2.0128
 2216SOL    HW218111   0.032   3.809   3.829 -2.9270  0.4274  1.7239
 2217SOL     OW18112   0.795   1.109  11.385  0.5728  0.0949 -0.9531
 2217SOL    HW118113   0.783   1.103  11.290  1.4466  0.0307 -1.0580
 2217SOL    HW218114   0.743   1.187  11.402  1.3028 -0.3135  3.1647
 2218SOL     OW18115   2.542   0.172   6.546 -0.0835  0.7177 -0.6216
 2218SOL    HW118116   2.628   0.156   6.586 -0.7929 -0.2652  0.5324
 2218SOL    HW218117   2.543   0.153   6.453  1.0421  0.3260 -0.5269
 2219SOL     OW18118   0.517   2.496   7.330 -0.5196 -0.1936 -0.2993
 2219SOL    HW118119   0.576   2.486   7.256 -2.9492 -0.4455 -2.2070
 2219SOL    HW218120   0.518   2.411   7.374  0.6433 -0.7919 -1.4968
 2220SOL     OW18121   3.343   0.959   2.412 -0.4115 -0.0549 -0.6838
 2220SOL    HW118122   3.331   0.871   2.375 -0.0024 -0.6215  0.5360
 2220SOL    HW218123   3.250   0.976   2.428 -0.3492 -0.4017  0.0721
 2221SOL     OW18124   0.541   0.283  10.963 -0.0951 -0.0521 -0.2771
 2221SOL    HW118125   0.583   0.353  11.012  1.8340 -1.5581  0.2026
 2221SOL    HW218126   0.518   0.229  11.039  0.0953 -0.2686 -0.3747
 2222SOL     OW18127   3.244   2.908   2.390  0.2114  0.7271 -0.1851
 2222SOL    HW118128   3.246   2.890   2.484  0.2243  3.4604  0.3564
 2222SOL    HW218129   3.336   2.893   2.366  0.5843  2.5807  0.0805
 2223SOL     OW18130   3.314   1.609   3.876  0.4024 -0.7846 -0.5066
 2223SOL    HW118131   3.379   1.550   3.915  1.0692 -1.8058 -3.1112
 2223SOL    HW218132   3.320   1.585   3.783  1.8648  0.9552 -0.8521
 2224SOL     OW18133   2.842   0.300  14.478 -0.0530  0.1530  0.3741
 2224SOL    HW118134   2.842   0.205  14.466  0.2075 -0.0476  1.9151
 2224SOL    HW218135   2.790   0.326  14.402 -0.8798  1.5718  1.4225
 2225SOL     OW18136   3.745   0.923   7.868  0.4213  0.3829 -0.5931
 2225SOL    HW118137   3.761   0.854   7.932  0.6203  1.9284  1.0170
 2225SOL    HW218138   3.717   0.993   7.926 -1.4601  0.8384 -2.0375
 2226SOL     OW18139   1.808   1.251   3.149  0.3611 -0.1214  0.4574
 2226SOL    HW118140   1.899   1.229   3.127  1.7391  2.4361  3.5391
 2226SOL    HW218141   1.772   1.259   3.061  0.3281  0.3876  0.5167
 2227SOL     OW18142   4.686   1.663  13.563 -0.3985  0.1176  0.0985
 2227SOL    HW118143   4.702   1.572  13.540 -2.0692 -0.1780  0.0701
 2227SOL    HW218144   0.002   1.666  13.652 -0.2214 -1.0411  0.0677
 2228SOL     OW18145   2.717   1.967  13.032  0.0234  0.0536 -0.5791
 2228SOL    HW118146   2.778   1.908  13.077 -0.5124 -2.3163 -2.9733
 2228SOL    HW218147   2.779   2.022  12.984 -0.8087  2.5225  1.1784
 2229SOL     OW18148   4.623   3.816   2.430  0.1307 -0.1511  0.0213
 2229SOL    HW118149   4.561   3.816   2.503  2.1596 -0.6827  1.7278
 2229SOL    HW218150   4.582   3.741   2.387  1.4727 -0.6702 -0.3415
 2230SOL     OW18151   1.095   2.919  17.422 -0.4032 -0.1520 -0.1354
 2230SOL    HW118152   1.006   2.954  17.419 -0.4251 -0.2217 -0.3473
 2230SOL    HW218153   1.113   2.870  17.341  1.3095  0.8984 -0.3855
 2231SOL     OW18154   3.405   2.644  11.854  0.1097 -0.2890 -0.3630
 2231SOL    HW118155   3.396   2.549  11.851 -0.6386 -0.2856  2.2301
 2231SOL    HW218156   3.340   2.667  11.787 -0.3618  1.6284  0.7573
 2232SOL     OW18157   1.457   0.963  11.885 -0.3143  0.2766 -0.1865
 2232SOL    HW118158   1.401   1.037  11.911 -0.3338  0.0787  0.3346
 2232SOL    HW218159   1.448   0.965  11.789 -1.1544  2.2995 -0.0744
 2233SOL     OW18160   4.433   0.255  12.654 -0.0318  0.0692 -0.1214
 2233SOL    HW118161   4.483   0.294  12.725 -1.0790  1.0005  0.1065
 2233SOL    HW218162   4.498   0.244  12.585  2.5873 -1.5989  2.6306
 2234SOL     OW18163   1.924   2.885   4.447 -0.0509 -0.1588 -0.0200
 2234SOL    HW118164   1.898   2.835   4.524 -1.8294 -0.6775 -0.9512
 2234SOL    HW218165   1.893   2.821   4.382 -2.7608  1.2409 -0.1074
 2235SOL     OW18166   1.845   3.409   7.867 -0.1999 -0.0381  0.9184
 2235SOL    HW118167   1.830   3.368   7.952 -0.2401  1.0444  1.4411
 2235SOL    HW218168   1.826   3.332   7.814  0.5114 -1.4037  2.6588
 2236SOL     OW18169   1.651   2.770   2.166  0.3594  0.6504 -0.3387
 2236SOL    HW118170   1.596   2.819   2.228  0.9023 -1.4910  1.8061
 2236SOL    HW218171   1.638   2.809   2.080  2.5985 -1.5425 -1.6492
 2237SOL     OW18172   1.539   0.022   7.593 -0.2510  0.7885 -0.1992
 2237SOL    HW118173   1.568   0.005   7.504 -0.2271 -0.1931 -0.0086
 2237SOL    HW218174   1.575   4.666   7.639  1.6359  0.7583 -1.7236
 2238SOL     OW18175   2.359   4.611   4.323 -0.3939 -0.3530  0.1427
 2238SOL    HW118176   2.314   4.528   4.343  1.9132 -2.6006 -3.8672
 2238SOL    HW218177   2.282   4.663   4.300  0.9950  2.1970  1.3909
 2239SOL     OW18178   3.049   1.690  16.409 -0.3055 -0.2638 -0.5170
 2239SOL    HW118179   3.117   1.623  16.402  0.7712  0.6553  1.0842
 2239SOL    HW218180   3.008   1.643  16.481  2.4369  1.2877  2.0682
 2240SOL     OW18181   4.638   3.208  12.620 -0.0985 -0.3201  0.3226
 2240SOL    HW118182   4.643   3.299  12.651  0.2045  0.4038 -1.8906
 2240SOL    HW218183   0.008   3.176  12.631 -0.6595 -1.8022  0.4732
 2241SOL     OW18184   2.505   2.581   5.397 -0.1575 -0.0416 -0.0176
 2241SOL    HW118185   2.540   2.501   5.357 -1.3061 -0.3010 -0.4864
 2241SOL    HW218186   2.535   2.581   5.488  1.0684  0.4309 -0.4194
 2242SOL     OW18187   1.426   1.599   7.480  0.4394  0.2653 -0.0366
 2242SOL    HW118188   1.340   1.601   7.522  0.5177 -2.9586  0.2780
 2242SOL    HW218189   1.398   1.612   7.390  1.0482  0.3319 -0.2164
 2243SOL     OW18190   0.090   2.683   0.727  0.2905  0.0011 -0.1809
 2243SOL    HW118191   0.101   2.740   0.804 -1.8634 -0.9202  0.7991
 2243SOL    HW218192   0.180   2.683   0.695  1.1714 -0.4382  2.2427
 2244SOL     OW18193   2.930   1.109   4.848 -0.4678 -0.2291  0.5365
 2244SOL    HW118194   2.935   1.192   4.896 -0.6593  0.0494  0.0660
 2244SOL    HW218195   2.992   1.121   4.776 -0.2548  0.8675  0.9060
 2245SOL     OW18196   3.196   1.453   6.960  0.6493  0.3694  0.1576
 2245SOL    HW118197   3.240   1.496   7.033 -2.3969  0.7367  1.7672
 2245SOL    HW218198   3.134   1.519   6.929 -0.9967 -1.5272 -0.5804
 2246SOL     OW18199   1.940   2.191   0.712  0.2002 -0.5330 -0.2192
 2246SOL    HW118200   2.026   2.205   0.674  0.8096 -2.8768  0.2723
 2246SOL    HW218201   1.913   2.112   0.664 -1.8725 -0.4183  0.7572
 2247SOL     OW18202   2.865   4.584   7.949  0.1569 -0.2273  0.0058
 2247SOL    HW118203   2.807   4.657   7.969  0.8306  0.0077  1.1002
 2247SOL    HW218204   2.817   4.552   7.873 -0.4553  1.1003 -0.1631
 2248SOL     OW18205   3.580   4.100   3.953  0.0366  0.1858 -0.3216
 2248SOL    HW118206   3.538   4.015   3.960  0.7176 -0.1911 -0.8570
 2248SOL    HW218207   3.634   4.096   4.031 -2.6445  0.5110  1.5675
 2249SOL     OW18208   0.378   2.642  10.702  0.1899  0.2841  0.4423
 2249SOL    HW118209   0.311   2.629  10.769  0.0480 -0.7114  0.1113
 2249SOL    HW218210   0.329   2.626  10.622  0.4178  1.4226  0.0751
 2250SOL     OW18211   4.510   0.473   0.359 -0.0642 -0.6953 -0.0176
 2250SOL    HW118212   4.441   0.407   0.351 -0.6459 -0.0557 -0.3349
 2250SOL    HW218213   4.579   0.433   0.306 -0.2943 -1.0581 -0.0439
 2251SOL     OW18214   4.062   0.856   0.005 -0.2696  0.1983  0.3651
 2251SOL    HW118215   4.033   0.767  17.666 -0.9545  0.4052  0.4461
 2251SOL    HW218216   4.111   0.841   0.086  0.2074  1.0625  0.2368
 2252SOL     OW18217   4.183   3.284   0.534 -0.4182  0.1256  0.5746
 2252SOL    HW118218   4.095   3.247   0.535 -0.8583  1.0165 -3.2198
 2252SOL    HW218219   4.234   3.227   0.591 -0.5901  1.2477  1.8483
 2253SOL     OW18220   2.769   2.202   0.250  0.0760  0.3627 -0.7279
 2253SOL    HW118221   2.850   2.245   0.277  0.0452 -0.5429  0.7947
 2253SOL    HW218222   2.809   2.152   0.179  0.2883 -0.4495 -0.0280
 2254SOL     OW18223   2.902   1.068   0.501  0.4017  0.1505  0.2974
 2254SOL    HW118224   2.835   1.112   0.554  0.9401 -0.4363  1.4530
 2254SOL    HW218225   2.847   1.053   0.424  0.3832  1.5057  0.0494
 2255SOL     OW18226   3.503   3.702   8.078 -0.2059 -0.8313 -0.1366
 2255SOL    HW118227   3.558   3.658   8.143  2.0887  0.7768 -1.0128
 2255SOL    HW218228   3.431   3.638   8.074 -0.5139 -0.4548 -0.6030
 2256SOL     OW18229   3.095   0.560   8.761  0.9044 -0.0783 -0.3233
 2256SOL    HW118230   3.073   0.478   8.717  3.3879 -0.5880 -0.6149
 2256SOL    HW218231   3.087   0.539   8.854 -3.1912 -0.6885 -0.7917
 2257SOL     OW18232   4.007   4.171   5.771 -0.5595 -0.2364 -0.0101
 2257SOL    HW118233   4.071   4.182   5.700 -1.0550  1.6848 -0.1483
 2257SOL    HW218234   3.947   4.120   5.716 -1.3003  1.0206 -0.3607
 2258SOL     OW18235   3.433   1.949  12.331  0.3092  0.3559 -0.6600
 2258SOL    HW118236   3.423   1.983  12.420 -0.8020 -1.2944 -0.1517
 2258SOL    HW218237   3.507   1.890  12.344 -0.4096 -0.8696 -2.0437
 2259SOL     OW18238   1.741   0.777   8.651 -0.1050 -0.1038  0.4613
 2259SOL    HW118239   1.807   0.740   8.710  0.0402 -1.3081 -0.4635
 2259SOL    HW218240   1.705   0.694   8.620 -0.6261  0.2993  0.0018
 2260SOL     OW18241   4.318   0.771  17.613  0.6181 -0.1152 -0.2310
 2260SOL    HW118242   4.247   0.827  17.646  1.2859 -0.1306  1.2290
 2260SOL    HW218243   4.370   0.751   0.011  0.2857  0.0497  0.0350
 2261SOL     OW18244   2.129   3.275   2.912 -0.1111 -0.0488 -0.3656
 2261SOL    HW118245   2.158   3.184   2.920 -0.1118  0.0446  0.6349
 2261SOL    HW218246   2.091   3.266   2.824 -0.3316 -1.2831 -0.1557
 2262SOL     OW18247   0.222   3.488   4.401 -0.1158 -0.3024  0.5314
 2262SOL    HW118248   0.207   3.539   4.321  0.8911 -0.1750  0.4143
 2262SOL    HW218249   0.266   3.556   4.452  0.0526  0.0536 -0.0760
 2263SOL     OW18250   2.008   0.632  11.815  0.2150 -0.4264 -0.0237
 2263SOL    HW118251   1.929   0.682  11.792  1.1120  0.4491 -1.2111
 2263SOL    HW218252   2.074   0.698  11.791 -0.3420 -0.0459 -0.5232
 2264SOL     OW18253   1.643   3.951  10.275  0.2279  0.0486 -0.2364
 2264SOL    HW118254   1.664   3.994  10.357  0.7895  0.6603 -0.7031
 2264SOL    HW218255   1.613   3.865  10.304  2.7334 -0.8590 -0.3820
 2265SOL     OW18256   3.506   3.604   7.019  0.3405  0.6141  0.0724
 2265SOL    HW118257   3.523   3.617   6.926  2.0810  1.5002  0.5213
 2265SOL    HW218258   3.427   3.551   7.017  1.5567 -1.1982  0.7224
 2266SOL     OW18259   1.295   4.310   2.645  0.0474 -1.0915 -0.2992
 2266SOL    HW118260   1.251   4.270   2.570 -0.9891 -0.2071 -0.1745
 2266SOL    HW218261   1.376   4.334   2.601 -0.0707  0.5778  0.3758
 2267SOL     OW18262   0.181   2.837   7.283  0.0038  0.1257  0.4057
 2267SOL    HW118263   0.114   2.826   7.350  1.4378 -0.7506  1.6851
 2267SOL    HW218264   0.195   2.932   7.280 -0.5220  0.1529 -1.2859
 2268SOL     OW18265   3.751   0.928   7.603  0.0480  0.0762  0.1131
 2268SOL    HW118266   3.726   0.836   7.613  2.5069 -0.7872 -1.7610
 2268SOL    HW218267   3.747   0.950   7.696 -0.0794  1.1949 -0.1495
 2269SOL     OW18268   3.311   1.412  17.598 -0.0317  0.0265 -0.1919
 2269SOL    HW118269   3.219   1.406  17.571 -0.5429  1.8600  1.1194
 2269SOL    HW218270   3.302   1.377   0.006 -0.9843  0.0967 -0.2601
 2270SOL     OW18271   1.413   2.428  16.180  0.5165  0.5070 -0.3132
 2270SOL    HW118272   1.355   2.395  16.249 -2.6023  2.6582 -1.8771
 2270SOL    HW218273   1.411   2.352  16.122 -0.6638 -1.8424  2.7940
 2271SOL     OW18274   3.707   2.167  14.858  0.3622 -0.0156  0.2158
 2271SOL    HW118275   3.762   2.108  14.807 -0.7134 -0.6437 -0.2109
 2271SOL    HW218276   3.710   2.252  14.815 -0.0220 -1.6261 -2.9510
 2272SOL     OW18277   0.245   0.624  17.357 -0.4983 -0.0072 -0.2654
 2272SOL    HW118278   0.197   0.633  17.439  2.0779  1.0952  1.0944
 2272SOL    HW218279   0.287   0.709  17.343 -1.2098  0.2334 -0.9573
 2273SOL     OW18280   2.611   2.286  14.921 -0.0960 -0.1799  0.0356
 2273SOL    HW118281   2.593   2.380  14.913  2.8131  0.2571 -1.2661
 2273SOL    HW218282   2.565   2.268  14.839  0.8327 -0.0065 -0.5172
 2274SOL     OW18283   1.349   1.747   3.325  1.0033  0.6398 -0.4649
 2274SOL    HW118284   1.385   1.831   3.355 -0.3783  0.2098  2.4045
 2274SOL    HW218285   1.283   1.731   3.393  0.0297  0.0789 -1.5422
 2275SOL     OW18286   0.505   1.083  10.350  0.3747  0.6801 -0.2756
 2275SOL    HW118287   0.498   1.051  10.260 -0.8630 -0.3996  0.2165
 2275SOL    HW218288   0.595   1.115  10.363 -0.3001  1.4565  2.3365
 2276SOL     OW18289   2.946   2.394   4.301 -0.9949  0.1653 -0.0721
 2276SOL    HW118290   2.969   2.303   4.280 -1.9619 -0.4617  1.6306
 2276SOL    HW218291   3.035   2.427   4.315 -0.5757 -0.8355 -0.3403
 2277SOL     OW18292   3.120   0.325   3.101  0.1088  0.3638 -0.4236
 2277SOL    HW118293   3.105   0.413   3.066  1.3019  0.9462  0.5066
 2277SOL    HW218294   3.042   0.318   3.157  1.7116  0.4434  1.8338
 2278SOL     OW18295   2.429   2.589  15.497  0.0799  0.1775  0.2218
 2278SOL    HW118296   2.348   2.640  15.500 -0.4041 -0.5172 -0.8763
 2278SOL    HW218297   2.416   2.536  15.418  0.2840  0.4126  0.0341
 2279SOL     OW18298   3.691   1.128   0.593  0.1773 -0.2026  0.1100
 2279SOL    HW118299   3.617   1.134   0.531  2.4928  1.1932 -2.5293
 2279SOL    HW218300   3.653   1.099   0.675 -1.4215 -2.6526 -1.4786
 2280SOL     OW18301   4.667   4.369   3.301  0.3178 -0.0063 -0.4261
 2280SOL    HW118302   4.684   4.312   3.226 -0.8862 -0.8923 -0.0342
 2280SOL    HW218303   4.696   4.455   3.270  1.8217  0.0708  1.2450
 2281SOL     OW18304   3.951   2.455   6.573  0.2596  0.2081  0.2556
 2281SOL    HW118305   3.896   2.475   6.498  2.2384 -0.2720 -1.3222
 2281SOL    HW218306   4.008   2.390   6.531 -0.1714 -0.5175  0.7948
 2282SOL     OW18307   2.707   2.330  13.067  0.1080  0.6565 -0.2523
 2282SOL    HW118308   2.654   2.301  13.141 -0.0430  1.1155 -0.1799
 2282SOL    HW218309   2.722   2.246  13.024  3.8888  0.6644  1.0608
 2283SOL     OW18310   4.143   1.671   2.606  0.1506  0.4351  0.5320
 2283SOL    HW118311   4.071   1.626   2.651  0.6304 -0.5706  0.2902
 2283SOL    HW218312   4.090   1.716   2.539  1.2934  2.5598  1.0578
 2284SOL     OW18313   0.884   0.795   7.202  0.3468 -0.8532 -0.8641
 2284SOL    HW118314   0.825   0.747   7.144 -0.5192 -0.6047 -0.1866
 2284SOL    HW218315   0.848   0.789   7.291 -1.9138 -0.2561 -1.7346
 2285SOL     OW18316   1.392   2.879  10.163 -0.2781  0.1567 -0.2277
 2285SOL    HW118317   1.395   2.973  10.143 -1.3612  0.5961  1.6190
 2285SOL    HW218318   1.298   2.860  10.169  0.2927 -2.5671 -0.0930
 2286SOL     OW18319   4.138   3.749  15.879  0.3005  0.4670 -0.4358
 2286SOL    HW118320   4.088   3.681  15.835 -0.5030 -1.5214  3.4793
 2286SOL    HW218321   4.082   3.767  15.955 -0.3715 -2.5658 -0.2048
 2287SOL     OW18322   1.729   3.875   9.332  0.4281 -0.4239  0.7333
 2287SOL    HW118323   1.731   3.793   9.382  0.6476 -2.5033 -2.6093
 2287SOL    HW218324   1.727   3.942   9.400 -2.6488  0.1948  0.0546
 2288SOL     OW18325   2.864   2.888   6.822 -0.1878 -0.0487  0.0480
 2288SOL    HW118326   2.853   2.804   6.866  1.6902  0.3063  1.1675
 2288SOL    HW218327   2.776   2.903   6.788 -0.2978 -2.3001 -0.6221
 2289SOL     OW18328   1.012   0.798   0.231  0.4733 -0.5892 -0.1904
 2289SOL    HW118329   0.937   0.816   0.288  1.1559  0.3718  0.4111
 2289SOL    HW218330   1.007   0.871   0.169  1.0917 -1.1858 -0.9258
 2290SOL     OW18331   0.524   2.569   7.939 -0.0307 -0.6429 -0.6707
 2290SOL    HW118332   0.486   2.618   8.012 -0.3523 -0.6220 -0.8519
 2290SOL    HW218333   0.614   2.560   7.970 -0.2000 -0.1085 -0.0169
 2291SOL     OW18334   1.748   2.276  11.094 -0.0212 -0.7715 -0.2597
 2291SOL    HW118335   1.749   2.329  11.015  3.2250 -0.1801  0.1721
 2291SOL    HW218336   1.656   2.277  11.121  0.1925  1.3836  0.3784
 2292SOL     OW18337   4.667   2.198  15.349 -0.0070  0.1619 -0.0624
 2292SOL    HW118338   0.023   2.212  15.292  1.8010 -2.2736  1.7749
 2292SOL    HW218339   4.611   2.252  15.293 -0.2276  1.6148  1.5741
 2293SOL     OW18340   3.514   2.347   6.721  0.2489  0.3093 -0.1687
 2293SOL    HW118341   3.449   2.276   6.717 -1.4323  1.9176 -1.7814
 2293SOL    HW218342   3.458   2.424   6.708 -0.5881  0.0262  1.6870
 2294SOL     OW18343   4.089   1.806   1.396  0.3462 -0.1871 -0.2663
 2294SOL    HW118344   3.999   1.817   1.427  0.1904 -1.7713 -0.1669
 2294SOL    HW218345   4.113   1.720   1.431 -0.1344 -0.4209 -0.5024
 2295SOL     OW18346   2.514   4.415   6.852 -0.0660 -0.0972 -0.1988
 2295SOL    HW118347   2.590   4.359   6.864 -1.8038 -2.1332  1.4403
 2295SOL    HW218348   2.527   4.433   6.759  0.2799 -1.5985 -0.4451
 2296SOL     OW18349   1.299   0.361   7.911  0.2765 -0.3533 -0.3728
 2296SOL    HW118350   1.373   0.306   7.885 -0.0197 -1.1740  0.5335
 2296SOL    HW218351   1.349   0.435   7.945 -2.2859  1.1664  0.0727
 2297SOL     OW18352   1.127   0.001   6.770  0.3207 -0.0432  0.6006
 2297SOL    HW118353   1.092   4.715   6.858 -0.4533  0.9947  0.3549
 2297SOL    HW218354   1.050   4.707   6.714  2.0576  0.3185 -1.8998
 2298SOL     OW18355   2.019   2.466  15.049  0.1808 -0.2016  0.3011
 2298SOL    HW118356   1.927   2.441  15.050  0.2050 -0.3686 -1.7340
 2298SOL    HW218357   2.058   2.404  15.110  0.2476 -1.5401 -1.1140
 2299SOL     OW18358   2.616   1.065  13.135  0.5434  0.7885  0.0200
 2299SOL    HW118359   2.689   1.088  13.192 -0.2320  2.2893  0.3978
 2299SOL    HW218360   2.620   0.969  13.135 -0.1956  0.7461  3.4633
 2300SOL     OW18361   0.422   4.081  17.387  0.6811  0.1419  0.4447
 2300SOL    HW118362   0.490   4.030  17.430  0.9653 -0.1037 -0.3031
 2300SOL    HW218363   0.477   4.126  17.323 -0.4703  0.8731 -0.0334
 2301SOL     OW18364   0.158   2.915   8.253 -0.2259 -0.2132  0.2557
 2301SOL    HW118365   0.177   2.924   8.159 -2.5733  0.2257 -0.1759
 2301SOL    HW218366   0.160   2.821   8.266 -0.6207 -0.2047  0.3673
 2302SOL     OW18367   4.021   0.764   8.408  0.5480  0.2612  0.5020
 2302SOL    HW118368   4.107   0.728   8.388 -0.7744 -0.9767 -2.9292
 2302SOL    HW218369   4.052   0.818   8.481  0.8380 -2.2221  2.2134
 2303SOL     OW18370   2.299   0.570   5.555  0.4370  0.1178 -0.3306
 2303SOL    HW118371   2.291   0.623   5.634  2.9861 -0.3554  0.2121
 2303SOL    HW218372   2.364   0.620   5.505 -0.7182 -1.5260 -3.4892
 2304SOL     OW18373   4.681   0.944   8.654  0.3845 -0.8959  0.3909
 2304SOL    HW118374   4.710   0.932   8.563 -0.4007  0.6281 -0.0469
 2304SOL    HW218375   4.611   1.006   8.637 -1.2212 -2.7371  0.2586
 2305SOL     OW18376   2.800   0.594   6.803 -0.0925 -0.3943 -0.1913
 2305SOL    HW118377   2.819   0.500   6.799  1.8220 -0.0271  0.6623
 2305SOL    HW218378   2.782   0.610   6.896 -1.0900 -1.8938 -0.1332
 2306SOL     OW18379   4.259   0.543   2.302 -0.3714 -0.2064 -0.1668
 2306SOL    HW118380   4.186   0.605   2.309  0.1640  0.5447 -1.2742
 2306SOL    HW218381   4.254   0.516   2.210 -0.3298  0.6495 -0.4243
 2307SOL     OW18382   1.968   1.474   4.048 -0.2725  0.5229 -0.0855
 2307SOL    HW118383   2.022   1.459   3.971 -2.1221 -0.2618 -1.2515
 2307SOL    HW218384   1.886   1.491   4.002 -0.4302 -2.0130 -0.7655
 2308SOL     OW18385   0.093   2.512   4.308 -0.1101  0.0213 -0.2627
 2308SOL    HW118386   0.104   2.607   4.296 -1.1046  0.2984  1.1506
 2308SOL    HW218387   0.157   2.489   4.376 -1.1718  2.2207  1.4576
 2309SOL     OW18388   0.464   3.708   8.388  0.1498  0.3109 -0.5463
 2309SOL    HW118389   0.423   3.653   8.454  0.4903 -0.2866 -0.8311
 2309SOL    HW218390   0.392   3.770   8.378  0.6226  1.2493  1.9583
 2310SOL     OW18391   1.102   0.333   8.766 -0.0449  0.3026  0.6251
 2310SOL    HW118392   1.090   0.388   8.843 -1.3264 -0.3435  0.8924
 2310SOL    HW218393   1.047   0.255   8.779  0.0062 -0.0208 -1.1017
 2311SOL     OW18394   1.771   1.603  13.271 -0.4166  0.0144 -0.1394
 2311SOL    HW118395   1.834   1.559  13.326  0.8073  1.6384 -0.2402
 2311SOL    HW218396   1.796   1.576  13.183  0.5491  1.6062 -0.3561
 2312SOL     OW18397   3.916   2.609  11.931 -0.1808  0.5042 -0.1583
 2312SOL    HW118398   3.875   2.603  11.845 -1.0679 -0.8501  0.3582
 2312SOL    HW218399   3.883   2.694  11.963 -0.7391  0.9184 -1.8662
 2313SOL     OW18400   4.009   3.193   2.573  0.8153  0.2268  0.1348
 2313SOL    HW118401   3.960   3.118   2.605  0.9116  0.2119  0.2493
 2313SOL    HW218402   3.965   3.219   2.492  0.0808  0.3223  0.5676
 2314SOL     OW18403   3.865   3.981   4.626 -0.4796  0.0958 -0.2540
 2314SOL    HW118404   3.940   3.981   4.566  0.7445 -1.9467  1.2759
 2314SOL    HW218405   3.816   3.900   4.609  1.1937 -0.2007 -3.7798
 2315SOL     OW18406   2.780   3.059  14.881 -0.2310  0.3382  0.0071
 2315SOL    HW118407   2.766   3.129  14.945  1.7023 -0.3665  1.2021
 2315SOL    HW218408   2.834   3.100  14.814 -1.2362  1.4328 -0.1348
 2316SOL     OW18409   1.720   1.146   9.948  0.0031 -0.3779 -0.3893
 2316SOL    HW118410   1.812   1.149   9.923  0.1963 -0.1340  0.3520
 2316SOL    HW218411   1.680   1.206   9.885  0.1516  0.1994  0.0561
 2317SOL     OW18412   2.100   0.393   4.388 -0.1029  0.0196  0.6610
 2317SOL    HW118413   2.159   0.467   4.375  1.5227 -1.2553  0.7455
 2317SOL    HW218414   2.148   0.341   4.452 -2.6182 -1.3271  1.4728
 2318SOL     OW18415   1.967   3.766  13.742  0.9119 -0.1275 -0.2830
 2318SOL    HW118416   1.933   3.714  13.815  2.1658 -0.1840  0.2542
 2318SOL    HW218417   1.924   3.703  13.683  3.1921 -3.0795  1.2356
 2319SOL     OW18418   4.089   2.681   2.200 -0.2281  0.1791 -0.4946
 2319SOL    HW118419   4.075   2.768   2.162 -0.6889  1.8421  3.5211
 2319SOL    HW218420   4.033   2.624   2.147 -1.3159 -0.4451  1.3485
 2320SOL     OW18421   2.987   2.277   6.883 -0.2827 -0.7854  0.3999
 2320SOL    HW118422   2.898   2.245   6.900 -0.7855  1.0366  1.2316
 2320SOL    HW218423   2.965   2.342   6.815  1.2515 -0.9244 -0.2257
 2321SOL     OW18424   2.685   0.636   5.683  0.0615  0.8949 -0.1654
 2321SOL    HW118425   2.656   0.572   5.618 -3.5000  0.4569  1.8748
 2321SOL    HW218426   2.665   0.591   5.765 -2.3678 -1.5861 -2.1087
 2322SOL     OW18427   0.253   1.435   6.230  0.1761 -0.3903 -0.6848
 2322SOL    HW118428   0.336   1.436   6.181 -0.6800 -2.6412 -2.1600
 2322SOL    HW218429   0.225   1.347   6.205 -0.8847 -0.1903 -0.1935
 2323SOL     OW18430   0.879   3.913   7.679  0.3682 -0.3406 -0.3822
 2323SOL    HW118431   0.910   3.989   7.630 -0.0547  0.3735  0.4540
 2323SOL    HW218432   0.948   3.916   7.745  0.3069  0.7273 -0.3693
 2324SOL     OW18433   0.936   0.158  12.391  0.5904  0.0611 -0.1943
 2324SOL    HW118434   0.993   0.081  12.396 -1.0722 -1.0409  1.5801
 2324SOL    HW218435   0.987   0.224  12.345 -0.5538  1.8678  1.1505
 2325SOL     OW18436   4.094   3.873   8.789 -0.1450 -0.3055  0.3150
 2325SOL    HW118437   4.087   3.877   8.884 -6.0930  0.0546 -0.1283
 2325SOL    HW218438   4.076   3.966   8.779 -1.5924 -0.3651  2.3537
 2326SOL     OW18439   4.374   0.880   9.585  0.2757  0.3732  0.6476
 2326SOL    HW118440   4.293   0.908   9.541 -0.4928  1.2026  2.5479
 2326SOL    HW218441   4.429   0.953   9.555  0.8109 -0.1828  0.2835
 2327SOL     OW18442   0.165   0.074  15.964 -1.0890 -0.3689 -0.2437
 2327SOL    HW118443   0.204   0.084  15.878 -1.1025  3.1742  0.1612
 2327SOL    HW218444   0.149   0.165  15.990 -0.8447  0.3068 -2.4860
 2328SOL     OW18445   0.128   0.498  11.647 -0.2892  0.2051  0.3891
 2328SOL    HW118446   0.121   0.405  11.624  3.0677 -0.4011  1.7383
 2328SOL    HW218447   0.137   0.543  11.563  0.1301 -1.5517 -0.5050
 2329SOL     OW18448   3.882   1.712   4.601 -0.0857  0.3008 -0.4074
 2329SOL    HW118449   3.891   1.760   4.684 -2.9516  0.3447 -0.1046
 2329SOL    HW218450   3.973   1.686   4.596  0.4251  1.5109  2.4489
 2330SOL     OW18451   1.304   1.927   2.350  0.2926 -0.6592  0.5249
 2330SOL    HW118452   1.304   1.904   2.443 -2.3934  0.4300  0.8031
 2330SOL    HW218453   1.238   1.869   2.312 -1.2986  1.6784 -0.2988
 2331SOL     OW18454   3.133   3.621   0.948  0.0058 -0.0805 -0.1023
 2331SOL    HW118455   3.165   3.595   1.034 -0.9005  0.2708  0.3471
 2331SOL    HW218456   3.199   3.678   0.908  0.6770  0.4722  1.7993
 2332SOL     OW18457   3.289   0.277  15.782  0.7164  0.0952 -0.5439
 2332SOL    HW118458   3.324   0.286  15.694 -0.4136 -0.6101 -1.0545
 2332SOL    HW218459   3.195   0.295  15.778  0.5240 -0.5215  0.8930
 2333SOL     OW18460   4.345   2.194   8.712 -0.0710  0.2417  0.0827
 2333SOL    HW118461   4.371   2.260   8.647 -0.0090 -1.0536 -1.2155
 2333SOL    HW218462   4.277   2.144   8.667 -0.1758 -1.5671  2.2620
 2334SOL     OW18463   4.623   4.670   5.592 -0.8722 -0.2403  0.0257
 2334SOL    HW118464   4.656   0.031   5.552  1.5790 -0.2690  1.9667
 2334SOL    HW218465   4.611   4.613   5.516 -0.9715  1.0187 -0.8928
 2335SOL     OW18466   3.014   0.496   7.084  0.3082 -0.2831  0.0854
 2335SOL    HW118467   3.080   0.559   7.112  0.4468  0.9014 -2.9796
 2335SOL    HW218468   2.959   0.492   7.162  1.4733 -0.8373  0.8835
 2336SOL     OW18469   2.622   2.968  10.649 -0.1144  0.1991  0.5206
 2336SOL    HW118470   2.533   2.950  10.680  0.2328  0.3004  1.5560
 2336SOL    HW218471   2.655   2.878  10.647  0.1849  0.3400 -1.1582
 2337SOL     OW18472   3.499   3.408   5.021  0.5069 -0.5269  0.1049
 2337SOL    HW118473   3.592   3.389   5.007  1.0200  0.4607  2.2899
 2337SOL    HW218474   3.478   3.468   4.949 -1.0167 -3.0020 -1.5016
 2338SOL     OW18475   2.852   3.324   5.135 -0.1160 -0.1074 -0.2803
 2338SOL    HW118476   2.765   3.301   5.169 -0.0469  0.0206 -0.0122
 2338SOL    HW218477   2.910   3.283   5.199  0.0779 -1.7128 -1.4809
 2339SOL     OW18478   3.897   1.762   1.595  0.3445  0.4868 -0.0612
 2339SOL    HW118479   3.826   1.725   1.646  1.9350 -2.0456  0.3414
 2339SOL    HW218480   3.975   1.738   1.646 -0.8724 -1.9543  0.6611
 2340SOL     OW18481   2.096   1.105   5.121 -0.4559  0.0337  0.3596
 2340SOL    HW118482   2.106   1.013   5.146  0.3711  0.4723  1.6568
 2340SOL    HW218483   2.107   1.106   5.026  1.2793 -0.3462  0.5549
 2341SOL     OW18484   1.558   1.636   6.586  0.1833 -0.0946  0.2577
 2341SOL    HW118485   1.569   1.553   6.633 -0.2656 -0.8902 -1.0336
 2341SOL    HW218486   1.653   1.650   6.581  0.1384  0.2090  0.2629
 2342SOL     OW18487   3.563   3.779  14.213  0.7366  0.4073 -0.0558
 2342SOL    HW118488   3.509   3.857  14.199 -1.4618 -1.1805 -0.5502
 2342SOL    HW218489   3.618   3.779  14.135 -1.1324 -0.7658 -1.3840
 2343SOL     OW18490   4.125   3.330   4.203  0.4130  0.5416 -0.1152
 2343SOL    HW118491   4.160   3.351   4.290 -0.5150 -3.0808  1.1385
 2343SOL    HW218492   4.051   3.284   4.243 -0.6894  1.1801 -1.4542
 2344SOL     OW18493   1.345   2.466   2.237  0.3677  0.5583  0.0191
 2344SOL    HW118494   1.317   2.450   2.146  0.3512 -1.3248  0.3613
 2344SOL    HW218495   1.289   2.401   2.280  2.6593 -1.6112 -0.2497
 2345SOL     OW18496   0.393   4.172   3.229  0.3602  0.4128 -0.0700
 2345SOL    HW118497   0.308   4.203   3.198 -0.7498 -0.1951  2.3403
 2345SOL    HW218498   0.450   4.248   3.217 -0.5873  1.1022 -0.1862
 2346SOL     OW18499   2.153   4.558   7.179 -0.5439 -0.0935 -0.1860
 2346SOL    HW118500   2.198   4.528   7.100 -2.4477 -2.0325 -0.5307
 2346SOL    HW218501   2.228   4.578   7.236 -0.1944 -0.8166 -0.3934
 2347SOL     OW18502   1.562   2.450   1.512  0.2577 -0.4927  0.1548
 2347SOL    HW118503   1.569   2.535   1.468  0.0959 -0.0086  1.0800
 2347SOL    HW218504   1.629   2.465   1.578  2.4482  1.6663 -2.5806
 2348SOL     OW18505   3.576   3.737  12.797 -0.2838 -0.6200  0.3063
 2348SOL    HW118506   3.652   3.780  12.836  0.0035 -1.6268  0.8569
 2348SOL    HW218507   3.621   3.655  12.776 -0.4679 -0.7939  0.5912
 2349SOL     OW18508   3.167   1.399   8.905 -0.2073  0.4082  0.2619
 2349SOL    HW118509   3.222   1.334   8.860 -0.1545 -0.0870  1.0545
 2349SOL    HW218510   3.221   1.476   8.883 -1.7897  1.4374 -0.0229
 2350SOL     OW18511   2.675   2.585   5.625  0.4449 -0.2828  0.5422
 2350SOL    HW118512   2.755   2.635   5.604  0.6552 -0.0528  1.9238
 2350SOL    HW218513   2.654   2.602   5.716  1.0041 -1.8257  0.9552
 2351SOL     OW18514   1.734   2.302   7.697 -0.4561 -0.4109 -0.0007
 2351SOL    HW118515   1.805   2.335   7.752 -0.3892 -0.1608 -0.2383
 2351SOL    HW218516   1.785   2.276   7.620  1.0663 -1.4779  1.3757
 2352SOL     OW18517   3.431   1.596  14.567 -0.4252 -0.0543 -0.0166
 2352SOL    HW118518   3.445   1.691  14.576  1.2902 -0.2180 -1.0921
 2352SOL    HW218519   3.491   1.579  14.494  0.3074  0.7772  0.3913
 2353SOL     OW18520   0.644   4.437  16.764  0.1897 -0.0638  0.5070
 2353SOL    HW118521   0.571   4.447  16.825  0.2516  2.6589  0.1441
 2353SOL    HW218522   0.627   4.514  16.708  1.1690  1.9988  3.0638
 2354SOL     OW18523   2.859   4.027   7.518  0.0942  0.2847  0.1501
 2354SOL    HW118524   2.901   3.945   7.545 -1.8039 -1.4450 -2.1198
 2354SOL    HW218525   2.918   4.084   7.567 -1.6244  0.5112  1.9534
 2355SOL     OW18526   1.384   4.548  15.104 -0.6127  0.2408 -0.2511
 2355SOL    HW118527   1.398   4.609  15.176 -0.5580  1.4795 -1.3092
 2355SOL    HW218528   1.333   4.485  15.155 -0.8452 -0.8511 -1.8414
 2356SOL     OW18529   3.435   1.833   6.225  0.5542 -0.4058 -0.2920
 2356SOL    HW118530   3.410   1.912   6.273 -0.9314  0.0995 -1.8972
 2356SOL    HW218531   3.410   1.764   6.286  2.5552 -1.3540 -0.5482
 2357SOL     OW18532   4.162   2.718   8.345  0.5783  0.0674  0.1807
 2357SOL    HW118533   4.084   2.725   8.400  0.4729  1.2314 -0.1151
 2357SOL    HW218534   4.172   2.800   8.296  1.9025 -1.5889 -2.3142
 2358SOL     OW18535   1.555   2.852   2.440 -0.2935  0.6756  0.4930
 2358SOL    HW118536   1.620   2.828   2.507  1.1405  1.7478 -0.4925
 2358SOL    HW218537   1.505   2.921   2.483 -0.6946  1.2687 -0.9060
 2359SOL     OW18538   3.503   0.354   2.710  0.5691  0.4839  0.1286
 2359SOL    HW118539   3.471   0.414   2.643  2.0642  0.7313 -0.3672
 2359SOL    HW218540   3.433   0.344   2.774  0.8612  0.4911  0.4499
 2360SOL     OW18541   1.698   3.607   2.084  0.0548  0.0664  0.0132
 2360SOL    HW118542   1.633   3.658   2.036 -0.6207 -1.6562 -0.8679
 2360SOL    HW218543   1.754   3.678   2.116  0.3755 -0.2954  0.2509
 2361SOL     OW18544   0.103   2.943   5.181 -0.2505 -0.5321  0.6322
 2361SOL    HW118545   0.039   2.981   5.120  1.3829 -0.9752 -1.3397
 2361SOL    HW218546   0.172   3.008   5.168 -1.3180  0.3432 -0.6325
 2362SOL     OW18547   2.358   2.218   1.506 -0.9218 -0.1424  0.3227
 2362SOL    HW118548   2.422   2.249   1.443 -0.5082 -0.2694  0.6745
 2362SOL    HW218549   2.319   2.153   1.448  1.3084 -1.3921  0.2417
 2363SOL     OW18550   1.379   2.216   5.556 -0.8773  0.5586 -0.0698
 2363SOL    HW118551   1.404   2.309   5.556  0.7362  0.1334 -1.0323
 2363SOL    HW218552   1.400   2.185   5.467 -0.2109 -0.0362  0.2944
 2364SOL     OW18553   3.795   0.507   6.040 -0.3527 -0.2842  0.2872
 2364SOL    HW118554   3.777   0.601   6.042 -1.4139 -0.4424 -2.5266
 2364SOL    HW218555   3.852   0.487   5.966  0.2326  1.9054  0.1396
 2365SOL     OW18556   3.271   0.401   2.838 -0.1884 -0.0823 -0.1540
 2365SOL    HW118557   3.208   0.378   2.770 -1.1385 -1.9747  1.3830
 2365SOL    HW218558   3.225   0.462   2.895 -1.1007  0.2425 -1.2396
 2366SOL     OW18559   0.231   1.540   2.183  0.3084  0.0292  0.0040
 2366SOL    HW118560   0.156   1.599   2.199  2.3686  2.6226  0.0998
 2366SOL    HW218561   0.250   1.515   2.273 -3.7944 -4.0094 -0.2215
 2367SOL     OW18562   1.327   4.180   8.714  0.3326  0.3895 -0.0063
 2367SOL    HW118563   1.250   4.132   8.742  1.1600 -2.6454 -2.8099
 2367SOL    HW218564   1.375   4.214   8.789 -1.0801 -0.6892  1.3715
 2368SOL     OW18565   2.299   0.256   4.016  0.1249 -0.5491 -0.0224
 2368SOL    HW118566   2.250   0.229   4.094 -0.3510  1.6333  0.4414
 2368SOL    HW218567   2.328   0.342   4.046  2.6942 -1.3956 -0.1128
 2369SOL     OW18568   1.292   0.746  15.177 -0.1274 -0.4754 -0.3432
 2369SOL    HW118569   1.309   0.764  15.270 -0.7346  1.6081 -0.6489
 2369SOL    HW218570   1.383   0.730  15.154  0.3797  1.6200  0.1911
 2370SOL     OW18571   3.247   1.201   6.635  0.0929 -0.2302  0.1139
 2370SOL    HW118572   3.205   1.210   6.721  0.1822 -0.9138  0.2255
 2370SOL    HW218573   3.224   1.111   6.616  1.9265 -0.3161 -1.6214
 2371SOL     OW18574   4.064   2.616   3.331  0.2006 -0.1906 -0.8456
 2371SOL    HW118575   4.058   2.711   3.341  1.5352 -0.2633  0.7050
 2371SOL    HW218576   4.075   2.595   3.239  1.2987  1.2886 -1.0478
 2372SOL     OW18577   2.792   0.305   4.579 -0.2959  0.1311  0.0872
 2372SOL    HW118578   2.802   0.394   4.613  1.2113  0.4790 -1.2774
 2372SOL    HW218579   2.754   0.258   4.654 -1.2003  0.9565  0.1337
 2373SOL     OW18580   3.231   4.296   1.064 -0.0952  0.3625 -0.1645
 2373SOL    HW118581   3.211   4.278   1.156  0.2803 -0.8572 -0.3248
 2373SOL    HW218582   3.147   4.331   1.035  0.0961  2.2040  1.5120
 2374SOL     OW18583   0.955   3.242   6.898 -0.8366 -0.2476  0.1895
 2374SOL    HW118584   1.044   3.219   6.927 -1.3690 -0.9425  1.2666
 2374SOL    HW218585   0.961   3.224   6.804  2.1608  3.4104 -0.3497
 2375SOL     OW18586   0.404   1.155   0.818 -0.3465  0.0301  0.5223
 2375SOL    HW118587   0.412   1.120   0.907  0.1386 -1.0459  0.0634
 2375SOL    HW218588   0.403   1.074   0.767 -1.3536  0.3945 -0.0332
 2376SOL     OW18589   0.295   0.693   3.175  0.4606 -0.0156  0.2072
 2376SOL    HW118590   0.287   0.609   3.220  2.0180  0.8583  2.1090
 2376SOL    HW218591   0.302   0.746   3.254  0.2416 -0.8980  0.8148
 2377SOL     OW18592   0.602   0.567   2.536  0.1019 -0.4105 -0.3660
 2377SOL    HW118593   0.617   0.497   2.472 -1.1913 -0.4132 -0.6701
 2377SOL    HW218594   0.675   0.623   2.510  1.9540 -1.7567  1.8964
 2378SOL     OW18595   2.779   2.791   1.874  0.2574  0.2597 -0.3672
 2378SOL    HW118596   2.695   2.746   1.871  1.0573 -1.2149 -0.6200
 2378SOL    HW218597   2.749   2.879   1.852 -1.9644 -0.6382 -0.9077
 2379SOL     OW18598   0.576   2.444   3.900  0.3279  0.0177 -0.1520
 2379SOL    HW118599   0.665   2.476   3.916 -0.2694  1.8461 -0.5436
 2379SOL    HW218600   0.547   2.417   3.987 -1.2632 -1.4713 -1.1502
 2380SOL     OW18601   3.467   1.952   1.947  0.2462 -0.4979  0.1028
 2380SOL    HW118602   3.380   1.991   1.957 -1.2218 -3.4332 -1.2551
 2380SOL    HW218603   3.479   1.922   1.857  0.5837  0.0981 -0.0525
 2381SOL     OW18604   2.408   0.245   5.793  0.4664  0.2903  0.6648
 2381SOL    HW118605   2.501   0.257   5.775  0.0929 -1.1924 -2.2324
 2381SOL    HW218606   2.394   0.152   5.775  2.9224  0.3166 -1.2821
 2382SOL     OW18607   2.373   4.628   8.967 -0.0885  0.2278 -0.0438
 2382SOL    HW118608   2.394   4.690   9.037  1.1523  1.3050 -1.3573
 2382SOL    HW218609   2.279   4.634   8.948  0.3330  0.9670 -1.9331
 2383SOL     OW18610   3.600   0.992  17.272  0.0557 -0.2889 -0.3414
 2383SOL    HW118611   3.638   1.025  17.354 -0.2957 -0.3096 -0.1700
 2383SOL    HW218612   3.561   1.074  17.245 -0.2450 -0.8539 -1.5988
 2384SOL     OW18613   4.591   2.084   7.807  0.2669  0.1026 -0.4340
 2384SOL    HW118614   4.669   2.069   7.860 -0.5060 -0.9802  0.4031
 2384SOL    HW218615   4.552   2.163   7.844  1.2460  0.9029 -1.1076
 2385SOL     OW18616   1.660   0.210   8.400  0.0311 -0.1088 -0.3798
 2385SOL    HW118617   1.649   0.301   8.373  1.6998 -0.2170 -1.4034
 2385SOL    HW218618   1.650   0.165   8.317  1.1590  0.6766 -0.9506
 2386SOL     OW18619   3.157   4.325   9.244 -0.2887 -0.0612 -0.1698
 2386SOL    HW118620   3.120   4.409   9.271  0.0387  0.2778 -0.7816
 2386SOL    HW218621   3.220   4.315   9.314  0.0360 -0.3782 -0.5054
 2387SOL     OW18622   4.657   0.096   2.784 -0.1618  0.1432  0.0531
 2387SOL    HW118623   4.690   0.136   2.703 -2.4535  2.4930  0.2884
 2387SOL    HW218624   4.566   0.125   2.790 -0.3709 -0.2298 -1.3558
 2388SOL     OW18625   2.914   3.633   1.835  0.4910  0.0666  0.0103
 2388SOL    HW118626   2.985   3.595   1.783 -0.1328 -2.9553  1.3578
 2388SOL    HW218627   2.959   3.687   1.900  1.4617  0.2751 -0.8265
 2389SOL     OW18628   1.947   2.781   5.865 -0.3444 -0.6125 -0.0417
 2389SOL    HW118629   1.859   2.745   5.870 -1.2182  1.9114  2.4932
 2389SOL    HW218630   1.931   2.864   5.819 -0.2692 -0.1433  0.7743
 2390SOL     OW18631   2.153   4.336   2.144 -0.9086 -0.2830 -0.0693
 2390SOL    HW118632   2.074   4.345   2.090 -0.5970  2.3067 -0.0829
 2390SOL    HW218633   2.213   4.392   2.095 -1.3284  1.6324  1.6342
 2391SOL     OW18634   4.289   0.869   7.770  0.3715 -0.0616  1.0205
 2391SOL    HW118635   4.228   0.942   7.763  1.3414  0.5301 -1.4152
 2391SOL    HW218636   4.286   0.836   7.680 -1.8948  0.2092  1.0031
 2392SOL     OW18637   1.709   2.388  12.477 -0.2863 -0.3334 -0.0075
 2392SOL    HW118638   1.775   2.449  12.511 -0.4504 -0.7533  1.0550
 2392SOL    HW218639   1.640   2.449  12.450 -0.6888  0.2372  2.3531
 2393SOL     OW18640   3.089   0.731  16.937  0.0408 -0.3664 -0.6351
 2393SOL    HW118641   3.119   0.805  16.989 -2.1186 -0.2910  0.5173
 2393SOL    HW218642   3.006   0.769  16.909  1.1462  1.9021 -0.8482
 2394SOL     OW18643   0.799   0.214  11.190 -0.1363  0.2584  0.8232
 2394SOL    HW118644   0.861   0.162  11.242  0.0179 -0.1394  0.2376
 2394SOL    HW218645   0.725   0.155  11.182  1.9548 -2.2770  0.0040
 2395SOL     OW18646   0.731   2.429   8.100 -0.1312 -0.4658 -0.0769
 2395SOL    HW118647   0.802   2.486   8.129 -0.9979  0.3814  0.3544
 2395SOL    HW218648   0.705   2.389   8.184  0.3880  2.4112  1.4320
 2396SOL     OW18649   4.048   1.792   2.848  0.0239 -0.3856  0.5715
 2396SOL    HW118650   3.995   1.839   2.912  0.4615 -0.5672  1.0596
 2396SOL    HW218651   3.994   1.717   2.823 -0.8793 -0.1681  1.9138
 2397SOL     OW18652   1.696   3.844   9.838  0.2074 -0.3763 -0.0928
 2397SOL    HW118653   1.656   3.885   9.915  1.7527 -0.9540  1.0139
 2397SOL    HW218654   1.627   3.779   9.827  0.4115 -0.8341  1.4629
 2398SOL     OW18655   1.108   3.646   3.036  0.1892 -0.1098  0.4922
 2398SOL    HW118656   1.034   3.705   3.019 -0.9604 -0.6986  3.4497
 2398SOL    HW218657   1.179   3.707   3.018  1.8210 -1.6824  1.7073
 2399SOL     OW18658   0.443   2.659   6.539 -0.2939 -0.1714 -0.2218
 2399SOL    HW118659   0.484   2.745   6.550 -1.7252  0.3070  1.2842
 2399SOL    HW218660   0.402   2.643   6.624  0.3523 -2.5871 -0.3420
 2400SOL     OW18661   1.006   0.780  11.519 -0.7837 -0.6405  0.3286
 2400SOL    HW118662   1.093   0.740  11.510 -0.1114  0.8418  0.1551
 2400SOL    HW218663   1.017   0.852  11.581  1.8671 -0.3653 -0.4337
 2401SOL     OW18664   3.977   0.718   4.099 -0.7980  0.4904 -0.8161
 2401SOL    HW118665   4.001   0.791   4.154 -0.0949 -0.2367 -0.1608
 2401SOL    HW218666   4.043   0.651   4.116  0.8959  2.0762 -1.2156
 2402SOL     OW18667   2.010   0.811   8.157 -0.4532 -0.1621  0.0538
 2402SOL    HW118668   2.080   0.816   8.222 -2.0939 -1.1967  1.9284
 2402SOL    HW218669   1.965   0.737   8.199  1.6817 -1.3842  0.2011
 2403SOL     OW18670   3.733   0.136   7.121  0.4084 -0.1081  0.0893
 2403SOL    HW118671   3.760   0.198   7.189 -0.5612  1.1785 -0.6947
 2403SOL    HW218672   3.645   0.116   7.154  0.3151 -1.5902 -1.0656
 2404SOL     OW18673   1.803   4.352   9.392 -0.0580 -0.4544  0.1229
 2404SOL    HW118674   1.852   4.368   9.472  0.1362  0.3619 -0.1533
 2404SOL    HW218675   1.770   4.265   9.412 -3.7056  0.4369 -2.0318
 2405SOL     OW18676   1.295   0.791   4.357  0.0883  0.5706 -0.1116
 2405SOL    HW118677   1.215   0.833   4.326 -0.6146 -2.2753 -2.1958
 2405SOL    HW218678   1.317   0.851   4.428  2.7263  1.2602 -1.5431
 2406SOL     OW18679   3.844   1.355   0.013  0.6304  0.3611 -0.2068
 2406SOL    HW118680   3.860   1.261   0.013 -0.9273  0.0902  1.8926
 2406SOL    HW218681   3.876   1.392   0.095  0.8368  1.9065 -0.9855
 2407SOL     OW18682   1.563   3.531   5.574 -0.2211 -0.1535 -0.1321
 2407SOL    HW118683   1.637   3.573   5.618 -1.1095 -0.6319  1.8082
 2407SOL    HW218684   1.495   3.530   5.641  0.2106  0.5324  0.3170
 2408SOL     OW18685   0.029   3.024   8.550 -0.1890  0.4625  0.3002
 2408SOL    HW118686   4.690   3.061   8.617 -0.4225 -0.2559  0.4954
 2408SOL    HW218687   0.075   2.961   8.606 -0.9824  0.9629  1.5084
 2409SOL     OW18688   3.838   3.537   3.185 -0.0155 -0.5199  0.0621
 2409SOL    HW118689   3.926   3.514   3.212  0.0097  0.2950  0.6786
 2409SOL    HW218690   3.851   3.543   3.090 -3.3927 -2.6326 -0.5373
 2410SOL     OW18691   1.562   0.335   3.748  0.5696 -0.7608  0.6931
 2410SOL    HW118692   1.494   0.352   3.682  2.0869  1.6480 -0.2421
 2410SOL    HW218693   1.529   0.247   3.768 -0.2590 -0.7754 -0.7213
 2411SOL     OW18694   0.232   2.577  10.910  0.7894 -0.0914  0.5222
 2411SOL    HW118695   0.168   2.506  10.900 -0.2306  1.0814 -1.2194
 2411SOL    HW218696   0.184   2.633  10.971 -0.1852 -1.3737  0.9307
 2412SOL     OW18697   2.771   2.115  15.039  0.4008 -0.4568  0.1173
 2412SOL    HW118698   2.742   2.183  14.978  0.3898  1.4938  2.2843
 2412SOL    HW218699   2.748   2.037  14.989 -1.8841  0.2157  0.1326
 2413SOL     OW18700   1.308   1.131  13.324 -0.7266  0.0838  0.0954
 2413SOL    HW118701   1.308   1.129  13.228  0.8392  1.6741  0.0669
 2413SOL    HW218702   1.301   1.038  13.346 -0.6127  0.0195 -0.1400
 2414SOL     OW18703   2.767   2.118   1.022 -0.0407 -0.2951  0.2063
 2414SOL    HW118704   2.758   2.027   1.049 -4.0573  0.3162  1.0126
 2414SOL    HW218705   2.703   2.132   0.952  1.3174 -0.8186 -1.1327
 2415SOL     OW18706   2.830   4.081   5.419  0.4497  0.2561 -0.2017
 2415SOL    HW118707   2.852   4.171   5.394  1.2858  0.0229 -0.3074
 2415SOL    HW218708   2.749   4.071   5.368  0.8978 -1.6874 -0.5036
 2416SOL     OW18709   0.008   3.837   4.328 -0.1424  0.0768 -0.2177
 2416SOL    HW118710   0.049   3.802   4.407  1.9747 -1.1409 -1.8674
 2416SOL    HW218711   0.067   3.904   4.294  0.1218 -0.9290 -1.7790
 2417SOL     OW18712   1.325   4.183   7.615 -0.0484  0.2917  0.5234
 2417SOL    HW118713   1.233   4.167   7.636  0.2933 -0.6196  1.3350
 2417SOL    HW218714   1.337   4.278   7.618  1.0455  0.1072  2.5256
 2418SOL     OW18715   0.609   2.244  12.958  0.1542  0.2553  0.1041
 2418SOL    HW118716   0.516   2.265  12.956  0.1797 -0.0385 -3.4048
 2418SOL    HW218717   0.646   2.331  12.940 -0.7296  0.9524  1.6421
 2419SOL     OW18718   2.810   0.025   5.116 -0.0487 -0.4917  0.2446
 2419SOL    HW118719   2.742   4.705   5.062 -0.0357 -0.7975  0.4547
 2419SOL    HW218720   2.877   0.032   5.047  0.3164 -0.4513  0.6018
 2420SOL     OW18721   2.061   1.619   7.189 -0.2238 -0.6081 -0.6176
 2420SOL    HW118722   2.062   1.670   7.271  2.0648 -3.1061  0.9147
 2420SOL    HW218723   1.971   1.639   7.166 -1.2078 -0.9966  2.8151
 2421SOL     OW18724   1.332   1.644   9.784  0.1168  0.7578  0.4187
 2421SOL    HW118725   1.405   1.589   9.811 -1.0667 -0.9936  0.0775
 2421SOL    HW218726   1.259   1.592   9.818  1.5096 -1.2257  0.3768
 2422SOL     OW18727   4.217   1.729  14.552  0.4977 -0.1252 -0.8284
 2422SOL    HW118728   4.230   1.713  14.645 -0.5652  1.8580 -0.3518
 2422SOL    HW218729   4.274   1.657  14.525  0.8709 -0.1003 -0.1088
 2423SOL     OW18730   4.308   3.793  12.651 -0.0562  0.0446 -0.1993
 2423SOL    HW118731   4.345   3.757  12.732 -1.8685  1.3239  1.1990
 2423SOL    HW218732   4.329   3.724  12.588 -1.3182  0.2840 -0.8860
 2424SOL     OW18733   1.489   2.476   5.501 -0.1667 -0.1360  0.6514
 2424SOL    HW118734   1.414   2.527   5.530  0.5071  0.8954  0.6066
 2424SOL    HW218735   1.554   2.545   5.515 -1.1329  0.9768 -0.3123
 2425SOL     OW18736   1.408   0.661  15.703 -0.3876 -0.3406 -0.0296
 2425SOL    HW118737   1.340   0.596  15.687  0.3759 -0.6577 -1.9636
 2425SOL    HW218738   1.476   0.646  15.638  0.5896  2.7193  0.2594
 2426SOL     OW18739   4.699   3.081  15.402  0.3926  0.0767  0.4132
 2426SOL    HW118740   4.641   3.020  15.355 -0.2965  0.5706  0.6130
 2426SOL    HW218741   0.037   3.020  15.449  2.4831 -0.0195 -2.2472
 2427SOL     OW18742   2.220   0.894   8.682  0.5593  0.4306  0.5929
 2427SOL    HW118743   2.225   0.987   8.702  0.4628 -0.4388  4.6087
 2427SOL    HW218744   2.125   0.892   8.665  1.1803  1.5735 -3.0816
 2428SOL     OW18745   1.486   2.281  11.162 -0.0211 -0.1891  0.2579
 2428SOL    HW118746   1.426   2.256  11.092  1.1413  0.1664 -0.8471
 2428SOL    HW218747   1.448   2.220  11.227 -1.0111 -0.1266 -0.2591
 2429SOL     OW18748   0.759   0.887   1.947 -0.0343 -0.3428 -0.1546
 2429SOL    HW118749   0.831   0.932   1.903  0.9556 -3.4074 -1.6682
 2429SOL    HW218750   0.779   0.889   2.040  0.2633 -0.7596 -0.2092
 2430SOL     OW18751   3.397   4.096   1.628 -0.4299 -0.0448 -0.1216
 2430SOL    HW118752   3.348   4.031   1.678 -0.5364  0.4883  0.4683
 2430SOL    HW218753   3.466   4.040   1.592  0.2463  0.0010  1.1132
 2431SOL     OW18754   3.242   3.073   1.763  0.1755  0.2684 -0.1315
 2431SOL    HW118755   3.222   3.020   1.685 -1.1996 -0.7144  0.8944
 2431SOL    HW218756   3.255   3.008   1.832 -1.3087  1.0129  0.8393
 2432SOL     OW18757   3.712   1.253   7.256 -0.1639 -0.2494  0.0641
 2432SOL    HW118758   3.688   1.177   7.308  1.5624 -0.2924  0.7908
 2432SOL    HW218759   3.776   1.282   7.321  0.7736 -1.6478 -0.2233
 2433SOL     OW18760   2.493   4.657   1.799 -0.4532 -0.5120  1.0523
 2433SOL    HW118761   2.554   4.633   1.869 -0.9144 -0.4794  1.4647
 2433SOL    HW218762   2.556   4.674   1.729  0.3736  1.1055  2.2092
 2434SOL     OW18763   3.806   3.184  12.802 -0.5730  0.1791 -0.0048
 2434SOL    HW118764   3.742   3.248  12.832  0.0822  0.5710  0.5878
 2434SOL    HW218765   3.893   3.215  12.828 -0.7960  1.4107 -0.7271
 2435SOL     OW18766   1.981   1.692   6.865 -0.3211  0.4901 -0.5986
 2435SOL    HW118767   1.916   1.701   6.935  2.2070  0.4273  1.7534
 2435SOL    HW218768   2.017   1.608   6.895 -2.5545 -1.1544 -2.4972
 2436SOL     OW18769   3.855   1.461   8.451  0.3212 -0.1688 -0.7387
 2436SOL    HW118770   3.890   1.387   8.501  0.8931  1.0993  0.7402
 2436SOL    HW218771   3.762   1.448   8.473  0.5997 -0.0551  0.5495
 2437SOL     OW18772   3.568   0.867  10.887  0.3230  0.4967  0.3480
 2437SOL    HW118773   3.592   0.950  10.844  0.6715 -0.2964 -0.9893
 2437SOL    HW218774   3.613   0.801  10.834 -1.8231  0.1632 -1.0198
 2438SOL     OW18775   0.187   2.842  11.132  0.1032 -0.4077 -0.2394
 2438SOL    HW118776   0.199   2.882  11.045  2.3099  1.5417  0.9658
 2438SOL    HW218777   0.093   2.855  11.148  0.6925  3.0857  0.4354
 2439SOL     OW18778   4.462   0.191   8.150 -0.7911  0.5379  0.1494
 2439SOL    HW118779   4.443   0.097   8.150 -0.8887  0.5488  1.7385
 2439SOL    HW218780   4.375   0.231   8.148 -0.6560  0.8318  0.1905
 2440SOL     OW18781   4.557   2.245   0.604  0.9555 -0.2325 -0.1477
 2440SOL    HW118782   4.579   2.332   0.639 -0.2599  0.8672 -2.1117
 2440SOL    HW218783   4.621   2.235   0.534 -0.5865  0.8766 -1.7099
 2441SOL     OW18784   1.721   4.145   6.502 -0.1091  0.6655 -0.2207
 2441SOL    HW118785   1.706   4.094   6.422 -0.4776  2.2483 -1.1445
 2441SOL    HW218786   1.761   4.223   6.465 -2.2731  0.7835 -2.3361
 2442SOL     OW18787   4.534   0.898   5.546 -0.1024 -0.1186  0.3490
 2442SOL    HW118788   4.543   0.991   5.528  0.1847 -0.3349 -0.6175
 2442SOL    HW218789   4.549   0.901   5.641  3.7656  0.0156 -0.2853
 2443SOL     OW18790   4.412   2.367   8.516  0.0460  0.2393  0.2291
 2443SOL    HW118791   4.477   2.387   8.449 -0.3282 -2.6950 -0.9870
 2443SOL    HW218792   4.392   2.455   8.549 -0.5841 -0.4349  1.6122
 2444SOL     OW18793   1.489   2.748   3.162 -0.6913  0.0892  0.1871
 2444SOL    HW118794   1.524   2.683   3.101 -0.6717 -0.2732  0.5826
 2444SOL    HW218795   1.437   2.695   3.222  0.1156 -2.2896 -1.1955
 2445SOL     OW18796   3.943   1.421  11.541 -0.2435  0.1362  0.1455
 2445SOL    HW118797   3.954   1.328  11.558  0.9568  0.1119 -0.7358
 2445SOL    HW218798   4.025   1.439  11.495  0.6654 -2.7268  0.6714
 2446SOL     OW18799   4.362   4.307  10.662 -0.2091  0.3113 -0.1369
 2446SOL    HW118800   4.381   4.214  10.673  0.8337  0.5244 -0.1575
 2446SOL    HW218801   4.352   4.296  10.568 -0.1430 -0.1677 -0.0903
 2447SOL     OW18802   2.892   2.702   7.206 -0.0078 -0.8831  0.3746
 2447SOL    HW118803   2.850   2.688   7.121  1.9645  1.9154 -1.0461
 2447SOL    HW218804   2.957   2.770   7.189 -0.0712 -1.3187 -1.6198
 2448SOL     OW18805   3.211   2.284  15.334  0.0860  0.0944 -0.1540
 2448SOL    HW118806   3.257   2.338  15.269 -0.8172 -0.7056 -1.4561
 2448SOL    HW218807   3.168   2.358  15.378  2.1890  3.2744 -3.3802
 2449SOL     OW18808   2.695   1.832  14.230 -0.4567  0.1114  0.8802
 2449SOL    HW118809   2.750   1.789  14.296  0.3938  1.1275  0.8348
 2449SOL    HW218810   2.748   1.908  14.205  0.5155 -0.0058  2.5539
 2450SOL     OW18811   0.945   3.034  17.145  0.6361  0.0948  0.4532
 2450SOL    HW118812   0.963   2.972  17.074  1.3247 -0.3658  1.0130
 2450SOL    HW218813   0.851   3.044  17.134  0.8870  1.1897 -0.6187
 2451SOL     OW18814   0.255   2.540  15.365 -0.1937  0.7437  0.4994
 2451SOL    HW118815   0.179   2.493  15.399  2.1069 -1.8276  2.0613
 2451SOL    HW218816   0.287   2.578  15.446  0.5793 -0.1896  0.6250
 2452SOL     OW18817   3.275   4.099   5.595 -0.2293  0.1333 -0.1029
 2452SOL    HW118818   3.217   4.093   5.671  0.1790  1.7961  0.3519
 2452SOL    HW218819   3.361   4.073   5.629 -1.4499  0.0142  2.9267
 2453SOL     OW18820   2.984   4.356   1.247  0.9472 -0.3155  0.1735
 2453SOL    HW118821   2.988   4.452   1.239 -1.2364 -0.2445 -0.1865
 2453SOL    HW218822   2.952   4.339   1.336  2.9925  2.4194  1.4157
 2454SOL     OW18823   3.035   3.440   3.221 -0.2852  0.4256 -0.0626
 2454SOL    HW118824   3.087   3.519   3.207 -1.5037  1.2398  0.0014
 2454SOL    HW218825   2.980   3.441   3.143  1.8711  0.3340 -1.5663
 2455SOL     OW18826   4.409   4.210   4.141 -0.3395 -0.6447  0.1018
 2455SOL    HW118827   4.322   4.227   4.105 -0.9278  1.1146  2.3443
 2455SOL    HW218828   4.384   4.204   4.234  2.5799 -4.1281  0.6454
 2456SOL     OW18829   0.104   4.207   1.176 -0.1452  0.0933  0.5488
 2456SOL    HW118830   0.054   4.279   1.214 -0.9963  0.1894 -0.7602
 2456SOL    HW218831   0.187   4.212   1.223 -1.0494 -1.9027  2.3225
 2457SOL     OW18832   0.417   0.857   4.680 -0.0168  1.0409  0.2913
 2457SOL    HW118833   0.407   0.799   4.604  1.1322  0.1000  0.8745
 2457SOL    HW218834   0.404   0.798   4.753  0.5360  1.0101  0.3643
 2458SOL     OW18835   1.447   3.387   4.367 -0.0117  0.1324 -0.3909
 2458SOL    HW118836   1.526   3.413   4.413  0.8107 -2.3471 -0.4149
 2458SOL    HW218837   1.424   3.475   4.338 -1.1742 -0.8476 -2.4818
 2459SOL     OW18838   2.272   0.251  17.368  0.3613 -0.3478 -0.1059
 2459SOL    HW118839   2.217   0.326  17.391  0.2466 -0.1616 -0.9857
 2459SOL    HW218840   2.307   0.276  17.283  0.6807 -4.6956 -1.2399
 2460SOL     OW18841   0.396   1.987   2.101  0.1141  0.0905 -0.3930
 2460SOL    HW118842   0.404   1.895   2.125  1.5354  0.1345 -0.7250
 2460SOL    HW218843   0.303   1.986   2.079  0.3415  1.1416 -1.3845
 2461SOL     OW18844   2.979   1.232   7.753  0.4598  0.2243  0.1851
 2461SOL    HW118845   3.016   1.163   7.697  0.9266 -0.4633  1.3329
 2461SOL    HW218846   2.896   1.187   7.772  0.7326 -0.4969 -0.3330
 2462SOL     OW18847   3.420   3.678  10.334  0.3356 -0.2712  0.2955
 2462SOL    HW118848   3.492   3.646  10.280 -0.7403 -1.1692 -0.5954
 2462SOL    HW218849   3.469   3.749  10.377 -0.7590  0.2878  0.6225
 2463SOL     OW18850   0.814   0.425  13.343 -0.7702  0.2269 -0.4398
 2463SOL    HW118851   0.814   0.516  13.372 -2.5311 -0.2841  1.2080
 2463SOL    HW218852   0.909   0.412  13.340 -0.7257  0.3436  0.5529
 2464SOL     OW18853   0.249   4.268   8.322 -0.0435 -0.2504 -0.9513
 2464SOL    HW118854   0.320   4.210   8.346 -0.6640 -1.7286 -2.6665
 2464SOL    HW218855   0.215   4.224   8.244 -0.7899 -1.9815  0.3526
 2465SOL     OW18856   2.304   4.215   1.612 -0.7225  0.3864  0.3631
 2465SOL    HW118857   2.355   4.296   1.619 -0.7476  0.4717 -0.4990
 2465SOL    HW218858   2.312   4.194   1.705  0.3112  0.8679  0.3917
 2466SOL     OW18859   0.044   1.766   5.280 -0.1373  0.0116  0.0043
 2466SOL    HW118860   0.095   1.695   5.241  0.5271  1.0260 -0.9965
 2466SOL    HW218861   4.706   1.728   5.346  0.3567  1.0853  1.0675
 2467SOL     OW18862   3.789   0.511   9.642 -0.6625 -0.1506 -0.1347
 2467SOL    HW118863   3.753   0.569   9.710 -1.5480 -0.7415 -0.0868
 2467SOL    HW218864   3.799   0.428   9.689 -1.8156  0.6528  1.5321
 2468SOL     OW18865   2.519   3.813   7.834 -0.0822 -0.4941  0.3779
 2468SOL    HW118866   2.459   3.775   7.898 -0.8535 -0.9661 -0.6263
 2468SOL    HW218867   2.545   3.733   7.788 -0.3508 -0.1120 -0.4356
 2469SOL     OW18868   2.880   1.358   7.152  0.1076 -0.1093  0.0212
 2469SOL    HW118869   2.895   1.395   7.065 -0.0931 -0.1691 -0.0394
 2469SOL    HW218870   2.791   1.386   7.174 -0.0907 -1.1034  0.5070
 2470SOL     OW18871   4.325   1.795   4.167  0.0518  0.2588 -0.1786
 2470SOL    HW118872   4.246   1.756   4.203  1.6082 -3.1359 -0.3646
 2470SOL    HW218873   4.372   1.807   4.250 -0.6398  0.9348  0.1176
 2471SOL     OW18874   2.315   1.611   1.956 -0.5437 -0.4775  0.4887
 2471SOL    HW118875   2.324   1.670   2.031 -1.6848  1.0086 -0.5295
 2471SOL    HW218876   2.272   1.670   1.894  1.6170 -0.4105 -0.9537
 2472SOL     OW18877   0.851   0.166   8.048  0.2560 -0.2389 -0.8155
 2472SOL    HW118878   0.942   0.168   8.079  0.0035  1.7657 -0.2275
 2472SOL    HW218879   0.812   0.110   8.115  0.0566  0.6415 -0.1917
 2473SOL     OW18880   4.044   1.346  16.579 -0.2051  0.0639 -0.3623
 2473SOL    HW118881   3.979   1.280  16.554 -0.6237  0.0368  0.7543
 2473SOL    HW218882   3.985   1.411  16.618  0.9012  2.1012 -2.1231
 2474SOL     OW18883   1.037   2.722  14.310  0.7225 -0.7108 -1.1564
 2474SOL    HW118884   0.947   2.724  14.278  0.5286  2.2912 -0.4170
 2474SOL    HW218885   1.062   2.630  14.313 -3.2644 -1.8073 -2.4856
 2475SOL     OW18886   1.830   3.978   5.121 -0.4899  0.0392  0.1038
 2475SOL    HW118887   1.815   3.933   5.037  1.1091 -2.3387  1.1084
 2475SOL    HW218888   1.787   4.063   5.107 -0.2075  0.4828  1.9890
 2476SOL     OW18889   4.139   1.627   4.248  0.2873 -0.9629 -0.2442
 2476SOL    HW118890   4.105   1.561   4.187 -0.3506 -0.6010 -0.2855
 2476SOL    HW218891   4.115   1.580   4.328  1.4603  1.3485  1.4663
 2477SOL     OW18892   4.487   3.419  13.951  0.4295  0.3946 -0.4771
 2477SOL    HW118893   4.563   3.467  13.919  0.5425  2.4989  2.8847
 2477SOL    HW218894   4.453   3.475  14.021 -0.2809 -1.8203  0.9692
 2478SOL     OW18895   3.507   4.222  10.091  0.1966  0.3661 -0.0569
 2478SOL    HW118896   3.471   4.133  10.081 -0.6275  0.7807 -0.7678
 2478SOL    HW218897   3.426   4.272  10.091  0.6934  1.1469  2.5931
 2479SOL     OW18898   0.850   1.249   6.031 -0.2856 -0.2292  0.0803
 2479SOL    HW118899   0.892   1.243   6.116 -0.0737  0.0270 -0.0068
 2479SOL    HW218900   0.896   1.189   5.972 -0.7718 -1.9129  1.4424
 2480SOL     OW18901   0.839   4.128   6.052  0.0448  0.6940  0.3861
 2480SOL    HW118902   0.808   4.096   6.137  1.8554  1.7588  1.4372
 2480SOL    HW218903   0.852   4.045   6.006 -1.3463  1.7215 -1.8416
 2481SOL     OW18904   4.694   0.300   9.622  0.1213 -0.7490  0.4829
 2481SOL    HW118905   4.713   0.225   9.678  0.4285 -1.4174 -0.5036
 2481SOL    HW218906   4.601   0.299   9.641 -0.2619  1.8021 -1.3322
 2482SOL     OW18907   2.792   2.722   2.842  0.6103 -0.3231 -0.0423
 2482SOL    HW118908   2.839   2.670   2.776  0.0558 -1.3135  0.3471
 2482SOL    HW218909   2.706   2.681   2.844  0.4521  0.0925  1.3631
 2483SOL     OW18910   0.343   0.493   7.126 -0.2357 -0.0471  0.2017
 2483SOL    HW118911   0.339   0.587   7.111 -2.6335  0.2981  2.8627
 2483SOL    HW218912   0.261   0.479   7.175 -1.8117 -0.1894 -2.4724
 2484SOL     OW18913   3.759   3.692   1.883 -0.3976 -0.1607  0.2578
 2484SOL    HW118914   3.806   3.636   1.822  0.9176  1.1523  0.0769
 2484SOL    HW218915   3.756   3.639   1.963 -0.1086  1.2011  1.1821
 2485SOL     OW18916   0.908   1.672   9.825  0.2542 -1.0215 -0.4153
 2485SOL    HW118917   0.852   1.619   9.882  1.9541 -0.5162  1.7464
 2485SOL    HW218918   0.925   1.748   9.881  0.5290 -2.2164  1.1576
 2486SOL     OW18919   2.112   1.343   2.285 -0.0791 -0.2138  0.5704
 2486SOL    HW118920   2.191   1.340   2.339 -0.0768  0.7406  0.6163
 2486SOL    HW218921   2.149   1.380   2.205  0.3947 -0.3738  0.7154
 2487SOL     OW18922   2.570   0.800   8.310  0.1429 -0.0357  0.3875
 2487SOL    HW118923   2.543   0.882   8.268  0.1693 -0.9024 -1.3420
 2487SOL    HW218924   2.511   0.799   8.385  0.0226  0.4747  0.2967
 2488SOL     OW18925   4.113   4.370  13.441 -0.5114 -0.0995 -0.1681
 2488SOL    HW118926   4.037   4.313  13.434 -1.8501  1.8330 -1.3627
 2488SOL    HW218927   4.160   4.333  13.366  1.3620  1.0848  0.4372
 2489SOL     OW18928   0.317   0.545   2.590  0.4037  0.2704 -0.2493
 2489SOL    HW118929   0.404   0.585   2.598  0.6815  0.0942 -2.3987
 2489SOL    HW218930   0.330   0.466   2.538 -0.3675  0.1109 -0.2038
 2490SOL     OW18931   2.763   1.882   0.108 -0.6028 -0.5284 -0.1016
 2490SOL    HW118932   2.681   1.870   0.061 -1.6437  1.4427  1.1849
 2490SOL    HW218933   2.796   1.951   0.051 -0.8090  0.5382  1.0561
 2491SOL     OW18934   0.169   4.253   3.132  0.0559  0.4252 -0.2599
 2491SOL    HW118935   0.161   4.169   3.086  2.3499 -0.0146  0.1638
 2491SOL    HW218936   0.183   4.311   3.056 -1.5432  2.0372  0.6908
 2492SOL     OW18937   4.485   1.222  16.696  0.3111  0.1869 -0.4111
 2492SOL    HW118938   4.392   1.237  16.707  0.1684 -0.3448 -0.8994
 2492SOL    HW218939   4.503   1.248  16.606  0.0285 -2.0426 -1.1013
 2493SOL     OW18940   3.308   3.641   9.459 -0.7969  0.9405  0.3121
 2493SOL    HW118941   3.272   3.582   9.525  1.1391  0.7636  1.1871
 2493SOL    HW218942   3.366   3.582   9.411 -2.1578 -0.0601 -0.1053
 2494SOL     OW18943   0.981   1.161   5.251  0.0804  0.5081 -0.0097
 2494SOL    HW118944   0.933   1.106   5.312 -0.8947  2.0343  0.6126
 2494SOL    HW218945   0.956   1.122   5.167  0.5707 -0.8296  0.4687
 2495SOL     OW18946   1.221   1.079   8.785  0.7276 -0.6553 -0.9442
 2495SOL    HW118947   1.130   1.086   8.814  1.3290  1.1677  0.4426
 2495SOL    HW218948   1.222   1.108   8.693 -1.0809 -1.1508 -1.1190
 2496SOL     OW18949   4.666   2.974  10.229  0.2728 -0.4422 -0.2619
 2496SOL    HW118950   4.681   3.062  10.264 -3.7822  0.8607 -1.7954
 2496SOL    HW218951   4.600   2.987  10.160 -0.8053  0.5827  0.9610
 2497SOL     OW18952   2.541   2.675   7.693 -0.1585 -0.5984 -0.0719
 2497SOL    HW118953   2.478   2.699   7.625 -0.2454  1.0657  0.6182
 2497SOL    HW218954   2.604   2.636   7.633 -0.8868  0.7567 -1.7017
 2498SOL     OW18955   2.403   1.355  17.457 -0.5534  0.2855 -0.0060
 2498SOL    HW118956   2.343   1.281  17.449  0.3751 -0.3522 -1.0796
 2498SOL    HW218957   2.446   1.355  17.372  0.3064 -4.0336  0.4289
 2499SOL     OW18958   1.296   0.465   8.341  0.0444 -0.2239  0.4665
 2499SOL    HW118959   1.323   0.524   8.412 -2.1476  1.8152 -0.4088
 2499SOL    HW218960   1.203   0.457   8.361 -0.6867 -0.2267 -2.8633
 2500SOL     OW18961   1.039   0.059   2.456  0.1252 -0.4936  0.0926
 2500SOL    HW118962   1.025   0.127   2.390  2.3247  0.4500  0.6273
 2500SOL    HW218963   0.949   0.040   2.482  0.0104  1.3645  0.9946
 2501SOL     OW18964   0.727   2.120   3.039 -0.1439 -0.2578  0.3306
 2501SOL    HW118965   0.748   2.169   3.118 -2.8367 -0.0490  0.9345
 2501SOL    HW218966   0.632   2.117   3.050 -0.1195  2.1468  1.1273
 2502SOL     OW18967   3.009   4.571   3.698  0.3160 -0.0088  0.2707
 2502SOL    HW118968   3.032   4.642   3.758  2.4296  0.1334 -0.6950
 2502SOL    HW218969   2.914   4.572   3.712  0.5141  1.4882  1.4246
 2503SOL     OW18970   0.412   4.464   8.456  0.0583  0.2993  0.0259
 2503SOL    HW118971   0.359   4.480   8.535  0.0653  0.2205  0.0462
 2503SOL    HW218972   0.379   4.378   8.430 -1.8046  1.2111 -0.5817
 2504SOL     OW18973   0.913   1.522   7.321  0.0569 -0.3210  0.0809
 2504SOL    HW118974   0.875   1.436   7.300 -1.9933  1.1515 -2.1895
 2504SOL    HW218975   0.904   1.578   7.245 -0.1046  0.3499  0.5909
 2505SOL     OW18976   2.056   1.446   7.962  0.6660 -0.0579 -0.3449
 2505SOL    HW118977   2.011   1.399   8.032 -0.9700  1.6649 -0.2435
 2505SOL    HW218978   2.127   1.390   7.931 -1.0809 -1.3243 -2.0171
 2506SOL     OW18979   2.666   3.227   3.157 -0.0483  0.5671 -0.1302
 2506SOL    HW118980   2.606   3.232   3.083 -0.5257  0.6174  0.2591
 2506SOL    HW218981   2.617   3.176   3.221 -1.8167  0.2216 -1.7651
 2507SOL     OW18982   0.722   0.290  15.512 -0.2576 -0.1718  0.0640
 2507SOL    HW118983   0.716   0.215  15.453  0.6873 -0.9584  0.9733
 2507SOL    HW218984   0.726   0.249  15.598  0.8311  0.6825  0.4294
 2508SOL     OW18985   3.798   2.241   7.740 -0.0065  0.1883 -0.3240
 2508SOL    HW118986   3.816   2.280   7.655 -0.4417  1.9645  0.3910
 2508SOL    HW218987   3.713   2.276   7.768 -0.3344 -1.2411  0.5082
 2509SOL     OW18988   3.469   0.133   4.190  0.0433  0.8975  0.2828
 2509SOL    HW118989   3.428   0.202   4.138  2.8981  1.1270 -1.6749
 2509SOL    HW218990   3.563   0.147   4.182  0.3201 -1.3282 -0.3327
 2510SOL     OW18991   2.945   0.470  10.275  0.7243 -0.1510  0.3684
 2510SOL    HW118992   2.965   0.393  10.221  2.1331  1.3934 -1.3205
 2510SOL    HW218993   2.923   0.532  10.206  0.5320  0.6775  1.1849
 2511SOL     OW18994   1.459   3.482  13.771  0.0817 -0.3178  0.1044
 2511SOL    HW118995   1.546   3.499  13.807  0.1194  2.1370 -1.1175
 2511SOL    HW218996   1.457   3.390  13.746  0.1448 -0.0408 -0.9035
 2512SOL     OW18997   1.512   4.216   3.044 -0.0146  0.3275 -0.0825
 2512SOL    HW118998   1.521   4.142   3.104  0.9012 -0.4158 -1.1305
 2512SOL    HW218999   1.597   4.210   3.001  0.0525  1.5054 -0.1094
 2513SOL     OW19000   0.826   1.916   7.197 -0.1413 -0.3350 -0.1676
 2513SOL    HW119001   0.793   1.857   7.129  1.7440  0.3033 -1.6377
 2513SOL    HW219002   0.753   1.910   7.259  1.8999  0.2482  2.2723
 2514SOL     OW19003   1.047   1.189   1.331 -0.5326 -0.2076  0.0792
 2514SOL    HW119004   0.974   1.173   1.271  0.3676 -1.3759 -0.6911
 2514SOL    HW219005   1.104   1.255   1.293  1.4023 -0.8035  1.9846
 2515SOL     OW19006   4.435   2.575   4.664 -0.1972 -0.2933 -0.2942
 2515SOL    HW119007   4.459   2.643   4.601 -1.0112  0.8791  0.6585
 2515SOL    HW219008   4.342   2.584   4.685  0.6036  1.5974  2.4758
 2516SOL     OW19009   4.494   0.645   3.366 -0.1889 -0.2295  0.3587
 2516SOL    HW119010   4.472   0.724   3.416 -0.5022  0.7736 -1.3576
 2516SOL    HW219011   4.426   0.582   3.390 -0.7205 -0.3621 -1.4480
 2517SOL     OW19012   4.162   1.942   6.237 -0.4707 -0.1335  0.4153
 2517SOL    HW119013   4.247   1.917   6.275 -0.2659 -0.2497 -0.1313
 2517SOL    HW219014   4.105   1.874   6.273 -0.2494  0.6481  2.2936
 2518SOL     OW19015   0.675   0.641  13.174  0.5225  0.5958  0.1223
 2518SOL    HW119016   0.662   0.546  13.174  0.7905  0.5571  0.2411
 2518SOL    HW219017   0.586   0.676  13.175  0.5153  0.5829 -0.1974
 2519SOL     OW19018   4.498   1.385   2.424  0.5488  0.3353 -0.8043
 2519SOL    HW119019   4.411   1.396   2.463  1.2195  2.1751  0.1866
 2519SOL    HW219020   4.504   1.289   2.426  0.1836  0.3352  0.3303
 2520SOL     OW19021   4.091   1.178   7.639  0.0231 -0.2161  0.1627
 2520SOL    HW119022   4.059   1.214   7.557  0.3448  0.0403  0.1460
 2520SOL    HW219023   4.054   1.090   7.639 -0.8766  0.1820 -2.3340
 2521SOL     OW19024   0.187   0.519   9.179  1.0448 -0.3218  0.1343
 2521SOL    HW119025   0.253   0.588   9.185  0.1334  0.6059 -0.7348
 2521SOL    HW219026   0.107   0.564   9.153  0.5457 -0.1461  1.9691
 2522SOL     OW19027   2.322   4.368  10.908 -0.0172 -0.0084  0.4137
 2522SOL    HW119028   2.349   4.277  10.921 -1.8055 -0.7045 -0.7541
 2522SOL    HW219029   2.298   4.401  10.994  0.4030  2.5366 -0.4362
 2523SOL     OW19030   4.064   2.141   5.293 -0.2488 -0.1579 -0.6326
 2523SOL    HW119031   4.092   2.231   5.276  1.0524 -0.5128 -0.4221
 2523SOL    HW219032   4.109   2.089   5.227  2.2643  2.8032 -1.2224
 2524SOL     OW19033   2.754   0.694  17.386 -0.5752 -0.0577 -0.5259
 2524SOL    HW119034   2.798   0.618  17.421 -1.3810  1.0010  2.7934
 2524SOL    HW219035   2.699   0.671  17.311  0.3796 -0.4764 -1.0875
 2525SOL     OW19036   2.660   4.069   2.089  0.5629  0.1510 -0.1425
 2525SOL    HW119037   2.590   4.097   2.030  0.9523 -1.5489 -1.4097
 2525SOL    HW219038   2.724   4.141   2.089  0.3883  0.3029  0.7477
 2526SOL     OW19039   1.783   0.289   2.134  0.1919  0.1657  0.4237
 2526SOL    HW119040   1.830   0.269   2.215 -1.3301 -2.4164  0.6743
 2526SOL    HW219041   1.853   0.263   2.074  1.1316 -0.3048  1.7242
 2527SOL     OW19042   4.706   3.567   4.576  0.0002  0.0674  0.5989
 2527SOL    HW119043   4.611   3.579   4.582 -0.0614 -0.3543  0.4895
 2527SOL    HW219044   4.714   3.521   4.492 -1.0908 -0.3887  0.7504
 2528SOL     OW19045   3.508   1.850  17.564 -0.4659  0.5311  0.1253
 2528SOL    HW119046   3.540   1.851  17.655 -3.1536 -0.2865  1.0823
 2528SOL    HW219047   3.511   1.942  17.540 -1.3441 -0.1280 -2.5447
 2529SOL     OW19048   4.037   1.090   6.674  0.2291 -0.4130  0.3406
 2529SOL    HW119049   4.031   1.097   6.770  1.1029 -2.0799  0.5180
 2529SOL    HW219050   4.044   0.995   6.663  1.3359 -0.1425 -1.2956
 2530SOL     OW19051   3.897   0.831   3.347 -0.1333  0.0864  0.0074
 2530SOL    HW119052   3.832   0.761   3.354  0.2550 -0.0057  2.5311
 2530SOL    HW219053   3.892   0.836   3.251  1.2242 -1.3615 -0.1428
 2531SOL     OW19054   2.859   0.476   7.791 -0.0219 -0.1814 -0.5583
 2531SOL    HW119055   2.782   0.445   7.838 -0.5590 -0.0749 -1.3694
 2531SOL    HW219056   2.821   0.532   7.723  1.4332  1.1454 -0.2824
 2532SOL     OW19057   3.501   3.623   3.300  0.2294 -0.0982 -0.6497
 2532SOL    HW119058   3.547   3.552   3.256 -1.2557 -0.8444 -0.9975
 2532SOL    HW219059   3.570   3.684   3.324 -0.1067 -0.9119  2.2798
 2533SOL     OW19060   2.218   0.302  15.442 -0.2922 -0.2760 -0.3782
 2533SOL    HW119061   2.146   0.244  15.418  0.2946 -1.0365 -0.2657
 2533SOL    HW219062   2.166   0.383  15.440 -1.8223 -1.2351  0.6688
 2534SOL     OW19063   0.655   3.224   2.750 -0.1573  0.5499  0.1092
 2534SOL    HW119064   0.588   3.221   2.681 -0.2343 -0.4824  0.2350
 2534SOL    HW219065   0.610   3.180   2.822 -1.8284  0.8782 -0.7256
 2535SOL     OW19066   0.749   0.545  11.006  0.1549 -0.6421  0.1247
 2535SOL    HW119067   0.749   0.594  11.089  2.9339  1.5246 -1.1263
 2535SOL    HW219068   0.782   0.616  10.951 -0.6854  1.1421  1.9213
 2536SOL     OW19069   4.408   3.594   4.797  0.1221 -0.4638  0.3061
 2536SOL    HW119070   4.496   3.556   4.791 -0.2233 -1.3693  0.8731
 2536SOL    HW219071   4.422   3.655   4.869 -0.4809  0.0604 -0.0189
 2537SOL     OW19072   4.265   4.073   8.192 -0.0335 -0.2580 -0.1758
 2537SOL    HW119073   4.203   4.023   8.245  1.4463 -2.9101 -0.9586
 2537SOL    HW219074   4.213   4.147   8.159  0.8709  0.4038 -0.1135
 2538SOL     OW19075   0.863   2.323   1.264  0.4574 -0.3273 -0.5395
 2538SOL    HW119076   0.890   2.359   1.348  1.3688 -0.9301 -0.5733
 2538SOL    HW219077   0.779   2.287   1.295  1.7787 -3.1212 -0.2271
 2539SOL     OW19078   3.288   1.687   1.938  0.0779  0.9652  0.3477
 2539SOL    HW119079   3.332   1.698   1.854  2.3154  0.9549  1.5304
 2539SOL    HW219080   3.211   1.739   1.916  0.9484  0.8398 -2.8924
 2540SOL     OW19081   1.920   3.847   8.294  0.2935  0.0532 -0.9198
 2540SOL    HW119082   1.881   3.899   8.223 -0.7280  0.7733  0.1736
 2540SOL    HW219083   1.848   3.791   8.324  2.4667 -1.7692  0.8554
 2541SOL     OW19084   1.330   1.306   6.659 -0.1227  1.0938  0.0025
 2541SOL    HW119085   1.422   1.287   6.642  0.0316  0.7851  1.2116
 2541SOL    HW219086   1.320   1.367   6.586  0.3835  1.6915  0.4373
 2542SOL     OW19087   1.038   0.044   7.044 -0.1241  0.0451  0.4551
 2542SOL    HW119088   1.110   0.030   7.106  2.4972  0.7018 -2.4145
 2542SOL    HW219089   0.999   0.122   7.082  1.0997  1.3362 -0.9311
 2543SOL     OW19090   1.771   3.424  13.656  0.5384  0.0515  0.1780
 2543SOL    HW119091   1.727   3.486  13.714 -2.1528 -1.5410 -0.1749
 2543SOL    HW219092   1.782   3.475  13.576 -0.4723 -0.7649 -0.4842
 2544SOL     OW19093   1.502   1.957   1.810 -0.3194  0.1334  0.1722
 2544SOL    HW119094   1.472   2.003   1.733 -1.5663  1.5065  1.4833
 2544SOL    HW219095   1.521   2.021   1.879 -1.0660 -0.4402  0.9076
 2545SOL     OW19096   3.593   4.313   3.694  0.4690 -0.0071 -0.2806
 2545SOL    HW119097   3.567   4.232   3.649  0.9836 -0.7557  0.7670
 2545SOL    HW219098   3.687   4.297   3.695  0.4861  0.1010 -0.2455
 2546SOL     OW19099   1.941   1.344   1.475  0.5198 -0.7323  0.0480
 2546SOL    HW119100   1.863   1.346   1.419  1.2219 -2.5579 -0.9969
 2546SOL    HW219101   2.007   1.379   1.415  1.0034 -2.2152 -0.2966
 2547SOL     OW19102   0.213   1.356   2.683 -0.2985  0.3190  0.5777
 2547SOL    HW119103   0.213   1.336   2.776  2.1595 -0.7427  0.3548
 2547SOL    HW219104   0.261   1.279   2.651 -1.6709 -0.6759  0.9303
 2548SOL     OW19105   4.153   2.391   6.214  0.6840  0.7069  0.0991
 2548SOL    HW119106   4.163   2.376   6.120 -0.2287 -0.5982  0.2099
 2548SOL    HW219107   4.088   2.325   6.239  1.0746  1.7990  3.9629
 2549SOL     OW19108   2.684   4.515  14.204 -0.3752 -0.3588  0.1532
 2549SOL    HW119109   2.610   4.481  14.254 -1.4647  0.3353 -0.9782
 2549SOL    HW219110   2.721   4.435  14.168  0.5334  0.0580  0.1494
 2550SOL     OW19111   4.332   1.691   3.512  0.4975  0.1627  0.3862
 2550SOL    HW119112   4.275   1.708   3.437 -0.6706  2.4938  1.7900
 2550SOL    HW219113   4.274   1.691   3.589 -0.5196  0.9826 -0.3677
 2551SOL     OW19114   4.553   1.965   2.483 -0.4680  0.0409  0.5923
 2551SOL    HW119115   4.541   1.879   2.444  0.8201  0.0672  0.1192
 2551SOL    HW219116   4.645   1.963   2.457 -1.3572  0.7981 -2.6028
 2552SOL     OW19117   3.046   1.477  14.632  0.3324  0.2858 -0.3862
 2552SOL    HW119118   3.022   1.550  14.689 -0.5595 -1.6509  1.7219
 2552SOL    HW219119   3.138   1.469  14.657 -0.5356 -0.6518  2.4770
 2553SOL     OW19120   0.505   0.372   6.951 -0.3062  0.4594 -0.3578
 2553SOL    HW119121   0.449   0.422   7.011  1.0611  1.9080 -0.3056
 2553SOL    HW219122   0.588   0.369   6.998 -0.4594 -1.9778 -0.2646
 2554SOL     OW19123   1.852   4.581   3.561 -0.1862 -0.1487  0.5401
 2554SOL    HW119124   1.943   4.594   3.533 -0.5451  0.1114 -0.5318
 2554SOL    HW219125   1.802   4.588   3.480 -0.8345 -0.4048  0.9226
 2555SOL     OW19126   0.627   1.018   4.715  0.4763 -0.0587 -0.5699
 2555SOL    HW119127   0.555   0.955   4.717 -0.7090  1.1805 -3.7846
 2555SOL    HW219128   0.585   1.094   4.676  0.4315 -0.4044 -1.1990
 2556SOL     OW19129   0.518   2.554   1.241 -0.4084 -0.0041 -0.2664
 2556SOL    HW119130   0.447   2.490   1.248  0.8774 -1.2483  1.4755
 2556SOL    HW219131   0.576   2.504   1.184  0.7659  0.2209  0.7463
 2557SOL     OW19132   2.378   1.628  16.464 -0.3555  0.3832  0.0745
 2557SOL    HW119133   2.304   1.676  16.426  0.2260  0.3011 -1.1487
 2557SOL    HW219134   2.426   1.605  16.384 -0.1922  1.2819 -0.0779
 2558SOL     OW19135   0.583   2.955   6.540  0.0391  0.2457 -0.2072
 2558SOL    HW119136   0.500   2.996   6.517 -0.4999 -1.5501 -1.4858
 2558SOL    HW219137   0.619   2.966   6.452  1.8134  1.1622  0.6315
 2559SOL     OW19138   3.611   2.748   7.749 -0.1711  0.5358 -0.2009
 2559SOL    HW119139   3.541   2.688   7.724 -0.1637  0.7923 -0.8356
 2559SOL    HW219140   3.607   2.815   7.680 -0.5596  0.8721  0.1532
 2560SOL     OW19141   2.726   0.045   3.180  0.2332  0.1358 -0.3361
 2560SOL    HW119142   2.641   0.028   3.140  0.0347 -0.6577  0.3993
 2560SOL    HW219143   2.795   0.036   3.114  0.2300 -1.3654 -0.1336
 2561SOL     OW19144   1.921   1.222   4.844  0.1480 -0.3560  0.1975
 2561SOL    HW119145   1.996   1.240   4.787  1.6202 -0.9362  1.9465
 2561SOL    HW219146   1.882   1.140   4.812 -0.4356 -0.1313  0.3289
 2562SOL     OW19147   3.228   2.241   2.276  0.0675  0.3426 -0.4387
 2562SOL    HW119148   3.199   2.317   2.326 -1.9801  0.7193 -2.1869
 2562SOL    HW219149   3.312   2.222   2.318 -1.0931  0.6106  2.0298
 2563SOL     OW19150   2.679   3.987   0.115 -0.1400 -0.6376  0.4545
 2563SOL    HW119151   2.621   4.060   0.139 -1.8820 -2.1724  0.9664
 2563SOL    HW219152   2.635   3.975   0.031 -0.2540  0.2575  0.3847
 2564SOL     OW19153   4.511   4.572   4.651  0.1217 -0.1610  0.1805
 2564SOL    HW119154   4.453   4.619   4.711  0.1385  0.4250 -0.2716
 2564SOL    HW219155   4.517   4.633   4.578 -0.8137  1.6680  1.6430
 2565SOL     OW19156   3.473   1.640  17.438  0.1235 -0.1034  0.6234
 2565SOL    HW119157   3.538   1.584  17.483  0.9914  0.5757  0.2155
 2565SOL    HW219158   3.486   1.718  17.492 -0.5328 -0.0429  0.6843
 2566SOL     OW19159   0.584   3.014  12.223 -0.5738 -0.3938 -0.4277
 2566SOL    HW119160   0.610   3.067  12.148  0.3335 -0.6867 -0.3216
 2566SOL    HW219161   0.490   3.021  12.208 -0.5052 -0.1313 -0.7285
 2567SOL     OW19162   0.670   3.418   6.692 -0.0377  0.2298  0.0402
 2567SOL    HW119163   0.646   3.482   6.759  1.7902  1.4311 -0.4473
 2567SOL    HW219164   0.762   3.397   6.707  0.5667  1.5911 -1.7399
 2568SOL     OW19165   0.185   2.729   8.629 -0.0050 -0.0323 -0.1481
 2568SOL    HW119166   0.207   2.641   8.660  0.5079  0.5258  1.0848
 2568SOL    HW219167   0.098   2.712   8.592  0.1217 -0.0584 -0.4317
 2569SOL     OW19168   2.035   3.098   3.204  0.2664  0.3924 -0.1590
 2569SOL    HW119169   2.101   3.068   3.142  0.6544  0.6706  0.1150
 2569SOL    HW219170   2.076   3.180   3.233 -0.7102  1.5513 -2.0893
 2570SOL     OW19171   3.282   3.676   2.021 -0.7509  0.2210  0.3475
 2570SOL    HW119172   3.336   3.640   2.091 -1.9481 -2.4612 -0.0951
 2570SOL    HW219173   3.218   3.724   2.074  0.4655  2.4913 -0.2290
 2571SOL     OW19174   2.510   0.265   1.310  0.2533 -0.4660  0.1279
 2571SOL    HW119175   2.461   0.207   1.251  1.6173 -1.9359  0.4431
 2571SOL    HW219176   2.583   0.283   1.251 -0.3141 -1.1123 -0.7818
 2572SOL     OW19177   3.195   4.418   4.203  0.3310 -0.1675  0.3760
 2572SOL    HW119178   3.222   4.507   4.177  1.6837 -0.7627 -0.2325
 2572SOL    HW219179   3.245   4.394   4.281  0.4382  2.5898  1.1550
 2573SOL     OW19180   3.532   1.475   5.889 -0.0739  0.2864  0.1368
 2573SOL    HW119181   3.449   1.429   5.872 -0.3343  1.2973 -1.3460
 2573SOL    HW219182   3.522   1.553   5.833  0.4204  1.5616  1.8391
 2574SOL     OW19183   1.914   4.268   3.692  0.3886 -0.0455  0.2437
 2574SOL    HW119184   1.929   4.235   3.781 -0.1028 -0.8946  0.0070
 2574SOL    HW219185   1.995   4.257   3.642 -0.7806  0.0237 -1.6683
 2575SOL     OW19186   3.240   2.067   7.945  0.2302  0.0568  0.2652
 2575SOL    HW119187   3.257   1.973   7.952 -0.0949  0.0964  1.5470
 2575SOL    HW219188   3.328   2.102   7.960  0.1493  0.6240 -0.6038
 2576SOL     OW19189   0.204   3.622   6.084  0.1441  0.2747  0.1490
 2576SOL    HW119190   0.194   3.678   6.007 -1.6930 -2.3521 -1.4963
 2576SOL    HW219191   0.255   3.550   6.046 -0.0879  0.5310 -0.6579
 2577SOL     OW19192   2.315   0.456   8.776 -0.2368  0.4594 -0.3307
 2577SOL    HW119193   2.362   0.372   8.776 -0.8632  0.1126 -1.1965
 2577SOL    HW219194   2.288   0.453   8.868 -0.1405  0.5689 -0.2987
 2578SOL     OW19195   1.108   2.107   2.901  0.0693  0.2227  0.2772
 2578SOL    HW119196   1.143   2.157   2.827  0.6014 -0.6712 -0.0744
 2578SOL    HW219197   1.088   2.021   2.864  0.9807  0.8742 -1.7602
 2579SOL     OW19198   4.375   1.319   6.111  0.2107 -0.3004  0.1663
 2579SOL    HW119199   4.319   1.397   6.119  0.8823  0.2267 -0.3109
 2579SOL    HW219200   4.379   1.308   6.206 -1.9821 -0.4785  0.2328
 2580SOL     OW19201   0.808   3.750   8.834 -0.1810 -0.6065  0.5485
 2580SOL    HW119202   0.880   3.755   8.896  1.8906  0.6331 -1.9549
 2580SOL    HW219203   0.807   3.841   8.805 -0.7688 -1.7742 -3.1150
 2581SOL     OW19204   2.046   0.520  14.879  0.0909 -0.4202  0.3912
 2581SOL    HW119205   2.083   0.608  14.874 -1.1425  0.0369 -0.5898
 2581SOL    HW219206   2.059   0.493  14.788 -0.0160  1.8187 -0.2971
 2582SOL     OW19207   2.723   2.102   2.797 -0.7448 -0.1903 -0.4903
 2582SOL    HW119208   2.788   2.070   2.734  0.9357  1.1562  0.5796
 2582SOL    HW219209   2.672   2.161   2.741 -2.1445 -1.4979 -0.6120
 2583SOL     OW19210   3.259   4.244  10.204 -0.0634  0.0982 -0.5285
 2583SOL    HW119211   3.285   4.167  10.255 -2.9198 -1.5344 -1.4744
 2583SOL    HW219212   3.177   4.225  10.158 -1.1808 -0.9552  1.8595
 2584SOL     OW19213   4.309   2.545   5.469 -0.1428  0.2522  0.2201
 2584SOL    HW119214   4.404   2.531   5.470 -0.0425  0.9366  0.0957
 2584SOL    HW219215   4.288   2.518   5.380 -3.4872  1.3230  0.6913
 2585SOL     OW19216   2.583   1.533  16.600  0.1713  0.0186 -0.2194
 2585SOL    HW119217   2.539   1.516  16.683 -3.0515  0.6394 -1.8130
 2585SOL    HW219218   2.515   1.555  16.536 -1.1803 -1.9710  0.5456
 2586SOL     OW19219   3.221   3.013  11.029 -0.3880 -0.2372 -0.3489
 2586SOL    HW119220   3.275   3.069  11.085 -2.2844  0.9586  0.2712
 2586SOL    HW219221   3.169   3.080  10.987 -1.5113 -0.5948  0.4716
 2587SOL     OW19222   3.662   3.416  12.886  0.6483  0.1205 -0.0046
 2587SOL    HW119223   3.691   3.457  12.805  0.8304  1.7471  0.8883
 2587SOL    HW219224   3.724   3.455  12.947 -0.7194  2.0219  0.1712
 2588SOL     OW19225   2.572   0.160   0.870 -0.1433 -0.0366  0.1990
 2588SOL    HW119226   2.532   0.223   0.929 -2.9136 -1.8779  0.3067
 2588SOL    HW219227   2.630   0.115   0.931 -0.4007  1.0970  1.2581
 2589SOL     OW19228   1.495   1.912   6.703  0.6051  0.3710  0.4076
 2589SOL    HW119229   1.442   1.914   6.782 -1.4388  0.1333 -0.9683
 2589SOL    HW219230   1.512   1.818   6.705  1.5851  0.5586  1.1980
 2590SOL     OW19231   1.968   0.251  15.351 -0.1243 -0.3418 -0.3930
 2590SOL    HW119232   1.967   0.312  15.278  2.6753  0.8176  0.5627
 2590SOL    HW219233   2.019   0.177  15.317  3.1163  0.3348  2.9403
 2591SOL     OW19234   0.805   2.946   6.695  0.1166 -0.6213  0.3397
 2591SOL    HW119235   0.728   2.957   6.640  1.3074 -0.1902 -1.2613
 2591SOL    HW219236   0.859   2.928   6.617 -2.6811 -0.7674 -1.5523
 2592SOL     OW19237   3.233   4.703   3.238 -0.0321  0.0978  0.4921
 2592SOL    HW119238   3.144   4.667   3.245  1.1197 -2.4624  1.9227
 2592SOL    HW219239   3.229   0.069   3.196  0.4925 -0.6712 -1.0937
 2593SOL     OW19240   0.649   2.510  10.319  0.2312  0.6501  0.2522
 2593SOL    HW119241   0.675   2.419  10.332 -0.0208  0.7751  1.5659
 2593SOL    HW219242   0.721   2.551  10.271 -1.1750  2.0607 -0.7020
 2594SOL     OW19243   3.426   2.754   9.084 -0.0280  0.3675  0.1760
 2594SOL    HW119244   3.342   2.717   9.057  0.1255 -1.1302  1.6791
 2594SOL    HW219245   3.450   2.680   9.140 -1.1366 -0.7814 -0.8698
 2595SOL     OW19246   0.901   1.054   5.028 -0.6518  0.3997 -0.0072
 2595SOL    HW119247   0.851   0.976   5.051  1.4586 -0.9646 -0.0763
 2595SOL    HW219248   0.883   1.077   4.937 -2.1560 -0.1415  0.1606
 2596SOL     OW19249   1.378   2.761   8.600  0.0015  0.1131 -0.2927
 2596SOL    HW119250   1.460   2.791   8.640 -1.5517  2.6585  1.0072
 2596SOL    HW219251   1.330   2.839   8.628 -0.6724 -0.9550  1.5475
 2597SOL     OW19252   2.485   0.031   9.364  0.7149  0.4229 -0.8192
 2597SOL    HW119253   2.437   4.670   9.346  1.5049  0.0804 -1.3817
 2597SOL    HW219254   2.505   0.061   9.276  0.2470  0.0497 -1.0477
 2598SOL     OW19255   0.311   4.118  16.414 -0.7447 -0.3667  0.4177
 2598SOL    HW119256   0.290   4.176  16.342  0.0865 -0.7685 -0.1503
 2598SOL    HW219257   0.287   4.179  16.483 -0.7062 -0.6429  0.6790
 2599SOL     OW19258   1.095   2.158  13.029  0.1801  0.0244 -0.1651
 2599SOL    HW119259   1.024   2.095  13.021  0.5881 -0.5874  1.0157
 2599SOL    HW219260   1.165   2.096  13.051  0.0716  0.0876  0.3416
 2600SOL     OW19261   1.065   4.286   6.052 -0.0453  0.3043  0.0267
 2600SOL    HW119262   1.106   4.219   6.106 -2.8903 -1.1437  0.3919
 2600SOL    HW219263   0.986   4.240   6.025  0.5627 -0.7163 -0.0263
 2601SOL     OW19264   4.208   2.980   8.249 -0.0421 -0.1959 -0.0372
 2601SOL    HW119265   4.152   3.016   8.180 -0.0977  0.3027  0.2657
 2601SOL    HW219266   4.183   3.040   8.320 -1.3518 -2.7343  1.6578
 2602SOL     OW19267   1.253   2.384   2.797  0.1870  0.2435  0.5991
 2602SOL    HW119268   1.348   2.367   2.800 -0.2025 -1.6631  1.7792
 2602SOL    HW219269   1.239   2.444   2.870  0.8288  1.5499 -0.3300
 2603SOL     OW19270   2.885   0.425   3.731  0.0882  1.0911  0.6053
 2603SOL    HW119271   2.806   0.374   3.746  0.2562  0.5842 -0.2559
 2603SOL    HW219272   2.852   0.496   3.676  1.1176  0.7794 -0.4126
 2604SOL     OW19273   1.778   3.197  13.432 -0.3153 -0.2346 -0.4279
 2604SOL    HW119274   1.757   3.286  13.402 -2.7934 -0.3578  0.9347
 2604SOL    HW219275   1.804   3.211  13.523 -2.9974  0.0461  0.2755
 2605SOL     OW19276   2.432   1.170  16.064  0.1345 -0.3314 -0.5848
 2605SOL    HW119277   2.482   1.229  16.007  1.3236  0.0720  0.8928
 2605SOL    HW219278   2.341   1.199  16.059  0.7693  1.5611 -1.4782
 2606SOL     OW19279   1.832   0.968  14.295  0.8857  0.4495 -0.4025
 2606SOL    HW119280   1.775   1.025  14.245 -2.0374 -1.3605  0.8780
 2606SOL    HW219281   1.825   0.891  14.240 -0.0086 -0.6379  1.2347
 2607SOL     OW19282   3.940   3.917  14.775 -0.0022 -0.7826 -0.3400
 2607SOL    HW119283   4.033   3.894  14.775 -0.0446 -0.9379 -2.5580
 2607SOL    HW219284   3.906   3.849  14.717  0.4046 -1.6788  0.4688
 2608SOL     OW19285   0.512   3.967  10.438  0.5429 -0.0270  0.1783
 2608SOL    HW119286   0.474   3.930  10.518 -0.0767 -0.4782 -0.3289
 2608SOL    HW219287   0.591   4.014  10.466 -0.3463  0.8564  1.1938
 2609SOL     OW19288   2.508   2.312  10.189  0.3594 -0.8895 -0.0238
 2609SOL    HW119289   2.494   2.361  10.108 -1.0509 -0.7705  0.2902
 2609SOL    HW219290   2.505   2.223  10.156  2.4660 -1.5416  1.5394
 2610SOL     OW19291   1.037   3.396   2.114 -0.1375 -0.6206  0.2684
 2610SOL    HW119292   0.951   3.419   2.080  0.1992 -2.2494 -1.6884
 2610SOL    HW219293   1.056   3.436   2.199 -0.1427 -1.2441  0.5652
 2611SOL     OW19294   0.301   0.708   8.016  0.0329 -0.1591 -0.2525
 2611SOL    HW119295   0.227   0.760   7.985  0.4429  1.3810  1.3474
 2611SOL    HW219296   0.255   0.634   8.056 -0.0155  0.7134  1.2908
 2612SOL     OW19297   2.466   0.632  12.132 -0.3133  0.2512  0.2423
 2612SOL    HW119298   2.395   0.592  12.082 -0.2277  0.6747 -0.2159
 2612SOL    HW219299   2.520   0.555  12.148  1.4743  1.7644  1.5637
 2613SOL     OW19300   1.569   1.441  11.173  0.3308 -0.4808  0.1569
 2613SOL    HW119301   1.543   1.462  11.083  2.4790  1.4697 -0.0224
 2613SOL    HW219302   1.563   1.346  11.172  1.2540 -0.5180 -1.3797
 2614SOL     OW19303   2.269   1.512   9.237  0.5961  0.4328 -0.5258
 2614SOL    HW119304   2.211   1.588   9.250  1.6834  1.3281 -0.8823
 2614SOL    HW219305   2.257   1.464   9.319 -2.0009  0.0886 -1.0861
 2615SOL     OW19306   0.814   2.286  11.428 -0.2190 -0.1106  0.1686
 2615SOL    HW119307   0.827   2.227  11.354  0.4648 -2.2958  2.0537
 2615SOL    HW219308   0.907   2.303  11.443 -0.2619  1.1899 -0.9917
 2616SOL     OW19309   3.959   4.708   3.790 -0.4730  0.0842 -0.3487
 2616SOL    HW119310   3.952   0.057   3.723  0.5006  3.3348  2.8961
 2616SOL    HW219311   3.894   4.647   3.756 -1.3343  0.5918  0.3833
 2617SOL     OW19312   0.843   0.687  13.385 -0.0832 -0.6529 -0.4150
 2617SOL    HW119313   0.785   0.671  13.310 -3.2016  2.1175  1.3892
 2617SOL    HW219314   0.868   0.778  13.369  2.1659 -1.2152 -0.0768
 2618SOL     OW19315   3.201   4.085   8.388 -0.2414  0.0885 -0.1636
 2618SOL    HW119316   3.226   4.040   8.308 -1.9248 -2.3708  0.7300
 2618SOL    HW219317   3.108   4.067   8.388 -0.3444  0.6133 -1.2376
 2619SOL     OW19318   3.778   2.384   1.817  0.2356  0.3532 -0.2250
 2619SOL    HW119319   3.717   2.311   1.829 -0.0674  0.2545 -2.3686
 2619SOL    HW219320   3.822   2.359   1.736  0.7201 -1.8721  0.7418
 2620SOL     OW19321   2.998   2.377   6.247  0.7456  0.3321 -0.1021
 2620SOL    HW119322   2.989   2.333   6.332  1.0475  1.3943  0.4788
 2620SOL    HW219323   2.939   2.450   6.266  0.4082 -0.5386  2.2293
 2621SOL     OW19324   3.541   3.476   2.299 -0.0278  0.1601 -0.4155
 2621SOL    HW119325   3.481   3.538   2.341  0.4484  0.8655 -0.7718
 2621SOL    HW219326   3.587   3.454   2.380  1.4319 -1.4091 -1.6786
 2622SOL     OW19327   3.425   4.377   7.681  0.2830 -0.1669  0.3966
 2622SOL    HW119328   3.358   4.430   7.636  2.0385  2.0629  0.4132
 2622SOL    HW219329   3.394   4.385   7.771 -1.4625 -0.3559 -0.1846
 2623SOL     OW19330   1.725   3.479   9.594  0.5593 -0.5729 -0.2992
 2623SOL    HW119331   1.645   3.441   9.630  0.3414  0.2473  0.0831
 2623SOL    HW219332   1.796   3.434   9.638  2.3737  2.1474 -0.4115
 2624SOL     OW19333   1.435   4.298   2.319 -0.0078  0.2462  0.0537
 2624SOL    HW119334   1.509   4.340   2.364 -0.6555  0.6934  0.6966
 2624SOL    HW219335   1.465   4.212   2.349 -0.1678  0.0368 -0.3813
 2625SOL     OW19336   4.440   4.627   7.346  0.1000  0.0799  0.4392
 2625SOL    HW119337   4.352   4.642   7.381 -0.5814  0.5113 -1.5130
 2625SOL    HW219338   4.495   4.653   7.420 -2.0632 -1.0452  2.4511
 2626SOL     OW19339   0.154   0.040   8.362 -0.6892  0.4668  0.6609
 2626SOL    HW119340   0.100   0.075   8.291  2.7560 -0.9010 -2.6516
 2626SOL    HW219341   0.128   4.667   8.360 -0.3019  0.3643  0.0508
 2627SOL     OW19342   1.167   1.935   1.991  0.1863  0.2875 -0.6569
 2627SOL    HW119343   1.080   1.902   1.967 -0.4306  1.5076 -0.1424
 2627SOL    HW219344   1.173   1.880   2.069 -0.1678  2.0744  0.6278
 2628SOL     OW19345   0.067   1.797   3.703 -0.3671 -0.0003  0.3139
 2628SOL    HW119346   0.064   1.871   3.642  3.0902  0.2440  0.4248
 2628SOL    HW219347   0.010   1.735   3.657  1.3416  0.1897 -2.0465
 2629SOL     OW19348   0.168   4.624   4.490  0.2660  0.1551 -0.0965
 2629SOL    HW119349   0.224   4.595   4.418  1.1863 -0.1225  0.7316
 2629SOL    HW219350   0.113   4.697   4.463 -1.3175 -0.0228  2.5971
 2630SOL     OW19351   0.353   2.326   1.229  0.1872  0.0216 -0.0141
 2630SOL    HW119352   0.321   2.338   1.318  2.4806 -0.8357  0.9291
 2630SOL    HW219353   0.271   2.339   1.182 -1.3382  1.7002  3.1473
 2631SOL     OW19354   4.240   1.922   2.083 -0.3416 -0.6978  0.5585
 2631SOL    HW119355   4.298   1.903   2.009 -1.6187  0.5778 -0.7934
 2631SOL    HW219356   4.163   1.954   2.036  1.1575  1.4446 -0.4107
 2632SOL     OW19357   3.093   4.272  10.887  0.3420  0.3846  0.2736
 2632SOL    HW119358   3.165   4.256  10.947  0.0948 -0.2685  0.3986
 2632SOL    HW219359   3.066   4.359  10.917  2.2203  0.8656  0.5436
 2633SOL     OW19360   4.082   0.905   8.618 -0.3236 -0.2101  0.6406
 2633SOL    HW119361   4.005   0.888   8.672 -0.8056 -0.7520 -0.2128
 2633SOL    HW219362   4.119   0.981   8.663 -2.0257  0.0775  1.5681
 2634SOL     OW19363   3.139   2.539   3.061  0.6214  0.2060  0.3158
 2634SOL    HW119364   3.208   2.512   3.122  1.7446  3.5364  0.5459
 2634SOL    HW219365   3.122   2.469   2.998  0.8754  2.0042 -1.7759
 2635SOL     OW19366   2.630   0.748  10.423 -0.4019  0.0113 -0.3643
 2635SOL    HW119367   2.622   0.669  10.475  0.6724 -0.1353 -0.4156
 2635SOL    HW219368   2.586   0.712  10.346 -1.8249  1.1317 -0.0817
 2636SOL     OW19369   1.972   3.095   0.774  0.2347 -0.1521 -0.3829
 2636SOL    HW119370   1.882   3.065   0.787  0.7440 -0.4948  2.5713
 2636SOL    HW219371   2.017   3.015   0.746  2.2531  0.9721 -0.3388
 2637SOL     OW19372   4.569   1.540   7.545  0.5990 -0.1107  0.6891
 2637SOL    HW119373   4.621   1.600   7.490  1.2259 -0.3010  1.0790
 2637SOL    HW219374   4.514   1.497   7.479  0.5260 -0.1826  0.7980
 2638SOL     OW19375   0.672   0.139   3.759  0.0447 -0.0450  0.0220
 2638SOL    HW119376   0.766   0.121   3.761 -0.2147 -1.0894  2.3449
 2638SOL    HW219377   0.648   0.150   3.666 -1.2018  0.9909  0.4686
 2639SOL     OW19378   4.356   1.619   7.340  0.1609 -0.1463  0.9287
 2639SOL    HW119379   4.372   1.710   7.362 -2.0685  1.3584 -3.5457
 2639SOL    HW219380   4.275   1.602   7.389 -1.4783  1.7238 -1.0994
 2640SOL     OW19381   3.916   1.662   8.119  0.2468 -0.5708 -0.1075
 2640SOL    HW119382   3.992   1.718   8.134 -1.0319  1.0344  0.2620
 2640SOL    HW219383   3.931   1.634   8.028  2.2311 -0.0313  0.0590
 2641SOL     OW19384   3.447   4.677   6.826 -0.4826 -0.1083  0.4039
 2641SOL    HW119385   3.421   4.685   6.735  1.1776  1.4081  0.0674
 2641SOL    HW219386   3.521   0.019   6.821  1.8419 -2.9170  0.0716
 2642SOL     OW19387   2.811   2.791   9.745 -0.4989  0.3052 -0.0786
 2642SOL    HW119388   2.845   2.876   9.773  0.9767 -0.5844  0.8054
 2642SOL    HW219389   2.858   2.783   9.662  1.5191  0.1928  1.0666
 2643SOL     OW19390   3.995   4.632   6.069  0.1921  0.0429  0.0664
 2643SOL    HW119391   4.083   4.595   6.068  1.0036  1.9807  0.9485
 2643SOL    HW219392   3.963   4.595   6.152 -0.2670 -3.3684 -1.6241
 2644SOL     OW19393   2.831   1.928  10.233 -0.1869  0.2106 -0.1414
 2644SOL    HW119394   2.846   1.866  10.304 -0.2398  1.9150  1.3599
 2644SOL    HW219395   2.821   1.867  10.160 -0.1669  2.7685 -2.2922
 2645SOL     OW19396   2.197   4.263   3.009 -0.1633 -0.0343 -0.9047
 2645SOL    HW119397   2.267   4.308   2.962  1.0165  0.9860  1.8078
 2645SOL    HW219398   2.173   4.185   2.959 -1.7213  0.0998 -0.3717
 2646SOL     OW19399   2.138   0.724   4.216 -0.5412  0.5639 -0.1830
 2646SOL    HW119400   2.177   0.678   4.291 -0.6595  0.4874 -0.1697
 2646SOL    HW219401   2.207   0.784   4.186 -0.8773  1.2926  0.4878
 2647SOL     OW19402   3.380   3.814   8.492  0.1941 -0.0970  0.3623
 2647SOL    HW119403   3.431   3.861   8.426 -2.2622  0.9829 -0.7233
 2647SOL    HW219404   3.425   3.836   8.574  2.6585  0.8747 -1.2512
 2648SOL     OW19405   0.278   2.374  11.492 -0.3821 -1.0030  0.2626
 2648SOL    HW119406   0.296   2.398  11.583 -2.0894 -0.4165  0.4408
 2648SOL    HW219407   0.362   2.352  11.453  0.3020 -1.4486  1.9728
 2649SOL     OW19408   3.645   2.152   2.583 -0.2396 -0.2532  0.1117
 2649SOL    HW119409   3.730   2.159   2.539  1.5835  0.3608  3.7334
 2649SOL    HW219410   3.646   2.059   2.603 -3.5948 -0.0934  1.1160
 2650SOL     OW19411   3.753   4.422   6.662 -0.2142  0.0736  0.1620
 2650SOL    HW119412   3.733   4.370   6.584  0.5004  0.5048 -0.3198
 2650SOL    HW219413   3.836   4.451   6.623 -0.1855  1.1592  1.0162
 2651SOL     OW19414   3.833   3.914   6.042 -0.1340 -0.0520  0.1264
 2651SOL    HW119415   3.763   3.978   6.028 -0.9384 -0.2363  3.1614
 2651SOL    HW219416   3.785   3.838   6.075 -1.6842  1.2574  0.9309
 2652SOL     OW19417   1.896   3.461  12.022  0.5168 -0.4275  0.0369
 2652SOL    HW119418   1.808   3.430  11.997  0.9904  0.4517 -2.6774
 2652SOL    HW219419   1.925   3.499  11.939 -1.0113  1.5148  0.3925
 2653SOL     OW19420   0.621   0.562   4.056 -0.2337  0.2961  0.5060
 2653SOL    HW119421   0.711   0.563   4.024  0.2481  0.0379  1.8587
 2653SOL    HW219422   0.588   0.648   4.031  0.7340  1.0410  1.7901
 2654SOL     OW19423   1.050   3.631   8.239 -0.0989  0.2156  0.6111
 2654SOL    HW119424   0.994   3.707   8.254 -0.8390 -0.6042  1.9911
 2654SOL    HW219425   1.061   3.603   8.330 -1.2903  1.0781  1.0139
 2655SOL     OW19426   0.534   2.051   8.065  0.1446  0.2508 -0.2911
 2655SOL    HW119427   0.521   2.131   8.014 -1.0257 -0.2646 -0.8071
 2655SOL    HW219428   0.600   2.011   8.008  0.0288 -1.1640  0.5667
 2656SOL     OW19429   3.951   3.187  15.927 -0.1937 -0.2041  0.1707
 2656SOL    HW119430   3.896   3.111  15.912 -1.9607  0.9310  0.9084
 2656SOL    HW219431   4.030   3.162  15.879 -0.5084 -0.8744  0.0055
 2657SOL     OW19432   0.295   2.863   4.361  0.1454 -0.2390  0.1770
 2657SOL    HW119433   0.263   2.824   4.442 -0.8998  0.0273 -0.1083
 2657SOL    HW219434   0.384   2.828   4.368  1.2954  2.8099  0.6827
 2658SOL     OW19435   1.589   1.735   8.645 -0.0146  0.2769 -0.0221
 2658SOL    HW119436   1.651   1.792   8.689 -1.1034  1.6166 -0.2169
 2658SOL    HW219437   1.628   1.730   8.558  0.5227 -1.2351  0.2942
 2659SOL     OW19438   1.091   0.553   4.427  0.4062 -0.4427 -0.9931
 2659SOL    HW119439   1.089   0.491   4.354  0.6692 -2.1215  0.4271
 2659SOL    HW219440   1.184   0.574   4.420  0.6739 -1.6999 -1.2788
 2660SOL     OW19441   1.216   1.826   7.729 -0.0264 -0.1924 -0.1284
 2660SOL    HW119442   1.187   1.735   7.720 -3.8790  1.0670 -0.5688
 2660SOL    HW219443   1.215   1.860   7.640  2.0789 -1.9250 -0.8178
 2661SOL     OW19444   3.817   1.710  11.583  0.1912  0.3834  0.1168
 2661SOL    HW119445   3.906   1.675  11.595  0.5642  0.3089 -2.7977
 2661SOL    HW219446   3.835   1.794  11.624 -1.7059  0.7911  0.0945
 2662SOL     OW19447   2.282   1.757  14.073  0.2591 -0.2830 -0.2550
 2662SOL    HW119448   2.239   1.842  14.089 -1.3026 -0.7975 -1.7192
 2662SOL    HW219449   2.207   1.698  14.086 -0.8528  0.7609 -1.9671
 2663SOL     OW19450   0.336   0.744   4.440 -0.0376  0.3223  0.7052
 2663SOL    HW119451   0.246   0.754   4.409 -0.1854 -3.7640 -0.1189
 2663SOL    HW219452   0.369   0.667   4.394  0.2672 -1.0567  3.2500
 2664SOL     OW19453   4.699   2.082  10.952 -0.4931 -0.2037  0.3446
 2664SOL    HW119454   4.667   1.992  10.947 -1.2738  0.1568 -1.1251
 2664SOL    HW219455   0.026   2.092  10.869 -1.2147  1.0690  0.0925
 2665SOL     OW19456   0.684   3.736   7.780  0.3360 -0.0924 -0.5437
 2665SOL    HW119457   0.762   3.771   7.736  0.4114  1.0046  0.4496
 2665SOL    HW219458   0.718   3.650   7.804  0.3237  0.1578  0.3685
 2666SOL     OW19459   0.833   4.012   8.729  0.1716 -0.4674  0.1864
 2666SOL    HW119460   0.911   4.053   8.692  1.3689 -0.0742  3.1706
 2666SOL    HW219461   0.789   4.079   8.781  0.9988 -0.1453  0.4761
 2667SOL     OW19462   1.921   3.810   7.701  0.6128 -0.4691 -0.5427
 2667SOL    HW119463   2.011   3.810   7.731  0.0795  0.3088  1.0515
 2667SOL    HW219464   1.906   3.726   7.658  2.1441 -0.6542 -0.6967
 2668SOL     OW19465   4.376   4.648   3.160 -0.4664 -0.6279 -0.4380
 2668SOL    HW119466   4.290   4.609   3.143 -0.3687 -0.5989 -1.0277
 2668SOL    HW219467   4.382   4.687   3.072  0.7113  0.8889  0.3178
 2669SOL     OW19468   1.449   1.018   5.495  0.1447 -0.2920  0.6140
 2669SOL    HW119469   1.400   1.087   5.450  0.5379 -0.4368 -0.0435
 2669SOL    HW219470   1.466   0.952   5.428 -0.7223  1.7485 -1.6160
 2670SOL     OW19471   3.459   4.203   8.547 -0.3168  0.4831 -0.2457
 2670SOL    HW119472   3.509   4.181   8.468 -2.4594 -0.1186 -1.4249
 2670SOL    HW219473   3.397   4.131   8.544  1.0311 -0.6562 -1.0273
 2671SOL     OW19474   1.134   0.053   2.041  0.7526  0.4736  0.4667
 2671SOL    HW119475   1.151   0.059   1.947 -0.2193  0.0096  0.2631
 2671SOL    HW219476   1.173   0.138   2.064 -0.2429  0.8901  0.6389
 2672SOL     OW19477   4.526   2.580   2.406  0.5550  0.1206 -0.3553
 2672SOL    HW119478   4.496   2.537   2.326 -1.5924  0.7392  0.1266
 2672SOL    HW219479   4.620   2.563   2.405  0.5644  0.1670 -0.1734
 2673SOL     OW19480   3.074   0.354   7.967  0.3351 -0.4444 -0.0533
 2673SOL    HW119481   3.012   0.385   7.901  0.9651  0.7897 -0.0760
 2673SOL    HW219482   3.109   0.434   8.006 -0.2322 -0.7112  1.0168
 2674SOL     OW19483   0.534   3.534  17.120 -0.1112 -0.1502 -0.1187
 2674SOL    HW119484   0.618   3.554  17.160  0.5745  0.2291 -1.7703
 2674SOL    HW219485   0.550   3.545  17.026 -0.1940  1.3494  0.0443
 2675SOL     OW19486   0.569   1.787   1.478 -0.5680 -0.0794 -0.1701
 2675SOL    HW119487   0.609   1.835   1.549  1.7116 -1.3125 -0.6067
 2675SOL    HW219488   0.637   1.768   1.413 -0.7846  0.0230 -0.4296
 2676SOL     OW19489   2.942   3.836   5.444  0.0594  0.0593  0.3641
 2676SOL    HW119490   2.902   3.840   5.530  1.3010  0.4448  0.9333
 2676SOL    HW219491   2.896   3.915   5.416  0.4828  0.9000  2.0467
 2677SOL     OW19492   1.694   1.122   3.996  0.8561  0.2073 -0.1184
 2677SOL    HW119493   1.613   1.088   3.956  1.3229 -2.0806  0.8442
 2677SOL    HW219494   1.745   1.042   4.010 -2.3035 -2.0097 -1.1659
 2678SOL     OW19495   4.718   0.492   2.980  0.1416  0.3947  0.0889
 2678SOL    HW119496   4.707   0.447   3.063  0.1337 -1.6536 -1.0088
 2678SOL    HW219497   4.630   0.502   2.943 -0.7437  1.0929  2.4189
 2679SOL     OW19498   4.381   4.198   6.833  0.2882 -0.2443  0.2179
 2679SOL    HW119499   4.370   4.143   6.910 -1.6523 -0.9173 -0.5582
 2679SOL    HW219500   4.472   4.178   6.811 -0.6162 -0.2619 -3.5523
 2680SOL     OW19501   1.295   0.917  10.780  0.4297  0.2947 -0.0884
 2680SOL    HW119502   1.223   0.858  10.759  0.0356  0.9489 -0.5702
 2680SOL    HW219503   1.274   0.960  10.863 -0.2722  2.1376 -1.2094
 2681SOL     OW19504   1.888   2.837   3.917  0.1013  0.1498 -0.2135
 2681SOL    HW119505   1.842   2.756   3.895 -0.7634  0.4343  0.5641
 2681SOL    HW219506   1.960   2.834   3.854  1.0056 -3.6460  1.0229
 2682SOL     OW19507   4.526   0.009   8.592 -0.1938 -0.2794 -0.1899
 2682SOL    HW119508   4.567   4.661   8.646  0.1814  0.4228  0.3888
 2682SOL    HW219509   4.609   0.051   8.568 -0.7280  0.9278  0.0966
 2683SOL     OW19510   3.067   1.702   3.745 -0.2836 -0.6897  0.4165
 2683SOL    HW119511   3.085   1.697   3.651 -1.0209 -0.2394  0.2568
 2683SOL    HW219512   3.144   1.654   3.776  0.3492 -0.0551 -0.1985
 2684SOL     OW19513   4.669   0.654   3.915 -0.0847 -0.3537 -0.4749
 2684SOL    HW119514   4.677   0.732   3.860  0.9304 -2.0503 -2.6924
 2684SOL    HW219515   0.039   0.621   3.912 -0.3735 -0.7778 -4.0795
 2685SOL     OW19516   4.313   0.158  14.766  0.2517 -0.6375 -0.1363
 2685SOL    HW119517   4.334   0.169  14.859 -1.8604 -0.2992  0.3008
 2685SOL    HW219518   4.225   0.121  14.762  0.2677 -0.6948  0.0460
 2686SOL     OW19519   4.403   2.380   2.249 -0.0545  0.0263 -0.6200
 2686SOL    HW119520   4.393   2.319   2.322 -0.4765  0.6298 -0.1713
 2686SOL    HW219521   4.323   2.358   2.200  0.2800  1.1633 -1.6852
 2687SOL     OW19522   2.502   1.627  15.959 -0.3338 -0.1862 -0.2692
 2687SOL    HW119523   2.449   1.700  15.991  0.2141  0.0502  0.0984
 2687SOL    HW219524   2.572   1.678  15.919  0.3263  0.3976  1.6327
 2688SOL     OW19525   0.489   4.256   0.376 -0.3836 -0.4223  0.4654
 2688SOL    HW119526   0.403   4.228   0.409 -0.8711  1.5005  0.8383
 2688SOL    HW219527   0.489   4.214   0.290 -0.1221 -0.8076  0.6581
 2689SOL     OW19528   1.918   2.505   4.063  0.2314 -0.0880 -0.5123
 2689SOL    HW119529   1.862   2.577   4.091  0.8916  0.8976 -1.7350
 2689SOL    HW219530   1.854   2.452   4.013 -0.9941  1.6777 -0.8362
 2690SOL     OW19531   3.953   3.059   3.908  0.4602  0.0823  0.4178
 2690SOL    HW119532   3.938   2.997   3.979  0.8335 -0.5054 -0.0238
 2690SOL    HW219533   4.048   3.051   3.898  0.6259  1.6846  0.5901
 2691SOL     OW19534   2.534   2.055   0.255 -0.3722  0.6882 -0.0167
 2691SOL    HW119535   2.608   2.106   0.287 -0.3491  0.9789 -0.5363
 2691SOL    HW219536   2.534   2.071   0.160 -2.4257 -0.7436 -0.2454
 2692SOL     OW19537   2.406   3.430   5.962 -0.4123  0.1942 -0.3457
 2692SOL    HW119538   2.382   3.523   5.956  0.2920  0.3110 -1.4785
 2692SOL    HW219539   2.400   3.407   5.869  0.9913  2.0622 -0.9197
 2693SOL     OW19540   3.299   0.173   4.966  0.3440 -0.4838 -0.0164
 2693SOL    HW119541   3.326   0.255   4.925 -0.0992 -2.0804 -3.4992
 2693SOL    HW219542   3.286   0.117   4.890  0.5062  1.4008 -1.4160
 2694SOL     OW19543   3.364   1.251   8.794 -0.7504  0.2485  0.6140
 2694SOL    HW119544   3.355   1.205   8.711  0.8750  0.3590  0.3942
 2694SOL    HW219545   3.459   1.252   8.804 -0.8058  2.0646  0.8770
 2695SOL     OW19546   2.398   4.378   3.946 -0.5295  0.0953  0.3326
 2695SOL    HW119547   2.491   4.356   3.942 -1.1315 -2.4750  0.4828
 2695SOL    HW219548   2.387   4.395   3.852 -2.6102  2.4171  1.0117
 2696SOL     OW19549   1.361   2.809   6.340  0.1503 -0.2198  0.1013
 2696SOL    HW119550   1.324   2.815   6.252 -0.0087  0.2481  0.2041
 2696SOL    HW219551   1.411   2.890   6.332  0.3637 -0.4349 -0.7719
 2697SOL     OW19552   0.301   3.936   0.504  0.0198 -0.0226 -0.2697
 2697SOL    HW119553   0.227   3.885   0.538  0.5835 -1.4281 -1.1464
 2697SOL    HW219554   0.268   4.025   0.517 -0.9369 -0.5215  0.7148
 2698SOL     OW19555   1.766   3.734   9.577  0.2635 -0.0133  0.4205
 2698SOL    HW119556   1.761   3.762   9.668  1.5551 -0.7602  0.7152
 2698SOL    HW219557   1.737   3.646   9.599 -2.5966  0.0673 -2.9552
 2699SOL     OW19558   1.633   0.145  11.959  0.3462 -0.5211 -0.0455
 2699SOL    HW119559   1.555   0.127  11.906  0.1692  0.0856  0.0101
 2699SOL    HW219560   1.661   0.053  11.962 -0.0858 -0.7303 -1.9637
 2700SOL     OW19561   3.925   3.331   8.961  0.3355  0.5228  0.3673
 2700SOL    HW119562   4.018   3.354   8.964  0.2051  1.3449 -1.6061
 2700SOL    HW219563   3.880   3.414   8.975  0.3938  1.0154 -2.2112
 2701SOL     OW19564   4.331   2.073   3.306  0.1910 -0.2556 -0.5695
 2701SOL    HW119565   4.388   2.032   3.371  0.3315  0.2974 -0.3450
 2701SOL    HW219566   4.243   2.042   3.329 -0.1499  1.0017 -0.1675
 2702SOL     OW19567   0.959   1.552   6.100 -0.3031 -0.0678  0.6535
 2702SOL    HW119568   0.873   1.521   6.128  0.4850  0.7093  3.9624
 2702SOL    HW219569   0.942   1.629   6.047  0.2922 -0.7720 -0.5542
 2703SOL     OW19570   2.814   1.097   2.846  0.0512  0.7938  0.0101
 2703SOL    HW119571   2.767   1.138   2.773 -0.8568  1.8748  1.2084
 2703SOL    HW219572   2.855   1.175   2.885 -0.1066  0.9491 -0.1335
 2704SOL     OW19573   2.006   0.095   1.120  0.2625 -0.2776 -0.2476
 2704SOL    HW119574   2.082   0.043   1.094  1.0602  0.9351 -0.3339
 2704SOL    HW219575   1.940   0.040   1.078 -0.8403 -1.2517  2.7519
 2705SOL     OW19576   4.064   2.206  13.453 -0.8239 -0.0032 -0.0499
 2705SOL    HW119577   4.153   2.196  13.487 -1.0484  0.0487  0.5629
 2705SOL    HW219578   4.052   2.299  13.472 -1.0049  0.2773 -1.5447
 2706SOL     OW19579   2.138   3.625   4.029  0.4527  0.1677  0.4456
 2706SOL    HW119580   2.198   3.693   3.998 -0.5619  0.0396 -1.8446
 2706SOL    HW219581   2.177   3.545   3.993 -0.4539  0.6861 -1.6893
 2707SOL     OW19582   3.013   0.025   9.020  0.2250  0.2853 -0.2177
 2707SOL    HW119583   2.940   4.719   9.077 -0.2806 -0.4690 -1.2064
 2707SOL    HW219584   3.009   4.682   8.948 -3.7654  1.5201 -1.0731
 2708SOL     OW19585   3.853   3.820   8.543  1.0489 -0.8010 -0.2033
 2708SOL    HW119586   3.862   3.915   8.551  0.0568 -0.5965 -1.4216
 2708SOL    HW219587   3.760   3.810   8.564  0.8866  0.7165 -0.2032
 2709SOL     OW19588   4.550   0.739  15.555 -0.3830 -0.1516 -0.5286
 2709SOL    HW119589   4.615   0.674  15.530  0.5336  0.2800  0.7580
 2709SOL    HW219590   4.482   0.721  15.490  1.4406 -0.6794 -2.2625
 2710SOL     OW19591   3.798   2.332  14.453 -0.4132  0.4194  0.1535
 2710SOL    HW119592   3.798   2.387  14.532 -1.2334  0.2110  0.2884
 2710SOL    HW219593   3.780   2.398  14.387  3.0721  1.4057  0.1427
 2711SOL     OW19594   2.346   4.560   1.333  0.3145 -0.2391 -0.1873
 2711SOL    HW119595   2.287   4.633   1.312 -1.0502 -1.5104 -0.8182
 2711SOL    HW219596   2.289   4.506   1.388 -0.2645  0.2424 -0.3133
 2712SOL     OW19597   1.231   1.672  10.117  0.2375  0.2087  0.0381
 2712SOL    HW119598   1.201   1.599  10.063 -3.7215  1.3128  0.7394
 2712SOL    HW219599   1.171   1.685  10.190  0.3593  0.4464  0.0967
 2713SOL     OW19600   2.560   2.178   0.837 -0.7403 -0.6767 -0.0230
 2713SOL    HW119601   2.533   2.267   0.858  1.9993 -0.0464  0.7590
 2713SOL    HW219602   2.490   2.131   0.884 -0.1869 -0.6273  0.8468
 2714SOL     OW19603   3.543   2.127  17.519 -0.3764 -0.0573 -0.1939
 2714SOL    HW119604   3.456   2.155  17.492 -1.5946 -2.0633  1.6771
 2714SOL    HW219605   3.573   2.201  17.572 -1.0448  0.2732 -0.2757
 2715SOL     OW19606   0.999   0.090  12.019 -0.1525  0.0274 -0.6143
 2715SOL    HW119607   0.924   0.150  12.027  0.3672  0.5364  0.4427
 2715SOL    HW219608   1.068   0.141  12.061 -1.1818  1.5703 -0.7642
 2716SOL     OW19609   4.349   0.107   2.946  0.4910  0.2364 -0.1732
 2716SOL    HW119610   4.388   0.179   2.996 -0.0522 -0.6301  1.4793
 2716SOL    HW219611   4.332   0.161   2.868 -0.7355  1.5507  0.9811
 2717SOL     OW19612   1.297   2.884  15.706  0.8350 -0.2401  1.0669
 2717SOL    HW119613   1.371   2.863  15.648 -0.2455 -3.2861  0.7904
 2717SOL    HW219614   1.317   2.970  15.744 -2.6893  1.3717 -0.6962
 2718SOL     OW19615   3.686   1.899   5.487  0.2117  0.0919 -0.0213
 2718SOL    HW119616   3.706   1.967   5.552 -0.5398 -0.8376  1.1936
 2718SOL    HW219617   3.611   1.848   5.519 -0.7328  0.9222 -0.9323
 2719SOL     OW19618   2.338   2.229  11.866  0.3526 -0.0539 -0.0492
 2719SOL    HW119619   2.409   2.167  11.850 -0.3514 -0.6787 -0.7533
 2719SOL    HW219620   2.378   2.299  11.815 -1.0675  2.8435  2.8204
 2720SOL     OW19621   1.530   4.516   8.529 -0.3897 -0.4510  0.2643
 2720SOL    HW119622   1.469   4.442   8.532  0.0229 -0.9133 -2.2150
 2720SOL    HW219623   1.608   4.467   8.504 -0.0091  0.7348 -0.8815
 2721SOL     OW19624   4.508   0.277   3.081 -0.2346 -0.2672 -0.1680
 2721SOL    HW119625   4.602   0.262   3.091 -0.6421 -0.7258  2.8319
 2721SOL    HW219626   4.497   0.359   3.130  2.3870  1.8087 -3.0810
 2722SOL     OW19627   0.053   1.805   6.845  0.0221 -0.3136  0.0282
 2722SOL    HW119628   4.678   1.787   6.844  0.1050 -0.6759 -0.7949
 2722SOL    HW219629   0.102   1.723   6.852 -2.5552 -1.7244  1.8112
 2723SOL     OW19630   4.179   2.300   3.043 -0.6196  0.9067 -0.0500
 2723SOL    HW119631   4.236   2.264   2.975  0.6553 -0.3937  1.6961
 2723SOL    HW219632   4.241   2.320   3.114 -1.6164  1.6639  0.5994
 2724SOL     OW19633   0.078   4.550   2.722 -0.5313  0.6494 -0.0860
 2724SOL    HW119634   0.008   4.612   2.743  0.2385  1.1313  1.0783
 2724SOL    HW219635   0.112   4.589   2.642  1.6245  1.4388  1.2060
 2725SOL     OW19636   1.942   1.478  11.373  0.3391  0.2618 -0.7257
 2725SOL    HW119637   1.900   1.481  11.287  2.1649  0.6798 -1.5892
 2725SOL    HW219638   1.978   1.566  11.370 -2.0437  1.3020  1.5431
 2726SOL     OW19639   4.000   3.543   5.706  0.3629  0.1459 -0.2766
 2726SOL    HW119640   3.910   3.510   5.701  0.7221 -0.9536  0.6085
 2726SOL    HW219641   3.996   3.637   5.687 -0.4834 -0.2175 -1.9597
 2727SOL     OW19642   3.008   2.541   5.786  0.0755  0.1232  0.2370
 2727SOL    HW119643   3.073   2.484   5.826 -0.7894  1.0834  2.9957
 2727SOL    HW219644   3.044   2.623   5.819 -0.9797  0.4291  0.6317
 2728SOL     OW19645   1.390   3.541   8.442 -0.0420 -0.0543 -0.0836
 2728SOL    HW119646   1.384   3.503   8.529  2.3115 -0.4920 -0.1293
 2728SOL    HW219647   1.472   3.502   8.414  0.4211  2.7773 -2.7412
 2729SOL     OW19648   4.545   1.167   5.515  0.2208 -0.3866  0.2564
 2729SOL    HW119649   4.460   1.203   5.540  0.9463  1.0134  0.6915
 2729SOL    HW219650   4.595   1.220   5.578 -2.4534  0.3013  1.8145
 2730SOL     OW19651   1.572   3.430   7.670  0.9881  0.5813 -0.1578
 2730SOL    HW119652   1.596   3.515   7.708  1.3318  1.1541 -1.6311
 2730SOL    HW219653   1.619   3.377   7.734  1.1251  1.1802  0.2397
 2731SOL     OW19654   4.317   2.373   0.452  0.6108 -1.1162  0.0641
 2731SOL    HW119655   4.364   2.396   0.372 -2.2858 -1.5040 -1.7766
 2731SOL    HW219656   4.230   2.390   0.415  0.0005 -1.3861  1.3758
 2732SOL     OW19657   2.748   4.704   3.763 -0.1849 -0.8236 -0.1045
 2732SOL    HW119658   2.689   0.013   3.832  2.9353 -0.4010  2.3709
 2732SOL    HW219659   2.689   4.715   3.688 -1.3336  0.9448  1.0683
 2733SOL     OW19660   2.276   2.042  17.193 -0.7511 -0.2577  0.5638
 2733SOL    HW119661   2.301   1.970  17.250 -0.9908 -0.8759 -0.1092
 2733SOL    HW219662   2.356   2.056  17.142  0.1211 -0.5280  1.8837
 2734SOL     OW19663   4.097   2.757  16.802 -0.2941  0.2061  0.5419
 2734SOL    HW119664   4.127   2.676  16.843  0.5058  0.6600  0.8607
 2734SOL    HW219665   4.051   2.737  16.721 -2.5719  1.3615  1.5398
 2735SOL     OW19666   0.632   2.239  10.589 -0.2914  0.0139 -0.2546
 2735SOL    HW119667   0.649   2.245  10.495 -1.7754  0.1436 -0.5253
 2735SOL    HW219668   0.544   2.201  10.583 -0.5030  0.2010  1.8113
 2736SOL     OW19669   1.786   0.286   4.186 -0.2806 -0.1217  0.4310
 2736SOL    HW119670   1.734   0.356   4.145 -0.6496 -0.7316 -0.1465
 2736SOL    HW219671   1.758   0.219   4.124  1.7087 -1.0433  0.5324
 2737SOL     OW19672   2.501   3.347   5.279 -0.4773  0.5136  0.0988
 2737SOL    HW119673   2.540   3.265   5.309 -2.7137 -0.2934  0.8065
 2737SOL    HW219674   2.507   3.399   5.359 -1.3214 -1.1673  1.2574
 2738SOL     OW19675   3.007   3.120   2.939  0.0861  0.4780 -0.1037
 2738SOL    HW119676   3.015   3.158   3.027  2.4975 -0.8181  0.2408
 2738SOL    HW219677   3.099   3.118   2.911  0.2159 -1.6402  0.4039
 2739SOL     OW19678   3.084   4.523   2.572  0.5070  0.5239  0.5370
 2739SOL    HW119679   3.029   4.470   2.630  2.7259 -1.5291  0.7539
 2739SOL    HW219680   3.084   4.611   2.610 -0.2230  0.1978  1.2793
 2740SOL     OW19681   1.927   0.174   7.572  0.5336  0.6894 -0.4405
 2740SOL    HW119682   1.875   0.231   7.516  0.7043  0.1514 -1.1386
 2740SOL    HW219683   1.897   0.202   7.659 -1.6966 -2.4535 -0.1979
 2741SOL     OW19684   3.431   1.029   8.324 -0.1498  0.8614  0.0516
 2741SOL    HW119685   3.380   0.986   8.254  3.0691 -0.8234 -1.2445
 2741SOL    HW219686   3.498   1.056   8.261 -1.2576  1.3589 -0.9270
 2742SOL     OW19687   3.253   0.563   5.143 -0.2276 -0.5339 -0.1478
 2742SOL    HW119688   3.190   0.501   5.180 -1.0055  0.3567  0.0326
 2742SOL    HW219689   3.326   0.528   5.195  1.0879  1.0900 -0.9168
 2743SOL     OW19690   0.310   0.750   1.945  0.0769 -0.1537 -0.9536
 2743SOL    HW119691   0.258   0.825   1.973  1.8387  0.9233 -0.5193
 2743SOL    HW219692   0.254   0.709   1.880  0.1616  0.1638 -1.2272
 2744SOL     OW19693   4.168   4.351   6.103 -0.1750 -0.3696  0.4102
 2744SOL    HW119694   4.169   4.307   6.188  0.4797 -0.0145  0.5874
 2744SOL    HW219695   4.227   4.425   6.117 -0.8133  0.3335 -0.6070
 2745SOL     OW19696   0.086   0.894   2.081  0.0414  0.2117 -0.2576
 2745SOL    HW119697   0.125   0.837   2.147 -0.4054  0.3508  0.1286
 2745SOL    HW219698   0.013   0.940   2.123 -1.5693 -1.1090 -1.6411
 2746SOL     OW19699   3.331   2.323   4.263 -0.2981  0.6249 -0.2547
 2746SOL    HW119700   3.330   2.298   4.171  0.1180  3.3270 -1.0113
 2746SOL    HW219701   3.383   2.403   4.275  0.6199 -0.0886  0.5324
 2747SOL     OW19702   3.076   4.437   7.841 -0.1068 -0.0520  0.2793
 2747SOL    HW119703   3.129   4.515   7.822 -0.4346  0.5660  1.8832
 2747SOL    HW219704   3.000   4.480   7.880 -0.8245 -0.7715 -0.3313
 2748SOL     OW19705   4.663   3.828   5.641  0.5452  0.4636  0.3237
 2748SOL    HW119706   4.693   3.738   5.629 -2.5548 -0.5454  0.0983
 2748SOL    HW219707   4.590   3.805   5.699  0.2153 -1.7778 -0.9704
 2749SOL     OW19708   1.931   3.841   0.423  0.2513 -0.0700  0.5628
 2749SOL    HW119709   1.898   3.927   0.395  0.5975 -1.0394 -2.7400
 2749SOL    HW219710   1.860   3.784   0.396 -1.1412  1.8038  0.2675
 2750SOL     OW19711   2.574   0.436   5.519 -0.2305  0.4616 -0.3078
 2750SOL    HW119712   2.561   0.385   5.439  1.5130  0.3492 -0.5202
 2750SOL    HW219713   2.525   0.513   5.489  0.3313  0.4688 -1.2165
 2751SOL     OW19714   2.858   0.970   1.876  0.1926  0.8980 -0.1739
 2751SOL    HW119715   2.908   0.937   1.950  2.5183 -1.7984 -2.9675
 2751SOL    HW219716   2.869   0.912   1.801  1.2127 -0.9606  1.4218
 2752SOL     OW19717   3.853   2.085  11.435  0.0972  0.0028  0.2009
 2752SOL    HW119718   3.904   2.151  11.387 -1.0611  0.5776 -0.2352
 2752SOL    HW219719   3.925   2.060  11.494  2.2148  2.2647 -1.3789
 2753SOL     OW19720   2.675   0.320   6.850 -0.0403  0.8125 -0.2851
 2753SOL    HW119721   2.608   0.361   6.795  0.9786  1.6734 -0.8898
 2753SOL    HW219722   2.684   0.232   6.814 -0.9603  0.9660 -0.9003
 2754SOL     OW19723   2.902   3.908   5.120  0.8591 -0.2046  0.0555
 2754SOL    HW119724   2.911   3.826   5.167 -0.3627 -0.1312  0.4147
 2754SOL    HW219725   2.917   3.966   5.195 -0.4161 -1.0129  0.9290
 2755SOL     OW19726   2.989   3.966  16.020  0.3075 -0.5393  0.2991
 2755SOL    HW119727   3.031   4.042  16.059 -1.4002  0.8310 -0.5422
 2755SOL    HW219728   2.976   3.985  15.927  1.6730 -0.1589  0.1801
 2756SOL     OW19729   4.061   1.134   8.120  0.3736  0.1962  1.0061
 2756SOL    HW119730   4.031   1.045   8.138  0.7033 -0.2463 -0.6759
 2756SOL    HW219731   4.009   1.160   8.044  1.1313  0.6303  0.6303
 2757SOL     OW19732   1.092   1.207   3.098  0.1043 -0.7027 -0.2727
 2757SOL    HW119733   1.165   1.145   3.091 -0.1668 -1.0748  0.1982
 2757SOL    HW219734   1.118   1.255   3.176 -2.7844 -1.3306  1.0747
 2758SOL     OW19735   3.624   3.975   9.073 -0.7693 -0.5275 -0.0196
 2758SOL    HW119736   3.677   4.034   9.019 -0.7064  0.3613  1.0063
 2758SOL    HW219737   3.667   3.984   9.158  1.6894 -0.0621 -1.2949
 2759SOL     OW19738   0.363   0.521   7.739  0.8274  0.1882  0.4486
 2759SOL    HW119739   0.434   0.569   7.782  0.7977 -1.4616  2.3296
 2759SOL    HW219740   0.353   0.438   7.786  1.1326  0.5693  1.1877
 2760SOL     OW19741   2.330   1.287  10.608  0.0930 -0.1711  0.6443
 2760SOL    HW119742   2.239   1.311  10.621 -0.6568 -2.3416 -0.5761
 2760SOL    HW219743   2.342   1.230  10.684 -0.5894 -0.7689  0.3031
 2761SOL     OW19744   2.589   2.528   4.324  0.2903  0.5276 -0.0752
 2761SOL    HW119745   2.591   2.462   4.255  2.7308  0.2945  0.2185
 2761SOL    HW219746   2.575   2.609   4.274 -2.4747  0.3815  0.4836
 2762SOL     OW19747   0.880   2.772   8.057  0.0177 -0.0041 -0.1849
 2762SOL    HW119748   0.793   2.805   8.033 -1.0182 -2.5137  0.0953
 2762SOL    HW219749   0.943   2.830   8.014 -0.5246  0.9717  0.3252
 2763SOL     OW19750   3.962   3.378  15.155  0.1320 -0.2069  0.2026
 2763SOL    HW119751   4.035   3.420  15.200  0.1211 -1.1900  1.1293
 2763SOL    HW219752   4.008   3.302  15.122 -0.3640 -1.1599  1.6846
 2764SOL     OW19753   4.352   4.011   8.980 -0.2792  0.3587 -0.1047
 2764SOL    HW119754   4.390   4.074   8.918 -1.5918  1.5695  0.3367
 2764SOL    HW219755   4.294   4.067   9.031 -0.2380  0.0241  0.3009
 2765SOL     OW19756   1.257   1.322   8.550 -0.3161  0.2586 -0.0000
 2765SOL    HW119757   1.187   1.323   8.617 -0.6337  2.0232 -0.3538
 2765SOL    HW219758   1.322   1.349   8.615  0.4375  2.5936 -1.7494
 2766SOL     OW19759   1.419   1.155   6.338 -0.2961 -0.5775 -0.0978
 2766SOL    HW119760   1.378   1.189   6.259 -0.5268  1.1544  0.7603
 2766SOL    HW219761   1.507   1.135   6.305  0.1716 -0.4563  1.0603
 2767SOL     OW19762   3.920   0.619   0.632 -0.4802  0.2794  0.1954
 2767SOL    HW119763   3.981   0.594   0.701  0.1765  1.3009 -0.0057
 2767SOL    HW219764   3.934   0.565   0.554  0.2631 -0.6053  0.9560
 2768SOL     OW19765   2.062   2.359   2.258  0.2186  0.5083 -0.2166
 2768SOL    HW119766   2.068   2.279   2.310  0.5578  1.0353  0.5513
 2768SOL    HW219767   1.985   2.347   2.202  1.1642 -2.8392 -0.7899
 2769SOL     OW19768   2.720   2.037   7.978  0.3940  0.0734 -0.0263
 2769SOL    HW119769   2.651   2.048   7.913  1.0277 -0.1816 -0.7520
 2769SOL    HW219770   2.668   2.040   8.058 -0.1899  3.0832 -0.5549
 2770SOL     OW19771   4.187   0.839  12.507  0.4367  0.0045  0.0430
 2770SOL    HW119772   4.243   0.797  12.571 -0.7456 -0.1248  0.9931
 2770SOL    HW219773   4.123   0.875  12.568 -0.0368 -1.3134  0.3102
 2771SOL     OW19774   0.091   2.933   3.188 -0.7905 -0.2192 -0.0457
 2771SOL    HW119775   0.021   2.871   3.170 -0.1319 -0.8277 -0.5287
 2771SOL    HW219776   0.166   2.873   3.188 -0.1279  0.6084  0.3172
 2772SOL     OW19777   1.624   0.950   7.720 -0.0295 -0.5577 -0.9987
 2772SOL    HW119778   1.575   1.028   7.747  0.8119 -0.3005 -0.2274
 2772SOL    HW219779   1.713   0.985   7.723 -0.4654  0.3626  0.7830
 2773SOL     OW19780   1.476   3.192   9.090  0.3797 -0.4886 -0.6497
 2773SOL    HW119781   1.542   3.222   9.152  1.0025 -1.3695 -0.8799
 2773SOL    HW219782   1.466   3.098   9.106 -1.4986 -0.5163 -1.9134
 2774SOL     OW19783   4.143   3.835  11.650  0.0681 -0.3415  0.2312
 2774SOL    HW119784   4.103   3.920  11.632 -0.5482 -0.2137  2.2181
 2774SOL    HW219785   4.066   3.790  11.684 -0.9683 -0.5304 -2.3460
 2775SOL     OW19786   0.002   1.709  13.047  0.2322 -0.0775 -0.2288
 2775SOL    HW119787   4.707   1.754  12.964  0.4343 -0.2856 -0.3786
 2775SOL    HW219788   0.098   1.714  13.049  0.3266 -1.4514 -2.0891
 2776SOL     OW19789   1.461   1.408   4.374  0.5375 -0.0701 -0.4890
 2776SOL    HW119790   1.395   1.426   4.307  0.9442  1.7145 -0.4070
 2776SOL    HW219791   1.416   1.456   4.443 -0.3512 -1.0412 -0.3824
 2777SOL     OW19792   1.866   3.296  10.225 -0.0636 -0.2063 -0.4310
 2777SOL    HW119793   1.854   3.201  10.227  1.6328 -0.3708  1.6626
 2777SOL    HW219794   1.784   3.345  10.211 -0.3379 -0.1689  1.2093
 2778SOL     OW19795   4.190   4.648   4.055 -0.3097  0.0121  0.4963
 2778SOL    HW119796   4.261   4.614   4.110  0.1116  0.2809  0.1186
 2778SOL    HW219797   4.128   4.577   4.075 -0.6568  0.0676 -0.3768
 2779SOL     OW19798   4.446   3.670   5.752 -0.0436  0.0557 -0.5227
 2779SOL    HW119799   4.414   3.583   5.729  0.5187  0.0336 -1.2284
 2779SOL    HW219800   4.378   3.714   5.803 -0.0720  0.3288 -0.7920
 2780SOL     OW19801   1.552   2.410   2.638 -0.2131 -0.3045  0.2995
 2780SOL    HW119802   1.489   2.462   2.588  0.0343  0.4753  0.8052
 2780SOL    HW219803   1.598   2.357   2.572  1.7343  0.1091  1.3075
 2781SOL     OW19804   1.808   1.360   6.484  0.3010  0.2076  0.5991
 2781SOL    HW119805   1.737   1.313   6.529  0.3011  0.0088  0.3940
 2781SOL    HW219806   1.795   1.448   6.520  0.2772  0.2891  0.3861
 2782SOL     OW19807   3.246   2.761  11.680 -0.2509  0.1530 -0.2760
 2782SOL    HW119808   3.193   2.723  11.610  0.0136 -1.6993  0.5242
 2782SOL    HW219809   3.178   2.803  11.731  1.8348  1.5365  1.3853
 2783SOL     OW19810   0.026   0.494  10.572 -0.6501 -0.1456  0.0699
 2783SOL    HW119811   0.087   0.566  10.587  1.3786 -2.0224  0.7425
 2783SOL    HW219812   0.091   0.424  10.578 -0.8094 -0.3230 -0.2776
 2784SOL     OW19813   2.394   3.730   0.569  0.0665  0.1146 -0.1017
 2784SOL    HW119814   2.325   3.732   0.503  0.8949 -0.7550 -1.0066
 2784SOL    HW219815   2.346   3.727   0.651  4.1110 -0.1981  2.2243
 2785SOL     OW19816   3.018   3.999   6.194  0.9456 -0.0379  0.1377
 2785SOL    HW119817   3.024   4.071   6.257 -0.3075  0.7410 -0.6141
 2785SOL    HW219818   3.071   4.035   6.123 -2.0669  2.5489 -0.7761
 2786SOL     OW19819   3.558   1.124   1.431  0.0401 -0.6117  0.1280
 2786SOL    HW119820   3.599   1.119   1.345 -2.8121  0.1686 -1.2714
 2786SOL    HW219821   3.631   1.137   1.492  0.8987 -0.2856 -0.9710
 2787SOL     OW19822   2.586   3.052  14.671 -0.1093 -0.3967  0.5044
 2787SOL    HW119823   2.653   3.051  14.739 -2.5678 -1.2368  2.9499
 2787SOL    HW219824   2.531   3.126  14.698 -2.2091 -1.6163 -0.4103
 2788SOL     OW19825   4.158   3.047  13.152  0.5285 -0.4903  0.4054
 2788SOL    HW119826   4.115   3.132  13.161  0.5375 -0.5434  0.9347
 2788SOL    HW219827   4.095   2.985  13.188 -0.4773  0.5910  0.4944
 2789SOL     OW19828   2.127   0.496  17.375  0.0136  0.6044  0.3798
 2789SOL    HW119829   2.062   0.514  17.443  0.3337  0.3704  0.7410
 2789SOL    HW219830   2.177   0.577  17.377  1.8163 -0.6589  4.8958
 2790SOL     OW19831   3.157   2.403   4.623  0.0964 -0.7499  0.2767
 2790SOL    HW119832   3.125   2.321   4.584  0.5591 -0.5660 -0.5022
 2790SOL    HW219833   3.113   2.418   4.706  0.9046  2.1799  0.1673
 2791SOL     OW19834   1.937   2.529  14.435  0.2504 -0.3116 -0.4711
 2791SOL    HW119835   2.011   2.508  14.378  1.1714 -2.1604  1.4200
 2791SOL    HW219836   1.974   2.587  14.502  0.7751  0.4245 -1.4048
 2792SOL     OW19837   4.591   4.540   9.791  0.0311  0.5602 -0.1177
 2792SOL    HW119838   4.670   4.492   9.765  0.9131  1.3676  1.0689
 2792SOL    HW219839   4.521   4.481   9.761 -0.2493  0.0603  1.5109
 2793SOL     OW19840   1.750   4.404   7.973 -0.7283  0.3103  0.0851
 2793SOL    HW119841   1.676   4.351   8.004  0.6746 -2.2521 -0.9587
 2793SOL    HW219842   1.814   4.345   7.933 -1.5405  0.1400 -0.9560
 2794SOL     OW19843   1.847   4.386  17.567 -0.1929 -0.0686 -0.0030
 2794SOL    HW119844   1.903   4.329  17.620 -0.7794 -1.8405 -1.2734
 2794SOL    HW219845   1.914   4.426  17.511 -0.5639  1.3364  0.5791
 2795SOL     OW19846   2.897   1.154  13.208 -0.0913  0.6612 -0.0330
 2795SOL    HW119847   2.981   1.108  13.204  1.1927  3.1323 -1.3056
 2795SOL    HW219848   2.922   1.240  13.240  0.4921  0.7941 -0.8425
 2796SOL     OW19849   3.739   0.934   4.748  0.1462 -0.8483 -0.4913
 2796SOL    HW119850   3.784   0.893   4.822  1.7571 -0.0626 -1.0214
 2796SOL    HW219851   3.780   0.892   4.671 -0.2466 -1.3276 -0.4339
 2797SOL     OW19852   4.324   4.408   4.950  0.7197  0.0639 -0.1336
 2797SOL    HW119853   4.278   4.427   5.032  0.7445  1.1633 -0.3653
 2797SOL    HW219854   4.387   4.345   4.985 -0.2169 -1.0306 -0.4151
 2798SOL     OW19855   0.650   0.381  12.881  0.0012 -0.5513  0.2219
 2798SOL    HW119856   0.664   0.374  12.976  1.5369  2.1234  0.1806
 2798SOL    HW219857   0.591   0.308  12.865  0.9976 -1.3058 -0.0245
 2799SOL     OW19858   2.598   2.074   6.107  0.1571 -0.0176 -0.2521
 2799SOL    HW119859   2.691   2.075   6.128 -0.0615  0.9570  0.6732
 2799SOL    HW219860   2.591   2.018   6.030 -1.2631 -0.8083  0.4634
 2800SOL     OW19861   0.305   1.644  10.965 -0.4061  0.1112 -0.0224
 2800SOL    HW119862   0.312   1.711  10.898 -2.9633 -1.6438 -2.0720
 2800SOL    HW219863   0.351   1.569  10.928  2.2460  2.0362 -0.5876
 2801SOL     OW19864   3.308   4.047   2.210  0.3732 -0.0962 -0.3982
 2801SOL    HW119865   3.342   4.127   2.170  0.0584  1.1764  1.8631
 2801SOL    HW219866   3.281   4.076   2.297  0.9873  1.4745 -0.7238
 2802SOL     OW19867   2.716   3.726   8.753 -0.2458 -0.3172 -0.0322
 2802SOL    HW119868   2.759   3.712   8.668  0.8389  2.4427  0.0811
 2802SOL    HW219869   2.681   3.808   8.720 -0.2466 -0.4867 -0.4542
 2803SOL     OW19870   4.294   1.107   0.310  0.5853 -0.6528 -0.3109
 2803SOL    HW119871   4.311   1.076   0.399  0.2550 -0.3214 -0.1344
 2803SOL    HW219872   4.326   1.197   0.305  1.6393 -1.0776 -1.0831
 2804SOL     OW19873   0.062   0.921   8.404  0.0357  0.9257 -0.6622
 2804SOL    HW119874   0.006   0.952   8.333 -1.4904  1.3348  0.7143
 2804SOL    HW219875   0.146   0.928   8.360  0.7658 -2.4508  0.2118
 2805SOL     OW19876   1.357   3.084  17.393  0.2975 -0.4385  0.4304
 2805SOL    HW119877   1.373   3.014  17.330 -2.4743 -2.0736  1.5599
 2805SOL    HW219878   1.262   3.094  17.383  0.1979 -0.0216  1.7736
 2806SOL     OW19879   0.759   2.627  14.273 -0.1212 -0.2838 -0.6463
 2806SOL    HW119880   0.755   2.535  14.248 -2.8568 -0.1316 -0.7192
 2806SOL    HW219881   0.761   2.615  14.368  1.8961  0.4292 -0.5851
 2807SOL     OW19882   0.420   0.366  10.343 -0.1926 -0.2687  0.2632
 2807SOL    HW119883   0.390   0.455  10.327  1.2623  0.0320 -0.7755
 2807SOL    HW219884   0.504   0.360  10.298 -0.3066  1.0850 -0.1243
 2808SOL     OW19885   0.447   0.956  11.337 -0.0282 -0.6501  0.0578
 2808SOL    HW119886   0.459   1.046  11.369 -1.6245  0.3954 -2.2904
 2808SOL    HW219887   0.423   0.914  11.420 -2.3810  2.0662  0.7654
 2809SOL     OW19888   3.857   2.860   6.856 -0.2383 -0.2945 -0.1541
 2809SOL    HW119889   3.781   2.801   6.864 -0.9923  0.6333 -0.4061
 2809SOL    HW219890   3.813   2.945   6.862  0.4306  0.1547 -1.6902
 2810SOL     OW19891   2.735   0.565   5.218 -0.3977  0.2619 -0.2893
 2810SOL    HW119892   2.723   0.472   5.196 -1.0466 -0.2902  2.4346
 2810SOL    HW219893   2.800   0.557   5.288 -0.3177  3.6576  0.0030
 2811SOL     OW19894   0.095   1.678   3.316 -0.1781  0.3004 -0.0336
 2811SOL    HW119895   0.082   1.597   3.364 -0.8329  0.6440  0.3602
 2811SOL    HW219896   0.140   1.649   3.237  0.8326  3.7181 -0.7318
 2812SOL     OW19897   2.559   3.115   2.109  0.5910 -0.6951  0.7516
 2812SOL    HW119898   2.599   3.115   2.195  3.0699 -1.4331 -0.4088
 2812SOL    HW219899   2.466   3.105   2.130  0.5497 -2.6645 -0.3232
 2813SOL     OW19900   1.334   0.539   8.858 -0.7114  0.2137  0.0697
 2813SOL    HW119901   1.293   0.453   8.862  1.0844 -0.6572  0.0615
 2813SOL    HW219902   1.421   0.511   8.888 -0.0380  1.7362 -0.4957
 2814SOL     OW19903   4.203   0.879   5.605  0.1410  0.1494  0.1011
 2814SOL    HW119904   4.262   0.946   5.638  1.9797 -0.7717 -1.3606
 2814SOL    HW219905   4.246   0.795   5.623  1.2837  0.6068 -0.4938
 2815SOL     OW19906   3.904   4.426   8.744  0.1616 -0.0254 -0.3158
 2815SOL    HW119907   3.976   4.485   8.720  0.4969 -0.9617 -1.5966
 2815SOL    HW219908   3.841   4.481   8.791  0.0213 -0.0639 -0.4621
 2816SOL     OW19909   0.750   4.256   8.552  0.7365  0.4827 -0.0415
 2816SOL    HW119910   0.820   4.278   8.614  0.7216  0.5090 -0.0336
 2816SOL    HW219911   0.782   4.178   8.506  0.0941  1.3330 -1.9248
 2817SOL     OW19912   2.490   0.866   7.484 -0.2221  0.4885 -0.6099
 2817SOL    HW119913   2.456   0.801   7.545 -1.3114  1.4023 -0.2402
 2817SOL    HW219914   2.533   0.808   7.421  1.8510  1.0759  0.2694
 2818SOL     OW19915   2.096   3.646   7.151  0.0005  0.6805  0.4553
 2818SOL    HW119916   2.051   3.729   7.166 -1.3897 -0.0330  0.2342
 2818SOL    HW219917   2.076   3.631   7.059 -1.6436  1.0179  0.7457
 2819SOL     OW19918   1.592   4.014   3.216 -0.2388 -0.1483 -0.9006
 2819SOL    HW119919   1.618   4.036   3.305 -0.2914 -0.1636 -0.8814
 2819SOL    HW219920   1.514   3.962   3.236  1.1849 -1.4929  1.0836
 2820SOL     OW19921   3.084   2.912   5.094 -0.2264  0.7338 -0.2604
 2820SOL    HW119922   3.056   2.854   5.023 -0.7952  2.0698 -1.1218
 2820SOL    HW219923   3.152   2.952   5.040 -1.6838  0.2863 -2.4324
 2821SOL     OW19924   4.284   1.231  12.105 -0.4065 -0.4031  0.0449
 2821SOL    HW119925   4.330   1.256  12.025 -1.4536  0.2297 -0.3712
 2821SOL    HW219926   4.345   1.267  12.169  0.3257 -2.3169  0.4147
 2822SOL     OW19927   0.386   0.288   7.857 -0.1996 -0.3896 -0.0374
 2822SOL    HW119928   0.467   0.310   7.904 -1.3327  1.7543  0.9171
 2822SOL    HW219929   0.427   0.249   7.779  0.9234  1.6622 -0.4877
 2823SOL     OW19930   0.310   2.952  12.490  0.4106  0.3584  0.0089
 2823SOL    HW119931   0.238   2.889  12.487  1.3423 -0.6407 -1.0150
 2823SOL    HW219932   0.327   2.966  12.396  3.8381 -0.6792  0.4929
 2824SOL     OW19933   3.783   3.568   5.237 -0.0722  0.4370  0.3845
 2824SOL    HW119934   3.825   3.484   5.257 -1.4398 -0.3779 -0.1673
 2824SOL    HW219935   3.833   3.594   5.159 -0.6366  0.3053 -0.0165
 2825SOL     OW19936   1.413   1.651  10.302  0.4025 -0.3408  0.2956
 2825SOL    HW119937   1.369   1.595  10.366  0.7677 -2.5637 -1.4064
 2825SOL    HW219938   1.362   1.644  10.222 -0.1701 -4.7747  1.0497
 2826SOL     OW19939   3.844   2.169   7.050  0.0912 -0.1407 -0.4969
 2826SOL    HW119940   3.842   2.188   6.957  3.5070  0.0906 -0.5309
 2826SOL    HW219941   3.759   2.207   7.072  1.3751  1.8540  1.0424
 2827SOL     OW19942   1.889   4.304   2.601  0.1708 -0.6333  0.6615
 2827SOL    HW119943   1.920   4.343   2.682  0.5534 -1.9261  1.1333
 2827SOL    HW219944   1.836   4.231   2.632  0.6241 -0.8378  0.9530
 2828SOL     OW19945   3.883   3.564   2.933  0.3019 -0.0300  0.2117
 2828SOL    HW119946   3.929   3.638   2.893  0.9867 -0.6168 -0.1111
 2828SOL    HW219947   3.909   3.503   2.863  0.5484 -1.2698  1.3672
 2829SOL     OW19948   3.759   1.934   9.382  0.0573 -0.2015  0.2887
 2829SOL    HW119949   3.697   2.007   9.384 -0.7531 -0.7378 -4.9192
 2829SOL    HW219950   3.705   1.876   9.329  0.2316 -0.6682  0.6264
 2830SOL     OW19951   3.035   0.732   6.561  0.2567  0.2329  0.4151
 2830SOL    HW119952   2.968   0.757   6.497  2.1798  1.2384 -1.2461
 2830SOL    HW219953   3.009   0.651   6.605  0.3139  1.2899  2.3768
 2831SOL     OW19954   0.234   1.054   6.596 -0.1103  0.6018 -0.6677
 2831SOL    HW119955   0.210   1.140   6.632 -0.5629  1.0881 -2.1450
 2831SOL    HW219956   0.149   1.010   6.596  0.2647 -0.1138 -0.6049
 2832SOL     OW19957   0.535   2.321  11.416 -0.5358  0.3104 -0.0614
 2832SOL    HW119958   0.521   2.305  11.323  1.4666  0.0998 -0.3227
 2832SOL    HW219959   0.630   2.332  11.427 -0.1296 -0.7751 -2.6037
 2833SOL     OW19960   4.198   0.292   8.098  0.1188 -0.1017 -0.3327
 2833SOL    HW119961   4.173   0.273   8.007  2.5974  0.0657 -1.0732
 2833SOL    HW219962   4.237   0.379   8.091 -0.6284  0.2976  0.5920
 2834SOL     OW19963   3.044   1.406   7.373  0.3126  0.0046 -0.4877
 2834SOL    HW119964   2.977   1.457   7.418  2.4372  1.5636  0.9574
 2834SOL    HW219965   3.000   1.369   7.296  0.5019 -2.4299  0.5749
 2835SOL     OW19966   2.356   3.898   8.932  0.0888 -0.4024 -0.1381
 2835SOL    HW119967   2.378   3.918   9.023 -2.8003 -1.8794  0.8632
 2835SOL    HW219968   2.262   3.913   8.930  0.0438 -0.9029 -1.8111
 2836SOL     OW19969   1.290   0.202   8.372  0.0867  0.3901  0.2624
 2836SOL    HW119970   1.310   0.291   8.345  0.4213 -0.1044 -1.0882
 2836SOL    HW219971   1.295   0.219   8.466  3.6377 -0.5375  0.2334
 2837SOL     OW19972   0.209   1.031  10.011  0.3087  0.3459  0.1677
 2837SOL    HW119973   0.191   1.114   9.968  0.1864 -1.0425 -2.4229
 2837SOL    HW219974   0.182   0.969   9.944 -1.3165 -1.8696  2.8584
 2838SOL     OW19975   1.304   3.150  10.097  0.2510  0.4205 -0.2034
 2838SOL    HW119976   1.387   3.196  10.102  0.5999 -0.1311 -0.9563
 2838SOL    HW219977   1.257   3.225  10.132 -1.1893 -0.7665  0.4333
 2839SOL     OW19978   3.862   0.048   7.845  0.1883 -0.1126 -0.2045
 2839SOL    HW119979   3.852   4.685   7.798 -2.0869  1.2901 -2.2076
 2839SOL    HW219980   3.938   0.035   7.901 -1.3750 -0.3189  1.8858
 2840SOL     OW19981   2.135   1.306   6.202  0.2756  0.5173  0.4356
 2840SOL    HW119982   2.154   1.381   6.146 -1.1845  0.6789  0.1652
 2840SOL    HW219983   2.224   1.276   6.220  0.5833 -0.7017 -2.9348
 2841SOL     OW19984   4.516   3.473   7.830  0.1010 -0.2352 -0.2253
 2841SOL    HW119985   4.491   3.455   7.739  1.5277  3.0776 -1.2724
 2841SOL    HW219986   4.517   3.569   7.837 -2.1939 -0.2287  0.1676
 2842SOL     OW19987   2.262   2.686  16.976 -0.3871 -0.4887  0.3772
 2842SOL    HW119988   2.278   2.773  17.011 -3.1985  0.5783 -1.0527
 2842SOL    HW219989   2.333   2.639  17.020 -0.6869 -1.0974  0.2155
 2843SOL     OW19990   3.747   4.073   3.101 -0.4674  0.2165 -0.1335
 2843SOL    HW119991   3.681   4.137   3.073 -1.7646 -0.6960  0.8287
 2843SOL    HW219992   3.734   4.003   3.037  0.7717  0.1937 -0.3495
 2844SOL     OW19993   0.061   1.994   5.074 -0.2891 -0.1392  0.2635
 2844SOL    HW119994   0.028   1.968   5.159 -1.4004 -1.0821 -0.4575
 2844SOL    HW219995   0.104   2.076   5.098  0.9642 -0.7901  0.2881
 2845SOL     OW19996   1.019   3.449   3.171  0.1200 -0.4630  0.4221
 2845SOL    HW119997   0.974   3.429   3.088 -2.3666  0.4067  1.5751
 2845SOL    HW219998   1.063   3.529   3.143 -0.3282 -0.0392  0.9609
 2846SOL     OW19999   3.716   4.132  17.058  0.6264  0.0553 -0.3312
 2846SOL    HW120000   3.775   4.138  17.133 -1.2607 -0.7893  1.2149
 2846SOL    HW220001   3.665   4.213  17.065  0.3179 -0.0688 -1.1192
 2847SOL     OW20002   2.328   3.930   2.100 -0.1692 -0.0450 -0.1500
 2847SOL    HW120003   2.245   3.977   2.090  0.3667  1.0924  0.6575
 2847SOL    HW220004   2.387   4.002   2.076 -4.0676  2.8556 -1.2047
 2848SOL     OW20005   1.473   1.185  11.076  0.4993 -0.1298  0.5491
 2848SOL    HW120006   1.392   1.139  11.098  0.3561 -0.0779  0.1476
 2848SOL    HW220007   1.469   1.192  10.980 -0.3243  1.9896  0.7198
 2849SOL     OW20008   2.169   2.604   7.318 -0.5428  0.2095  0.3188
 2849SOL    HW120009   2.083   2.630   7.350 -0.2332  0.2801  1.0752
 2849SOL    HW220010   2.178   2.657   7.238  0.1267  0.0182  0.2640
 2850SOL     OW20011   4.144   3.031   6.033 -0.1669 -0.5473 -0.1015
 2850SOL    HW120012   4.144   3.067   6.121  2.5848  1.5886 -0.9596
 2850SOL    HW220013   4.050   3.039   6.015  0.2058  1.4689 -1.2011
 2851SOL     OW20014   1.837   0.869   9.809 -0.3295 -0.0265  0.1582
 2851SOL    HW120015   1.876   0.914   9.884 -2.5739  1.3983  0.4760
 2851SOL    HW220016   1.865   0.781   9.837  0.4513 -0.1567 -1.0211
 2852SOL     OW20017   2.196   2.572  16.746 -0.2743 -0.2830  0.4577
 2852SOL    HW120018   2.202   2.613  16.832 -0.8234  3.1256 -1.1273
 2852SOL    HW220019   2.283   2.533  16.749  0.7231  1.8674 -0.8111
 2853SOL     OW20020   0.484   2.533   4.636 -0.2380 -0.0612 -0.2258
 2853SOL    HW120021   0.563   2.480   4.644  0.8003  1.8125  1.6348
 2853SOL    HW220022   0.451   2.509   4.722 -0.0096  2.0698  0.4324
 2854SOL     OW20023   2.288   0.209  14.672 -0.4867 -0.1310 -0.3270
 2854SOL    HW120024   2.235   0.169  14.741 -1.0599  2.2724  0.6366
 2854SOL    HW220025   2.228   0.209  14.597 -0.7457 -4.3576 -0.1185
 2855SOL     OW20026   0.431   0.685   9.184  0.2562  0.2701  0.8612
 2855SOL    HW120027   0.506   0.738   9.210  0.4045 -0.2653  1.5050
 2855SOL    HW220028   0.468   0.603   9.216 -1.4467 -1.3215 -1.1902
 2856SOL     OW20029   3.900   1.306   6.557  0.1366 -0.2175 -0.2484
 2856SOL    HW120030   3.953   1.320   6.479 -1.1554 -0.2981 -1.1349
 2856SOL    HW220031   3.931   1.220   6.584 -1.5883 -1.1188 -1.1841
 2857SOL     OW20032   1.627   0.994   1.664  0.1158 -0.4982  0.0636
 2857SOL    HW120033   1.701   0.957   1.617  0.9501 -0.1084  1.0660
 2857SOL    HW220034   1.609   1.066   1.604 -0.3373  1.1121  2.1362
 2858SOL     OW20035   2.323   4.639  14.403 -0.1669 -0.4062  0.1778
 2858SOL    HW120036   2.381   4.565  14.388 -0.8526 -0.7051 -1.0015
 2858SOL    HW220037   2.244   4.586  14.414 -0.0936 -1.2849 -3.2665
 2859SOL     OW20038   4.317   4.312   2.882  0.3453 -0.1338  0.2241
 2859SOL    HW120039   4.384   4.273   2.937  0.3327 -0.5125 -0.0335
 2859SOL    HW220040   4.245   4.253   2.903 -2.0982  3.2756  1.3693
 2860SOL     OW20041   4.129   2.561   3.080 -0.4820  0.1888 -0.5355
 2860SOL    HW120042   4.210   2.576   3.031 -0.1806  1.1141  0.2512
 2860SOL    HW220043   4.119   2.470   3.052  0.8075 -0.1699  0.2095
 2861SOL     OW20044   4.335   1.623   6.060 -0.0868  0.2375 -0.3155
 2861SOL    HW120045   4.268   1.576   6.010  0.8533 -0.5271 -0.8537
 2861SOL    HW220046   4.297   1.644   6.145  1.3471  0.0129  0.3813
 2862SOL     OW20047   1.239   3.419  10.154 -0.0732  0.1764  0.2516
 2862SOL    HW120048   1.206   3.426  10.065 -1.2639  2.7312  0.8727
 2862SOL    HW220049   1.181   3.487  10.190 -0.8061 -0.0089 -0.5952
 2863SOL     OW20050   3.588   2.669   2.734  0.2503  0.0071 -0.3249
 2863SOL    HW120051   3.510   2.679   2.789  0.3938 -0.9761  0.0648
 2863SOL    HW220052   3.650   2.643   2.801 -0.8670  1.9967  1.4549
 2864SOL     OW20053   0.738   0.375  11.450  0.1369 -0.5566 -0.0231
 2864SOL    HW120054   0.673   0.380  11.380 -1.0252  1.5452  1.2312
 2864SOL    HW220055   0.745   0.280  11.447 -0.1996 -0.5187 -1.8725
 2865SOL     OW20056   4.604   1.424   1.408  0.0128  0.1096 -0.5480
 2865SOL    HW120057   4.607   1.462   1.496 -0.4380  0.5324 -0.7172
 2865SOL    HW220058   4.636   1.339   1.439 -1.0167  0.0707  0.3875
 2866SOL     OW20059   1.477   1.770  15.391 -0.1276  0.2437  0.2975
 2866SOL    HW120060   1.395   1.798  15.431 -0.7605 -0.3149 -0.5947
 2866SOL    HW220061   1.476   1.677  15.414  0.8874  1.0386  3.4915
 2867SOL     OW20062   1.690   2.297   8.122 -0.6348  0.2570  0.2815
 2867SOL    HW120063   1.656   2.246   8.196 -1.9323 -0.3756 -0.7551
 2867SOL    HW220064   1.754   2.237   8.083  1.2724  0.5786  2.9399
 2868SOL     OW20065   0.219   0.680   6.627 -0.2782  0.0668 -0.0405
 2868SOL    HW120066   0.218   0.748   6.560  1.5706  0.5243  0.3883
 2868SOL    HW220067   0.247   0.600   6.584 -2.3630 -1.2782  1.0988
 2869SOL     OW20068   0.783   3.371   3.321  0.1909 -0.1444  0.0436
 2869SOL    HW120069   0.859   3.411   3.280  0.4537  0.8629  1.5188
 2869SOL    HW220070   0.813   3.309   3.388 -1.0841 -0.8100  0.0034
 2870SOL     OW20071   3.726   0.117   9.371  0.2143 -0.4647  0.2586
 2870SOL    HW120072   3.734   0.199   9.322 -1.7272  0.4172  1.3955
 2870SOL    HW220073   3.811   0.083   9.344 -0.1591 -2.2000  1.2766
 2871SOL     OW20074   3.720   1.252   7.739 -0.0302 -0.3974  0.3683
 2871SOL    HW120075   3.671   1.334   7.736  0.7400 -0.0366 -3.5845
 2871SOL    HW220076   3.672   1.193   7.797  0.2151 -3.2882 -2.3067
 2872SOL     OW20077   0.232   0.380   9.868  0.5444 -0.0216  0.1525
 2872SOL    HW120078   0.155   0.430   9.841 -0.0567 -0.5916  0.8292
 2872SOL    HW220079   0.255   0.420   9.952 -0.2310  0.1772  0.2670
 2873SOL     OW20080   0.536   2.432   2.520 -0.1230 -0.3464  0.3451
 2873SOL    HW120081   0.481   2.377   2.575  1.5041 -2.9357 -0.6143
 2873SOL    HW220082   0.520   2.401   2.431 -2.6298  1.2250  0.2614
 2874SOL     OW20083   2.060   1.700   4.165  0.1273  0.0042 -0.2112
 2874SOL    HW120084   1.981   1.704   4.219  1.5026  0.6598  1.7002
 2874SOL    HW220085   2.031   1.621   4.119  2.0462 -0.2772 -0.9443
 2875SOL     OW20086   4.189   4.170  11.575 -0.1772  0.0771  0.4843
 2875SOL    HW120087   4.226   4.253  11.606 -1.7161  1.1901 -0.6375
 2875SOL    HW220088   4.098   4.160  11.604  0.0670  0.1237  1.2472
 2876SOL     OW20089   3.169   1.193   1.138 -0.3337  0.1923 -0.0300
 2876SOL    HW120090   3.217   1.143   1.072  0.1971  0.0318  0.4757
 2876SOL    HW220091   3.095   1.228   1.088  1.3882  1.7306 -1.5466
 2877SOL     OW20092   2.458   3.255   3.000  0.0007 -0.0316 -0.0241
 2877SOL    HW120093   2.482   3.229   2.911  0.3288 -1.0230  0.3517
 2877SOL    HW220094   2.431   3.345   2.983  0.8239  0.4854  1.4727
 2878SOL     OW20095   1.926   2.528  12.577  0.1042  0.5060 -0.3249
 2878SOL    HW120096   2.021   2.539  12.570 -0.0024  2.1964  0.9201
 2878SOL    HW220097   1.895   2.618  12.587 -1.0575  0.1878 -1.0578
 2879SOL     OW20098   2.628   0.684   2.921 -0.0043  0.5822  0.1407
 2879SOL    HW120099   2.603   0.614   2.982  2.3808 -0.3687  0.0236
 2879SOL    HW220100   2.546   0.716   2.882  0.0177 -0.9469 -1.1662
 2880SOL     OW20101   0.225   2.541   0.463 -0.5582  0.1185 -0.1348
 2880SOL    HW120102   0.270   2.595   0.398 -1.3264  0.6278 -0.2474
 2880SOL    HW220103   0.253   2.578   0.547 -2.4733 -0.7174  0.8791
 2881SOL     OW20104   1.288   2.565   7.974  0.4362 -0.2814  0.5370
 2881SOL    HW120105   1.231   2.498   8.011 -1.5840  2.2209  1.9849
 2881SOL    HW220106   1.263   2.637   8.031  0.2344 -1.6506  2.1612
 2882SOL     OW20107   3.488   2.209  10.915 -0.3630  0.3709  0.2616
 2882SOL    HW120108   3.516   2.134  10.968 -3.5974 -0.5277  0.6843
 2882SOL    HW220109   3.485   2.173  10.827  2.1501 -0.1469  0.3875
 2883SOL     OW20110   3.601   4.121   9.590  0.0651  0.0057 -0.5735
 2883SOL    HW120111   3.562   4.164   9.666  1.7180 -1.6100  1.2203
 2883SOL    HW220112   3.533   4.063   9.557 -0.4426 -0.0460  0.5455
 2884SOL     OW20113   3.561   3.984   3.303  0.5813  0.0426 -0.1790
 2884SOL    HW120114   3.587   3.892   3.298 -0.2072 -0.0711 -2.3429
 2884SOL    HW220115   3.620   4.005   3.230  0.9947  1.0404  0.4354
 2885SOL     OW20116   3.437   2.150   2.784  0.1126 -0.0598 -0.2842
 2885SOL    HW120117   3.505   2.184   2.726  0.0489  0.6404  0.0634
 2885SOL    HW220118   3.488   2.140   2.865 -2.9570  0.9395  1.7685
 2886SOL     OW20119   0.219   1.051   4.676 -0.2203 -0.1211  0.0676
 2886SOL    HW120120   0.285   0.982   4.668 -1.5780 -1.1581 -2.0271
 2886SOL    HW220121   0.275   1.129   4.676  2.0916 -1.7877 -0.6303
 2887SOL     OW20122   1.990   0.729   6.947  0.4155 -0.0920  0.1840
 2887SOL    HW120123   1.930   0.754   7.017 -0.8342 -0.1421 -0.8702
 2887SOL    HW220124   1.964   0.788   6.876  1.7950  0.7753  0.3794
 2888SOL     OW20125   3.476   0.021   5.356  0.1888  0.0919 -0.6038
 2888SOL    HW120126   3.415   4.691   5.301 -0.1202  0.2168 -0.3808
 2888SOL    HW220127   3.539   4.673   5.379  0.4915  0.1080 -1.3801
 2889SOL     OW20128   4.528   3.242   1.777  0.0743  0.1946  0.0408
 2889SOL    HW120129   4.594   3.179   1.749  0.7379  0.1629  1.6942
 2889SOL    HW220130   4.568   3.323   1.744  0.9595  0.0087  0.6701
 2890SOL     OW20131   3.707   1.885   3.871  0.5425  0.3679  0.1232
 2890SOL    HW120132   3.725   1.828   3.945 -1.1374  1.3730  1.3061
 2890SOL    HW220133   3.630   1.835   3.843  1.8091 -0.2337 -2.2301
 2891SOL     OW20134   1.090   3.876   6.911 -0.7452 -0.1475  0.8366
 2891SOL    HW120135   1.077   3.805   6.848  0.6681  1.2688 -1.0465
 2891SOL    HW220136   1.061   3.951   6.859  0.2378  0.6725  1.4702
 2892SOL     OW20137   2.851   3.641   0.907  0.8493 -0.1100  0.4292
 2892SOL    HW120138   2.844   3.724   0.955  2.0634  0.3296 -0.1701
 2892SOL    HW220139   2.946   3.633   0.913  0.7117 -1.9198  0.1736
 2893SOL     OW20140   2.306   2.311  12.763  0.0248  0.0684  0.0055
 2893SOL    HW120141   2.272   2.391  12.722  0.0332 -0.7910 -1.6561
 2893SOL    HW220142   2.236   2.256  12.728  0.3196 -0.8754  0.8953
 2894SOL     OW20143   2.583   1.156   3.066 -0.1474  0.2585 -0.6089
 2894SOL    HW120144   2.630   1.180   3.146 -0.4567 -2.0431  0.2805
 2894SOL    HW220145   2.638   1.085   3.034 -2.4079 -1.4337 -0.7572
 2895SOL     OW20146   2.836   1.762   9.694 -0.3020 -0.0318 -0.0625
 2895SOL    HW120147   2.808   1.767   9.786 -1.0405 -0.4380 -0.2689
 2895SOL    HW220148   2.753   1.776   9.648 -0.0520  0.9728 -0.2087
 2896SOL     OW20149   4.674   1.440  12.792 -0.5267  0.9421  0.0193
 2896SOL    HW120150   4.653   1.476  12.705  0.5251  2.7940  0.5439
 2896SOL    HW220151   4.681   1.520  12.844 -0.3180  1.3334 -0.6104
 2897SOL     OW20152   0.031   1.730   6.124 -0.5204  0.2454  0.0625
 2897SOL    HW120153   4.712   1.814   6.100 -0.3626  0.2019 -0.3471
 2897SOL    HW220154   0.124   1.746   6.139 -0.3002  1.3247 -2.4616
 2898SOL     OW20155   2.492   1.384   6.941 -0.7561 -0.1427  0.2413
 2898SOL    HW120156   2.550   1.309   6.931  0.2231  0.5420  0.7715
 2898SOL    HW220157   2.457   1.403   6.854  2.7761 -1.4475 -1.4670
 2899SOL     OW20158   1.807   0.255  17.168  0.3825 -0.2550 -1.0529
 2899SOL    HW120159   1.799   0.272  17.261  1.5140  0.8327 -1.1567
 2899SOL    HW220160   1.757   0.323  17.123  0.0850 -0.3409 -0.8508
 2900SOL     OW20161   1.142   1.638   5.158  0.4795  0.1721 -0.1420
 2900SOL    HW120162   1.047   1.633   5.155  0.5403 -2.4048  2.0218
 2900SOL    HW220163   1.172   1.564   5.106  2.7788 -0.4096  1.9809
 2901SOL     OW20164   3.792   1.762   4.099  0.2149 -0.0502 -0.6064
 2901SOL    HW120165   3.797   1.830   4.167 -0.9057 -1.4997  0.9215
 2901SOL    HW220166   3.778   1.687   4.156 -3.2350  1.4984  0.5784
 2902SOL     OW20167   2.478   2.061   3.183  0.0056 -0.7044  0.2557
 2902SOL    HW120168   2.529   2.083   3.261  0.8779 -1.0456 -0.2205
 2902SOL    HW220169   2.489   1.966   3.196 -0.4321 -0.6698  0.8750
 2903SOL     OW20170   2.718   0.175   2.535 -0.3558 -0.4626  0.6715
 2903SOL    HW120171   2.645   0.115   2.549 -0.3145 -0.5499  0.4992
 2903SOL    HW220172   2.669   0.246   2.495 -1.6253 -1.0401  1.1897
 2904SOL     OW20173   3.604   0.678   3.388 -0.0074  0.3730  0.2089
 2904SOL    HW120174   3.525   0.676   3.442  1.1686 -0.2229  1.9274
 2904SOL    HW220175   3.659   0.607   3.421 -0.0652  0.8775  1.4111
 2905SOL     OW20176   1.777   0.788  11.826 -0.2106 -0.6019  0.7619
 2905SOL    HW120177   1.719   0.825  11.760  0.0528  0.1323  0.9390
 2905SOL    HW220178   1.793   0.873  11.867  0.4275 -1.0343  1.4092
 2906SOL     OW20179   0.775   0.209   6.300 -0.1821 -0.1235 -0.0795
 2906SOL    HW120180   0.869   0.190   6.309 -0.5132 -1.0189  1.3614
 2906SOL    HW220181   0.747   0.143   6.236 -0.7717 -1.3984  1.4901
 2907SOL     OW20182   2.832   4.272   2.034  0.1705  0.1615  0.5560
 2907SOL    HW120183   2.831   4.324   1.953 -1.1436 -0.6031  0.0847
 2907SOL    HW220184   2.852   4.336   2.103  2.0980  1.6475 -1.3710
 2908SOL     OW20185   2.311   1.861  11.032 -0.1836  0.2379  0.2768
 2908SOL    HW120186   2.300   1.954  11.009 -1.0443 -0.0475 -0.4796
 2908SOL    HW220187   2.404   1.870  11.051  0.5608 -1.1187 -2.7818
 2909SOL     OW20188   3.932   1.515  14.530  0.0714  0.0209  0.5494
 2909SOL    HW120189   3.910   1.595  14.578  1.8308  0.1300  1.1861
 2909SOL    HW220190   3.841   1.501  14.504  0.9223 -1.5089 -1.6300
 2910SOL     OW20191   3.347   1.158   5.168 -0.2698  0.0869  0.0943
 2910SOL    HW120192   3.371   1.210   5.091 -2.0709  0.1868 -0.4027
 2910SOL    HW220193   3.335   1.230   5.230  0.5568 -0.0465  0.3990
 2911SOL     OW20194   2.692   0.604  11.725  0.2093  0.5096 -0.0379
 2911SOL    HW120195   2.662   0.695  11.714 -1.4168 -0.2776 -2.1296
 2911SOL    HW220196   2.619   0.573  11.778  0.5364 -0.7061 -0.3088
 2912SOL     OW20197   3.600   2.076   3.057  0.2413  0.1775  0.2625
 2912SOL    HW120198   3.580   2.088   3.150  0.4770  0.0907  0.3245
 2912SOL    HW220199   3.602   2.170   3.039  1.1675  0.0925 -0.0620
 2913SOL     OW20200   0.366   4.417  14.431  0.2462  0.1500  0.7387
 2913SOL    HW120201   0.431   4.383  14.369 -1.7405 -0.9495 -0.7474
 2913SOL    HW220202   0.385   4.510  14.438  0.5934  0.1457 -0.1492
 2914SOL     OW20203   2.288   4.193   8.833  0.2226 -0.2576  0.3058
 2914SOL    HW120204   2.254   4.156   8.915 -0.1183  0.8538  0.6751
 2914SOL    HW220205   2.249   4.280   8.839  1.6358  0.4957 -1.6784
 2915SOL     OW20206   4.413   1.136   2.471  0.5147 -0.0494 -0.3008
 2915SOL    HW120207   4.461   1.055   2.487  0.6122  0.3923  1.6447
 2915SOL    HW220208   4.360   1.114   2.394  0.4210 -0.8264 -0.0031
 2916SOL     OW20209   0.479   1.063   8.057 -0.4871 -0.3061 -0.0411
 2916SOL    HW120210   0.435   1.082   7.974 -1.3224  1.8374  0.8928
 2916SOL    HW220211   0.522   0.982   8.027 -0.5419  0.0018 -0.9414
 2917SOL     OW20212   3.695   1.260   3.728 -1.0218 -0.3110  0.8423
 2917SOL    HW120213   3.722   1.176   3.690  0.2865  1.0809 -1.2645
 2917SOL    HW220214   3.738   1.249   3.813  1.3376  0.9409 -0.1904
 2918SOL     OW20215   4.226   3.956   6.644  0.5660 -0.1478  0.0603
 2918SOL    HW120216   4.169   3.923   6.713  1.0033 -1.3514 -0.1644
 2918SOL    HW220217   4.315   3.925   6.664  1.6168  2.8436  0.1603
 2919SOL     OW20218   4.116   3.580   6.998 -0.3724  0.5108  0.3815
 2919SOL    HW120219   4.197   3.608   7.039 -1.7605  2.3957  1.8232
 2919SOL    HW220220   4.053   3.626   7.053 -0.7274 -0.1428  0.5306
 2920SOL     OW20221   2.394   2.304   4.671 -0.2621 -0.3110 -0.0210
 2920SOL    HW120222   2.455   2.369   4.705 -3.6005  1.6834  2.0598
 2920SOL    HW220223   2.377   2.328   4.580 -0.1342  1.1888  0.3642
 2921SOL     OW20224   1.851   3.977   8.090  0.0939  0.2702 -0.2682
 2921SOL    HW120225   1.781   3.955   8.029 -0.2341 -1.1354  0.6065
 2921SOL    HW220226   1.818   4.061   8.123  0.9024  1.0151 -1.3479
 2922SOL     OW20227   3.750   1.504   4.266  0.0546 -0.0232  0.0178
 2922SOL    HW120228   3.707   1.505   4.351 -0.9754  0.6350 -0.5080
 2922SOL    HW220229   3.781   1.414   4.255  1.9611  0.8435 -1.7634
 2923SOL     OW20230   0.529   2.972   6.872 -0.0619 -0.4484  0.6453
 2923SOL    HW120231   0.581   3.001   6.947 -0.8762 -0.7655  1.3297
 2923SOL    HW220232   0.592   2.908   6.838 -0.5410 -2.0584  2.7988
 2924SOL     OW20233   2.089   0.734   7.401 -0.3106 -0.3975 -0.4020
 2924SOL    HW120234   2.063   0.822   7.374  1.9116  0.4122  0.0886
 2924SOL    HW220235   2.120   0.750   7.490 -1.4946  0.2551 -0.1123
 2925SOL     OW20236   3.093   1.625  10.590  0.6953 -0.1909 -0.5998
 2925SOL    HW120237   3.091   1.530  10.594  1.5918 -0.1524  1.0471
 2925SOL    HW220238   3.183   1.651  10.569  1.3624 -2.1297 -0.1063
 2926SOL     OW20239   2.516   2.809   2.561 -0.8274 -0.0494 -0.6001
 2926SOL    HW120240   2.531   2.721   2.597  0.4243  1.7899  3.3320
 2926SOL    HW220241   2.601   2.852   2.575  0.7383 -2.4851 -2.5430
 2927SOL     OW20242   2.607   2.946   8.500  0.3420 -0.2218  0.4921
 2927SOL    HW120243   2.585   2.879   8.434 -0.3725 -0.1821  0.7006
 2927SOL    HW220244   2.516   2.966   8.521  0.3243 -1.9904  2.0844
 2928SOL     OW20245   3.817   1.457  11.780  0.1154  0.4614 -0.0547
 2928SOL    HW120246   3.745   1.515  11.755 -0.6805 -0.8764 -0.8365
 2928SOL    HW220247   3.870   1.453  11.700 -2.4649 -3.2496 -1.5841
 2929SOL     OW20248   0.256   2.178  11.919 -0.0682  0.9273  0.8048
 2929SOL    HW120249   0.331   2.223  11.958  1.4712 -1.7887  1.0086
 2929SOL    HW220250   0.205   2.258  11.923  0.6522  1.5228 -1.6988
 2930SOL     OW20251   1.479   0.409   4.332 -0.3454  0.0707  0.1212
 2930SOL    HW120252   1.450   0.337   4.277 -1.4997 -0.4024  1.3437
 2930SOL    HW220253   1.554   0.444   4.284 -0.2250 -0.2679  0.0632
 2931SOL     OW20254   0.713   3.510  12.860  0.1554 -0.0087 -0.0708
 2931SOL    HW120255   0.691   3.417  12.851 -0.4940  0.2769 -1.5991
 2931SOL    HW220256   0.807   3.503  12.842  0.3719  1.9007  0.2486
 2932SOL     OW20257   0.998   2.600   3.391 -0.3915  0.0557  0.0558
 2932SOL    HW120258   0.962   2.523   3.434  0.0875 -1.4163 -2.1709
 2932SOL    HW220259   1.015   2.573   3.300  1.3172 -0.3432  0.4962
 2933SOL     OW20260   2.841   4.701   5.575 -0.3366 -0.3221 -0.1145
 2933SOL    HW120261   2.920   4.647   5.572 -0.3617 -0.4660  1.5154
 2933SOL    HW220262   2.847   0.020   5.663  0.2150 -1.9884  0.5815
 2934SOL     OW20263   0.877   0.871  12.943 -0.8093 -0.1195  0.2116
 2934SOL    HW120264   0.960   0.908  12.915 -0.8696  0.2184  0.4707
 2934SOL    HW220265   0.821   0.946  12.922 -2.9116 -0.7317  3.4718
 2935SOL     OW20266   3.623   3.601  10.177 -0.3333  0.0461 -0.3058
 2935SOL    HW120267   3.658   3.549  10.105 -1.6309 -0.8449 -0.2869
 2935SOL    HW220268   3.703   3.637  10.215  0.0926 -2.9636  1.6362
 2936SOL     OW20269   4.568   3.146   2.048 -0.2374 -0.0560  0.0289
 2936SOL    HW120270   4.516   3.193   1.983 -0.7878  1.0010  1.2261
 2936SOL    HW220271   4.569   3.053   2.023 -0.7137  0.0110 -0.2440
 2937SOL     OW20272   2.314   1.724  15.352 -0.0526  0.0279 -0.3069
 2937SOL    HW120273   2.332   1.728  15.258 -0.0464 -1.4592 -0.3808
 2937SOL    HW220274   2.298   1.816  15.370  1.6382  0.0549  1.0364
 2938SOL     OW20275   3.119   4.593   5.970 -0.4620 -0.1744  0.2979
 2938SOL    HW120276   3.073   4.530   6.026 -2.4560 -0.7259 -1.9364
 2938SOL    HW220277   3.127   4.668   6.028  0.5889  1.4301 -1.9373
 2939SOL     OW20278   0.787   0.051  10.100 -0.5500  0.4742 -0.0089
 2939SOL    HW120279   0.827   0.053  10.013  1.2012  0.0514  0.7690
 2939SOL    HW220280   0.730   4.694  10.090 -1.7667  1.5682 -1.3026
 2940SOL     OW20281   2.698   1.615  15.766  0.3382  0.0572 -0.6346
 2940SOL    HW120282   2.649   1.649  15.691  0.3806  0.9751 -0.2432
 2940SOL    HW220283   2.758   1.687  15.782 -0.8313  0.5610  1.4447
 2941SOL     OW20284   2.590   1.844   5.938  0.0126 -0.1133  0.3959
 2941SOL    HW120285   2.528   1.818   6.006 -3.6544  1.0948 -2.5357
 2941SOL    HW220286   2.666   1.789   5.958 -1.5179 -1.4390  2.6082
 2942SOL     OW20287   3.227   0.942  10.667  0.1842  0.3202 -0.2619
 2942SOL    HW120288   3.146   0.900  10.639  0.2447  0.0266 -0.0050
 2942SOL    HW220289   3.287   0.901  10.605 -0.4091 -2.0462  0.7175
 2943SOL     OW20290   4.065   2.368   0.030 -0.9280  0.5551  0.4931
 2943SOL    HW120291   4.061   2.418   0.112  1.3033  1.5811 -0.0351
 2943SOL    HW220292   4.154   2.363  17.676 -1.8412  0.1585 -1.7897
 2944SOL     OW20293   2.021   4.680   1.975 -0.2695  0.3304  0.2956
 2944SOL    HW120294   2.008   0.054   1.957  0.5311  0.3913  0.0365
 2944SOL    HW220295   2.008   4.638   1.890  0.7960  0.7567 -0.0736
 2945SOL     OW20296   4.157   1.598  16.436  0.4912 -0.1656 -0.1131
 2945SOL    HW120297   4.228   1.540  16.463  0.8005  0.8530  1.2658
 2945SOL    HW220298   4.087   1.549  16.478 -1.9754  3.5555  0.1274
 2946SOL     OW20299   3.575   1.345  15.132 -0.3297 -0.0872  0.2142
 2946SOL    HW120300   3.556   1.313  15.044 -2.7084 -0.6124  0.9136
 2946SOL    HW220301   3.568   1.439  15.120 -0.8683 -0.1135  0.2822
 2947SOL     OW20302   3.615   4.323  14.919 -0.1015 -0.1082  0.3164
 2947SOL    HW120303   3.664   4.390  14.966  0.6347  0.3086 -1.0698
 2947SOL    HW220304   3.540   4.371  14.885  0.3634 -0.5154 -1.2626
 2948SOL     OW20305   0.196   2.033  12.191  0.4500 -0.3548 -0.1534
 2948SOL    HW120306   0.146   2.062  12.115  1.0158  1.6667  0.2453
 2948SOL    HW220307   0.284   2.022  12.154  0.7328  2.3045 -0.2580
 2949SOL     OW20308   0.260   0.070  12.882 -0.0601  0.5811 -0.2459
 2949SOL    HW120309   0.276   4.707  12.835 -0.0314  0.4871 -0.0709
 2949SOL    HW220310   0.165   0.086  12.880 -0.4994 -1.6482  2.4460
 2950SOL     OW20311   2.697   0.099   4.798  0.4239 -0.2459 -0.1192
 2950SOL    HW120312   2.765   0.145   4.848  0.5547 -0.0530 -0.4729
 2950SOL    HW220313   2.615   0.146   4.812  0.2588 -0.0987 -1.5590
 2951SOL     OW20314   2.975   3.722   7.250 -0.0562 -0.1224  0.2283
 2951SOL    HW120315   2.938   3.800   7.208 -0.1682  0.4427  1.3530
 2951SOL    HW220316   2.907   3.708   7.316 -0.7496 -0.6492 -0.6039
 2952SOL     OW20317   0.596   3.099   1.776 -0.0139 -0.2572  0.5360
 2952SOL    HW120318   0.579   3.193   1.780 -2.6242 -0.6762 -0.6404
 2952SOL    HW220319   0.519   3.073   1.725 -0.4693 -1.2784  1.7422
 2953SOL     OW20320   3.771   2.457   6.807 -0.1146 -0.3161  0.0384
 2953SOL    HW120321   3.690   2.420   6.771  1.1458 -1.5040 -1.5321
 2953SOL    HW220322   3.837   2.469   6.739 -0.0087  1.8945  0.5393
 2954SOL     OW20323   3.572   3.024   8.436 -0.0489 -0.0586  0.6204
 2954SOL    HW120324   3.528   3.097   8.393  0.1447  0.6495  1.6380
 2954SOL    HW220325   3.612   3.062   8.514  1.5611  1.2216 -0.8312
 2955SOL     OW20326   0.342   0.822   1.473  0.7483  0.4091  0.0070
 2955SOL    HW120327   0.400   0.772   1.530  0.8273 -0.8165 -1.1444
 2955SOL    HW220328   0.352   0.907   1.516  0.7025  0.1350  0.5622
 2956SOL     OW20329   2.602   2.865   4.870  0.0943 -0.2616 -0.5680
 2956SOL    HW120330   2.675   2.815   4.833 -0.4920  0.3411 -2.5301
 2956SOL    HW220331   2.522   2.817   4.851 -0.5951  0.1364  1.3622
 2957SOL     OW20332   0.113   1.044   7.221  0.2699 -0.5337 -0.1164
 2957SOL    HW120333   0.075   1.097   7.151 -3.6735 -1.8994  1.0128
 2957SOL    HW220334   0.159   1.115   7.266  2.6183 -1.1163 -1.5754
 2958SOL     OW20335   4.240   0.038   6.645  0.2912  0.3112  0.1116
 2958SOL    HW120336   4.209   0.016   6.557  0.6496  3.5875 -0.8153
 2958SOL    HW220337   4.296   4.680   6.658  1.4935  0.5859 -3.2148
 2959SOL     OW20338   1.782   3.705  12.221  0.1077 -0.4847 -0.1281
 2959SOL    HW120339   1.832   3.722  12.141  0.6998 -1.1905  0.0951
 2959SOL    HW220340   1.698   3.751  12.217 -0.4459 -1.4770  0.1970
 2960SOL     OW20341   1.577   0.512   6.993 -0.2049 -0.3410  0.0786
 2960SOL    HW120342   1.498   0.551   7.028 -1.0849 -1.5627 -0.5484
 2960SOL    HW220343   1.557   0.426   6.956  0.5174 -0.7384  0.5964
 2961SOL     OW20344   1.639   4.320   5.733  0.5914  0.2947 -0.0668
 2961SOL    HW120345   1.690   4.259   5.787 -1.0042 -1.2715 -0.3218
 2961SOL    HW220346   1.577   4.359   5.795  0.5865 -0.4574  0.3969
 2962SOL     OW20347   3.591   2.417   4.716 -0.0450 -0.5303  0.0726
 2962SOL    HW120348   3.628   2.333   4.743  0.8087 -0.8762 -2.1622
 2962SOL    HW220349   3.544   2.398   4.634  0.8825 -0.0473 -0.5689
 2963SOL     OW20350   2.146   3.226  15.935  0.1073  0.0790  0.4689
 2963SOL    HW120351   2.096   3.207  15.856  2.5420 -0.8141 -0.8629
 2963SOL    HW220352   2.136   3.144  15.984  4.9775  1.1609  3.3018
 2964SOL     OW20353   1.982   1.193   0.830 -0.1145 -0.1176 -0.1017
 2964SOL    HW120354   1.982   1.160   0.740  0.1158  0.6596 -0.3914
 2964SOL    HW220355   2.058   1.143   0.859  0.5838  0.0157 -1.6830
 2965SOL     OW20356   1.403   1.988   8.399  0.8567  0.2840  0.1317
 2965SOL    HW120357   1.445   1.925   8.341 -1.3448  0.7137 -1.9352
 2965SOL    HW220358   1.463   2.061   8.385  0.7444  0.2271 -0.6455
 2966SOL     OW20359   3.260   2.738   4.718 -0.0026  0.4396  0.0676
 2966SOL    HW120360   3.328   2.701   4.774  0.6902  1.9084  0.1902
 2966SOL    HW220361   3.179   2.741   4.769 -0.0721 -0.2793 -0.0051
 2967SOL     OW20362   0.730   1.794  10.682 -0.3239 -0.3645  0.4621
 2967SOL    HW120363   0.782   1.729  10.728  0.8612 -1.2136 -2.0496
 2967SOL    HW220364   0.669   1.735  10.636  1.2859 -0.2593 -1.8079
 2968SOL     OW20365   3.097   1.953   4.622 -0.0658  0.0950 -0.3727
 2968SOL    HW120366   3.135   1.917   4.542  0.0874  0.1694 -0.3347
 2968SOL    HW220367   3.088   1.871   4.669  0.6001 -0.2655 -0.8699
 2969SOL     OW20368   1.421   2.537  11.225  0.1894 -0.4458 -0.0447
 2969SOL    HW120369   1.444   2.447  11.202 -0.0406 -0.0421 -1.8593
 2969SOL    HW220370   1.493   2.556  11.285 -0.1020 -0.0847  0.1925
 2970SOL     OW20371   4.714   4.545   2.254 -0.0153  0.2066  0.4685
 2970SOL    HW120372   4.684   4.480   2.190 -2.2830  1.6441  0.0625
 2970SOL    HW220373   4.667   4.507   2.328  0.2813 -0.0533  0.5209
 2971SOL     OW20374   2.845   1.198   2.115 -0.1799  0.0839  0.1142
 2971SOL    HW120375   2.771   1.144   2.088  1.0776  0.3444 -3.8317
 2971SOL    HW220376   2.799   1.277   2.144  1.4221  0.9773  0.2059
 2972SOL     OW20377   0.424   2.683  14.146 -0.1176  0.0224 -0.3712
 2972SOL    HW120378   0.342   2.642  14.118  0.1155 -0.8431  0.2231
 2972SOL    HW220379   0.393   2.773  14.157  1.2697  0.5207 -0.5150
 2973SOL     OW20380   2.275   2.324  16.967  0.2033 -0.3657 -0.1131
 2973SOL    HW120381   2.325   2.370  16.901 -0.1639  0.0669 -0.0900
 2973SOL    HW220382   2.313   2.353  17.050 -1.2818  0.3587  0.3179
 2974SOL     OW20383   2.027   4.252   6.223  0.4334 -0.2191  0.1827
 2974SOL    HW120384   2.029   4.156   6.221 -2.9927 -0.2956  0.4023
 2974SOL    HW220385   1.935   4.267   6.201 -0.3415 -1.8114  2.3254
 2975SOL     OW20386   4.694   4.082   8.118 -0.1346  0.2586 -0.2189
 2975SOL    HW120387   4.701   4.093   8.213 -2.2467 -2.0808  0.1990
 2975SOL    HW220388   0.053   4.037   8.088  0.4474  0.0745  1.5778
 2976SOL     OW20389   3.780   0.682  16.073 -0.2902  0.1203 -0.0424
 2976SOL    HW120390   3.809   0.758  16.022  0.1511  0.9374  1.4324
 2976SOL    HW220391   3.856   0.627  16.060 -0.7351 -0.8030  1.2747
 2977SOL     OW20392   4.249   2.486   4.990  0.1566 -0.3131 -0.5347
 2977SOL    HW120393   4.334   2.499   5.031 -0.2872  0.4550  0.1391
 2977SOL    HW220394   4.233   2.569   4.945 -0.6290 -1.3145 -2.1518
 2978SOL     OW20395   1.252   1.939   5.366  0.4235  0.2634  0.6604
 2978SOL    HW120396   1.315   2.010   5.352  0.6638 -0.1544 -0.4455
 2978SOL    HW220397   1.253   1.920   5.459 -0.0496  0.9390  0.8073
 2979SOL     OW20398   2.710   0.074  10.802  0.0241 -0.2336  0.1939
 2979SOL    HW120399   2.688   0.167  10.808  0.6892  0.1110 -2.5848
 2979SOL    HW220400   2.779   0.090  10.737  0.1015 -0.3083  0.2576
 2980SOL     OW20401   2.272   3.318   2.393  0.1018  0.4992 -0.3312
 2980SOL    HW120402   2.345   3.338   2.450  2.7447 -2.7339 -2.5810
 2980SOL    HW220403   2.210   3.388   2.413  0.5646  0.1214  2.4107
 2981SOL     OW20404   2.734   1.615   1.247  0.5630 -0.0659 -0.3935
 2981SOL    HW120405   2.790   1.614   1.325  1.1723  1.5933 -0.8113
 2981SOL    HW220406   2.802   1.595   1.182  0.2722 -0.6608 -0.5172
 2982SOL     OW20407   4.366   1.790  14.126  0.6489 -0.5935  0.0476
 2982SOL    HW120408   4.442   1.828  14.171 -0.2775  0.6539  0.5478
 2982SOL    HW220409   4.307   1.863  14.108 -0.4957 -1.6628 -0.5045
 2983SOL     OW20410   3.833   0.342  17.217 -0.0694 -0.6395  0.4732
 2983SOL    HW120411   3.783   0.300  17.147 -0.5892  0.4449  0.1938
 2983SOL    HW220412   3.922   0.309  17.205 -0.1814 -0.0455 -2.0307
 2984SOL     OW20413   2.415   3.861  15.956 -0.1852  0.6046  0.0209
 2984SOL    HW120414   2.368   3.932  15.913 -0.5192  0.9312  0.9214
 2984SOL    HW220415   2.503   3.900  15.958  0.3066 -0.4631 -1.0755
 2985SOL     OW20416   3.605   0.861   4.244  0.5780 -0.1024 -0.0283
 2985SOL    HW120417   3.666   0.855   4.318  2.5431 -0.6040 -1.7199
 2985SOL    HW220418   3.535   0.797   4.257  1.3212 -0.7629  0.7208
 2986SOL     OW20419   3.086   3.241   1.969 -0.0620  0.6435 -0.1406
 2986SOL    HW120420   3.170   3.287   1.975  0.6311 -0.4005 -1.9370
 2986SOL    HW220421   3.085   3.163   2.025  0.9648  2.1336  1.9299
 2987SOL     OW20422   3.514   4.153   2.800 -0.1574 -0.5912  0.0132
 2987SOL    HW120423   3.557   4.168   2.884 -1.5047 -0.1428  0.6336
 2987SOL    HW220424   3.440   4.214   2.808 -2.6942 -3.7662  0.9714
 2988SOL     OW20425   2.452   4.381   2.950 -0.9096 -0.2757  0.2410
 2988SOL    HW120426   2.424   4.331   2.873  0.2706 -0.4141 -0.0949
 2988SOL    HW220427   2.502   4.313   2.994  1.6487  0.6881 -1.2029
 2989SOL     OW20428   0.337   4.560   4.266 -0.5590  0.3405 -0.3037
 2989SOL    HW120429   0.430   4.579   4.280 -0.2882 -1.4921  0.3843
 2989SOL    HW220430   0.343   4.476   4.222 -1.4623 -0.0329  0.2814
 2990SOL     OW20431   2.413   3.635  15.834  0.5467 -0.1264 -0.6772
 2990SOL    HW120432   2.323   3.602  15.829  0.8820 -0.6727 -3.0034
 2990SOL    HW220433   2.404   3.728  15.858 -0.5943 -0.0654 -1.3057
 2991SOL     OW20434   4.164   1.749  16.211  0.3228  0.6079  0.5092
 2991SOL    HW120435   4.167   1.712  16.300 -1.5950 -1.7423 -0.4073
 2991SOL    HW220436   4.085   1.801  16.224 -0.6194 -0.6252 -0.2844
 2992SOL     OW20437   0.684   1.720   4.623  0.3140 -0.1219  0.2210
 2992SOL    HW120438   0.667   1.692   4.713 -3.0574  0.7100 -0.1583
 2992SOL    HW220439   0.729   1.803   4.641 -0.9838  0.2490  1.7833
 2993SOL     OW20440   3.335   0.830   3.929 -0.2189  0.2553  0.1648
 2993SOL    HW120441   3.338   0.744   3.970 -0.8205 -0.0664 -0.4712
 2993SOL    HW220442   3.429   0.846   3.921 -0.6362  1.5581 -2.0753
 2994SOL     OW20443   2.182   4.173   7.157 -0.5159 -1.0296  0.1558
 2994SOL    HW120444   2.228   4.101   7.200  0.5621 -1.9504 -2.5776
 2994SOL    HW220445   2.145   4.209   7.238 -0.3465 -0.5611  0.0264
 2995SOL     OW20446   1.579   0.225  10.861 -0.1244  0.1106  0.1443
 2995SOL    HW120447   1.523   0.208  10.936 -0.7188 -1.9553 -0.7633
 2995SOL    HW220448   1.665   0.236  10.901  0.1664 -1.0167 -0.1751
 2996SOL     OW20449   4.692   2.099   3.295 -0.2903  0.4879 -0.1010
 2996SOL    HW120450   0.010   2.142   3.218 -0.9313 -1.4293 -1.4797
 2996SOL    HW220451   4.683   2.010   3.261  0.9720  0.7816 -1.1918
 2997SOL     OW20452   3.726   0.609  13.818 -0.8026 -0.6458 -0.3817
 2997SOL    HW120453   3.768   0.660  13.888 -0.4181 -0.1192 -0.9988
 2997SOL    HW220454   3.780   0.530  13.812  0.4728  0.3165 -1.5373
 2998SOL     OW20455   3.641   3.932   7.754 -0.3208 -0.5635  0.1098
 2998SOL    HW120456   3.650   3.931   7.849  1.7527 -0.3751 -0.0773
 2998SOL    HW220457   3.711   3.875   7.723 -1.1853  0.5853 -3.9682
 2999SOL     OW20458   2.298   2.136   7.173  0.5069  0.0182 -0.3325
 2999SOL    HW120459   2.360   2.205   7.151 -0.0425  1.4321  2.4874
 2999SOL    HW220460   2.209   2.171   7.183  0.2045 -1.2774  1.5977
 3000SOL     OW20461   0.574   1.738   7.192 -0.1307 -0.4578  0.3087
 3000SOL    HW120462   0.479   1.734   7.179 -0.0224  1.3133 -1.1627
 3000SOL    HW220463   0.586   1.701   7.279 -1.2768  0.3046  0.7917
 3001SOL     OW20464   4.299   0.658   0.857  0.4088  0.3337 -0.0691
 3001SOL    HW120465   4.287   0.669   0.763  0.2622  2.4147  0.1913
 3001SOL    HW220466   4.210   0.633   0.883  0.9117  0.2820  1.5937
 3002SOL     OW20467   1.117   0.716  17.520  0.4367 -0.2798 -0.4430
 3002SOL    HW120468   1.209   0.742  17.523 -0.0337  0.9290  3.6596
 3002SOL    HW220469   1.118   0.627  17.555 -2.1761 -0.0639  0.2450
 3003SOL     OW20470   2.690   1.534   4.356  0.2094 -0.2069  0.0420
 3003SOL    HW120471   2.657   1.491   4.434  1.4199 -0.9261  0.1580
 3003SOL    HW220472   2.626   1.593   4.315  0.5799  0.1873  0.0323
 3004SOL     OW20473   4.587   0.690   7.462 -0.0875 -0.6408 -0.7684
 3004SOL    HW120474   4.595   0.776   7.420 -0.8866 -1.2539 -2.1988
 3004SOL    HW220475   4.657   0.690   7.527 -0.0923  2.8672 -0.7687
 3005SOL     OW20476   0.666   4.566   9.942  0.0201  0.2123 -0.4173
 3005SOL    HW120477   0.639   4.482   9.905 -0.5012  0.9396 -1.6716
 3005SOL    HW220478   0.637   4.623   9.872  1.9091  0.3209 -1.1075
 3006SOL     OW20479   2.901   4.333   4.703 -0.3340 -0.0751  0.3605
 3006SOL    HW120480   2.854   4.408   4.667 -0.6994  0.3202  1.6397
 3006SOL    HW220481   2.983   4.357   4.661  0.9346  1.6562  3.8524
 3007SOL     OW20482   0.192   0.901   9.758 -0.1033 -0.2175 -0.0784
 3007SOL    HW120483   0.205   0.837   9.688  0.6064 -0.3958  0.2083
 3007SOL    HW220484   0.286   0.915   9.773 -0.4015  0.4623  1.1937
 3008SOL     OW20485   3.609   2.046   2.177  0.0837  0.1604  0.3679
 3008SOL    HW120486   3.575   2.059   2.089 -0.7401 -2.4522  0.3153
 3008SOL    HW220487   3.703   2.057   2.166 -0.3368  1.2652 -2.1250
 3009SOL     OW20488   0.859   0.658  10.753 -0.1113  0.3086  0.1825
 3009SOL    HW120489   0.796   0.596  10.715 -0.8478 -0.1610  2.2160
 3009SOL    HW220490   0.833   0.729  10.693  1.7312  1.1485  0.3812
 3010SOL     OW20491   1.345   1.628   3.069 -0.1602  0.2385 -0.1625
 3010SOL    HW120492   1.326   1.673   3.151  1.2604  1.5325 -0.5317
 3010SOL    HW220493   1.387   1.550   3.105 -2.3331 -0.6804  0.3390
 3011SOL     OW20494   0.428   2.360   5.055 -0.4850  0.2712 -0.4514
 3011SOL    HW120495   0.396   2.434   5.004  2.9751  1.9326 -0.2658
 3011SOL    HW220496   0.432   2.299   4.981  4.1909  0.3487 -0.2875
 3012SOL     OW20497   3.480   4.457  12.642 -0.2034  0.3687  0.1925
 3012SOL    HW120498   3.416   4.420  12.703  0.5709 -1.7799 -0.2910
 3012SOL    HW220499   3.460   4.405  12.564 -0.4062 -1.8910  1.7435
 3013SOL     OW20500   1.825   1.315  14.044 -0.2938 -0.2878 -0.2280
 3013SOL    HW120501   1.767   1.386  14.070 -1.1803 -0.8944 -0.5292
 3013SOL    HW220502   1.885   1.370  13.994  0.5049 -1.9137 -1.0811
 3014SOL     OW20503   2.640   4.415   3.599  0.2797  0.1683 -0.2274
 3014SOL    HW120504   2.550   4.446   3.603 -0.5472 -1.9767 -2.6523
 3014SOL    HW220505   2.664   4.428   3.691 -1.2424 -0.1236  0.2160
 3015SOL     OW20506   2.839   4.571   6.662 -0.3951  1.2730  0.0208
 3015SOL    HW120507   2.897   4.522   6.720 -0.8779 -0.7769 -1.2411
 3015SOL    HW220508   2.835   4.652   6.715  0.0304  1.9528 -0.9965
 3016SOL     OW20509   4.459   2.450   8.922 -0.3951  0.2104  0.0043
 3016SOL    HW120510   4.428   2.446   9.013 -2.1651 -1.1876 -0.6745
 3016SOL    HW220511   4.416   2.531   8.895  2.1969  0.6854 -2.7131
 3017SOL     OW20512   0.904   0.061  11.565  0.3310 -0.3075  0.2314
 3017SOL    HW120513   0.819   0.019  11.581 -1.0241  2.0739 -0.7616
 3017SOL    HW220514   0.961   4.712  11.601 -0.9003 -1.3941  0.1237
 3018SOL     OW20515   0.823   3.390  17.035 -0.0407  0.9739  0.7309
 3018SOL    HW120516   0.915   3.388  17.009 -1.0950 -0.3920 -2.8740
 3018SOL    HW220517   0.822   3.447  17.112  0.3249  3.4882 -1.1463
 3019SOL     OW20518   2.026   1.963  13.089  0.1376 -0.5125 -0.4415
 3019SOL    HW120519   2.093   1.953  13.157  0.3520  3.3615 -0.0681
 3019SOL    HW220520   1.954   1.912  13.127 -1.3588  0.2237 -2.2695
 3020SOL     OW20521   4.699   1.322   3.179  0.2578  0.1019 -0.1047
 3020SOL    HW120522   4.616   1.368   3.181  1.3581  2.1006 -0.7304
 3020SOL    HW220523   0.040   1.373   3.232  0.2736  0.2755 -0.2905
 3021SOL     OW20524   3.142   1.500  12.359 -0.0598 -0.0334  0.1413
 3021SOL    HW120525   3.114   1.569  12.299  2.6267 -0.1281 -1.2277
 3021SOL    HW220526   3.096   1.521  12.440 -0.9921  1.5378 -0.7931
 3022SOL     OW20527   3.894   0.796   3.078  0.0881 -0.7134 -0.2829
 3022SOL    HW120528   3.810   0.824   3.041 -1.8338 -2.3850  2.8341
 3022SOL    HW220529   3.892   0.703   3.055  2.5821 -0.8610  0.1945
 3023SOL     OW20530   4.355   2.204   2.870  0.6844  0.6163 -0.6174
 3023SOL    HW120531   4.414   2.146   2.918 -1.7490 -0.9289  0.5005
 3023SOL    HW220532   4.354   2.150   2.791  0.9339 -0.6650  0.2527
 3024SOL     OW20533   2.290   3.941   0.157  0.2517  0.0336  0.2653
 3024SOL    HW120534   2.249   4.005   0.100  0.7421  1.1792  1.1907
 3024SOL    HW220535   2.380   3.965   0.135  0.7990  0.6614  3.2073
 3025SOL     OW20536   0.529   0.943   8.557  0.3613  0.2496 -1.1663
 3025SOL    HW120537   0.463   0.982   8.500  0.7641  1.0254 -1.1070
 3025SOL    HW220538   0.530   0.854   8.523 -0.3995 -0.5622  0.9908
 3026SOL     OW20539   4.575   1.994   7.533 -0.1595 -0.2866 -0.1458
 3026SOL    HW120540   4.668   2.000   7.513 -0.8400  3.8551 -1.9351
 3026SOL    HW220541   4.562   2.082   7.569 -2.3541 -0.7189  0.1722
 3027SOL     OW20542   0.348   0.058   9.113  0.6059 -0.3716  0.0826
 3027SOL    HW120543   0.337   0.144   9.154 -2.5884 -0.9036  0.3581
 3027SOL    HW220544   0.265   0.044   9.067  0.5861  0.3101 -0.0873
 3028SOL     OW20545   3.744   0.973   2.399 -0.5182  0.4109 -0.3604
 3028SOL    HW120546   3.673   1.034   2.380 -0.5105  0.1962 -1.0627
 3028SOL    HW220547   3.695   0.903   2.442  0.0673  1.0871  1.4050
 3029SOL     OW20548   0.423   4.350   7.700 -0.4317 -0.0214 -0.7508
 3029SOL    HW120549   0.466   4.286   7.758 -0.5933 -0.3190 -0.9630
 3029SOL    HW220550   0.367   4.393   7.765 -0.5240 -0.5559 -0.4688
 3030SOL     OW20551   1.557   0.325   8.648 -0.1784  0.2087  0.1523
 3030SOL    HW120552   1.597   0.251   8.602 -0.8107  0.4903 -0.8492
 3030SOL    HW220553   1.465   0.304   8.637 -0.2469  1.4916 -1.7767
 3031SOL     OW20554   4.171   2.233   6.830  0.2739 -0.1863 -0.0256
 3031SOL    HW120555   4.082   2.229   6.795  0.5080 -1.7764 -0.4632
 3031SOL    HW220556   4.221   2.273   6.759  0.1327 -2.5051 -1.4648
 3032SOL     OW20557   4.573   4.590  14.633 -0.1842  0.0399 -0.2023
 3032SOL    HW120558   4.562   4.548  14.548  2.5390  0.5260 -0.7930
 3032SOL    HW220559   4.589   4.514  14.690 -2.2993  0.7537  1.3600
 3033SOL     OW20560   4.177   1.347   6.921  0.1980 -0.0087 -0.4241
 3033SOL    HW120561   4.178   1.402   6.999 -0.1677 -0.4874 -0.0892
 3033SOL    HW220562   4.258   1.385   6.885  1.0090 -0.3904  1.0016
 3034SOL     OW20563   2.017   3.279   2.180  0.6494 -0.6180 -0.1506
 3034SOL    HW120564   2.076   3.257   2.252  3.7728 -2.7794 -3.3986
 3034SOL    HW220565   2.050   3.365   2.157  1.0485 -0.3744  1.3329
 3035SOL     OW20566   1.221   1.012   0.169  0.0239  0.2014 -0.1307
 3035SOL    HW120567   1.162   1.005   0.094  1.5770  0.2822 -1.3579
 3035SOL    HW220568   1.240   0.919   0.179  1.7909  0.5461 -0.3072
 3036SOL     OW20569   2.284   0.571   4.392  0.1572 -0.6151  0.0316
 3036SOL    HW120570   2.330   0.513   4.453 -2.2969 -0.5162  2.0140
 3036SOL    HW220571   2.352   0.627   4.354  0.9541 -0.1582  2.1204
 3037SOL     OW20572   1.583   3.159   4.057 -0.2399 -0.3087  0.0209
 3037SOL    HW120573   1.646   3.094   4.088  1.3734  0.3026 -1.9537
 3037SOL    HW220574   1.615   3.162   3.967 -0.4110 -1.8364 -0.0938
 3038SOL     OW20575   4.616   2.835   2.539  0.2765 -0.1202 -0.1846
 3038SOL    HW120576   4.603   2.864   2.449  0.8262 -0.4797 -0.3787
 3038SOL    HW220577   4.572   2.749   2.537 -2.2340  1.1987 -1.4592
 3039SOL     OW20578   4.717   0.786   2.947  0.6374  0.2646  0.2230
 3039SOL    HW120579   4.696   0.821   3.034 -1.8551 -1.2764  0.2474
 3039SOL    HW220580   4.675   0.700   2.948  1.0417  0.0887  3.1576
 3040SOL     OW20581   4.646   0.218  12.493 -0.2290 -0.2131  0.6709
 3040SOL    HW120582   4.673   0.204  12.403  2.2504 -1.4064  1.6108
 3040SOL    HW220583   0.013   0.208  12.533 -0.2192 -2.0092  0.1777
 3041SOL     OW20584   3.319   3.239   6.563 -0.3237 -0.0620  0.4154
 3041SOL    HW120585   3.313   3.199   6.650  2.5521 -2.2401 -0.4197
 3041SOL    HW220586   3.266   3.317   6.584  0.6026  0.4208  0.9671
 3042SOL     OW20587   3.375   4.284   2.150 -0.0393  0.2074 -0.1862
 3042SOL    HW120588   3.308   4.317   2.210 -0.0263  1.4651 -0.8474
 3042SOL    HW220589   3.365   4.311   2.059  1.7154 -0.2445 -0.5018
 3043SOL     OW20590   2.434   0.054   4.531  0.1587 -0.1065  0.1115
 3043SOL    HW120591   2.491   0.029   4.604  0.8404  0.7275 -0.1421
 3043SOL    HW220592   2.420   4.688   4.489  0.5540 -0.5290  0.8477
 3044SOL     OW20593   2.061   2.345  13.152 -0.4618 -0.0332 -0.1712
 3044SOL    HW120594   2.154   2.324  13.156 -0.4123  0.2902  0.3721
 3044SOL    HW220595   2.034   2.333  13.243  1.0943 -0.3404  0.2434
 3045SOL     OW20596   0.381   1.521   1.490 -0.0139 -0.2614 -0.0474
 3045SOL    HW120597   0.355   1.562   1.572 -0.4636 -2.4588  0.9246
 3045SOL    HW220598   0.338   1.436   1.506  1.3034 -1.1080 -0.9982
 3046SOL     OW20599   2.612   1.544  17.545  0.4860  0.7164  0.1376
 3046SOL    HW120600   2.666   1.613  17.582  1.1687  1.4959 -2.3143
 3046SOL    HW220601   2.529   1.557  17.589 -1.2531 -2.8326 -2.0956
 3047SOL     OW20602   1.699   4.117   9.480 -0.5038 -0.2324  0.0119
 3047SOL    HW120603   1.763   4.074   9.537 -1.1481 -0.7657  0.3271
 3047SOL    HW220604   1.617   4.110   9.529 -1.6184 -1.6943 -2.0579
 3048SOL     OW20605   0.802   0.402   5.191  0.4264 -0.4373  0.1569
 3048SOL    HW120606   0.863   0.475   5.186 -0.8645  0.9096  3.8683
 3048SOL    HW220607   0.796   0.372   5.101 -2.0877 -0.4062  0.3124
 3049SOL     OW20608   3.650   1.910   5.834  0.0639 -0.1769  0.0295
 3049SOL    HW120609   3.656   1.974   5.762  0.3163  0.0085  0.2172
 3049SOL    HW220610   3.562   1.873   5.823  0.3820 -1.1686  0.8450
 3050SOL     OW20611   3.545   4.690  12.527 -0.1168 -0.1691 -0.2717
 3050SOL    HW120612   3.528   4.603  12.565 -0.1008 -0.7188 -1.5127
 3050SOL    HW220613   3.635   4.699  12.557  0.1841 -0.2713 -1.1538
 3051SOL     OW20614   1.050   1.419   6.606 -0.1786 -0.3249 -0.3098
 3051SOL    HW120615   1.114   1.348   6.613 -0.3742 -0.2594  2.2643
 3051SOL    HW220616   0.972   1.390   6.654  0.3600  0.4014  1.0038
 3052SOL     OW20617   3.465   1.202   7.556  0.1114 -0.2538 -0.1767
 3052SOL    HW120618   3.509   1.172   7.476  3.5811  0.9259  1.3121
 3052SOL    HW220619   3.410   1.272   7.521 -2.1358 -1.8004  0.2778
 3053SOL     OW20620   2.197   2.449   1.615  0.5225 -0.0257  0.4523
 3053SOL    HW120621   2.131   2.489   1.559  0.8060  0.4260  0.4449
 3053SOL    HW220622   2.251   2.391   1.562  1.7573  0.5059  1.1346
 3054SOL     OW20623   2.961   0.335   0.052 -0.0914 -0.0240  0.0795
 3054SOL    HW120624   3.040   0.319   0.102 -0.0186  2.6073  0.7870
 3054SOL    HW220625   2.977   0.286  17.652  1.5694  0.1317  0.3139
 3055SOL     OW20626   0.966   1.534   4.211  0.2378  0.3716  0.0039
 3055SOL    HW120627   0.888   1.578   4.244  1.2606  1.5083  0.9029
 3055SOL    HW220628   0.947   1.503   4.123  3.3500 -0.9374 -0.1943
 3056SOL     OW20629   0.995   1.355   9.246  0.3672 -0.5459 -0.0682
 3056SOL    HW120630   1.011   1.263   9.223 -1.5369 -0.5580 -1.3789
 3056SOL    HW220631   1.069   1.370   9.303 -0.1551  1.2147  0.1219
 3057SOL     OW20632   3.242   3.661  17.150 -0.3062  0.5703  0.4053
 3057SOL    HW120633   3.272   3.600  17.218 -0.0454  2.1517  1.6981
 3057SOL    HW220634   3.147   3.653  17.144 -0.0929 -1.5541 -0.2351
 3058SOL     OW20635   3.619   1.170   8.757  0.0988  0.7197 -0.4231
 3058SOL    HW120636   3.690   1.160   8.820  0.0518 -0.6000 -0.5695
 3058SOL    HW220637   3.637   1.118   8.679  0.9379 -1.6773  1.3643
 3059SOL     OW20638   2.338   0.624   3.140  0.1868  0.4328 -0.2205
 3059SOL    HW120639   2.378   0.711   3.131 -0.1262  0.5626 -0.3834
 3059SOL    HW220640   2.281   0.655   3.211 -0.4928 -1.3945  0.0246
 3060SOL     OW20641   0.474   3.412   3.911 -0.2435  0.7665  0.6784
 3060SOL    HW120642   0.380   3.416   3.896 -0.1968  1.5820  0.5793
 3060SOL    HW220643   0.483   3.328   3.956  0.9251  0.3281 -0.3833
 3061SOL     OW20644   4.128   1.740  13.398 -0.2877  0.1839  0.2788
 3061SOL    HW120645   4.077   1.767  13.322 -1.0809 -0.4348  0.6015
 3061SOL    HW220646   4.089   1.794  13.467 -0.6840  0.5416 -0.2342
 3062SOL     OW20647   0.955   2.288   8.910  0.7320 -0.2860  0.0798
 3062SOL    HW120648   0.878   2.231   8.901 -0.0055  0.3977  2.2172
 3062SOL    HW220649   0.957   2.325   8.822 -0.8355  1.0858  0.6326
 3063SOL     OW20650   3.112   0.665   7.485  0.2080 -0.1499  0.4078
 3063SOL    HW120651   3.070   0.737   7.438  0.0937 -1.6366 -1.7725
 3063SOL    HW220652   3.200   0.703   7.491  0.6479 -1.1417  0.1683
 3064SOL     OW20653   0.466   4.425   3.515  0.0339  0.6325 -0.0107
 3064SOL    HW120654   0.558   4.412   3.489 -0.2965 -1.2273 -0.2956
 3064SOL    HW220655   0.426   4.338   3.523 -1.8413  1.2962 -2.0632
 3065SOL     OW20656   0.823   4.609  11.929 -0.2007  0.2296  0.3177
 3065SOL    HW120657   0.875   4.533  11.955 -2.1433 -1.0209  0.5600
 3065SOL    HW220658   0.891   4.673  11.952 -2.9918  2.2515  3.0970
 3066SOL     OW20659   4.164   1.567   2.045  0.8502 -0.1056  0.8592
 3066SOL    HW120660   4.129   1.478   2.042 -0.5224  0.5219 -1.9214
 3066SOL    HW220661   4.248   1.551   2.002  0.3690  0.7338 -0.4142
 3067SOL     OW20662   0.544   3.738  10.789 -0.5040 -0.2902 -0.5964
 3067SOL    HW120663   0.613   3.795  10.755 -0.5531  0.2438  0.1992
 3067SOL    HW220664   0.506   3.692  10.714 -1.0206 -3.8395  1.8117
 3068SOL     OW20665   3.224   1.890  11.619 -0.1176  0.2372  0.0553
 3068SOL    HW120666   3.220   1.954  11.548  1.2997  2.3090  1.8174
 3068SOL    HW220667   3.308   1.851  11.594 -0.6229 -0.3871 -0.6416
 3069SOL     OW20668   1.581   1.399   9.337  0.3840 -0.1807  0.2993
 3069SOL    HW120669   1.552   1.417   9.426 -2.6401  1.0223 -0.9449
 3069SOL    HW220670   1.515   1.333   9.316 -0.7252  0.7600  0.8588
 3070SOL     OW20671   4.066   1.028   6.324  0.0138  0.1298  0.9644
 3070SOL    HW120672   4.075   0.982   6.408  1.3955  0.7705  1.1647
 3070SOL    HW220673   4.160   1.025   6.305  0.0015  0.9411  0.8034
 3071SOL     OW20674   0.809   3.037   6.986 -0.2879  0.1577 -0.5281
 3071SOL    HW120675   0.823   2.982   6.908  2.8292 -0.2485  0.2902
 3071SOL    HW220676   0.850   3.118   6.955 -0.0617 -0.2340 -1.2718
 3072SOL     OW20677   1.493   2.877  14.137  0.3950 -0.3601  0.6835
 3072SOL    HW120678   1.417   2.853  14.190  0.6617  0.3803  1.3835
 3072SOL    HW220679   1.512   2.961  14.179 -2.0138  0.9779 -0.8827
 3073SOL     OW20680   1.694   4.671   7.851  0.4063 -0.3058  0.5580
 3073SOL    HW120681   1.733   4.641   7.933 -1.6735  1.6746  2.2617
 3073SOL    HW220682   1.615   4.619   7.860  1.5342 -2.0666  0.1806
 3074SOL     OW20683   2.838   4.181  16.198 -0.0078  0.0514 -1.0249
 3074SOL    HW120684   2.867   4.269  16.174  2.1419 -0.6313 -1.0039
 3074SOL    HW220685   2.889   4.166  16.278  1.0491  2.0783 -1.2968
 3075SOL     OW20686   3.539   4.458   5.083  0.0901  0.0296 -0.0121
 3075SOL    HW120687   3.461   4.511   5.067  0.5023  0.4082 -0.7425
 3075SOL    HW220688   3.508   4.405   5.156 -0.7469  0.9632  0.3148
 3076SOL     OW20689   0.184   1.405   8.412 -0.5325 -0.1794 -0.3277
 3076SOL    HW120690   0.104   1.375   8.455 -1.3379  2.9123  0.3487
 3076SOL    HW220691   0.148   1.414   8.324  3.0419  1.4367 -1.6320
 3077SOL     OW20692   0.697   1.255   5.390 -0.2174  0.4377 -0.1253
 3077SOL    HW120693   0.616   1.286   5.431 -0.3189 -0.0418  0.0442
 3077SOL    HW220694   0.693   1.162   5.416  0.3006  0.4165 -0.1287
 3078SOL     OW20695   1.895   0.607   5.232  0.9285  0.3732 -0.5651
 3078SOL    HW120696   1.839   0.657   5.173  0.6501 -0.9404 -1.4246
 3078SOL    HW220697   1.837   0.618   5.308  2.4455  1.4959  0.4134
 3079SOL     OW20698   3.648   2.248  11.964  0.5761 -0.0712  0.7088
 3079SOL    HW120699   3.713   2.293  12.018 -0.0055  1.1851  0.3672
 3079SOL    HW220700   3.569   2.251  12.019 -0.5967 -0.2740 -0.9484
 3080SOL     OW20701   1.816   2.522   6.925 -0.2748 -0.7336 -0.2487
 3080SOL    HW120702   1.781   2.607   6.951 -0.4521 -1.0710  0.6304
 3080SOL    HW220703   1.823   2.543   6.832 -1.5791 -1.7523 -0.5768
 3081SOL     OW20704   3.906   4.647   7.392  0.1173 -0.4029  0.5301
 3081SOL    HW120705   3.972   4.695   7.341  0.7488 -3.4425 -1.4874
 3081SOL    HW220706   3.867   4.592   7.324  1.4465  1.6463 -1.8940
 3082SOL     OW20707   0.775   1.900   7.617 -0.0219 -0.0685  0.4990
 3082SOL    HW120708   0.830   1.877   7.692 -0.1005  1.0635  0.9124
 3082SOL    HW220709   0.724   1.820   7.603 -0.0292  0.1634 -0.8807
 3083SOL     OW20710   3.815   4.280   1.152 -0.2404  0.2029  0.6275
 3083SOL    HW120711   3.756   4.205   1.158 -1.8620  1.2144 -2.6165
 3083SOL    HW220712   3.831   4.295   1.245  0.3538 -0.7929  0.6959
 3084SOL     OW20713   0.642   1.055   3.394  0.2374  0.3521 -0.1027
 3084SOL    HW120714   0.676   1.105   3.320 -0.7283  0.9473 -0.1341
 3084SOL    HW220715   0.702   0.981   3.386  0.5975  0.3873  2.3310
 3085SOL     OW20716   1.367   0.004   3.493  0.2827 -0.1356 -0.0632
 3085SOL    HW120717   1.357   4.629   3.484 -1.4846  0.3936 -3.9421
 3085SOL    HW220718   1.278   0.025   3.520 -0.1603 -1.4539 -0.4819
 3086SOL     OW20719   4.624   1.621   0.912 -0.1355 -0.1818  0.4791
 3086SOL    HW120720   4.650   1.537   0.875 -0.5370 -0.8811  1.7870
 3086SOL    HW220721   4.630   1.606   1.007  0.6797  1.5402  0.7007
 3087SOL     OW20722   2.044   4.042   3.871  0.5372 -0.3762 -0.2315
 3087SOL    HW120723   2.129   4.035   3.828 -0.1213  1.4659 -1.8004
 3087SOL    HW220724   2.018   3.950   3.884 -0.6132  0.1895  1.5042
 3088SOL     OW20725   1.348   0.925   6.512 -0.0158 -0.2116 -0.3919
 3088SOL    HW120726   1.406   0.953   6.583  2.0586  0.9012 -2.5567
 3088SOL    HW220727   1.402   0.957   6.441  2.6194 -1.7297  0.9011
 3089SOL     OW20728   1.421   1.653   0.591 -0.4916  0.0912  0.0436
 3089SOL    HW120729   1.362   1.681   0.521 -2.0377 -0.4711  1.1362
 3089SOL    HW220730   1.407   1.558   0.588 -0.4150  0.0657  0.5340
 3090SOL     OW20731   3.383   3.185  11.138 -0.0760  0.0314 -0.1607
 3090SOL    HW120732   3.437   3.179  11.216 -1.4737 -0.9615  0.7297
 3090SOL    HW220733   3.371   3.276  11.113  1.1555  0.0646 -0.6233
 3091SOL     OW20734   0.366   2.922  15.453 -0.1464 -0.4969 -0.7135
 3091SOL    HW120735   0.433   2.896  15.516 -0.6685 -1.5860 -0.6086
 3091SOL    HW220736   0.411   2.967  15.381  1.5432 -0.4770  0.3533
 3092SOL     OW20737   4.279   2.199   3.614 -0.0847 -0.2621 -0.6382
 3092SOL    HW120738   4.196   2.160   3.640 -0.4761  1.3708  0.5391
 3092SOL    HW220739   4.327   2.117   3.599  0.5856 -0.3002  1.7934
 3093SOL     OW20740   3.892   0.601   4.565 -0.6296 -0.0976 -0.1244
 3093SOL    HW120741   3.900   0.538   4.493  0.3976 -1.5502  1.2589
 3093SOL    HW220742   3.859   0.540   4.631 -1.8564 -0.0964 -0.7255
 3094SOL     OW20743   2.998   2.287  17.239  0.3342  0.1446  0.3598
 3094SOL    HW120744   2.926   2.349  17.251 -0.3850 -0.3706 -1.2305
 3094SOL    HW220745   3.072   2.337  17.271  1.0968 -0.4568 -0.4581
 3095SOL     OW20746   0.208   2.390  12.205 -0.1661  0.1597 -0.0695
 3095SOL    HW120747   0.289   2.342  12.225  0.1180  1.0043  0.7679
 3095SOL    HW220748   0.233   2.482  12.207 -0.4371  0.2136  0.9959
 3096SOL     OW20749   3.038   0.680  11.313 -0.1720 -0.2044 -0.3691
 3096SOL    HW120750   3.105   0.614  11.329 -2.0084 -2.1261 -0.4761
 3096SOL    HW220751   3.012   0.700  11.403  3.7687 -1.4195  1.0266
 3097SOL     OW20752   4.105   0.932   2.628  0.8889 -0.5228  0.3953
 3097SOL    HW120753   4.109   0.960   2.719  1.3755 -0.5164  0.3699
 3097SOL    HW220754   4.035   0.867   2.628  1.0778 -0.7244 -0.5390
 3098SOL     OW20755   1.192   1.617  16.541  0.1452 -0.4253 -0.1516
 3098SOL    HW120756   1.187   1.666  16.459  1.8009 -0.8476 -0.5106
 3098SOL    HW220757   1.129   1.665  16.594  0.9680  1.2391 -0.6865
 3099SOL     OW20758   1.776   1.972   3.336 -0.2671 -0.3740  0.3330
 3099SOL    HW120759   1.866   1.952   3.364 -0.5403 -2.0526 -0.0122
 3099SOL    HW220760   1.772   1.918   3.257 -1.6484 -1.0846  0.8999
 3100SOL     OW20761   4.260   2.828   2.723  1.0343  0.3200  0.0110
 3100SOL    HW120762   4.286   2.851   2.634  0.8001  1.2648  0.1821
 3100SOL    HW220763   4.262   2.917   2.759  1.3935 -0.9301  3.0985
 3101SOL     OW20764   1.186   0.699   7.355 -0.1258  0.3389 -0.3193
 3101SOL    HW120765   1.173   0.608   7.331 -1.2782  0.8371 -1.5596
 3101SOL    HW220766   1.258   0.695   7.419  0.6085  0.0816 -1.1641
 3102SOL     OW20767   1.427   3.257   5.886 -0.3752  0.6262  0.1321
 3102SOL    HW120768   1.384   3.342   5.889 -1.7348 -0.0449 -0.5120
 3102SOL    HW220769   1.462   3.252   5.976  0.1244 -2.9968 -0.2434
 3103SOL     OW20770   2.883   1.465   6.140 -0.6536  0.2545  0.5277
 3103SOL    HW120771   2.815   1.528   6.115  2.3014  2.3136 -2.2665
 3103SOL    HW220772   2.838   1.382   6.121 -1.2854  0.7290 -0.0567
 3104SOL     OW20773   1.533   3.376   7.406 -0.0652  0.0895 -0.1101
 3104SOL    HW120774   1.535   3.391   7.500  1.0506 -0.0486 -0.1052
 3104SOL    HW220775   1.486   3.293   7.397  1.8752 -1.0491  0.2807
 3105SOL     OW20776   1.748   3.153   4.417  0.2280  0.1340 -0.4909
 3105SOL    HW120777   1.725   3.201   4.497 -3.7188 -2.6954  0.1012
 3105SOL    HW220778   1.833   3.119   4.444  0.7253  0.3220 -1.7954
 3106SOL     OW20779   2.131   2.157  12.585  0.2107 -0.2964  0.4392
 3106SOL    HW120780   2.099   2.068  12.568  1.1525 -0.7366  0.9673
 3106SOL    HW220781   2.072   2.200  12.523  0.3832 -1.3734 -0.4789
 3107SOL     OW20782   2.790   0.344   4.147  0.3728  0.4781  0.5899
 3107SOL    HW120783   2.720   0.349   4.083  1.7833  0.3044 -0.9719
 3107SOL    HW220784   2.778   0.259   4.189 -2.8686  1.7597  2.2061
 3108SOL     OW20785   2.428   4.274  14.560 -0.0847  0.0666 -0.1991
 3108SOL    HW120786   2.518   4.247  14.582 -0.6918 -1.0359  0.9632
 3108SOL    HW220787   2.375   4.225  14.623  0.8920  0.4743  0.9428
 3109SOL     OW20788   4.423   3.595   4.490 -0.4486 -0.7117  0.0456
 3109SOL    HW120789   4.337   3.630   4.514 -1.1424 -2.0685 -0.4851
 3109SOL    HW220790   4.448   3.654   4.418  1.4710 -1.4014  0.1639
 3110SOL     OW20791   1.130   4.699   5.666 -0.0508  0.1974  0.4123
 3110SOL    HW120792   1.060   0.039   5.641 -0.1778  0.8828  2.3965
 3110SOL    HW220793   1.199   0.043   5.648  0.9427 -1.5793 -2.0611
 3111SOL     OW20794   3.811   0.574  16.958 -0.2743 -0.2900  0.1828
 3111SOL    HW120795   3.783   0.596  17.047  3.7330 -0.6322  1.5320
 3111SOL    HW220796   3.839   0.664  16.940  0.5107 -0.4353  0.6732
 3112SOL     OW20797   3.978   2.924   7.602  0.3079 -0.1438 -0.2323
 3112SOL    HW120798   3.900   2.966   7.565  0.1000 -0.4720 -0.1692
 3112SOL    HW220799   4.051   2.985   7.589  1.4780 -0.8960  2.8675
 3113SOL     OW20800   2.971   4.312  11.373  0.8804  0.7010  0.6156
 3113SOL    HW120801   2.979   4.345  11.283  0.7398  0.1306  0.3974
 3113SOL    HW220802   3.065   4.306  11.393  0.2872 -3.2016  2.0861
 3114SOL     OW20803   4.613   2.886  11.154 -0.6250 -0.0516  0.0097
 3114SOL    HW120804   4.569   2.857  11.075 -0.2011 -0.5980 -0.0251
 3114SOL    HW220805   4.594   2.980  11.159 -0.6586  0.0123 -1.4767
 3115SOL     OW20806   2.085   3.879   5.488  0.6007 -0.2396 -0.1596
 3115SOL    HW120807   2.137   3.854   5.412  1.8580  1.4237  0.1601
 3115SOL    HW220808   2.047   3.959   5.452  0.8934 -1.2375 -2.6801
 3116SOL     OW20809   3.195   4.158  12.964  0.5023  0.2861 -0.3870
 3116SOL    HW120810   3.209   4.070  13.000 -0.5401 -0.1684 -1.0904
 3116SOL    HW220811   3.128   4.199  13.018 -1.2390 -0.5217 -1.9403
 3117SOL     OW20812   0.097   2.136   5.979 -0.2572 -0.4537 -0.0137
 3117SOL    HW120813   0.063   2.218   5.943  0.1205 -0.4005 -0.2508
 3117SOL    HW220814   0.170   2.167   6.033 -0.4499  0.1663 -0.1091
 3118SOL     OW20815   3.121   1.185  11.148 -0.1973  0.7951  0.3421
 3118SOL    HW120816   3.171   1.212  11.071 -0.6533  1.9709  0.4581
 3118SOL    HW220817   3.179   1.191  11.225 -2.2968  0.8635  1.9326
 3119SOL     OW20818   0.830   1.344   4.833  0.2594  0.5446  0.0717
 3119SOL    HW120819   0.820   1.358   4.738  1.0706  0.6999  0.0155
 3119SOL    HW220820   0.878   1.417   4.872 -0.1490  0.0593  1.4866
 3120SOL     OW20821   3.291   0.728   2.605 -0.4991 -0.1150 -0.1095
 3120SOL    HW120822   3.303   0.706   2.513  0.5408  1.7120 -0.4095
 3120SOL    HW220823   3.201   0.752   2.584 -0.6540 -1.1204 -0.5936
 3121SOL     OW20824   1.069   1.756  13.796 -0.4368 -0.1026  0.0069
 3121SOL    HW120825   1.034   1.707  13.721  0.0758  2.9238 -2.2373
 3121SOL    HW220826   1.149   1.789  13.755  0.1713 -0.8559  0.5728
 3122SOL     OW20827   2.491   0.844  14.638  0.3443  0.1951 -0.1390
 3122SOL    HW120828   2.508   0.855  14.544 -0.1242 -0.9042 -0.3565
 3122SOL    HW220829   2.557   0.903  14.673  0.1610 -0.9506  2.1211
 3123SOL     OW20830   4.689   2.360   8.776  0.0602  0.1287 -0.2729
 3123SOL    HW120831   4.663   2.269   8.791  1.9282 -0.1453  1.2885
 3123SOL    HW220832   4.618   2.411   8.815 -0.2194  0.2350 -0.9218
 3124SOL     OW20833   3.222   4.042   4.156 -0.1031 -0.3573  0.5426
 3124SOL    HW120834   3.140   3.994   4.146  0.7899 -1.9493  0.8308
 3124SOL    HW220835   3.239   4.083   4.071  1.6130 -0.7180  0.7137
 3125SOL     OW20836   1.624   3.272   3.480  0.1588 -0.5185  0.0488
 3125SOL    HW120837   1.690   3.332   3.446  1.5281 -2.6028 -0.9739
 3125SOL    HW220838   1.608   3.222   3.400  0.9201  0.7494 -0.8902
 3126SOL     OW20839   1.804   0.641   3.162 -0.0248 -0.2563  0.4096
 3126SOL    HW120840   1.763   0.616   3.080 -0.5894 -1.8293  1.1705
 3126SOL    HW220841   1.888   0.673   3.130  0.7518 -1.6827  0.9945
 3127SOL     OW20842   4.686   1.660   2.853 -0.6790 -0.0435  0.5958
 3127SOL    HW120843   4.667   1.567   2.863 -0.2205 -0.2455 -0.5093
 3127SOL    HW220844   4.623   1.689   2.919 -1.6320  1.3594 -0.9362
 3128SOL     OW20845   0.031   0.487   6.952  0.1134 -0.2331 -0.6617
 3128SOL    HW120846   4.693   0.411   6.935 -0.6122  0.1902 -0.1050
 3128SOL    HW220847   0.100   0.441   7.000 -1.3919 -1.3938  0.3999
 3129SOL     OW20848   3.564   4.675   8.637 -0.3214 -0.2344  0.3450
 3129SOL    HW120849   3.555   0.011   8.560  0.0574 -1.9550 -0.9426
 3129SOL    HW220850   3.483   4.624   8.627  0.4656 -0.6032 -4.0639
 3130SOL     OW20851   1.710   0.118   5.409  0.9039 -0.0632  0.0345
 3130SOL    HW120852   1.672   0.041   5.367  0.8671 -0.0221 -0.0065
 3130SOL    HW220853   1.783   0.080   5.459 -1.4653 -0.9459  2.7933
 3131SOL     OW20854   2.824   2.245   5.109 -0.6222 -0.1518  0.7869
 3131SOL    HW120855   2.759   2.315   5.105  0.4506  0.6649 -2.2319
 3131SOL    HW220856   2.824   2.232   5.204  0.0426 -2.1872  0.4969
 3132SOL     OW20857   0.110   2.082   7.497  0.3913  0.1945  0.5903
 3132SOL    HW120858   0.149   2.148   7.555 -0.6966  1.7366 -0.4405
 3132SOL    HW220859   0.111   2.137   7.419 -0.0680  1.1092  1.2242
 3133SOL     OW20860   4.615   3.331   3.985 -0.5015 -0.4936  0.6387
 3133SOL    HW120861   4.591   3.251   4.031 -1.7928  0.7535  2.1348
 3133SOL    HW220862   4.695   3.298   3.943 -2.1883  1.4273 -4.0584
 3134SOL     OW20863   1.357   0.588   1.395 -0.2687  0.3127 -0.5219
 3134SOL    HW120864   1.408   0.650   1.343 -2.0507  1.5319 -0.8139
 3134SOL    HW220865   1.268   0.616   1.374 -0.0747  1.3761  0.0576
 3135SOL     OW20866   1.680   2.890   2.843 -0.2006  0.0019  0.3450
 3135SOL    HW120867   1.623   2.822   2.808 -2.2824  1.2975  1.2268
 3135SOL    HW220868   1.763   2.844   2.854  0.7093  1.3040 -0.9724
 3136SOL     OW20869   0.030   0.400   6.210  0.0947  0.0708  0.2010
 3136SOL    HW120870   4.706   0.316   6.221  0.6363 -0.0799  1.1944
 3136SOL    HW220871   0.115   0.373   6.174 -0.3939 -1.4076  0.1456
 3137SOL     OW20872   4.255   3.835  15.563  0.6455 -0.0233  0.1324
 3137SOL    HW120873   4.274   3.772  15.633 -2.2453  0.0482  1.0073
 3137SOL    HW220874   4.174   3.805  15.522  0.3982  1.2335 -0.2952
 3138SOL     OW20875   3.171   0.077   7.997  0.6709 -0.1379 -0.7625
 3138SOL    HW120876   3.105   0.146   7.989  1.3480  0.4976 -0.8580
 3138SOL    HW220877   3.183   0.057   8.089  1.7891 -0.7901 -1.0494
 3139SOL     OW20878   4.044   1.340   6.291 -0.1870  0.0327  0.2127
 3139SOL    HW120879   3.968   1.399   6.287 -0.4507 -0.1822  1.9836
 3139SOL    HW220880   4.008   1.269   6.238  2.0594 -1.9507  1.3970
 3140SOL     OW20881   0.032   0.139   3.036  0.1153 -0.0659 -0.4389
 3140SOL    HW120882   0.123   0.115   3.016  0.3379  0.2304  0.1937
 3140SOL    HW220883   4.716   0.135   2.947 -1.4146 -0.3753  0.1903
 3141SOL     OW20884   4.094   2.955   7.312  0.3116  0.6466  0.3163
 3141SOL    HW120885   4.145   2.895   7.256  0.3336  1.8178 -0.9132
 3141SOL    HW220886   4.022   2.896   7.336  0.8827  0.1671  0.8678
 3142SOL     OW20887   2.682   0.743   3.782  0.2270  0.5565 -0.1874
 3142SOL    HW120888   2.734   0.683   3.729  1.0706 -0.6769  2.0419
 3142SOL    HW220889   2.625   0.688   3.836  0.8690  1.0934  1.0326
 3143SOL     OW20890   1.378   3.008   7.273 -0.3392  0.5051  0.1238
 3143SOL    HW120891   1.332   3.078   7.320 -0.9846  0.8955 -1.0845
 3143SOL    HW220892   1.355   2.935   7.331  1.5043 -0.2846 -0.1687
 3144SOL     OW20893   4.456   0.523   1.042  0.2622 -0.1722 -0.0000
 3144SOL    HW120894   4.421   0.541   0.954  1.4582 -0.0527 -0.4574
 3144SOL    HW220895   4.475   0.430   1.025 -2.0083 -0.3983 -1.3185
 3145SOL     OW20896   2.687   0.293   5.710  0.4471 -0.6227 -0.1711
 3145SOL    HW120897   2.778   0.273   5.689  0.8912  0.6504  0.4879
 3145SOL    HW220898   2.655   0.344   5.636 -0.8536  1.6165  1.9249
 3146SOL     OW20899   4.269   1.658   5.429  0.4631 -0.6226 -0.2363
 3146SOL    HW120900   4.190   1.639   5.379 -0.1147  1.1105 -0.0084
 3146SOL    HW220901   4.341   1.621   5.379  1.6476  3.8644 -1.8518
 3147SOL     OW20902   1.258   1.615  11.268  0.4390 -0.2116  0.4320
 3147SOL    HW120903   1.257   1.520  11.258 -2.1455  0.0485 -1.6653
 3147SOL    HW220904   1.303   1.653  11.192 -0.0667  0.0726  0.2752
 3148SOL     OW20905   2.791   1.631   8.234  0.0366 -0.2941  0.6056
 3148SOL    HW120906   2.768   1.682   8.312  0.0376  0.1910  0.2869
 3148SOL    HW220907   2.855   1.686   8.189  1.4289 -0.9751  1.7488
 3149SOL     OW20908   4.101   0.254  16.174  0.1492  0.1137 -0.1769
 3149SOL    HW120909   4.111   0.258  16.269 -0.0371  1.0658 -0.1969
 3149SOL    HW220910   4.177   0.212  16.132  0.3358  1.2997 -1.0190
 3150SOL     OW20911   3.431   1.589   4.406 -0.5248  0.1376  0.0480
 3150SOL    HW120912   3.470   1.656   4.349  1.9789 -0.7940  0.6613
 3150SOL    HW220913   3.509   1.559   4.453 -0.4332  2.0118  1.1128
 3151SOL     OW20914   0.721   2.037   6.379 -0.2508  0.0362  0.7496
 3151SOL    HW120915   0.787   2.040   6.448 -0.8809 -0.1187  1.3572
 3151SOL    HW220916   0.768   1.987   6.312 -1.2271 -1.1362  0.9264
 3152SOL     OW20917   2.086   3.342  10.393 -0.0203  0.0674 -0.0381
 3152SOL    HW120918   2.044   3.289  10.460  0.8405 -0.1726  0.3161
 3152SOL    HW220919   2.020   3.356  10.325  0.3022 -1.1983 -0.6205
 3153SOL     OW20920   2.381   0.745   7.091 -0.2740 -0.1287 -0.3174
 3153SOL    HW120921   2.339   0.790   7.017  0.0710  1.1906  0.2837
 3153SOL    HW220922   2.322   0.673   7.112  1.3078 -0.9306  1.2944
 3154SOL     OW20923   3.166   4.682   2.905 -0.3025 -0.2001  0.2529
 3154SOL    HW120924   3.232   0.022   2.942 -0.2522 -1.8097  2.7179
 3154SOL    HW220925   3.155   0.002   2.818  0.6750 -1.6289 -0.5145
 3155SOL     OW20926   2.916   2.616   5.106 -0.1973 -0.1290  0.3590
 3155SOL    HW120927   2.868   2.673   5.166  0.1223  1.0872 -0.5338
 3155SOL    HW220928   2.938   2.548   5.170 -0.4548  0.3399  0.9512
 3156SOL     OW20929   4.594   0.893  13.516 -0.2904  0.5267 -0.0129
 3156SOL    HW120930   4.669   0.917  13.462  0.3699 -2.0665 -0.2820
 3156SOL    HW220931   4.647   0.905  13.594 -0.9025 -0.0523  0.4900
 3157SOL     OW20932   3.774   1.806   9.840 -0.2802 -0.0085  0.2124
 3157SOL    HW120933   3.827   1.833   9.764  0.3942  1.9328  1.3999
 3157SOL    HW220934   3.682   1.811   9.814  0.1261  0.5118 -1.1443
 3158SOL     OW20935   1.997   3.241   1.737 -0.2362 -0.3277  0.3537
 3158SOL    HW120936   2.083   3.264   1.701 -0.4535  0.2417  0.1955
 3158SOL    HW220937   1.982   3.328   1.774 -0.6283  0.4838 -1.7307
 3159SOL     OW20938   0.621   3.196  17.393 -0.2850  0.0055  0.1799
 3159SOL    HW120939   0.580   3.219  17.310  1.2083 -1.9428 -1.1173
 3159SOL    HW220940   0.550   3.188  17.457 -0.5919  0.2559 -0.1353
 3160SOL     OW20941   3.211   2.710   7.223 -0.2263  0.0161  0.0160
 3160SOL    HW120942   3.158   2.784   7.193  0.3204 -0.1495 -1.3922
 3160SOL    HW220943   3.184   2.682   7.310 -1.4039 -0.8821 -0.6360
 3161SOL     OW20944   0.244   3.734   2.941  0.1488  0.2695 -0.3970
 3161SOL    HW120945   0.295   3.655   2.956  0.0546  0.3770  0.5199
 3161SOL    HW220946   0.297   3.782   2.877 -0.8882  1.8035 -0.1043
 3162SOL     OW20947   1.938   2.034  17.667 -0.5130  0.1830 -0.6545
 3162SOL    HW120948   1.851   2.075  17.666 -0.1506  0.9892  0.2901
 3162SOL    HW220949   1.994   2.087  17.610  0.9355  0.8766  1.4257
 3163SOL     OW20950   3.355   3.824   1.230 -0.2463 -0.4056 -0.1795
 3163SOL    HW120951   3.419   3.803   1.297 -0.5846  0.4675  0.4297
 3163SOL    HW220952   3.289   3.860   1.289  0.5188  1.3966 -0.4015
 3164SOL     OW20953   4.199   4.416   8.093  0.8045 -0.0903 -0.1220
 3164SOL    HW120954   4.227   4.484   8.032  0.8992 -0.9154 -1.0023
 3164SOL    HW220955   4.179   4.342   8.035 -0.6141  1.1069 -1.1288
 3165SOL     OW20956   0.083   3.497   7.206  0.2418 -0.1552 -0.2723
 3165SOL    HW120957   0.062   3.409   7.238 -0.0077 -0.1348 -0.3785
 3165SOL    HW220958   0.048   3.553   7.275 -0.3631 -0.6260 -0.1951
 3166SOL     OW20959   3.031   1.895   7.539 -0.1915  0.4388 -0.1901
 3166SOL    HW120960   3.118   1.894   7.578 -0.5424 -0.8974  0.5392
 3166SOL    HW220961   3.044   1.954   7.464  0.7420 -0.4442 -0.7172
 3167SOL     OW20962   2.532   0.650   3.973  0.0916 -0.4153 -0.1662
 3167SOL    HW120963   2.592   0.707   4.022 -0.4248  0.0704 -0.1076
 3167SOL    HW220964   2.496   0.592   4.040 -3.5771  1.4165 -0.5701
 3168SOL     OW20965   3.876   3.006   2.714 -0.2230 -0.3580 -0.5031
 3168SOL    HW120966   3.836   2.971   2.793  0.5825 -0.1703 -0.0074
 3168SOL    HW220967   3.839   2.955   2.641  1.1728  0.4960 -1.8168
 3169SOL     OW20968   0.613   4.695   2.584  0.2806  0.2277  0.2181
 3169SOL    HW120969   0.658   0.005   2.504 -1.7360 -1.5331 -1.5362
 3169SOL    HW220970   0.570   4.617   2.551  1.2097 -0.4389  0.5748
 3170SOL     OW20971   3.658   4.515   1.174 -0.1076 -0.3177 -0.2949
 3170SOL    HW120972   3.687   4.424   1.170 -2.1856 -1.0191  0.9868
 3170SOL    HW220973   3.647   4.533   1.267  0.2104 -2.3169  0.1342
 3171SOL     OW20974   2.561   4.237   7.520 -0.7468 -0.4528  0.5810
 3171SOL    HW120975   2.550   4.184   7.599 -1.0715 -0.4765  0.5206
 3171SOL    HW220976   2.634   4.197   7.474  0.2786  1.4312  0.5963
 3172SOL     OW20977   2.274   0.153  14.307  0.1628  0.0606  0.0527
 3172SOL    HW120978   2.219   0.191  14.375 -2.8877  0.2155 -2.5212
 3172SOL    HW220979   2.304   0.072  14.349  1.2295  1.8935  2.7951
 3173SOL     OW20980   2.473   3.417   2.585  0.6459  0.0876 -0.3604
 3173SOL    HW120981   2.535   3.344   2.585  0.0730 -0.3941  0.1182
 3173SOL    HW220982   2.480   3.436   2.679 -0.7221 -0.1381 -0.2108
 3174SOL     OW20983   4.338   2.108   7.022 -0.1283 -0.0442 -0.4451
 3174SOL    HW120984   4.317   2.026   6.978  1.6383 -0.8216  0.1458
 3174SOL    HW220985   4.292   2.169   6.964 -0.4180  0.1842  0.0246
 3175SOL     OW20986   3.388   3.712   5.964  0.1735 -0.0345  0.4323
 3175SOL    HW120987   3.470   3.698   6.012  0.9850 -1.1175 -1.2574
 3175SOL    HW220988   3.335   3.636   5.990 -0.4634 -0.5011 -2.2458
 3176SOL     OW20989   2.208   2.852   6.303  0.3642  0.1282  0.0424
 3176SOL    HW120990   2.150   2.927   6.290  1.1128  0.9418  1.4345
 3176SOL    HW220991   2.186   2.806   6.221  0.2158  2.7389 -1.3930
 3177SOL     OW20992   0.037   0.204   8.165 -0.4611  0.1144  0.4908
 3177SOL    HW120993   0.080   0.189   8.080  1.0292  0.7018  1.1364
 3177SOL    HW220994   4.662   0.193   8.156 -0.5740  1.8047 -0.3942
 3178SOL     OW20995   2.099   3.390   0.330  0.1212 -0.0939  0.0783
 3178SOL    HW120996   2.085   3.481   0.306  1.2363  0.4323  1.4251
 3178SOL    HW220997   2.119   3.403   0.423  0.4491  0.4456 -0.0722
 3179SOL     OW20998   0.698   0.786  11.820 -0.1727  0.1515  0.4188
 3179SOL    HW120999   0.709   0.847  11.747  0.6095 -1.0926 -0.5181
 3179SOL    HW221000   0.731   0.711  11.771 -1.0806 -0.0710  0.1454
 3180SOL     OW21001   3.047   2.611   4.859  0.1097 -0.1579  0.8946
 3180SOL    HW121002   3.005   2.623   4.944 -0.6410 -0.0077  0.4985
 3180SOL    HW221003   3.043   2.515   4.857  1.4316 -0.2194  1.4760
 3181SOL     OW21004   3.390   0.099   6.000 -0.6734  0.1117  0.1123
 3181SOL    HW121005   3.361   0.179   5.956  1.5215  1.4867  1.1288
 3181SOL    HW221006   3.465   0.073   5.946 -1.8571 -4.1755  0.5394
 3182SOL     OW21007   0.681   1.707   9.641  0.2265  0.1347 -0.0456
 3182SOL    HW121008   0.684   1.743   9.553  0.2003  1.4975  0.5126
 3182SOL    HW221009   0.615   1.757   9.689  2.6919  0.7488  2.7196
 3183SOL     OW21010   2.791   1.740   5.527  0.4448  0.3042 -0.9994
 3183SOL    HW121011   2.728   1.669   5.532  1.3985 -0.3783  1.4270
 3183SOL    HW221012   2.752   1.816   5.569 -0.6794 -0.2774 -1.0085
 3184SOL     OW21013   3.070   0.545  13.841  0.7255  0.3193  0.5906
 3184SOL    HW121014   2.983   0.506  13.846  1.3999 -1.0730  1.5785
 3184SOL    HW221015   3.062   0.637  13.816 -1.0709 -0.1904 -0.6806
 3185SOL     OW21016   3.828   3.964   1.813  0.1705  0.0411  0.4395
 3185SOL    HW121017   3.807   3.882   1.857  0.9718  0.0756  0.8921
 3185SOL    HW221018   3.819   3.931   1.724 -0.5718 -1.6292  1.1335
 3186SOL     OW21019   3.448   1.515   9.424 -0.4834 -0.2868 -0.1841
 3186SOL    HW121020   3.453   1.611   9.428 -2.9164 -0.1528 -0.4335
 3186SOL    HW221021   3.353   1.511   9.413 -0.5111 -0.7316  0.2291
 3187SOL     OW21022   0.903   2.237   2.020 -0.0370 -0.1713 -0.4636
 3187SOL    HW121023   0.889   2.258   2.113  0.1350  0.9772 -0.6975
 3187SOL    HW221024   0.819   2.203   1.989  1.0367 -2.2919 -1.0278
 3188SOL     OW21025   4.088   3.144  17.185 -0.2226 -0.2843 -0.2303
 3188SOL    HW121026   4.100   3.231  17.223 -3.2579 -1.3975  3.2120
 3188SOL    HW221027   4.175   3.110  17.164  0.4274  0.9749  0.4395
 3189SOL     OW21028   1.944   3.823  15.108 -0.1002 -0.3695 -0.8587
 3189SOL    HW121029   1.964   3.806  15.200 -0.1720  0.7566 -0.6322
 3189SOL    HW221030   2.031   3.840  15.072 -1.3175  3.6920 -1.9369
 3190SOL     OW21031   2.121   4.389   8.916  0.0447  0.4187 -0.3644
 3190SOL    HW121032   2.157   4.477   8.930 -1.8599  0.9686  1.0184
 3190SOL    HW221033   2.028   4.394   8.936  0.3778 -1.8901  1.6234
 3191SOL     OW21034   1.046   3.108   1.090  0.2838 -0.0145 -0.0855
 3191SOL    HW121035   1.092   3.191   1.096 -2.1128  1.3177 -0.2865
 3191SOL    HW221036   1.018   3.095   1.181  2.2190  1.7411  0.7357
 3192SOL     OW21037   1.542   3.594   2.933 -0.0897 -0.2570  0.1081
 3192SOL    HW121038   1.566   3.663   2.995 -1.0964 -0.7362  1.0365
 3192SOL    HW221039   1.522   3.532   3.003  0.5941 -0.1032  0.4453
 3193SOL     OW21040   2.196   3.235  17.672  0.1398  0.2959 -0.4711
 3193SOL    HW121041   2.124   3.287  17.637  1.1707  2.0070 -0.0696
 3193SOL    HW221042   2.158   3.148   0.001 -1.6861  1.1528  0.0326
 3194SOL     OW21043   2.800   2.371   2.990 -0.0022 -0.1527 -0.4587
 3194SOL    HW121044   2.708   2.360   3.015 -0.0657  0.4553 -0.4401
 3194SOL    HW221045   2.800   2.412   2.904 -1.0288 -1.5999 -1.1666
 3195SOL     OW21046   3.201   3.724   6.309  0.1547  0.5192  0.6548
 3195SOL    HW121047   3.109   3.696   6.317  0.9222 -1.6819  1.7225
 3195SOL    HW221048   3.186   3.808   6.266  2.1784  0.0361 -0.9868
 3196SOL     OW21049   4.410   1.546   1.956  0.2483 -0.1317 -0.0834
 3196SOL    HW121050   4.471   1.506   2.018  1.2252  2.7082  0.7493
 3196SOL    HW221051   4.429   1.497   1.876 -1.4739 -1.3151  0.2346
 3197SOL     OW21052   3.657   1.898   4.592 -0.2263  0.1164  0.0851
 3197SOL    HW121053   3.654   1.983   4.548  1.8749 -0.3288 -0.9268
 3197SOL    HW221054   3.733   1.857   4.550  0.9486 -0.0483  2.3999
 3198SOL     OW21055   2.456   1.801   4.120 -0.1507  0.3638  0.6004
 3198SOL    HW121056   2.432   1.711   4.145 -0.4702  0.4699  0.6746
 3198SOL    HW221057   2.367   1.829   4.096 -0.7020 -0.2654  1.9329
 3199SOL     OW21058   4.193   4.245  15.492  0.1555 -0.1704 -0.0964
 3199SOL    HW121059   4.259   4.247  15.561 -1.1269  1.2316  1.0693
 3199SOL    HW221060   4.207   4.157  15.458  1.8237 -0.0826  0.4006
 3200SOL     OW21061   1.636   2.087   1.998  0.0703 -0.2282 -0.5746
 3200SOL    HW121062   1.656   2.171   1.958  0.0196  0.5715  1.1053
 3200SOL    HW221063   1.702   2.082   2.067 -0.2786  2.6446 -0.0552
 3201SOL     OW21064   0.552   2.152   1.598  0.4612  0.1744  0.2929
 3201SOL    HW121065   0.574   2.159   1.505 -1.2609 -0.9044 -0.2026
 3201SOL    HW221066   0.493   2.226   1.612  0.0288  0.1861 -1.6208
 3202SOL     OW21067   0.463   3.514   2.678  0.1332 -0.6393 -0.8473
 3202SOL    HW121068   0.476   3.424   2.646 -2.4546 -0.9334 -1.0343
 3202SOL    HW221069   0.391   3.554   2.630 -0.6578  0.2280  1.0588
 3203SOL     OW21070   0.444   3.307   7.005  0.4425  0.4799 -0.4126
 3203SOL    HW121071   0.514   3.284   7.067 -1.1856 -0.1312  1.2094
 3203SOL    HW221072   0.373   3.344   7.057  0.2890  0.7312 -0.8087
 3204SOL     OW21073   1.489   4.437   4.468  0.1686  0.1481  0.6621
 3204SOL    HW121074   1.539   4.356   4.463 -0.0877  0.1408 -1.9183
 3204SOL    HW221075   1.555   4.498   4.501  1.9902 -2.3685  1.6212
 3205SOL     OW21076   3.627   0.268  12.551 -0.4251 -0.0365  0.3040
 3205SOL    HW121077   3.603   0.283  12.459 -0.8293  0.0979  0.4311
 3205SOL    HW221078   3.652   0.176  12.552 -0.5088 -0.0648 -0.1333
 3206SOL     OW21079   2.647   3.247   0.841  0.7862  0.1330 -0.2487
 3206SOL    HW121080   2.715   3.265   0.776  0.2296 -1.8229 -1.3824
 3206SOL    HW221081   2.648   3.153   0.858  0.0585  0.1596 -0.0412
 3207SOL     OW21082   1.548   3.242   2.989 -0.1372  0.6368  0.4456
 3207SOL    HW121083   1.623   3.223   2.933  0.0068 -0.1659  0.9237
 3207SOL    HW221084   1.470   3.247   2.934 -0.3624  0.4837  0.7514
 3208SOL     OW21085   0.491   0.957  14.161 -0.4186 -0.2835  0.4081
 3208SOL    HW121086   0.491   1.048  14.130 -3.2772 -0.3845  0.0943
 3208SOL    HW221087   0.480   0.914  14.076  0.1021 -1.0388  0.7294
 3209SOL     OW21088   3.000   0.349   4.997 -0.1008 -0.3801 -0.1199
 3209SOL    HW121089   2.986   0.443   4.985  2.5940  0.0950  0.4341
 3209SOL    HW221090   3.046   0.347   5.081  0.9545 -0.7329 -0.7050
 3210SOL     OW21091   4.287   2.212   8.985  0.0107  0.2148  0.2986
 3210SOL    HW121092   4.319   2.189   8.898  2.1080  0.5379  0.9912
 3210SOL    HW221093   4.256   2.301   8.970 -1.1618 -0.4417 -1.2459
 3211SOL     OW21094   3.866   4.215   1.711  0.2333 -0.7888 -0.0908
 3211SOL    HW121095   3.915   4.254   1.783 -0.0206 -0.2875 -0.1838
 3211SOL    HW221096   3.855   4.129   1.752  0.1982  0.3961  2.3936
 3212SOL     OW21097   0.226   1.984   1.727 -0.4164 -0.1801  0.1732
 3212SOL    HW121098   0.273   1.928   1.665  0.0123  0.5996 -0.2117
 3212SOL    HW221099   0.189   1.914   1.780  0.5546 -1.0195 -0.2636
 3213SOL     OW21100   1.076   0.370   1.516 -0.0993 -0.4425 -0.3282
 3213SOL    HW121101   0.982   0.353   1.526 -0.1026 -0.1474  0.1097
 3213SOL    HW221102   1.116   0.285   1.495 -0.5790 -0.6782 -0.3015
 3214SOL     OW21103   2.886   3.810   4.676 -0.1400  0.4181 -0.3417
 3214SOL    HW121104   2.928   3.894   4.658 -2.3150  1.3576 -1.0350
 3214SOL    HW221105   2.922   3.758   4.604 -0.4587  0.2066 -0.3486
 3215SOL     OW21106   0.736   2.200   0.574 -0.0681 -0.2138  0.2556
 3215SOL    HW121107   0.815   2.245   0.606 -1.1638  2.0853 -0.2582
 3215SOL    HW221108   0.703   2.260   0.507  0.8151  0.9865  0.8792
 3216SOL     OW21109   4.546   0.688   0.504 -0.0244  0.2878  0.3151
 3216SOL    HW121110   4.533   0.619   0.438 -1.0391  0.5182  0.2647
 3216SOL    HW221111   4.640   0.675   0.509  0.2111  1.3774 -1.3124
 3217SOL     OW21112   2.043   1.621  15.080  0.0330 -0.0648  0.0503
 3217SOL    HW121113   1.997   1.594  15.001  0.4390 -1.1797  0.2035
 3217SOL    HW221114   2.095   1.696  15.050 -0.7089 -0.2203 -1.6171
 3218SOL     OW21115   4.585   4.106   2.154 -0.5605  0.7767  0.2584
 3218SOL    HW121116   4.598   4.094   2.248  1.2176 -3.0135 -0.4513
 3218SOL    HW221117   4.492   4.085   2.154 -0.6499  1.1891  0.9504
 3219SOL     OW21118   3.613   2.517   8.101 -0.4604  0.4869  0.1260
 3219SOL    HW121119   3.564   2.563   8.169  1.4653 -0.3170  2.0665
 3219SOL    HW221120   3.556   2.443   8.079  1.4559 -0.1421 -2.6996
 3220SOL     OW21121   4.277   3.651   7.844  0.1864  0.0173 -0.1746
 3220SOL    HW121122   4.294   3.742   7.821  0.5554 -0.5758 -2.1857
 3220SOL    HW221123   4.194   3.659   7.891  0.1712 -0.6200 -0.0891
 3221SOL     OW21124   1.889   0.039   6.286  0.1706 -0.2348  0.5773
 3221SOL    HW121125   1.911   0.093   6.362  0.9968 -2.5163  1.9456
 3221SOL    HW221126   1.930   0.091   6.218 -0.9282 -0.2136 -0.0777
 3222SOL     OW21127   2.425   3.949  12.550  0.2536 -0.4957  0.2261
 3222SOL    HW121128   2.512   3.989  12.554 -0.1567  0.3484  0.5798
 3222SOL    HW221129   2.376   3.976  12.627  0.6995  2.1130 -0.4226
 3223SOL     OW21130   1.324   0.571   7.092  0.0700  0.2805  0.4475
 3223SOL    HW121131   1.252   0.592   7.033  1.4673  0.0550 -1.3568
 3223SOL    HW221132   1.280   0.525   7.163 -2.4679  0.5642 -0.9217
 3224SOL     OW21133   4.049   1.299   2.807  0.5413 -0.4366 -0.7167
 3224SOL    HW121134   4.132   1.347   2.801 -0.4867  1.4157 -0.1697
 3224SOL    HW221135   4.073   1.210   2.831 -2.1973 -0.8140  0.6222
 3225SOL     OW21136   1.596   0.947   6.014  0.1790  0.0892  0.2619
 3225SOL    HW121137   1.541   0.869   6.017  0.5310 -0.0229  4.0110
 3225SOL    HW221138   1.628   0.964   6.103  1.4017 -0.9211  0.0100
 3226SOL     OW21139   2.586   3.747  15.433  0.0455  0.0830 -0.3883
 3226SOL    HW121140   2.566   3.678  15.370  2.3359 -1.8947  1.0558
 3226SOL    HW221141   2.618   3.816  15.375  0.8240  1.0805  1.2280
 3227SOL     OW21142   4.001   2.893  10.475  0.4942 -0.0164  0.2744
 3227SOL    HW121143   3.908   2.891  10.497  0.7974 -1.8010  1.3792
 3227SOL    HW221144   4.042   2.944  10.545  1.6880  0.4451 -0.7716
 3228SOL     OW21145   0.611   3.239   7.531  0.5737 -0.4874 -0.0171
 3228SOL    HW121146   0.557   3.306   7.488 -1.1526 -2.1116 -0.3434
 3228SOL    HW221147   0.553   3.164   7.544  2.4278 -1.7605  0.7971
 3229SOL     OW21148   0.215   4.590  14.701  0.4132 -0.5080  0.3924
 3229SOL    HW121149   0.295   4.600  14.650  0.8141  1.7204  1.4658
 3229SOL    HW221150   0.241   4.607  14.792 -2.2788 -0.8041  1.2322
 3230SOL     OW21151   2.379   2.004  14.890 -0.5427 -0.2041 -0.8211
 3230SOL    HW121152   2.329   1.926  14.869 -1.2480 -0.3081  1.2040
 3230SOL    HW221153   2.357   2.061  14.816  1.7454  0.2107 -1.2004
 3231SOL     OW21154   4.717   0.498  10.300 -0.7896 -0.4676 -0.1057
 3231SOL    HW121155   4.690   0.513  10.391 -2.0343 -0.0046 -0.5448
 3231SOL    HW221156   0.019   0.584  10.263  1.4063  0.9576  4.4927
 3232SOL     OW21157   3.727   0.620   4.055  0.4200  0.7011 -0.3805
 3232SOL    HW121158   3.749   0.553   3.990 -1.7209 -1.5095  1.2013
 3232SOL    HW221159   3.816   0.652   4.074  0.5020  0.3882 -0.2410
 3233SOL     OW21160   4.665   2.071   1.781  0.3149 -0.0967  0.0306
 3233SOL    HW121161   4.631   1.984   1.802  0.5752 -0.3671 -0.6913
 3233SOL    HW221162   0.001   2.051   1.707 -0.3718  0.9928 -0.7837
 3234SOL     OW21163   1.183   0.652  14.793  0.0358 -0.1655 -0.4264
 3234SOL    HW121164   1.107   0.600  14.768  0.0152  0.3828 -1.5135
 3234SOL    HW221165   1.243   0.585  14.824  0.5686 -0.0682 -1.2583
 3235SOL     OW21166   3.718   4.113   4.187 -0.2594  0.0582 -0.5499
 3235SOL    HW121167   3.690   4.151   4.270 -1.0671 -1.8218  0.0259
 3235SOL    HW221168   3.741   4.022   4.206 -3.0300 -0.3720  0.7542
 3236SOL     OW21169   0.284   1.424  13.557  0.4030 -0.1832 -0.5533
 3236SOL    HW121170   0.272   1.519  13.546  1.5374 -0.1631 -1.7324
 3236SOL    HW221171   0.193   1.396  13.549  0.3710 -0.0430 -0.6921
 3237SOL     OW21172   2.378   0.660   7.695 -0.6323  0.5941 -0.6268
 3237SOL    HW121173   2.351   0.672   7.786  1.1526  2.0254 -0.2809
 3237SOL    HW221174   2.339   0.575   7.673 -0.9160  0.5535  0.0426
 3238SOL     OW21175   4.710   0.598  16.167  0.2032  0.3399  0.0781
 3238SOL    HW121176   4.642   0.632  16.109  1.6141  0.5956 -1.4279
 3238SOL    HW221177   4.668   0.623  16.249 -0.3218  1.0656 -0.4105
 3239SOL     OW21178   3.960   2.089  16.019 -0.0088  0.3758 -0.0696
 3239SOL    HW121179   3.890   2.023  16.020 -0.4797  0.8976  1.4237
 3239SOL    HW221180   3.906   2.168  16.023  0.0074  0.3510  0.6142
 3240SOL     OW21181   2.605   4.451   5.818  0.2152  0.0925  0.2254
 3240SOL    HW121182   2.601   4.386   5.747  2.0567  1.0212 -0.7424
 3240SOL    HW221183   2.692   4.439   5.857  1.1536 -0.3028 -1.9842
 3241SOL     OW21184   0.973   0.091  10.321  0.4328 -0.8095  0.1588
 3241SOL    HW121185   0.979   0.182  10.351  1.0581  0.5602 -4.0411
 3241SOL    HW221186   0.892   0.097  10.270  1.9692 -0.2622 -2.2081
 3242SOL     OW21187   1.141   2.598   2.025  0.1459 -0.2287 -0.2204
 3242SOL    HW121188   1.102   2.673   2.069 -0.9545  0.2257 -1.9538
 3242SOL    HW221189   1.171   2.551   2.102 -1.5925  0.0563  0.6341
 3243SOL     OW21190   1.643   1.489   3.514 -0.2030  0.4292  0.0673
 3243SOL    HW121191   1.701   1.422   3.477 -1.7248 -1.1428  0.5360
 3243SOL    HW221192   1.705   1.562   3.512  1.8844 -1.4237 -1.9283
 3244SOL     OW21193   2.771   2.874   5.824 -0.2188 -0.6892 -0.1887
 3244SOL    HW121194   2.858   2.835   5.837  0.0820  0.4840  1.3859
 3244SOL    HW221195   2.710   2.801   5.828 -0.4265 -0.6620 -3.0663
 3245SOL     OW21196   3.172   3.516   5.279  0.2509  0.4845 -1.0163
 3245SOL    HW121197   3.231   3.564   5.221  1.9637  0.0061  0.3225
 3245SOL    HW221198   3.186   3.569   5.357 -1.3863 -0.2276 -0.2509
 3246SOL     OW21199   0.334   2.669  11.355  0.0833  0.8041 -0.0117
 3246SOL    HW121200   0.287   2.600  11.401  1.1324 -0.3025 -0.6131
 3246SOL    HW221201   0.269   2.723  11.311 -1.4926 -0.6845  0.4915
 3247SOL     OW21202   4.051   1.707  15.633  0.3266 -0.2834  0.3011
 3247SOL    HW121203   4.009   1.638  15.583 -0.1494  1.4410 -1.6380
 3247SOL    HW221204   4.131   1.718  15.582 -0.4996 -0.4199 -1.0025
 3248SOL     OW21205   4.198   0.458   6.855  0.4286 -0.3214  0.0237
 3248SOL    HW121206   4.237   0.421   6.935  2.7389  1.4767 -0.2757
 3248SOL    HW221207   4.171   0.381   6.805  1.3612 -1.0100  0.5743
 3249SOL     OW21208   2.569   4.704  11.856  0.0025 -0.4791 -0.0588
 3249SOL    HW121209   2.624   4.638  11.814 -0.9395 -0.6992 -0.9374
 3249SOL    HW221210   2.566   0.058  11.795 -1.0625  0.5542  1.2271
 3250SOL     OW21211   2.436   3.538  15.193 -0.0666  0.3729 -0.8210
 3250SOL    HW121212   2.438   3.445  15.169 -1.7139  0.7583 -2.4516
 3250SOL    HW221213   2.487   3.581  15.124  0.8406  0.1772 -0.2851
 3251SOL     OW21214   4.089   4.469   9.585 -0.1545 -0.0709  0.0554
 3251SOL    HW121215   4.133   4.426   9.658  2.0824  0.2419 -1.1090
 3251SOL    HW221216   4.001   4.475   9.622 -0.0424  0.2224  0.2706
 3252SOL     OW21217   0.616   0.421   7.474  0.3169 -0.0534 -0.4259
 3252SOL    HW121218   0.521   0.417   7.472  0.2438  1.8282 -0.5887
 3252SOL    HW221219   0.633   0.449   7.564  0.8417  0.0651 -0.5603
 3253SOL     OW21220   1.846   1.004   5.227  0.1479  0.1587 -0.2673
 3253SOL    HW121221   1.912   1.066   5.195 -0.0280  0.6898  0.4023
 3253SOL    HW221222   1.861   1.006   5.321  3.2975  0.5261 -0.7617
 3254SOL     OW21223   1.278   1.669   6.510 -0.0398 -0.6936  0.2776
 3254SOL    HW121224   1.306   1.584   6.477  1.0953  0.3120 -1.3279
 3254SOL    HW221225   1.358   1.705   6.549 -0.1144 -1.3130  1.0133
 3255SOL     OW21226   3.848   1.412   8.940 -0.3094 -0.0805 -0.4252
 3255SOL    HW121227   3.820   1.436   9.028 -0.2845 -0.2899 -0.3617
 3255SOL    HW221228   3.834   1.498   8.900 -3.3609 -1.0313 -1.4164
 3256SOL     OW21229   2.334   3.799   7.528  0.1087  0.0393  0.3917
 3256SOL    HW121230   2.268   3.731   7.515  1.3694 -0.7353 -2.0047
 3256SOL    HW221231   2.312   3.810   7.620  0.3836 -0.7441  0.5524
 3257SOL     OW21232   1.016   0.036   6.109 -0.3954  0.2113  0.2402
 3257SOL    HW121233   1.106   0.009   6.126 -0.4869  0.1043  0.5559
 3257SOL    HW221234   0.984   4.699   6.039  1.8823 -0.7922  0.0220
 3258SOL     OW21235   1.030   4.196   7.357 -0.3915  0.0860 -0.6325
 3258SOL    HW121236   0.945   4.231   7.332 -0.4147  0.9084  0.6183
 3258SOL    HW221237   1.019   4.104   7.333 -0.6783  0.0549 -0.3822
 3259SOL     OW21238   3.365   1.058   4.796  0.4339  0.0732 -0.3169
 3259SOL    HW121239   3.288   1.008   4.768 -2.0746  1.5403  4.1020
 3259SOL    HW221240   3.322   1.141   4.816 -0.7132 -1.3225  2.9192
 3260SOL     OW21241   2.450   3.793  13.248  0.3105 -0.5984 -0.2039
 3260SOL    HW121242   2.499   3.713  13.270  3.7521  1.9478  1.5483
 3260SOL    HW221243   2.403   3.807  13.330  0.1953 -1.2447 -0.1601
 3261SOL     OW21244   2.580   4.476   8.877 -0.8397 -0.1044 -0.7268
 3261SOL    HW121245   2.498   4.506   8.915  0.4948  1.2030  1.1546
 3261SOL    HW221246   2.626   4.560   8.877 -0.4623 -0.3094  0.0292
 3262SOL     OW21247   3.681   3.680   4.855 -0.3787 -0.1351  0.3100
 3262SOL    HW121248   3.734   3.684   4.776  1.6739 -1.4072  1.6154
 3262SOL    HW221249   3.752   3.677   4.919 -0.3884 -1.4648  0.2717
 3263SOL     OW21250   1.501   2.820   5.373 -0.4029 -0.3990 -0.3983
 3263SOL    HW121251   1.516   2.769   5.293 -0.3066  1.4439 -1.5447
 3263SOL    HW221252   1.577   2.800   5.428  1.4838  1.6528 -2.2508
 3264SOL     OW21253   1.463   3.781   3.891 -0.3929 -0.0001  0.2860
 3264SOL    HW121254   1.529   3.840   3.927  0.4948 -0.1201 -1.1187
 3264SOL    HW221255   1.405   3.846   3.852 -2.7263 -0.9444  2.2117
 3265SOL     OW21256   1.527   2.977   3.812 -0.1777  0.5331 -0.8012
 3265SOL    HW121257   1.459   3.017   3.756  0.7398 -0.5009 -2.6426
 3265SOL    HW221258   1.599   2.987   3.750 -1.6081  0.1561 -2.5235
 3266SOL     OW21259   2.987   1.961   3.197 -0.2698  0.5350 -0.0036
 3266SOL    HW121260   3.043   1.907   3.141  0.1278  1.2970 -0.3482
 3266SOL    HW221261   2.956   2.026   3.135 -0.5908 -1.3257 -1.7687
 3267SOL     OW21262   4.133   1.417  11.761 -0.1275 -0.5574 -0.2871
 3267SOL    HW121263   4.145   1.324  11.743 -1.8140 -0.8871  0.3245
 3267SOL    HW221264   4.223   1.434  11.790 -1.2768 -2.5494  4.4917
 3268SOL     OW21265   3.075   3.905  13.513 -0.2112 -0.7541 -0.6636
 3268SOL    HW121266   3.096   3.819  13.477  0.8134 -0.4881 -0.6856
 3268SOL    HW221267   2.981   3.895  13.499 -0.6618  1.0146  1.1078
 3269SOL     OW21268   3.709   0.707   8.064  0.5994  0.0917 -0.3412
 3269SOL    HW121269   3.720   0.628   8.118  0.0455  0.2708  0.0265
 3269SOL    HW221270   3.618   0.705   8.037  1.0594  1.5371 -2.0268
 3270SOL     OW21271   4.579   3.554   7.052  0.4392  0.7441 -0.5115
 3270SOL    HW121272   4.667   3.553   7.088 -0.7630  0.1109  2.4092
 3270SOL    HW221273   4.518   3.602   7.107 -2.7028 -1.1834 -2.2511
 3271SOL     OW21274   4.346   2.468   2.609 -0.3495  0.1738  0.7449
 3271SOL    HW121275   4.415   2.484   2.545  0.0191 -3.8276  0.1784
 3271SOL    HW221276   4.282   2.530   2.573  1.4242  1.0266 -0.9186
 3272SOL     OW21277   3.561   3.346   7.186  0.4235 -0.2178  0.2659
 3272SOL    HW121278   3.536   3.254   7.174  1.1589 -0.6068  1.7334
 3272SOL    HW221279   3.505   3.371   7.260 -0.3552  0.3647 -0.5181
 3273SOL     OW21280   4.509   0.975   1.172  0.5961 -0.3773  0.2303
 3273SOL    HW121281   4.479   1.017   1.091  2.8367 -0.8543 -0.8506
 3273SOL    HW221282   4.465   0.891   1.161  1.5046 -0.7607 -0.5040
 3274SOL     OW21283   4.234   1.171   8.734  0.4725  0.4286 -0.4856
 3274SOL    HW121284   4.300   1.232   8.767  0.5182  0.7571 -1.1672
 3274SOL    HW221285   4.192   1.247   8.693  1.0747  0.1000 -1.7149
 3275SOL     OW21286   3.997   1.843   7.669 -0.6012 -0.2775  0.0188
 3275SOL    HW121287   4.088   1.815   7.670 -1.6010 -3.5176  0.5353
 3275SOL    HW221288   3.998   1.934   7.696 -0.4648 -1.1307  2.8396
 3276SOL     OW21289   2.717   0.065  14.387 -0.4743  0.2634 -1.0237
 3276SOL    HW121290   2.659   0.094  14.457 -0.2751 -1.3277 -0.2046
 3276SOL    HW221291   2.678   4.700  14.364 -1.5910  0.4092  0.3376
 3277SOL     OW21292   4.414   1.788   4.430  0.0102 -0.0202 -0.0079
 3277SOL    HW121293   4.361   1.751   4.501  0.0128  0.5268  0.2842
 3277SOL    HW221294   4.499   1.764   4.466  1.1716  0.1669 -2.6619
 3278SOL     OW21295   3.669   2.517   5.775 -0.6043 -0.6268  0.5535
 3278SOL    HW121296   3.624   2.434   5.756  0.7250 -1.4427  0.9721
 3278SOL    HW221297   3.691   2.554   5.689  0.6842 -0.3838  0.9861
 3279SOL     OW21298   0.878   2.770   1.686  0.1381  0.1418  0.5465
 3279SOL    HW121299   0.904   2.681   1.709  1.6852  0.3861 -0.2390
 3279SOL    HW221300   0.937   2.815   1.746 -0.8780 -0.1091  1.7206
 3280SOL     OW21301   4.299   1.701  13.855 -0.0315 -0.3981  0.1641
 3280SOL    HW121302   4.313   1.690  13.950  0.1775 -1.9582 -0.0554
 3280SOL    HW221303   4.240   1.776  13.859  0.6664  0.1688 -0.1238
 3281SOL     OW21304   1.145   4.254   2.380 -0.3791 -0.8006 -0.2029
 3281SOL    HW121305   1.080   4.280   2.315 -1.6537 -2.2441  0.4882
 3281SOL    HW221306   1.223   4.285   2.334 -0.4774  2.2561  1.7177
 3282SOL     OW21307   0.264   0.923  10.269 -0.3571 -0.3203 -0.3588
 3282SOL    HW121308   0.277   1.002  10.321 -2.1474  1.5482 -2.8029
 3282SOL    HW221309   0.236   0.959  10.185  0.2212  3.7446  1.2202
 3283SOL     OW21310   0.604   1.707  12.960 -0.1094 -0.1467  0.5685
 3283SOL    HW121311   0.620   1.756  12.878  0.5763 -1.0549  0.1536
 3283SOL    HW221312   0.540   1.643  12.932 -0.3321  0.6370 -0.7354
 3284SOL     OW21313   4.175   3.056   3.474  0.3093  0.3386 -0.2453
 3284SOL    HW121314   4.113   3.128   3.461  0.2040  0.1270 -0.9156
 3284SOL    HW221315   4.243   3.077   3.410  0.9802 -0.4342  0.2179
 3285SOL     OW21316   0.109   2.115   2.036  0.3323  0.0302  0.0570
 3285SOL    HW121317   0.096   2.073   1.951 -0.2755 -2.3853  1.3286
 3285SOL    HW221318   0.031   2.077   2.077 -0.3460  1.7609  0.3423
 3286SOL     OW21319   2.636   0.094   2.103 -0.6115  0.1522  0.2771
 3286SOL    HW121320   2.705   0.101   2.036 -0.2021 -0.2951  0.6547
 3286SOL    HW221321   2.616   0.187   2.119 -1.9442  0.2724 -2.1606
 3287SOL     OW21322   3.917   4.252   6.010  0.1864 -0.6602 -0.3540
 3287SOL    HW121323   3.993   4.301   6.043 -0.5379 -0.4945  1.0594
 3287SOL    HW221324   3.945   4.230   5.921  0.5497  0.8235 -0.6029
 3288SOL     OW21325   4.350   3.711  17.355  0.8521  0.1966  0.1818
 3288SOL    HW121326   4.377   3.783  17.412 -2.2468  0.8697  0.7969
 3288SOL    HW221327   4.431   3.666  17.330 -0.0455 -0.6557 -1.1651
 3289SOL     OW21328   0.726   0.052   2.826 -0.3221  0.5396 -0.2644
 3289SOL    HW121329   0.810   0.014   2.801 -0.2541  0.2524  0.4152
 3289SOL    HW221330   0.680   0.015   2.750 -1.0575 -0.7051  0.7948
 3290SOL     OW21331   3.199   0.870  16.664 -0.3036  0.2283  0.2125
 3290SOL    HW121332   3.239   0.895  16.747  0.0872 -1.0827  0.4167
 3290SOL    HW221333   3.131   0.937  16.656 -1.9102 -1.3443  0.8652
 3291SOL     OW21334   2.477   1.185   3.677 -0.2931 -0.0190 -0.5766
 3291SOL    HW121335   2.523   1.265   3.652 -0.1825 -0.3465 -1.4037
 3291SOL    HW221336   2.466   1.206   3.770 -0.7055  0.1206 -0.6569
 3292SOL     OW21337   2.693   3.473   6.577  0.3958  0.1229 -0.4667
 3292SOL    HW121338   2.688   3.426   6.494  0.2808 -2.0897  0.7803
 3292SOL    HW221339   2.692   3.564   6.549 -1.1161  0.5358  0.9265
 3293SOL     OW21340   0.054   3.327   7.444  0.0771  0.1230 -0.1282
 3293SOL    HW121341   0.029   3.262   7.511 -1.0307 -1.1046 -1.7281
 3293SOL    HW221342   4.703   3.390   7.461  0.0651 -0.1879  1.0202
 3294SOL     OW21343   2.120   0.049  15.294 -0.4121 -0.1544  0.2368
 3294SOL    HW121344   2.079   4.682  15.306 -2.0347  0.6550  0.5516
 3294SOL    HW221345   2.198   0.028  15.243  0.5544  1.7570  0.9511
 3295SOL     OW21346   0.840   1.344  15.669 -0.5342  0.8013 -0.6671
 3295SOL    HW121347   0.910   1.285  15.696 -0.9336  0.6404  0.0191
 3295SOL    HW221348   0.867   1.433  15.694 -0.4859 -0.1188  2.5362
 3296SOL     OW21349   1.936   0.392   7.005 -0.4641 -0.0540  0.0083
 3296SOL    HW121350   1.914   0.449   7.078 -2.5698  2.3142 -2.4660
 3296SOL    HW221351   1.955   0.309   7.048 -0.0946  1.2541  2.3467
 3297SOL     OW21352   0.061   1.537  14.363  0.0252  0.6190  0.1279
 3297SOL    HW121353   0.151   1.532  14.397  0.5454 -2.0071 -1.5494
 3297SOL    HW221354   0.034   1.445  14.355  2.9281 -0.2053 -0.4024
 3298SOL     OW21355   3.065   1.278   2.422 -0.0212  0.0298  0.1405
 3298SOL    HW121356   3.023   1.363   2.433  0.2767  0.0967  0.7629
 3298SOL    HW221357   2.992   1.224   2.394 -0.6621  0.1344  1.5911
 3299SOL     OW21358   2.279   3.989   5.092  0.1354  0.0974 -0.1915
 3299SOL    HW121359   2.245   4.019   5.176  1.1170 -1.4666  0.7759
 3299SOL    HW221360   2.324   3.907   5.114 -0.6368  0.3434  2.3248
 3300SOL     OW21361   0.937   0.382   2.380 -0.1262  0.2307  0.0588
 3300SOL    HW121362   1.019   0.427   2.399 -0.4788  1.9531 -2.4835
 3300SOL    HW221363   0.914   0.331   2.457  2.9672 -2.3638 -0.7049
 3301SOL     OW21364   0.097   4.625   7.759  0.2850 -0.3732  0.0264
 3301SOL    HW121365   0.085   4.708   7.712  1.0448  0.4724  1.3054
 3301SOL    HW221366   0.063   4.568   7.691 -2.0511  0.0995  0.8095
 3302SOL     OW21367   2.235   0.661  12.287 -0.8492 -0.3146  0.3301
 3302SOL    HW121368   2.324   0.645  12.256 -0.8065 -0.1240  0.3526
 3302SOL    HW221369   2.239   0.743  12.337 -0.8247 -0.3072  0.3158
 3303SOL     OW21370   0.812   0.289   2.622 -0.2943  0.4348 -0.2415
 3303SOL    HW121371   0.802   0.368   2.675  3.2604 -0.3000  1.5146
 3303SOL    HW221372   0.727   0.246   2.615  0.7844 -1.7113 -0.3229
 3304SOL     OW21373   1.944   0.340   1.461 -0.1708  0.5745 -0.1896
 3304SOL    HW121374   1.858   0.343   1.419  0.3697  2.2779 -1.1853
 3304SOL    HW221375   1.959   0.247   1.444 -1.0036  0.0485  1.9021
 3305SOL     OW21376   4.072   2.119  15.761 -0.3924  0.1509  0.2230
 3305SOL    HW121377   4.019   2.110  15.841  1.2603  2.3936  1.5834
 3305SOL    HW221378   4.135   2.050  15.781 -1.6241 -1.0460  0.0006
 3306SOL     OW21379   0.688   2.117  11.990  0.1753 -0.3414 -0.3008
 3306SOL    HW121380   0.729   2.144  11.907 -2.4326  0.1093 -1.4497
 3306SOL    HW221381   0.602   2.160  11.982  0.1660 -0.0592  1.3865
 3307SOL     OW21382   3.533   4.676   2.806 -0.1519 -0.8470  0.5645
 3307SOL    HW121383   3.482   4.651   2.729 -0.2427 -2.0414  1.0061
 3307SOL    HW221384   3.500   4.630   2.883 -0.0703  1.2362  1.8570
 3308SOL     OW21385   4.308   1.595   2.288 -0.0529  0.8014 -0.2703
 3308SOL    HW121386   4.302   1.513   2.338 -1.1763  1.9438  1.4682
 3308SOL    HW221387   4.241   1.594   2.219  0.8317 -0.4477 -1.1134
 3309SOL     OW21388   0.937   0.106   3.753  0.3504 -0.5141 -0.2233
 3309SOL    HW121389   1.015   0.086   3.806 -0.0250 -2.0256 -0.2323
 3309SOL    HW221390   0.974   0.146   3.674  0.3125  0.8506  0.4596
 3310SOL     OW21391   2.364   0.933   5.375  0.0979  0.1544  0.2249
 3310SOL    HW121392   2.318   0.949   5.293 -0.8527 -1.0296  0.5316
 3310SOL    HW221393   2.386   1.020   5.409  0.8264  0.3107 -0.6727
 3311SOL     OW21394   2.114   1.610   7.574  0.6680 -0.4252  0.2026
 3311SOL    HW121395   2.080   1.523   7.594  0.6377 -0.1286  1.4083
 3311SOL    HW221396   2.081   1.654   7.652 -0.0219 -1.9471  0.7650
 3312SOL     OW21397   0.770   3.708   8.544  0.0709  0.4017 -0.3483
 3312SOL    HW121398   0.735   3.786   8.500  1.4674 -0.3376 -2.7965
 3312SOL    HW221399   0.779   3.736   8.635  0.7915  1.1370 -0.6464
 3313SOL     OW21400   1.024   1.563   4.845 -0.0508  0.0752 -0.5225
 3313SOL    HW121401   1.006   1.582   4.753  1.9593 -3.7341 -1.7165
 3313SOL    HW221402   0.947   1.603   4.884  0.6573  0.2181  0.7075
 3314SOL     OW21403   1.162   1.274  15.858 -0.5444  0.0109 -0.6308
 3314SOL    HW121404   1.213   1.231  15.789  0.3262  2.7295 -1.6707
 3314SOL    HW221405   1.129   1.195  15.901  1.4247 -0.8425 -0.6522
 3315SOL     OW21406   3.316   3.535   4.318 -0.4708 -0.1025  0.0153
 3315SOL    HW121407   3.228   3.568   4.300 -0.4716 -0.9172 -1.4141
 3315SOL    HW221408   3.336   3.486   4.239  0.7199  1.8453 -0.8946
 3316SOL     OW21409   1.559   3.870   4.482  0.0679 -0.2343  0.5703
 3316SOL    HW121410   1.634   3.929   4.475  1.8213 -2.4310  0.7109
 3316SOL    HW221411   1.586   3.796   4.427  0.0514  0.1198  0.0796
 3317SOL     OW21412   4.699   2.465  15.279 -0.1678  0.4018  0.0501
 3317SOL    HW121413   4.644   2.483  15.203  0.0140 -1.4228 -0.5040
 3317SOL    HW221414   0.041   2.539  15.273  0.7901 -0.4736 -0.8835
 3318SOL     OW21415   1.474   2.061   4.589  0.3019 -0.8603 -0.2303
 3318SOL    HW121416   1.535   2.057   4.663  1.4151 -4.2115 -1.2956
 3318SOL    HW221417   1.503   2.137   4.540 -2.4357 -0.6670 -1.5078
 3319SOL     OW21418   1.218   0.679   6.588  0.2712 -0.5374  0.4678
 3319SOL    HW121419   1.217   0.713   6.677  1.0231  0.8062 -0.0452
 3319SOL    HW221420   1.268   0.749   6.547 -0.5883  0.5117  1.2127
 3320SOL     OW21421   4.110   3.129   6.311 -0.2641  0.2691  0.1935
 3320SOL    HW121422   4.136   3.070   6.381 -0.5337 -1.7252 -1.4004
 3320SOL    HW221423   4.170   3.203   6.327 -0.4385  0.4581 -0.0223
 3321SOL     OW21424   2.342   0.189  17.063  0.5113 -0.0144  0.4242
 3321SOL    HW121425   2.355   0.176  16.970 -0.0860 -1.8092  0.6050
 3321SOL    HW221426   2.366   0.282  17.068 -0.1479  0.2778 -2.2024
 3322SOL     OW21427   1.836   1.879  16.386  0.4356  0.0151 -0.0493
 3322SOL    HW121428   1.792   1.870  16.470 -0.2403  1.4533 -0.2417
 3322SOL    HW221429   1.785   1.952  16.351 -1.7287 -1.0417  0.8666
 3323SOL     OW21430   1.483   2.529  15.185 -0.6280  0.2854  0.0735
 3323SOL    HW121431   1.394   2.527  15.218 -0.5441 -0.6702  0.2350
 3323SOL    HW221432   1.469   2.466  15.114 -0.5679 -0.6417  0.8913
 3324SOL     OW21433   4.154   4.558   9.025  0.4688 -0.1584 -0.3953
 3324SOL    HW121434   4.201   4.631   9.066 -1.9134 -0.3374  2.6396
 3324SOL    HW221435   4.083   4.551   9.089  1.5424 -2.5383  0.4943
 3325SOL     OW21436   1.079   4.380   8.378  0.2878 -0.7462 -0.3330
 3325SOL    HW121437   1.145   4.391   8.447 -1.6279 -0.0332  1.4126
 3325SOL    HW221438   1.101   4.294   8.344  0.6873 -0.5782 -0.4956
 3326SOL     OW21439   2.895   3.287   2.533  0.3284 -0.2795 -0.2625
 3326SOL    HW121440   2.934   3.267   2.448 -0.7174 -2.1202 -0.3013
 3326SOL    HW221441   2.802   3.296   2.512 -0.1238 -1.4183  1.2529
 3327SOL     OW21442   1.079   0.881   1.609 -0.1205 -0.0108  0.5499
 3327SOL    HW121443   1.159   0.884   1.661 -0.2362 -1.2000  0.7970
 3327SOL    HW221444   1.060   0.974   1.600 -0.2974  0.1009  2.2249
 3328SOL     OW21445   2.011   3.536   4.535  0.0881  0.6581  0.2404
 3328SOL    HW121446   2.005   3.543   4.440 -0.8811 -0.7511  0.1972
 3328SOL    HW221447   2.077   3.602   4.556  1.2090 -0.9277  1.7403
 3329SOL     OW21448   2.678   1.302   3.281 -0.1999 -0.0259 -0.2257
 3329SOL    HW121449   2.630   1.366   3.229  1.9474  2.9233  1.4173
 3329SOL    HW221450   2.653   1.330   3.369 -1.2086 -2.7891  0.3771
 3330SOL     OW21451   4.636   4.193  15.512 -0.2014  0.2597  0.1671
 3330SOL    HW121452   4.597   4.111  15.542  0.0936 -0.1565 -0.6234
 3330SOL    HW221453   4.592   4.211  15.429 -0.1760 -0.2686  0.0418
 3331SOL     OW21454   3.988   1.624   6.352  0.3097  0.4077  0.5523
 3331SOL    HW121455   3.936   1.551   6.317  0.7100  0.1947  0.4040
 3331SOL    HW221456   3.971   1.611   6.445 -0.8358  1.6282  0.5091
 3332SOL     OW21457   3.649   2.793   0.706 -0.0214 -0.2507  0.0571
 3332SOL    HW121458   3.613   2.706   0.688  3.1827 -1.2499 -1.3873
 3332SOL    HW221459   3.692   2.814   0.624  1.2490 -1.9745  0.3022
 3333SOL     OW21460   1.074   3.657  10.053 -0.2546  0.0853  0.3399
 3333SOL    HW121461   1.092   3.657   9.959 -0.5595 -0.6541  0.2762
 3333SOL    HW221462   1.007   3.588  10.050  1.0129 -1.0976 -1.0748
 3334SOL     OW21463   1.088   2.354   5.520  0.1408  0.1655 -0.0039
 3334SOL    HW121464   1.161   2.340   5.580  0.1100 -0.9864 -0.2346
 3334SOL    HW221465   1.130   2.382   5.440 -1.7135 -0.9798 -1.3866
 3335SOL     OW21466   1.853   1.519   0.158 -0.4714 -0.9124  0.2223
 3335SOL    HW121467   1.919   1.453   0.177  2.0100  0.9202 -2.0956
 3335SOL    HW221468   1.774   1.486   0.202 -1.6595  0.0697 -1.1747
 3336SOL     OW21469   4.626   3.815   1.398  0.3026  0.6176  0.4427
 3336SOL    HW121470   4.585   3.888   1.443  0.5272 -0.5160  2.5017
 3336SOL    HW221471   4.719   3.837   1.402  1.0671 -2.3679 -0.6914
 3337SOL     OW21472   4.104   2.753   6.891 -0.3289 -0.0468  0.0381
 3337SOL    HW121473   4.013   2.783   6.890 -0.3401 -0.1136 -0.6658
 3337SOL    HW221474   4.123   2.768   6.798 -1.4283 -2.0857 -0.5194
 3338SOL     OW21475   1.580   0.204   7.885  0.1687  0.4028 -0.4253
 3338SOL    HW121476   1.559   0.201   7.979  1.4047  0.8022 -0.1323
 3338SOL    HW221477   1.596   0.112   7.867  2.8028  0.8032 -0.2054
 3339SOL     OW21478   4.157   4.343   3.714 -0.5953 -0.3855  0.4782
 3339SOL    HW121479   4.182   4.296   3.634 -1.6964  1.2404 -0.8314
 3339SOL    HW221480   4.202   4.427   3.706 -0.6094 -0.2775  1.5902
 3340SOL     OW21481   0.681   0.900   6.604  0.1661  0.0073  0.1366
 3340SOL    HW121482   0.613   0.925   6.667  0.5731  1.7071 -0.0964
 3340SOL    HW221483   0.620   0.844   6.555  0.2369 -0.3371  0.4372
 3341SOL     OW21484   4.556   0.959   0.430 -0.6370 -1.0550 -0.6956
 3341SOL    HW121485   4.555   0.878   0.480 -1.1614 -1.1859 -0.9166
 3341SOL    HW221486   4.504   1.018   0.486  0.9395  1.2674 -1.6778
 3342SOL     OW21487   3.601   0.025  11.620  0.3094 -0.5431 -0.7034
 3342SOL    HW121488   3.551   0.106  11.611 -1.6663 -1.3557  3.0936
 3342SOL    HW221489   3.692   0.051  11.609  0.2838  0.2654  1.0401
 3343SOL     OW21490   4.028   4.121   1.963  0.7376 -0.3661  0.4693
 3343SOL    HW121491   3.989   4.147   2.047  1.7629 -1.7878  1.4007
 3343SOL    HW221492   3.987   4.034   1.959  0.7329 -0.3171 -0.3947
 3344SOL     OW21493   0.492   1.687   2.479 -0.3153  0.4076  0.1626
 3344SOL    HW121494   0.501   1.655   2.569 -1.3585  1.4458  0.6329
 3344SOL    HW221495   0.554   1.630   2.433 -2.1082 -0.1617 -1.5541
 3345SOL     OW21496   1.664   1.350   6.021  0.5444  0.0583 -0.4013
 3345SOL    HW121497   1.728   1.420   6.016 -0.8546  1.4286  0.9038
 3345SOL    HW221498   1.709   1.292   6.082  0.9862  0.0382 -0.7499
 3346SOL     OW21499   3.736   1.388   2.595  0.5473  0.9495  0.4531
 3346SOL    HW121500   3.672   1.359   2.531 -1.4955  1.9398  2.0615
 3346SOL    HW221501   3.797   1.316   2.575 -0.8734 -1.0132  3.2616
 3347SOL     OW21502   0.662   2.183  16.929 -1.0160 -0.4538  0.2581
 3347SOL    HW121503   0.670   2.101  16.881 -1.5797  0.5602 -1.5491
 3347SOL    HW221504   0.604   2.234  16.873 -2.0648 -0.9050  0.9207
 3348SOL     OW21505   3.800   3.111   5.250 -0.1147 -0.3410 -0.1426
 3348SOL    HW121506   3.712   3.076   5.249 -0.0789 -0.4094 -0.8086
 3348SOL    HW221507   3.841   3.037   5.204  0.0169 -1.5743  1.9334
 3349SOL     OW21508   3.504   3.066  16.210  0.0872 -0.8540 -0.2686
 3349SOL    HW121509   3.550   3.150  16.215 -0.6774 -0.3197 -2.4346
 3349SOL    HW221510   3.575   3.024  16.162 -0.1831 -1.9247  0.2629
 3350SOL     OW21511   0.811   3.422   5.564  0.0732 -0.1728 -0.4411
 3350SOL    HW121512   0.748   3.363   5.606  0.0615 -1.0079 -1.6089
 3350SOL    HW221513   0.856   3.472   5.632 -1.4714  0.4907  0.1027
 3351SOL     OW21514   1.053   4.485  15.995 -0.5469  0.3694 -0.2049
 3351SOL    HW121515   1.008   4.420  16.049 -1.7144 -0.0757 -1.6987
 3351SOL    HW221516   1.118   4.429  15.953  0.9886  0.4047  2.1654
 3352SOL     OW21517   0.998   2.710   2.733 -0.6040  0.0232 -0.0862
 3352SOL    HW121518   1.052   2.647   2.687 -1.9136 -0.2103 -1.3186
 3352SOL    HW221519   1.060   2.756   2.789 -0.1225 -0.2780 -0.3760
 3353SOL     OW21520   2.586   2.979  15.241 -0.2276 -1.3095  0.1326
 3353SOL    HW121521   2.581   2.940  15.328 -1.8126 -1.0571  0.1457
 3353SOL    HW221522   2.586   2.900  15.186  0.2404 -1.8369  0.8919
 3354SOL     OW21523   3.778   0.331   3.126  0.1235 -0.2604 -0.0765
 3354SOL    HW121524   3.819   0.267   3.183  0.3308  0.3328  0.4417
 3354SOL    HW221525   3.732   0.383   3.192 -3.4039 -1.4236 -1.6422
 3355SOL     OW21526   4.280   4.329   8.933  0.3894  0.1713  0.6041
 3355SOL    HW121527   4.341   4.328   9.007  0.3430 -0.2138  0.6332
 3355SOL    HW221528   4.229   4.399   8.974 -2.2276 -1.1331 -0.4827
 3356SOL     OW21529   3.473   0.502   6.347  0.3304  0.1245  0.6993
 3356SOL    HW121530   3.533   0.577   6.351  0.3642 -0.0894  4.1399
 3356SOL    HW221531   3.458   0.489   6.254  2.0138 -1.3932  0.6367
 3357SOL     OW21532   2.592   1.681   9.898 -0.2577  0.0653  0.3722
 3357SOL    HW121533   2.539   1.732   9.836  2.2491  0.1795 -1.6768
 3357SOL    HW221534   2.574   1.589   9.876 -0.8282  0.4073 -0.6026
 3358SOL     OW21535   4.670   4.565   6.571  0.2468  0.1036 -0.0504
 3358SOL    HW121536   4.701   4.597   6.486  0.3758 -0.8484 -0.3627
 3358SOL    HW221537   0.029   4.526   6.608  0.1415 -0.8273 -0.7883
 3359SOL     OW21538   2.821   2.111   3.353  0.5372  0.2268  0.2140
 3359SOL    HW121539   2.876   2.189   3.354  1.3888 -0.3643  0.7363
 3359SOL    HW221540   2.876   2.052   3.301  1.6546  1.6207 -0.1755
 3360SOL     OW21541   4.264   1.299  17.059 -0.2379 -0.2140  0.1224
 3360SOL    HW121542   4.350   1.262  17.039 -1.0451 -1.6580 -0.5626
 3360SOL    HW221543   4.227   1.312  16.972  0.1620  0.7485  0.0908
 3361SOL     OW21544   3.247   4.066   8.661  0.4952  0.3102 -0.2591
 3361SOL    HW121545   3.215   4.057   8.571  0.8066 -2.4251 -0.0970
 3361SOL    HW221546   3.197   4.144   8.686 -1.0762 -0.8929  0.3412
 3362SOL     OW21547   1.211   0.785   5.370  0.3916 -0.2296 -0.2596
 3362SOL    HW121548   1.233   0.746   5.454 -1.8700  0.9211  0.8726
 3362SOL    HW221549   1.117   0.795   5.381  0.0983 -2.2606 -0.9475
 3363SOL     OW21550   0.467   4.058  12.368 -0.0394  0.2978  0.3944
 3363SOL    HW121551   0.446   3.965  12.368  1.8092 -0.1249 -0.0462
 3363SOL    HW221552   0.563   4.056  12.366 -0.0780 -0.5703 -0.6292
 3364SOL     OW21553   2.463   2.282   1.247  0.4313 -0.0983 -0.1953
 3364SOL    HW121554   2.403   2.356   1.245  0.5753 -0.0514 -2.1498
 3364SOL    HW221555   2.434   2.233   1.170  1.3131  0.0785 -0.6385
 3365SOL     OW21556   4.198   0.272   6.207  0.0254  0.1230 -0.2927
 3365SOL    HW121557   4.202   0.265   6.111 -1.9408 -0.4673 -0.3358
 3365SOL    HW221558   4.281   0.315   6.222  0.5147 -0.3585 -1.5571
 3366SOL     OW21559   1.936   0.014  12.078 -0.3312  0.0842 -0.5312
 3366SOL    HW121560   1.914   4.661  12.137  1.4651  0.1045  0.1908
 3366SOL    HW221561   1.879   4.708  12.007 -1.3518 -0.0272  0.3268
 3367SOL     OW21562   3.378   0.582   7.073 -0.0103  0.2177 -0.0856
 3367SOL    HW121563   3.373   0.518   7.002  0.0827  0.8256 -0.6413
 3367SOL    HW221564   3.306   0.643   7.059  0.7962  0.9614 -1.0478
 3368SOL     OW21565   0.934   2.153   5.454  0.2678  0.1511  0.2845
 3368SOL    HW121566   0.907   2.170   5.364 -1.2772 -2.5811  0.2368
 3368SOL    HW221567   0.963   2.236   5.490 -0.0248  1.3010 -2.1816
 3369SOL     OW21568   2.082   4.190   0.483 -0.6561  0.1610 -0.1617
 3369SOL    HW121569   2.054   4.132   0.554  1.7864 -2.1461 -1.0663
 3369SOL    HW221570   2.049   4.144   0.405 -1.9028 -2.0164  1.6373
 3370SOL     OW21571   0.304   0.050  15.732 -0.0268 -0.1927  0.6427
 3370SOL    HW121572   0.264   0.018  15.651  1.2912  0.5596 -0.3039
 3370SOL    HW221573   0.361   0.113  15.688 -0.6266 -1.0988 -1.4514
 3371SOL     OW21574   0.621   0.501  10.067  0.2425 -0.1025  0.4726
 3371SOL    HW121575   0.653   0.423  10.113  0.5831  0.2286  0.8030
 3371SOL    HW221576   0.569   0.542  10.136 -0.5872 -1.2877  0.5547
 3372SOL     OW21577   3.764   4.012   9.774 -0.5519 -0.6042  0.2779
 3372SOL    HW121578   3.840   4.045   9.725 -1.5030 -0.6788 -1.2441
 3372SOL    HW221579   3.701   4.066   9.727 -0.0951  0.1625  0.5394
 3373SOL     OW21580   2.928   2.624   2.604 -0.3274  0.2037  0.2405
 3373SOL    HW121581   2.941   2.530   2.592  0.5215  0.4296 -0.5823
 3373SOL    HW221582   2.970   2.664   2.528  1.4547 -2.0173  0.0350
 3374SOL     OW21583   1.282   4.456   3.331  0.0755 -0.1202 -0.0148
 3374SOL    HW121584   1.326   4.411   3.403  1.3055  0.3165 -0.5032
 3374SOL    HW221585   1.349   4.465   3.263  0.2454  0.1462  0.1870
 3375SOL     OW21586   3.223   0.251  10.254 -0.4512  0.4000  0.4384
 3375SOL    HW121587   3.135   0.238  10.220  0.5225 -0.3391 -1.8236
 3375SOL    HW221588   3.212   0.234  10.348 -0.4821 -0.9092  0.1916
 3376SOL     OW21589   2.228   4.047  15.648  0.1521  0.3525  0.3088
 3376SOL    HW121590   2.180   4.107  15.706 -0.0124 -1.4060  1.9542
 3376SOL    HW221591   2.320   4.063  15.667  0.0959 -0.9964  1.6697
 3377SOL     OW21592   0.859   2.353   0.113  0.5600 -0.4865 -0.1834
 3377SOL    HW121593   0.850   2.448   0.109 -1.7382 -0.6327  1.0318
 3377SOL    HW221594   0.888   2.344   0.022  0.0662  0.0815 -0.3952
 3378SOL     OW21595   2.449   3.584   3.496 -0.0482 -0.5988  0.2382
 3378SOL    HW121596   2.404   3.512   3.539 -1.9692  0.1536 -0.5028
 3378SOL    HW221597   2.427   3.559   3.406  0.0759 -0.7828  0.2593
 3379SOL     OW21598   1.756   1.314   2.874 -0.1816  0.0850  0.0538
 3379SOL    HW121599   1.798   1.364   2.803 -0.1765 -1.1044 -0.7937
 3379SOL    HW221600   1.691   1.275   2.815  2.2262 -0.9583 -1.9200
 3380SOL     OW21601   2.408   3.870   3.299  0.2036  0.1211  0.6356
 3380SOL    HW121602   2.420   3.824   3.216 -4.2999 -1.7028  0.9595
 3380SOL    HW221603   2.327   3.830   3.332 -0.6961 -0.5675 -2.4254
 3381SOL     OW21604   2.409   4.315  16.221  0.8898  0.2822  0.8177
 3381SOL    HW121605   2.359   4.250  16.269  1.1492 -0.3029  0.2957
 3381SOL    HW221606   2.339   4.373  16.251 -0.5307 -0.9775 -0.0852
 3382SOL     OW21607   3.627   4.255   7.238 -0.3772 -0.4242  0.3068
 3382SOL    HW121608   3.635   4.351   7.245  2.3940 -0.6559  0.2503
 3382SOL    HW221609   3.540   4.239   7.273 -0.9102 -1.8107 -1.6397
 3383SOL     OW21610   4.496   2.845   8.324 -0.2874  0.3968  0.8658
 3383SOL    HW121611   4.417   2.817   8.277  0.6760  0.3255 -0.6959
 3383SOL    HW221612   4.507   2.933   8.288  1.2402 -0.5449 -0.9566
 3384SOL     OW21613   2.897   0.905  16.842  0.3792 -0.2454 -0.0590
 3384SOL    HW121614   2.842   0.872  16.772 -0.8667  2.1004 -0.1720
 3384SOL    HW221615   2.940   0.978  16.798  1.0170 -0.9280 -0.5656
 3385SOL     OW21616   0.024   4.341   4.837  0.1606  0.1247  0.0042
 3385SOL    HW121617   4.703   4.419   4.875 -2.2333 -2.0543  2.0065
 3385SOL    HW221618   0.004   4.350   4.744  3.9092 -1.8696 -1.0055
 3386SOL     OW21619   1.330   3.018   5.432 -0.1205 -0.2177  0.2245
 3386SOL    HW121620   1.389   3.082   5.391 -2.6962  1.2206 -1.2832
 3386SOL    HW221621   1.383   2.941   5.412 -0.4118 -0.6125  0.9731
 3387SOL     OW21622   1.585   3.111   2.116  0.0967 -0.3082 -0.6790
 3387SOL    HW121623   1.668   3.141   2.080  0.1019 -2.2466 -2.2989
 3387SOL    HW221624   1.605   3.141   2.204 -1.5827 -0.6612 -0.1741
 3388SOL     OW21625   0.575   1.701  13.545 -0.2664  0.1685  0.4829
 3388SOL    HW121626   0.551   1.794  13.537 -1.0284  0.0108  0.9139
 3388SOL    HW221627   0.564   1.669  13.455  0.8916  0.0226  0.3856
 3389SOL     OW21628   0.837   0.473   4.458  0.3856 -0.3672  0.1575
 3389SOL    HW121629   0.923   0.511   4.442  0.1151 -0.3386 -1.2176
 3389SOL    HW221630   0.848   0.426   4.541  0.2357 -2.1687 -0.8424
 3390SOL     OW21631   1.759   3.177   2.817  0.4122 -0.2311 -0.1890
 3390SOL    HW121632   1.722   3.092   2.841 -0.5923  0.0806 -0.6366
 3390SOL    HW221633   1.714   3.187   2.732 -1.7812  0.9101  1.0986
 3391SOL     OW21634   0.980   3.625   6.533  0.4421 -0.5388  0.2659
 3391SOL    HW121635   1.050   3.560   6.523  0.8511 -0.0618  0.0290
 3391SOL    HW221636   1.037   3.702   6.529 -1.8124  1.1558  0.6786
 3392SOL     OW21637   0.953   3.655   0.296  0.0746  0.1339  0.1058
 3392SOL    HW121638   1.009   3.608   0.234  2.0731  0.6813  1.4798
 3392SOL    HW221639   0.896   3.582   0.322  0.3960 -0.4698 -0.8889
 3393SOL     OW21640   0.655   2.066   9.567 -0.1702 -0.1924  0.1465
 3393SOL    HW121641   0.678   2.044   9.658  1.2555  0.2416 -0.1088
 3393SOL    HW221642   0.662   1.983   9.521 -1.5474  0.2980 -0.9342
 3394SOL     OW21643   3.336   1.880   7.568  0.1694 -0.1004 -0.2187
 3394SOL    HW121644   3.417   1.846   7.529 -0.1654 -3.0353  1.6504
 3394SOL    HW221645   3.374   1.889   7.656 -3.1942  0.7756  1.1342
 3395SOL     OW21646   0.055   0.315   9.035 -0.2821 -0.3767 -0.1298
 3395SOL    HW121647   0.037   0.275   9.120  2.5984 -2.3759 -0.4622
 3395SOL    HW221648   0.049   0.409   9.052 -1.2979 -0.4652  0.0082
 3396SOL     OW21649   2.907   0.080   5.848 -0.5829  0.0313 -0.5626
 3396SOL    HW121650   2.974   0.014   5.868  0.2739  1.2788  0.6939
 3396SOL    HW221651   2.956   0.160   5.868  1.0994 -1.1591  0.0957
 3397SOL     OW21652   2.524   1.461   9.364  0.1033 -0.0705  0.5047
 3397SOL    HW121653   2.607   1.503   9.388 -0.1978  0.7849  0.0636
 3397SOL    HW221654   2.471   1.534   9.331 -0.0835 -0.1836  0.5576
 3398SOL     OW21655   2.482   1.228  17.226 -0.5629  0.2699  0.4732
 3398SOL    HW121656   2.465   1.174  17.148 -0.3966 -1.1911  1.4591
 3398SOL    HW221657   2.484   1.160  17.293  3.1199 -0.4590 -0.3643
 3399SOL     OW21658   2.754   4.546   6.377  0.1469 -0.0215 -0.5107
 3399SOL    HW121659   2.763   4.584   6.465 -3.2915 -0.4656  0.0350
 3399SOL    HW221660   2.847   4.532   6.362  0.2523  0.4265 -0.3007
 3400SOL     OW21661   3.701   4.331   9.906  0.2247 -0.4590 -1.1574
 3400SOL    HW121662   3.739   4.406   9.952 -0.4155 -1.2114  0.6218
 3400SOL    HW221663   3.645   4.285   9.969  2.9053  0.2582  1.7209
 3401SOL     OW21664   0.544   1.613   5.155  0.6876  0.6474  0.0866
 3401SOL    HW121665   0.518   1.617   5.247  1.8294 -1.2802  0.4772
 3401SOL    HW221666   0.540   1.519   5.136  2.0207  0.6801 -0.3333
 3402SOL     OW21667   3.347   2.556   7.839  0.3578 -0.3443 -0.5097
 3402SOL    HW121668   3.377   2.475   7.882 -0.5397  0.1415  1.0416
 3402SOL    HW221669   3.252   2.560   7.855  0.0569 -3.1939 -1.5010
 3403SOL     OW21670   1.522   2.781   0.886 -0.0708 -0.7153  0.0115
 3403SOL    HW121671   1.535   2.717   0.816  2.5025  1.5286 -1.5838
 3403SOL    HW221672   1.580   2.743   0.952 -1.3867  1.3952  2.3621
 3404SOL     OW21673   4.556   3.150  10.949  0.3133  0.4868  0.0194
 3404SOL    HW121674   4.501   3.189  10.881  0.5735 -1.3833 -1.2488
 3404SOL    HW221675   4.622   3.103  10.898  2.5431 -0.1546  3.4896
 3405SOL     OW21676   2.410   1.853   4.850 -0.4358 -0.0598 -0.1379
 3405SOL    HW121677   2.416   1.942   4.814 -0.9183  0.1534  0.2994
 3405SOL    HW221678   2.386   1.888   4.936 -0.2994 -0.3633  0.0243
 3406SOL     OW21679   3.609   3.391  12.542  0.4445 -0.4296  0.2587
 3406SOL    HW121680   3.655   3.453  12.599  1.6843 -2.8224  1.8651
 3406SOL    HW221681   3.584   3.322  12.603  1.4426 -1.2767 -0.2934
 3407SOL     OW21682   4.353   3.316  12.157 -0.0765 -0.0829 -0.6247
 3407SOL    HW121683   4.377   3.334  12.248  0.4628  0.2379 -0.8334
 3407SOL    HW221684   4.266   3.277  12.165  1.2294 -3.1564 -1.1904
 3408SOL     OW21685   1.832   4.171   9.078 -1.1281  0.2901 -0.4103
 3408SOL    HW121686   1.791   4.250   9.042 -2.4927  0.1245  0.7671
 3408SOL    HW221687   1.876   4.142   8.998 -0.9548 -2.0820  0.5247
 3409SOL     OW21688   2.115   1.269   1.101  0.0047 -0.1036 -0.4285
 3409SOL    HW121689   2.092   1.327   1.174  2.4809  1.3556 -0.8207
 3409SOL    HW221690   2.026   1.258   1.067 -0.8103 -1.1789  1.9863
 3410SOL     OW21691   2.481   1.455  14.450 -0.3897  0.1126  0.5291
 3410SOL    HW121692   2.469   1.544  14.416  1.4992 -0.0596 -0.5258
 3410SOL    HW221693   2.400   1.421  14.412 -2.7033  4.4120  1.5030
 3411SOL     OW21694   4.091   4.268   4.628  0.0102  0.1471 -0.0986
 3411SOL    HW121695   4.051   4.335   4.683 -0.2355  0.1003 -0.2205
 3411SOL    HW221696   4.181   4.299   4.617 -0.3257  0.7129 -1.3103
 3412SOL     OW21697   2.658   3.629  16.005  0.4419 -0.2705 -0.1023
 3412SOL    HW121698   2.571   3.667  16.016  0.2749  0.4629 -3.9622
 3412SOL    HW221699   2.687   3.677  15.927  1.2296 -0.2013  0.2332
 3413SOL     OW21700   0.280   2.264   6.162 -0.3721 -0.0369 -0.2860
 3413SOL    HW121701   0.358   2.220   6.128 -1.1431  0.0337 -2.1529
 3413SOL    HW221702   0.315   2.313   6.236 -1.8037  0.8288 -0.1806
 3414SOL     OW21703   2.838   0.466   2.900 -0.4267 -0.4388  0.5901
 3414SOL    HW121704   2.854   0.462   2.994 -1.7436 -1.5927  0.7837
 3414SOL    HW221705   2.775   0.538   2.893  0.6727  0.2698 -2.0836
 3415SOL     OW21706   4.177   4.004   2.517 -0.1116  0.1938  0.0939
 3415SOL    HW121707   4.257   4.051   2.540 -1.0753  1.4515  0.8808
 3415SOL    HW221708   4.135   4.067   2.458  1.9313  1.8475  0.4239
 3416SOL     OW21709   2.554   3.742  16.371 -0.6254  0.1833 -0.3649
 3416SOL    HW121710   2.464   3.766  16.392  0.0486  1.8221  0.6249
 3416SOL    HW221711   2.596   3.827  16.383 -0.3975  0.0743 -0.3847
 3417SOL     OW21712   4.068   0.573  10.723  0.2955 -0.1854  0.6223
 3417SOL    HW121713   4.136   0.637  10.702  0.7407 -0.4949  1.1388
 3417SOL    HW221714   4.076   0.511  10.651 -3.1088 -1.3897  1.2638
 3418SOL     OW21715   4.676   3.799  17.390  0.2999 -0.1748  0.5452
 3418SOL    HW121716   4.657   3.857  17.463  0.7801  0.9059 -0.1854
 3418SOL    HW221717   4.676   3.714  17.434 -1.6419 -0.4503  0.0184
 3419SOL     OW21718   0.812   2.050  10.667 -0.3387  0.7176  0.2097
 3419SOL    HW121719   0.759   2.129  10.655 -2.0661 -0.5562 -0.3547
 3419SOL    HW221720   0.751   1.987  10.705  0.9589  0.4014  1.7828
 3420SOL     OW21721   3.858   2.085   6.082  0.2288  0.1875  0.3965
 3420SOL    HW121722   3.843   1.998   6.118  2.7333 -1.4477 -2.4637
 3420SOL    HW221723   3.770   2.116   6.060  0.0252 -1.2153 -0.7830
 3421SOL     OW21724   2.383   2.706  13.901  0.2375  0.3232  0.3363
 3421SOL    HW121725   2.458   2.657  13.934  1.3686  0.7042 -1.6892
 3421SOL    HW221726   2.421   2.753  13.826 -1.3121 -0.9089 -1.1972
 3422SOL     OW21727   3.362   2.585   6.911 -0.3193  0.4811 -0.3943
 3422SOL    HW121728   3.287   2.644   6.920 -0.5247  0.1259  0.2622
 3422SOL    HW221729   3.354   2.539   6.994  0.7167 -0.0978 -0.6202
 3423SOL     OW21730   0.810   1.759   3.504  0.3554 -0.2603 -0.0459
 3423SOL    HW121731   0.806   1.806   3.420  1.0804  0.6892  0.4555
 3423SOL    HW221732   0.781   1.670   3.486 -2.0183  0.9666 -2.3268
 3424SOL     OW21733   2.809   3.744   3.046  0.3926 -0.2926 -0.2533
 3424SOL    HW121734   2.739   3.689   3.081 -0.2589  0.5029 -0.3054
 3424SOL    HW221735   2.864   3.672   3.014  1.6737 -0.3842  2.1389
 3425SOL     OW21736   1.402   0.904   1.431  0.2652  0.2348 -0.0475
 3425SOL    HW121737   1.331   0.947   1.383  0.6857  0.8049 -0.1627
 3425SOL    HW221738   1.432   0.850   1.358 -1.4952 -0.8817  0.0505
 3426SOL     OW21739   2.609   4.586   1.316 -0.0522  0.4528 -0.2436
 3426SOL    HW121740   2.514   4.583   1.313  0.0747 -2.0094 -2.2011
 3426SOL    HW221741   2.629   4.625   1.231 -0.3873 -1.1705 -1.0708
 3427SOL     OW21742   0.609   2.253   3.297 -0.0827 -0.3773 -0.0038
 3427SOL    HW121743   0.553   2.176   3.307 -0.8127  0.2250  0.4974
 3427SOL    HW221744   0.658   2.251   3.379  0.8532 -0.9207 -0.5728
 3428SOL     OW21745   4.051   3.443   7.501  0.4642 -0.3866  0.1813
 3428SOL    HW121746   4.099   3.426   7.583 -2.4764 -2.0698  1.5653
 3428SOL    HW221747   3.970   3.482   7.533  0.2306 -1.0707  0.4338
 3429SOL     OW21748   2.553   1.223   4.184 -0.1756 -0.0110  0.1745
 3429SOL    HW121749   2.563   1.232   4.279 -1.6760  1.2860  0.1987
 3429SOL    HW221750   2.492   1.293   4.160  0.0297 -0.9064 -2.8340
 3430SOL     OW21751   0.734   4.380   7.829 -0.1198 -0.0392 -0.2656
 3430SOL    HW121752   0.692   4.351   7.748  0.4731 -2.9636  0.4440
 3430SOL    HW221753   0.729   4.297   7.876  1.1478 -0.5500 -1.0204
 3431SOL     OW21754   4.059   3.913  14.415  1.0974 -0.2289  0.5452
 3431SOL    HW121755   4.134   3.953  14.460  0.4013  0.7889  0.8122
 3431SOL    HW221756   3.987   3.964  14.452  0.2445 -0.4855 -0.7706
 3432SOL     OW21757   4.578   2.795  10.440  0.3002 -0.3590  0.0241
 3432SOL    HW121758   4.622   2.850  10.376 -0.3399  0.6560  0.4709
 3432SOL    HW221759   4.573   2.857  10.513  0.8397 -0.0860 -0.1705
 3433SOL     OW21760   2.587   1.125   8.880 -0.3388  0.8829  0.3070
 3433SOL    HW121761   2.616   1.047   8.834  0.8462  2.4614 -1.6217
 3433SOL    HW221762   2.493   1.112   8.886 -0.2282  0.2874  0.7004
 3434SOL     OW21763   2.648   0.920   8.701  0.1446  0.5100  0.3109
 3434SOL    HW121764   2.688   0.911   8.615 -0.8174  0.6671 -0.1562
 3434SOL    HW221765   2.609   0.833   8.711 -1.0688  1.4074  3.4288
 3435SOL     OW21766   0.366   4.263   9.617 -0.5043  0.1528 -0.2230
 3435SOL    HW121767   0.453   4.227   9.635 -0.8327  0.1318  1.4001
 3435SOL    HW221768   0.308   4.191   9.642  2.2335 -1.6753  0.9378
 3436SOL     OW21769   0.742   0.527   7.722  0.6425 -0.1690  0.4530
 3436SOL    HW121770   0.735   0.616   7.687 -1.2183 -0.2020  0.7389
 3436SOL    HW221771   0.837   0.522   7.713  0.7639  0.7078  1.1726
 3437SOL     OW21772   1.189   3.614   4.766 -0.2568 -0.3754  0.0266
 3437SOL    HW121773   1.123   3.544   4.763  1.4777 -2.0138 -0.1524
 3437SOL    HW221774   1.211   3.628   4.858  3.3840  1.1135 -1.0550
 3438SOL     OW21775   2.167   1.671  14.374  0.2990  0.1046  0.1029
 3438SOL    HW121776   2.115   1.652  14.295  2.1498  0.7252 -1.2529
 3438SOL    HW221777   2.244   1.617  14.354 -0.9090 -0.8704 -1.9981
 3439SOL     OW21778   2.876   4.439   5.843  0.1279  0.5788 -0.6078
 3439SOL    HW121779   2.932   4.432   5.920  0.5092  0.9291 -0.8550
 3439SOL    HW221780   2.933   4.468   5.772  0.8920 -0.1593 -0.2951
 3440SOL     OW21781   2.125   3.969   6.242  0.0861 -0.3546 -0.5027
 3440SOL    HW121782   2.199   3.930   6.289  0.3340  2.2657  1.2812
 3440SOL    HW221783   2.059   3.908   6.277 -0.0138 -0.6464 -1.2067
 3441SOL     OW21784   1.947   3.538  12.396  0.1662  0.3313 -0.0934
 3441SOL    HW121785   1.904   3.622  12.416 -0.3672  0.4020 -1.5720
 3441SOL    HW221786   1.952   3.504  12.486  0.3654  0.0814 -0.1994
 3442SOL     OW21787   3.619   1.333   3.126  0.0909 -0.2496 -0.4278
 3442SOL    HW121788   3.657   1.246   3.117 -1.3684 -0.9836  0.4408
 3442SOL    HW221789   3.683   1.385   3.078  0.8850  1.7712  2.8021
 3443SOL     OW21790   1.634   3.981   2.376  0.0623 -0.0441 -0.1644
 3443SOL    HW121791   1.543   3.970   2.351  0.5804 -1.1747 -1.5530
 3443SOL    HW221792   1.673   3.964   2.290 -1.0042 -0.7362 -0.5101
 3444SOL     OW21793   2.891   3.670   5.209  0.2485 -0.3081  0.1931
 3444SOL    HW121794   2.943   3.594   5.186 -0.2475 -0.6447  0.1890
 3444SOL    HW221795   2.905   3.676   5.304  0.5754  0.0755  0.1185
 3445SOL     OW21796   4.039   1.414   2.345  0.1884 -0.0757  0.4571
 3445SOL    HW121797   4.028   1.492   2.291  1.6192  0.0185  0.2998
 3445SOL    HW221798   3.947   1.388   2.353 -0.1519  1.2239  0.7468
 3446SOL     OW21799   2.767   3.016  13.627  0.1103  0.4514 -0.0542
 3446SOL    HW121800   2.709   3.027  13.702  1.7620 -1.7170  1.5505
 3446SOL    HW221801   2.697   3.013  13.561 -0.1926 -3.3958  0.4005
 3447SOL     OW21802   1.030   3.433  16.317  0.4485  0.1574  0.0110
 3447SOL    HW121803   1.118   3.413  16.286 -0.4634 -2.6149 -0.7655
 3447SOL    HW221804   0.992   3.427  16.229 -0.1323 -0.0922  0.2753
 3448SOL     OW21805   1.498   3.897   7.149  0.6452 -0.4684  0.0706
 3448SOL    HW121806   1.414   3.940   7.167  0.6856  0.4904 -2.0234
 3448SOL    HW221807   1.469   3.842   7.076 -0.1785 -0.4266  0.3592
 3449SOL     OW21808   3.491   0.413   3.241 -0.2978 -0.2898  0.6786
 3449SOL    HW121809   3.422   0.431   3.306 -0.1038  1.8331  0.3081
 3449SOL    HW221810   3.469   0.481   3.177  1.2512  3.0471  3.6073
 3450SOL     OW21811   1.573   1.794   7.201  0.2429  0.4848  0.3767
 3450SOL    HW121812   1.539   1.868   7.251 -0.3110  0.2779  0.3153
 3450SOL    HW221813   1.491   1.744   7.195  0.4787  0.0485  0.7990
 3451SOL     OW21814   2.291   4.672  17.417  0.1895 -0.3903 -0.0833
 3451SOL    HW121815   2.334   4.682  17.333  0.3073 -0.4775 -0.0322
 3451SOL    HW221816   2.246   0.037  17.416  0.8236 -0.0229  1.7553
 3452SOL     OW21817   1.491   3.677   9.897 -1.1148  0.8778 -0.0930
 3452SOL    HW121818   1.480   3.582   9.893  0.6714  0.6215  1.0259
 3452SOL    HW221819   1.440   3.690   9.977  1.9962 -0.2153  2.0510
 3453SOL     OW21820   3.621   1.144   4.883 -0.8415  0.1415  0.0412
 3453SOL    HW121821   3.534   1.106   4.889  0.8616 -4.0932 -1.2481
 3453SOL    HW221822   3.678   1.077   4.845  1.5020  1.7629  0.6870
 3454SOL     OW21823   4.128   1.917   9.419 -0.3946 -0.0559  0.4882
 3454SOL    HW121824   4.153   1.837   9.374 -1.5462 -0.5911  0.8037
 3454SOL    HW221825   4.211   1.960   9.397 -0.0135 -0.5980  0.8688
 3455SOL     OW21826   0.809   0.888   5.927 -0.4855  1.0685  0.3018
 3455SOL    HW121827   0.744   0.955   5.948 -1.4945  0.4022 -0.6520
 3455SOL    HW221828   0.885   0.942   5.906  0.7545 -1.0677 -0.7323
 3456SOL     OW21829   2.794   2.791   7.451  0.2178  0.2026  0.2209
 3456SOL    HW121830   2.738   2.717   7.476  2.5808 -1.0293  1.8146
 3456SOL    HW221831   2.830   2.756   7.370  2.0392  0.4128  0.9379
 3457SOL     OW21832   0.579   4.144   7.808  0.2390 -0.4774  0.5133
 3457SOL    HW121833   0.590   4.106   7.721  0.7258 -1.4029  0.9737
 3457SOL    HW221834   0.606   4.078   7.873  1.0048  0.1339  0.8212
 3458SOL     OW21835   4.627   2.431   1.560 -0.0197 -0.1011  0.4168
 3458SOL    HW121836   4.642   2.402   1.650 -0.3158 -0.4452  0.3542
 3458SOL    HW221837   4.627   2.526   1.570  1.1863  0.0046 -0.6392
 3459SOL     OW21838   4.281   2.845  14.432 -0.0337 -0.0016 -0.2104
 3459SOL    HW121839   4.247   2.759  14.406 -0.9535  0.8766 -1.8368
 3459SOL    HW221840   4.224   2.909  14.391  0.1136  0.5092  0.3827
 3460SOL     OW21841   2.362   0.824  13.131 -0.5317 -0.1599 -0.2462
 3460SOL    HW121842   2.423   0.819  13.058 -2.9794 -0.8245 -2.2473
 3460SOL    HW221843   2.293   0.882  13.098 -2.0118 -0.8644  1.5872
 3461SOL     OW21844   2.617   0.548  10.597 -0.6208 -0.2486  0.4316
 3461SOL    HW121845   2.595   0.527  10.687  0.0781  2.1528  1.1492
 3461SOL    HW221846   2.662   0.468  10.568  0.1897  0.6268 -0.7555
 3462SOL     OW21847   3.906   2.723   2.466 -0.6938 -0.3056  0.3523
 3462SOL    HW121848   3.928   2.642   2.421  2.5153 -0.9994  3.1683
 3462SOL    HW221849   3.974   2.785   2.436 -0.5703  0.4516  2.2162
 3463SOL     OW21850   3.987   3.588   8.695 -0.4041  0.0524  0.3977
 3463SOL    HW121851   3.932   3.665   8.686 -2.4972 -1.6498 -1.3431
 3463SOL    HW221852   4.075   3.626   8.690 -1.0278  1.3521 -0.5885
 3464SOL     OW21853   0.095   0.039   9.048  0.0753  0.0774  0.4684
 3464SOL    HW121854   0.094   0.133   9.026  0.8748  0.0194  0.1742
 3464SOL    HW221855   0.014   0.000   9.016  0.8244 -1.0161 -0.1018
 3465SOL     OW21856   2.721   0.951   6.053 -0.3251 -0.2822  0.0623
 3465SOL    HW121857   2.815   0.957   6.038 -0.2802  0.6739  0.7122
 3465SOL    HW221858   2.696   0.935   5.962 -1.3590 -0.3096  0.3479
 3466SOL     OW21859   1.721   3.689   0.357  0.3670 -0.3322 -0.4478
 3466SOL    HW121860   1.708   3.608   0.406 -1.9924 -0.5026 -1.3351
 3466SOL    HW221861   1.719   3.647   0.272  0.3608 -0.2457 -0.4908
 3467SOL     OW21862   3.716   3.777   3.219 -0.3371 -0.0036 -0.3392
 3467SOL    HW121863   3.784   3.710   3.228  2.3284  2.6387 -0.6034
 3467SOL    HW221864   3.721   3.793   3.125 -1.0019 -0.3060 -0.4279
 3468SOL     OW21865   1.525   3.966  10.997 -0.1470 -0.3143 -0.4896
 3468SOL    HW121866   1.528   3.968  11.092  0.2611  4.1920 -0.5617
 3468SOL    HW221867   1.464   4.038  10.981 -0.8907 -0.6389  0.9277
 3469SOL     OW21868   3.767   2.564   3.169  0.1479 -0.7914  0.1483
 3469SOL    HW121869   3.817   2.645   3.154 -2.8219  0.8943 -0.6692
 3469SOL    HW221870   3.688   2.595   3.125 -0.8625 -0.4158  2.2311
 3470SOL     OW21871   2.524   3.836   5.599 -0.3764 -0.2620 -0.0978
 3470SOL    HW121872   2.466   3.867   5.668  0.8790 -2.5601  2.0032
 3470SOL    HW221873   2.611   3.833   5.640 -1.0535  1.0413  1.4302
 3471SOL     OW21874   1.699   1.082  14.074 -0.3516 -0.6464 -0.1767
 3471SOL    HW121875   1.759   1.156  14.074 -1.1299 -0.0326 -3.1543
 3471SOL    HW221876   1.678   1.074  13.981  1.3025  1.4356 -0.7119
 3472SOL     OW21877   2.615   0.395   2.292 -0.5178  0.1615 -0.1763
 3472SOL    HW121878   2.520   0.404   2.294 -0.2951  2.5322 -0.0447
 3472SOL    HW221879   2.633   0.402   2.198  1.0478 -0.7302  0.0493
 3473SOL     OW21880   4.596   0.984   6.260  0.8302 -0.1534 -0.3807
 3473SOL    HW121881   4.648   1.041   6.316 -2.3702  1.3226  1.1305
 3473SOL    HW221882   4.575   1.039   6.184 -0.1615  1.1338  0.8148
 3474SOL     OW21883   2.698   1.046  14.748  0.3135  0.4575 -0.3689
 3474SOL    HW121884   2.758   1.121  14.745 -0.9527  1.5881  2.6348
 3474SOL    HW221885   2.621   1.101  14.757 -1.4595 -1.8538 -1.5280
 3475SOL     OW21886   1.151   0.092   1.772 -0.0034  0.0861  0.4026
 3475SOL    HW121887   1.136   0.057   1.684  0.5201  1.0817 -0.0784
 3475SOL    HW221888   1.177   0.182   1.753  0.1350  0.2686  1.4196
 3476SOL     OW21889   1.457   1.680   5.744  0.0040 -0.1828  0.4185
 3476SOL    HW121890   1.381   1.648   5.697 -0.7402  1.3120  0.6244
 3476SOL    HW221891   1.499   1.596   5.763  2.9591  1.7062  2.2099
 3477SOL     OW21892   3.073   3.623   6.946  0.1144 -0.3355 -0.5321
 3477SOL    HW121893   3.066   3.639   7.040 -0.6561 -0.7122 -0.5306
 3477SOL    HW221894   2.989   3.649   6.909  0.5066  0.6950 -0.7215
 3478SOL     OW21895   1.385   0.306   4.953 -0.2829 -0.1178 -0.4896
 3478SOL    HW121896   1.426   0.391   4.940 -2.5166  1.0716  0.2177
 3478SOL    HW221897   1.378   0.306   5.048 -0.9132 -1.7428 -0.5280
 3479SOL     OW21898   3.932   0.900   8.166 -0.6625 -0.1936  0.2038
 3479SOL    HW121899   3.976   0.870   8.246 -1.2975 -1.1766  0.1798
 3479SOL    HW221900   3.907   0.813   8.135 -2.1479  1.0411 -2.0211
 3480SOL     OW21901   1.274   0.097   6.406  0.6359  0.3396  0.0890
 3480SOL    HW121902   1.318   0.053   6.478 -0.6898 -2.1838 -0.6291
 3480SOL    HW221903   1.341   0.158   6.378  0.6299  1.9647  3.5635
 3481SOL     OW21904   2.131   3.655   7.514 -0.0853 -0.1940  0.2918
 3481SOL    HW121905   2.085   3.709   7.450  0.8406 -3.3843 -3.0319
 3481SOL    HW221906   2.064   3.594   7.546  0.6472  0.4408  3.0371
 3482SOL     OW21907   3.273   1.286   2.249 -0.0301 -0.2044 -0.4002
 3482SOL    HW121908   3.207   1.290   2.318  0.5360  4.3214 -0.1309
 3482SOL    HW221909   3.357   1.291   2.295 -0.3230 -0.3623  0.1573
 3483SOL     OW21910   4.054   1.144   3.678  0.1317  0.6245  0.0552
 3483SOL    HW121911   4.034   1.091   3.602 -1.6964 -0.2328  1.1341
 3483SOL    HW221912   4.038   1.231   3.642 -0.7783  0.0625 -0.8760
 3484SOL     OW21913   3.954   0.323   8.658 -0.2994 -0.2351  0.1915
 3484SOL    HW121914   4.018   0.286   8.719 -0.9235 -0.3589  0.7741
 3484SOL    HW221915   4.012   0.349   8.587  0.0490  0.0954  0.5922
 3485SOL     OW21916   3.176   0.009   6.602 -0.6683 -0.0511 -0.1208
 3485SOL    HW121917   3.164   4.693   6.690  0.3743  0.6027  0.2809
 3485SOL    HW221918   3.173   0.104   6.615 -0.6262  0.0129 -0.5652
 3486SOL     OW21919   2.572   0.400   9.088 -0.1790 -0.0978 -0.4145
 3486SOL    HW121920   2.612   0.459   9.152 -2.1340  1.9469 -1.0797
 3486SOL    HW221921   2.613   0.431   9.007  0.9386  0.1112  0.2276
 3487SOL     OW21922   2.479   1.704   4.625  0.8211 -0.1414  0.7172
 3487SOL    HW121923   2.545   1.637   4.642 -1.7103 -2.6936  0.3182
 3487SOL    HW221924   2.445   1.740   4.707  0.6455  0.3249  0.4359
 3488SOL     OW21925   0.403   4.058   1.909 -0.2367  0.3182  0.6845
 3488SOL    HW121926   0.315   4.060   1.945 -0.9613  2.3666 -1.2179
 3488SOL    HW221927   0.448   4.067   1.993 -0.7289 -1.4561  1.1395
 3489SOL     OW21928   4.062   2.478   0.367  0.1158  0.0524 -0.3748
 3489SOL    HW121929   3.999   2.467   0.439 -0.3611  1.0223 -0.6371
 3489SOL    HW221930   4.022   2.542   0.308  0.3932  0.4864 -0.0933
 3490SOL     OW21931   4.093   3.776   1.928 -0.1904 -0.0190  0.2737
 3490SOL    HW121932   4.136   3.762   1.844 -0.2519 -1.0393  0.4199
 3490SOL    HW221933   4.024   3.710   1.918 -0.1715  0.2469 -1.5467
 3491SOL     OW21934   2.667   4.381  17.533 -0.1294  0.2581  0.0804
 3491SOL    HW121935   2.609   4.363  17.607  2.8389  1.7673  2.7650
 3491SOL    HW221936   2.604   4.386  17.461 -0.4782 -1.1797  0.2896
 3492SOL     OW21937   3.573   3.718  15.118  0.8505 -0.7454 -0.5281
 3492SOL    HW121938   3.527   3.639  15.089 -1.8165  0.5011  0.3143
 3492SOL    HW221939   3.549   3.729  15.210  1.1499 -1.0172 -0.4165
 3493SOL     OW21940   3.163   4.138   7.228  0.8034  0.0228 -0.7914
 3493SOL    HW121941   3.200   4.072   7.171  1.2004 -2.3908  2.2852
 3493SOL    HW221942   3.243   4.169   7.270  0.3701 -0.2700  0.2510
 3494SOL     OW21943   1.772   3.728  17.158 -0.8220 -0.1671  0.0495
 3494SOL    HW121944   1.750   3.668  17.230  0.8875 -0.8522 -0.0072
 3494SOL    HW221945   1.865   3.740  17.177 -0.7842  0.9541 -0.8366
 3495SOL     OW21946   0.061   0.610   9.862 -0.2073 -0.0035  0.6733
 3495SOL    HW121947   4.704   0.653   9.900 -2.2287 -0.3626 -2.9957
 3495SOL    HW221948   0.099   0.688   9.822 -2.1214  0.9391  0.6621
 3496SOL     OW21949   3.076   0.459   6.814  0.5865 -0.4417 -0.2734
 3496SOL    HW121950   3.039   0.486   6.898  2.0398 -1.5214  0.7313
 3496SOL    HW221951   3.152   0.517   6.821  0.7849 -0.4249 -2.6830
 3497SOL     OW21952   2.439   1.232   2.086 -0.2748  0.2455  0.1700
 3497SOL    HW121953   2.488   1.299   2.133  0.4530 -0.1644 -0.0157
 3497SOL    HW221954   2.504   1.163   2.097 -0.2662  0.3484  0.7687
 3498SOL     OW21955   3.874   1.868   4.823  0.1391  0.4876 -0.3467
 3498SOL    HW121956   3.825   1.891   4.901  0.7963  3.2058 -0.7412
 3498SOL    HW221957   3.901   1.958   4.806 -3.3106  1.4137 -0.7677
 3499SOL     OW21958   2.865   4.243   1.460  0.0970  0.3150 -0.1279
 3499SOL    HW121959   2.867   4.260   1.554  1.9660 -0.0615 -0.1044
 3499SOL    HW221960   2.889   4.152   1.477  3.5416  1.3282  0.4944
 3500SOL     OW21961   4.415   1.235   3.000  0.0833  0.5041 -0.0007
 3500SOL    HW121962   4.376   1.198   2.920  0.0229  1.9292 -0.6236
 3500SOL    HW221963   4.349   1.205   3.063 -0.7134 -1.8362 -1.9130
 3501SOL     OW21964   0.386   4.023   5.086  0.2863 -0.0461 -0.4665
 3501SOL    HW121965   0.410   3.950   5.142 -1.0692 -0.2344 -0.1365
 3501SOL    HW221966   0.301   4.045   5.125  0.3814 -3.0447  1.4664
 3502SOL     OW21967   1.202   0.575  16.886  0.1499 -0.4874  0.6145
 3502SOL    HW121968   1.201   0.661  16.929 -2.5203 -0.4851  0.5120
 3502SOL    HW221969   1.113   0.574  16.851  0.5877 -0.7648 -0.4998
 3503SOL     OW21970   2.514   4.522   6.583 -0.7170  0.0384  0.7772
 3503SOL    HW121971   2.590   4.502   6.528 -0.1432  5.9768 -0.6643
 3503SOL    HW221972   2.483   4.606   6.549  1.0108  0.2268 -0.3655
 3504SOL     OW21973   3.095   4.254   3.909 -0.0373 -0.8918 -0.1539
 3504SOL    HW121974   3.176   4.304   3.921 -1.7239  1.1450  2.7810
 3504SOL    HW221975   3.089   4.236   3.816  1.2697 -0.4599 -0.3217
 3505SOL     OW21976   1.361   3.873   3.240  0.6012 -0.6361  0.1525
 3505SOL    HW121977   1.314   3.807   3.293 -1.2304  1.3832  1.0559
 3505SOL    HW221978   1.301   3.947   3.233  1.3384  0.0363  1.0217
 3506SOL     OW21979   0.473   2.656  11.016  0.1317  0.1647 -0.1930
 3506SOL    HW121980   0.469   2.716  10.942 -2.1569  1.0912  0.6761
 3506SOL    HW221981   0.401   2.599  10.989 -1.5077  1.1871  2.0441
 3507SOL     OW21982   0.953   3.750   5.670  0.1502  0.0625  0.2917
 3507SOL    HW121983   1.040   3.789   5.660  0.5776 -0.6562  1.2415
 3507SOL    HW221984   0.919   3.762   5.581  0.5523 -1.3210 -0.0375
 3508SOL     OW21985   2.214   4.506   6.858  0.6406 -0.2228  0.3602
 3508SOL    HW121986   2.181   4.416   6.855 -0.9054  0.4118 -1.0872
 3508SOL    HW221987   2.309   4.491   6.860  0.6683  0.0556  1.1318
 3509SOL     OW21988   4.421   0.292   3.731  0.5130  0.4023  0.6140
 3509SOL    HW121989   4.386   0.244   3.807  1.2334 -1.8347 -0.4479
 3509SOL    HW221990   4.502   0.243   3.715  0.8356  0.5092  1.8678
 3510SOL     OW21991   0.628   0.173   5.586  0.1486  0.4188 -0.6391
 3510SOL    HW121992   0.707   0.143   5.541  1.6165  2.9562  0.3124
 3510SOL    HW221993   0.587   0.208   5.506  0.8464  1.8171 -0.3761
 3511SOL     OW21994   2.714   3.226   4.598 -0.0240 -0.7227  0.0546
 3511SOL    HW121995   2.776   3.214   4.669  2.3061 -1.4581 -2.1084
 3511SOL    HW221996   2.702   3.321   4.604  1.3732 -0.5050 -0.5812
 3512SOL     OW21997   1.975   0.362  15.074 -0.2813  0.4200 -0.0615
 3512SOL    HW121998   1.993   0.423  15.003 -0.4386 -1.6025 -1.8257
 3512SOL    HW221999   2.016   0.279  15.050  0.0086 -0.1275  2.3110
 3513SOL     OW22000   0.747   2.083   2.501 -0.2704 -0.2735  0.0689
 3513SOL    HW122001   0.759   1.990   2.522  1.5206 -0.8615 -3.5975
 3513SOL    HW222002   0.653   2.073   2.484  0.0913  0.3360 -2.1830
 3514SOL     OW22003   3.052   1.432   3.267 -0.4207 -0.5519 -0.6755
 3514SOL    HW122004   3.008   1.497   3.211 -0.3815 -0.3455 -0.4662
 3514SOL    HW222005   3.004   1.351   3.253 -3.1779  0.9349  0.0944
 3515SOL     OW22006   1.895   4.619   2.485  0.0171 -0.4242  0.2080
 3515SOL    HW122007   1.897   4.626   2.390 -0.3923  0.0772  0.2374
 3515SOL    HW222008   1.911   4.525   2.487  2.2381 -0.0503  0.1376
 3516SOL     OW22009   4.014   3.904   4.408  0.1822  0.7797 -0.3483
 3516SOL    HW122010   3.928   3.895   4.366 -0.6008  0.2432  1.3432
 3516SOL    HW222011   4.064   3.944   4.337 -3.2041 -0.2182 -3.2923
 3517SOL     OW22012   1.930   0.982   3.382  0.0796  0.3881  0.4016
 3517SOL    HW122013   1.908   0.928   3.306 -1.8739  3.4763 -1.2531
 3517SOL    HW222014   1.844   1.017   3.405 -0.1126  1.3303 -1.7430
 3518SOL     OW22015   0.126   4.701   9.550 -0.1272  0.1410 -0.5855
 3518SOL    HW122016   0.213   4.662   9.538 -0.6151 -0.2013 -3.0336
 3518SOL    HW222017   0.134   4.710   9.645  3.4184 -0.9673 -0.7696
 3519SOL     OW22018   0.705   2.253  15.247 -0.2658 -0.2605 -0.3361
 3519SOL    HW122019   0.752   2.331  15.277 -2.7280  0.3552  2.0012
 3519SOL    HW222020   0.637   2.292  15.191 -0.6056  0.3507  0.5024
 3520SOL     OW22021   3.968   4.198  16.802  0.0852 -0.0634  0.1213
 3520SOL    HW122022   4.057   4.167  16.818  0.2605  0.9191  1.0110
 3520SOL    HW222023   3.931   4.129  16.746 -2.8104 -0.2770  2.3212
 3521SOL     OW22024   2.328   2.569   4.045 -0.2122 -0.5652 -0.3074
 3521SOL    HW122025   2.382   2.490   4.039 -0.6940 -0.7095 -2.8306
 3521SOL    HW222026   2.392   2.627   4.086 -0.3059  0.6690 -1.9228
 3522SOL     OW22027   3.531   2.753   8.348 -0.1112 -0.3702 -0.3288
 3522SOL    HW122028   3.547   2.844   8.374  0.0116 -0.5617  0.2690
 3522SOL    HW222029   3.490   2.716   8.427  0.3529 -0.8359 -0.3031
 3523SOL     OW22030   2.998   1.540  12.592 -0.2386  0.2290 -0.5721
 3523SOL    HW122031   2.987   1.452  12.629  4.7282 -0.9104 -1.8392
 3523SOL    HW222032   3.016   1.591  12.671 -0.9236 -0.2502 -0.1008
 3524SOL     OW22033   4.214   3.907   3.968  0.5972  0.5695 -0.3042
 3524SOL    HW122034   4.293   3.946   3.931  0.3357 -0.0941 -1.5550
 3524SOL    HW222035   4.172   3.875   3.889 -0.1189 -0.2911  0.4321
 3525SOL     OW22036   0.598   0.808   3.147 -0.2164  0.6901  0.3214
 3525SOL    HW122037   0.593   0.854   3.064  1.6465  1.1175  0.4434
 3525SOL    HW222038   0.685   0.769   3.135 -0.8553 -0.1786 -1.4028
 3526SOL     OW22039   4.467   0.537   2.908 -0.7053  0.4183 -0.3743
 3526SOL    HW122040   4.380   0.504   2.932  0.5631 -1.6849  1.2639
 3526SOL    HW222041   4.474   0.504   2.818 -1.1734 -3.0449  0.8769
 3527SOL     OW22042   2.755   1.747   2.959 -0.1497  0.3691  0.4991
 3527SOL    HW122043   2.768   1.691   2.883 -4.0371 -1.1970  0.9834
 3527SOL    HW222044   2.737   1.830   2.915 -1.7596 -1.1686 -1.7616
 3528SOL     OW22045   4.086   3.683   4.562  0.1559 -0.0074  1.0207
 3528SOL    HW122046   4.021   3.655   4.498  0.2452  0.0925  0.8859
 3528SOL    HW222047   4.097   3.774   4.534  2.3042 -1.0560 -1.5562
 3529SOL     OW22048   3.688   3.265   2.950  0.2567 -0.1059  0.0450
 3529SOL    HW122049   3.783   3.270   2.949  0.3728 -1.6053  3.6485
 3529SOL    HW222050   3.669   3.197   2.886 -0.5562  0.7854 -0.6519
 3530SOL     OW22051   2.902   1.739  14.382 -0.2676  1.0473  0.2881
 3530SOL    HW122052   2.905   1.769  14.473  1.7867 -2.5829  1.4071
 3530SOL    HW222053   2.996   1.739  14.363 -0.4410 -0.8415 -0.4756
 3531SOL     OW22054   3.154   1.915  12.362 -0.3556 -0.0273 -0.0636
 3531SOL    HW122055   3.153   1.885  12.454  0.4056  1.6182  0.4762
 3531SOL    HW222056   3.249   1.915  12.350 -0.4280 -0.3892 -0.6259
 3532SOL     OW22057   2.379   1.139   0.237  0.2474 -0.1837  0.8858
 3532SOL    HW122058   2.371   1.200   0.164 -0.7470 -1.1703  0.1867
 3532SOL    HW222059   2.443   1.192   0.285  2.0039 -2.1970  0.7873
 3533SOL     OW22060   1.221   1.164   5.028  0.3341  0.1718  0.3457
 3533SOL    HW122061   1.160   1.106   5.073  1.7641 -0.1799  1.8645
 3533SOL    HW222062   1.175   1.173   4.945 -0.9353  0.8177  1.1251
 3534SOL     OW22063   3.602   0.723   6.871 -0.6006 -0.1597  0.0510
 3534SOL    HW122064   3.579   0.641   6.915 -2.0549 -0.5775 -1.4788
 3534SOL    HW222065   3.673   0.702   6.811  0.4578  3.3677  0.0689
 3535SOL     OW22066   0.781   0.981  15.556  0.0049 -0.4852 -0.6354
 3535SOL    HW122067   0.849   1.017  15.499 -1.3006  1.1191 -1.1994
 3535SOL    HW222068   0.711   0.968  15.492 -0.4988 -1.2328  0.0796
 3536SOL     OW22069   2.224   2.077   2.728 -0.1290 -0.1717  0.2128
 3536SOL    HW122070   2.195   2.128   2.803 -1.5525 -2.0665  0.9615
 3536SOL    HW222071   2.182   1.995   2.753 -0.2486  0.2570  1.4041
 3537SOL     OW22072   0.411   1.525   5.903 -0.0173  0.4978 -0.2580
 3537SOL    HW122073   0.436   1.615   5.885 -0.7002  0.7838  0.2197
 3537SOL    HW222074   0.319   1.525   5.879 -0.4859  1.9642  1.5226
 3538SOL     OW22075   0.288   4.037   5.531  0.2916 -0.2255  0.1246
 3538SOL    HW122076   0.273   4.093   5.607  0.6732 -2.6364  1.9904
 3538SOL    HW222077   0.337   3.968   5.575 -0.0123  0.2530  1.2096
 3539SOL     OW22078   4.695   0.178   5.440  0.5922  0.6150  0.0161
 3539SOL    HW122079   4.637   0.206   5.369  2.0049  0.7452 -1.0892
 3539SOL    HW222080   4.673   0.246   5.503  0.8864 -1.2727  2.1281
 3540SOL     OW22081   2.969   1.393  17.107  0.5788  0.3241  0.1446
 3540SOL    HW122082   2.880   1.427  17.101  0.7766  0.7602 -0.3412
 3540SOL    HW222083   3.005   1.422  17.023  0.3122  0.7100  0.1626
 3541SOL     OW22084   2.803   3.971   6.542  0.0093 -0.1190  0.3948
 3541SOL    HW122085   2.850   4.052   6.563 -0.9882  0.5047  0.2207
 3541SOL    HW222086   2.727   3.978   6.601  0.2143 -3.2057  1.0283
 3542SOL     OW22087   1.851   3.355   6.587  0.0588 -0.2798 -1.0144
 3542SOL    HW122088   1.840   3.432   6.643 -0.7142 -1.5675  0.6076
 3542SOL    HW222089   1.866   3.392   6.500 -1.4555  0.9357 -0.7586
 3543SOL     OW22090   3.280   1.340   3.413 -0.5516 -0.0512  0.2247
 3543SOL    HW122091   3.314   1.263   3.367  1.5103  0.4770  0.8932
 3543SOL    HW222092   3.232   1.391   3.348 -1.0496 -0.5080  0.2342
 3544SOL     OW22093   4.256   1.237  15.262  0.4998  0.1584 -0.6018
 3544SOL    HW122094   4.274   1.153  15.305  0.7627  0.5899  0.1308
 3544SOL    HW222095   4.326   1.240  15.197  1.5562  3.2791  0.6652
 3545SOL     OW22096   1.020   1.449  16.176 -0.5777  0.1717  0.1547
 3545SOL    HW122097   0.986   1.537  16.190 -0.3270  0.1044  1.2040
 3545SOL    HW222098   1.024   1.427  16.269 -1.6127  1.1942  0.4395
 3546SOL     OW22099   2.990   0.485   8.438  0.3826  0.0030  0.5030
 3546SOL    HW122100   3.019   0.406   8.393  0.5343  0.2291  0.2087
 3546SOL    HW222101   3.066   0.541   8.455  0.5189  0.4078 -1.4517
 3547SOL     OW22102   4.135   2.535   1.689  0.6359 -0.0555  0.2980
 3547SOL    HW122103   4.151   2.617   1.735  0.1216 -0.6749  1.5841
 3547SOL    HW222104   4.088   2.563   1.610  2.8365  0.5262 -0.8077
 3548SOL     OW22105   2.857   4.549  15.194  0.0163 -0.2701 -0.4255
 3548SOL    HW122106   2.878   4.614  15.260 -0.8534  0.3621 -0.7717
 3548SOL    HW222107   2.864   4.468  15.244 -0.5208 -1.9246 -2.9857
 3549SOL     OW22108   3.266   3.959   1.812 -0.0002 -0.1806 -0.1370
 3549SOL    HW122109   3.189   3.923   1.858  0.4800  1.6133  2.0296
 3549SOL    HW222110   3.316   3.879   1.800  1.3927  0.7956 -0.7072
 3550SOL     OW22111   2.838   2.017   7.372 -0.1502  0.0748  0.0995
 3550SOL    HW122112   2.767   1.960   7.343 -0.4078  0.9437 -0.9860
 3550SOL    HW222113   2.849   1.982   7.461  3.0492 -3.5196 -1.7227
 3551SOL     OW22114   3.569   1.760   7.451  0.8203 -0.1226  0.7970
 3551SOL    HW122115   3.664   1.768   7.459  1.1377 -2.9992  0.0972
 3551SOL    HW222116   3.563   1.776   7.356 -3.2025 -2.0954  0.6714
 3552SOL     OW22117   4.395   0.878   8.988 -0.3781  0.0415  0.2827
 3552SOL    HW122118   4.389   0.843   9.078 -0.7393  3.1534  1.4688
 3552SOL    HW222119   4.314   0.928   8.980 -0.4490 -0.0868  0.2015
 3553SOL     OW22120   4.488   1.378   5.834 -0.1001 -0.2618 -0.5589
 3553SOL    HW122121   4.409   1.425   5.806  0.3843  1.0618  0.2755
 3553SOL    HW222122   4.533   1.442   5.889  1.0533 -0.3204 -1.4258
 3554SOL     OW22123   4.563   3.892  11.690 -0.3266 -0.4858 -0.3791
 3554SOL    HW122124   4.498   3.955  11.723  0.8353  0.9611 -0.8255
 3554SOL    HW222125   4.642   3.946  11.679 -1.5999  1.1381 -1.5706
 3555SOL     OW22126   0.101   2.486   3.624  0.1371  0.4334  0.1447
 3555SOL    HW122127   0.031   2.427   3.652  1.0415 -1.1468 -0.9484
 3555SOL    HW222128   0.067   2.516   3.540  1.3299 -0.5560 -0.6823
 3556SOL     OW22129   4.651   4.191   5.049 -0.3837  0.0276 -0.7134
 3556SOL    HW122130   4.693   4.224   4.970 -3.1521  2.5468 -1.1201
 3556SOL    HW222131   0.007   4.191   5.109  0.9062 -2.4925 -2.3382
 3557SOL     OW22132   1.952   0.013   2.754 -0.0645  0.2206 -0.1824
 3557SOL    HW122133   1.933   0.004   2.661 -0.4353 -2.9807  0.1827
 3557SOL    HW222134   1.863   0.038   2.779 -1.1615 -0.9842 -2.9361
 3558SOL     OW22135   4.131   3.377  17.297 -0.2730 -0.3162  0.1902
 3558SOL    HW122136   4.061   3.392  17.361 -2.8203 -1.5589 -2.2520
 3558SOL    HW222137   4.194   3.339  17.357  1.7672  0.8124 -1.2540
 3559SOL     OW22138   0.177   2.906  12.913  0.0584  0.3903 -0.2143
 3559SOL    HW122139   0.168   2.944  13.000  0.8198 -0.1781  0.1134
 3559SOL    HW222140   0.269   2.881  12.915  0.6610  2.6513  0.0226
 3560SOL     OW22141   3.367   3.379  11.826 -0.5816 -0.0650  0.1702
 3560SOL    HW122142   3.312   3.443  11.780 -1.0636 -1.2666 -0.9041
 3560SOL    HW222143   3.408   3.339  11.750 -0.7496 -0.0911  0.0933
 3561SOL     OW22144   3.109   2.628   7.468  0.0011  0.7029  1.0212
 3561SOL    HW122145   3.015   2.643   7.481  0.3363  1.6551  2.3394
 3561SOL    HW222146   3.106   2.533   7.473  0.9056  0.7107  1.7860
 3562SOL     OW22147   4.659   4.169   1.786 -0.4431  0.5963 -0.4826
 3562SOL    HW122148   0.017   4.203   1.740  1.8347 -0.5738  2.4693
 3562SOL    HW222149   4.593   4.237   1.792 -1.3256 -0.1922 -1.4136
 3563SOL     OW22150   1.364   4.384   6.212  0.5742  0.4024 -0.2322
 3563SOL    HW122151   1.328   4.461   6.168  1.2788  1.3745  0.8865
 3563SOL    HW222152   1.456   4.386   6.188  0.4010 -0.7178 -0.9692
 3564SOL     OW22153   1.984   2.223   5.904 -0.0909  0.3311 -0.4162
 3564SOL    HW122154   2.059   2.200   5.849 -0.4323  0.1689 -0.8102
 3564SOL    HW222155   1.952   2.136   5.925  0.6482  0.3351  0.7438
 3565SOL     OW22156   3.205   2.369  11.547  0.0447  0.4752  0.3729
 3565SOL    HW122157   3.255   2.437  11.502 -1.7425  1.3219 -0.3168
 3565SOL    HW222158   3.117   2.406  11.542 -1.0821 -2.1311  0.9625
 3566SOL     OW22159   2.748   2.694   3.984  0.3705 -0.3998  0.0222
 3566SOL    HW122160   2.732   2.623   4.047 -2.3990  1.3100  1.2202
 3566SOL    HW222161   2.832   2.728   4.015  1.2475 -0.6928 -2.0228
 3567SOL     OW22162   2.307   2.713   8.712 -0.2316 -0.7654  0.2544
 3567SOL    HW122163   2.213   2.701   8.698 -0.2015  0.5548 -1.0510
 3567SOL    HW222164   2.347   2.693   8.628  0.0608  0.3134  0.1388
 3568SOL     OW22165   3.536   2.883   6.022  0.3844 -0.0701 -0.2966
 3568SOL    HW122166   3.621   2.899   5.983  0.1899 -0.3788 -0.8424
 3568SOL    HW222167   3.542   2.789   6.042 -2.8838 -0.1484  0.3762
 3569SOL     OW22168   4.613   2.807   4.732  0.0467  0.3234  0.1648
 3569SOL    HW122169   4.679   2.857   4.684  1.4214 -2.4514 -0.8290
 3569SOL    HW222170   4.544   2.874   4.734 -1.4165 -1.2236  1.6004
 3570SOL     OW22171   1.758   1.639  16.065  0.4242  0.3407  0.4441
 3570SOL    HW122172   1.770   1.614  16.156 -0.6006  0.1699  0.5329
 3570SOL    HW222173   1.676   1.689  16.060  1.3097  1.6698 -1.0028
 3571SOL     OW22174   2.090   1.578   5.819  0.3436  0.0015  0.1215
 3571SOL    HW122175   2.085   1.663   5.776  0.8285  1.2035  2.4071
 3571SOL    HW222176   2.146   1.602   5.892  2.0350 -1.3767 -0.7271
 3572SOL     OW22177   0.962   1.840   1.595 -0.0411  0.2861  0.0074
 3572SOL    HW122178   0.904   1.824   1.520  2.7775  2.4731 -2.6542
 3572SOL    HW222179   1.026   1.907   1.570 -2.7457  3.1753  0.8124
 3573SOL     OW22180   3.447   1.280  13.632  0.3222 -0.3517  0.0740
 3573SOL    HW122181   3.511   1.345  13.602  0.1477  0.1772  0.8513
 3573SOL    HW222182   3.423   1.239  13.549 -0.4517 -2.0122  1.1326
 3574SOL     OW22183   1.172   2.403   6.743 -0.3493 -0.0905 -0.3009
 3574SOL    HW122184   1.179   2.349   6.822 -1.9697 -0.1072 -0.1729
 3574SOL    HW222185   1.162   2.490   6.781 -1.9067 -0.2882 -0.2516
 3575SOL     OW22186   0.962   0.273   2.874  0.5166 -0.2755  0.0729
 3575SOL    HW122187   1.035   0.214   2.892  0.7664 -0.9109 -2.9577
 3575SOL    HW222188   0.960   0.262   2.779  0.9574  0.2350  0.0050
 3576SOL     OW22189   0.144   3.509   6.912  0.0750  0.0698  0.1033
 3576SOL    HW122190   0.088   3.579   6.880  1.6362  0.9635 -0.6957
 3576SOL    HW222191   0.200   3.558   6.973 -2.3389  1.0184  1.5453
 3577SOL     OW22192   1.099   3.283   0.585 -0.1591 -0.0596 -0.3296
 3577SOL    HW122193   1.103   3.219   0.656  0.0892  1.6043  1.1696
 3577SOL    HW222194   1.172   3.251   0.533  0.2560  0.0592  0.1721
 3578SOL     OW22195   0.099   2.352   5.787  0.4894  0.0237 -0.2632
 3578SOL    HW122196   0.079   2.381   5.698 -0.4732 -1.9482 -0.6880
 3578SOL    HW222197   0.158   2.279   5.768 -0.9340 -1.0165 -0.6554
 3579SOL     OW22198   4.391   2.942   6.707 -0.4085  0.1648 -0.4720
 3579SOL    HW122199   4.472   2.938   6.656 -2.0836 -0.9569 -3.0286
 3579SOL    HW222200   4.383   3.031   6.741 -1.0760 -0.3409  0.7010
 3580SOL     OW22201   0.400   2.788   4.104  0.3270 -0.4013 -0.1651
 3580SOL    HW122202   0.360   2.796   4.018 -0.9335 -1.0380  0.3647
 3580SOL    HW222203   0.384   2.869   4.152 -0.0293 -0.2439 -0.5510
 3581SOL     OW22204   2.142   1.019  16.240  0.8231 -0.1522 -0.5012
 3581SOL    HW122205   2.095   0.967  16.305  1.0139 -0.9312 -0.9889
 3581SOL    HW222206   2.178   1.085  16.299  1.6393 -1.2451  0.2102
 3582SOL     OW22207   4.460   3.767   5.001 -0.4961  0.7292 -0.2565
 3582SOL    HW122208   4.456   3.763   5.097 -0.3916  1.1836 -0.2326
 3582SOL    HW222209   4.480   3.859   4.984  0.0322  0.6489 -0.0937
 3583SOL     OW22210   2.153   3.254   5.810 -0.3929  0.1940  0.2810
 3583SOL    HW122211   2.092   3.328   5.815 -3.2258 -2.0172 -2.1556
 3583SOL    HW222212   2.096   3.181   5.785 -0.9602  1.1987 -1.3627
 3584SOL     OW22213   3.164   2.642   4.477 -0.4377  0.1358  0.8961
 3584SOL    HW122214   3.155   2.560   4.527 -0.8206  0.5258  1.4577
 3584SOL    HW222215   3.193   2.694   4.552  0.2132 -0.3313  0.9738
 3585SOL     OW22216   2.609   3.401   6.125 -0.0065 -0.1575 -0.0299
 3585SOL    HW122217   2.528   3.400   6.073 -0.7269 -0.5825  1.1162
 3585SOL    HW222218   2.619   3.496   6.120 -0.7855 -0.0804 -0.1928
 3586SOL     OW22219   2.907   3.982   1.553  0.5875 -0.0023  0.5416
 3586SOL    HW122220   2.911   4.026   1.638  3.2296  0.6497  0.0915
 3586SOL    HW222221   2.843   3.912   1.564  1.3344 -0.6712  0.6596
 3587SOL     OW22222   1.831   3.215   8.347  0.1655  0.4154 -0.1559
 3587SOL    HW122223   1.782   3.134   8.335  1.0689  0.0410 -1.2281
 3587SOL    HW222224   1.920   3.180   8.350  0.8538  2.0099 -1.6598
 3588SOL     OW22225   2.093   3.782   4.548  0.4945  0.1298 -0.4383
 3588SOL    HW122226   2.180   3.822   4.551  0.7393 -0.4468  0.2654
 3588SOL    HW222227   2.041   3.831   4.612  0.0231 -0.7426 -0.1604
 3589SOL     OW22228   1.263   2.049   4.327  0.0869 -0.1299 -0.0302
 3589SOL    HW122229   1.188   2.109   4.324 -0.7444 -1.3051 -2.1900
 3589SOL    HW222230   1.339   2.104   4.348  0.4123 -0.3665 -0.6117
 3590SOL     OW22231   1.877   3.599   4.759 -0.6190  0.0858 -0.5514
 3590SOL    HW122232   1.929   3.567   4.686  0.6793  2.1294 -0.5137
 3590SOL    HW222233   1.905   3.540   4.829 -1.2694  1.6724  1.0408
 3591SOL     OW22234   1.951   3.066  16.369  0.2883 -0.2284 -0.1222
 3591SOL    HW122235   2.044   3.053  16.351 -0.2616 -1.0946 -2.3197
 3591SOL    HW222236   1.932   2.989  16.422 -0.1831 -0.6204 -0.8681
 3592SOL     OW22237   1.902   0.294  13.030 -0.3817  0.3399 -0.3744
 3592SOL    HW122238   1.997   0.300  13.015 -0.7356  1.6616 -2.0172
 3592SOL    HW222239   1.876   0.205  13.006 -0.9147  0.3779  0.0755
 3593SOL     OW22240   3.419   0.771  13.175  0.2105 -0.2180  0.3280
 3593SOL    HW122241   3.355   0.789  13.106 -0.7939 -1.4341  0.9350
 3593SOL    HW222242   3.463   0.700  13.128 -1.0526 -0.2515 -0.8066
 3594SOL     OW22243   1.791   1.222   4.244 -0.1061  0.2617  0.0981
 3594SOL    HW122244   1.868   1.210   4.189 -0.3600 -0.5020 -0.0859
 3594SOL    HW222245   1.729   1.162   4.204 -0.1046  0.1960  0.1945
 3595SOL     OW22246   0.300   1.493   9.246 -0.4140 -0.1490 -0.2431
 3595SOL    HW122247   0.393   1.516   9.245 -0.5630  0.3939 -1.5010
 3595SOL    HW222248   0.287   1.467   9.155 -0.1298 -2.4338  0.3749
 3596SOL     OW22249   3.861   1.997   2.968  0.0600  0.4754  0.2332
 3596SOL    HW122250   3.788   2.058   2.977 -0.0442  0.0889  1.9605
 3596SOL    HW222251   3.893   2.028   2.883  0.5353  0.0191  0.2435
 3597SOL     OW22252   2.995   0.818   3.034 -0.4304  0.2856 -0.5844
 3597SOL    HW122253   2.909   0.849   3.062 -0.4971 -1.0684  0.6476
 3597SOL    HW222254   3.059   0.869   3.084  0.7051 -1.8212  0.1088
 3598SOL     OW22255   4.069   4.436   4.160  0.5067 -0.0893  0.1916
 3598SOL    HW122256   4.002   4.377   4.126  1.7304 -0.6074 -1.3646
 3598SOL    HW222257   4.064   4.417   4.253  0.8834  1.8840  0.6012
 3599SOL     OW22258   2.165   0.540   7.034 -0.3667  0.1173  0.6348
 3599SOL    HW122259   2.117   0.616   7.002 -0.3139  0.1786  0.7003
 3599SOL    HW222260   2.137   0.472   6.973 -0.7820  0.3604  0.5578
 3600SOL     OW22261   4.546   0.106   3.469  0.4102 -0.0887 -0.0810
 3600SOL    HW122262   4.593   0.055   3.403  1.6496  0.0774  0.6833
 3600SOL    HW222263   4.610   0.111   3.540  1.8305 -1.2587 -1.2683
 3601SOL     OW22264   3.437   3.355   7.450 -0.3113  0.0695  0.4262
 3601SOL    HW122265   3.435   3.403   7.533 -0.3425  0.4204  0.2196
 3601SOL    HW222266   3.498   3.286   7.474 -1.1257 -0.6791  0.3706
 3602SOL     OW22267   2.044   1.157   6.564  0.2691 -0.2096  0.5785
 3602SOL    HW122268   2.018   1.125   6.650 -0.7531 -1.5823 -0.2352
 3602SOL    HW222269   1.956   1.174   6.530  0.2711 -0.8533  0.2485
 3603SOL     OW22270   2.532   2.973   0.873  0.4674  0.2157  0.2250
 3603SOL    HW122271   2.481   3.042   0.916 -2.8987 -2.3670  0.3657
 3603SOL    HW222272   2.521   2.993   0.780  2.4319 -0.4916 -0.1500
 3604SOL     OW22273   0.740   1.735  14.192 -0.6640 -0.4129  0.1802
 3604SOL    HW122274   0.767   1.782  14.113 -3.0385 -3.7820 -2.6424
 3604SOL    HW222275   0.690   1.797  14.244  1.0035 -0.0806  1.4008
 3605SOL     OW22276   2.408   3.518  11.961  0.5271  0.1294 -0.2137
 3605SOL    HW122277   2.458   3.590  11.999 -0.2971  1.8185 -2.3113
 3605SOL    HW222278   2.399   3.458  12.035 -2.0598  0.8324  0.0254
 3606SOL     OW22279   3.935   0.598   7.284  0.2251 -0.2052 -0.1345
 3606SOL    HW122280   3.875   0.643   7.342  0.1328  0.1037 -0.4678
 3606SOL    HW222281   3.887   0.605   7.201 -0.6640  0.5396  0.4427
 3607SOL     OW22282   2.067   1.804   2.760  0.0122 -0.4635  0.0394
 3607SOL    HW122283   2.158   1.772   2.763  0.0345 -0.5982 -1.7379
 3607SOL    HW222284   2.034   1.768   2.678 -1.5917 -1.4771  1.1353
 3608SOL     OW22285   3.152   1.381   6.047 -0.6807  0.2035 -0.7829
 3608SOL    HW122286   3.166   1.300   6.095 -0.3598  0.4070 -0.5325
 3608SOL    HW222287   3.084   1.427   6.097 -1.1593 -0.7413 -0.5810
 3609SOL     OW22288   1.755   3.536   2.751 -0.2024 -0.0628  0.2285
 3609SOL    HW122289   1.694   3.548   2.824  1.7625 -0.4903  1.9432
 3609SOL    HW222290   1.716   3.471   2.694  0.5922  1.8947 -2.5329
 3610SOL     OW22291   2.969   3.958   3.252  0.7014 -0.8258 -0.5311
 3610SOL    HW122292   3.013   3.904   3.318 -0.8121  0.1167  1.2500
 3610SOL    HW222293   2.933   3.891   3.194 -0.1367 -1.5423  0.8063
 3611SOL     OW22294   2.607   3.918   5.061 -0.2198 -0.5627 -0.1712
 3611SOL    HW122295   2.595   3.929   5.155  0.8713  1.1607 -0.2428
 3611SOL    HW222296   2.702   3.932   5.056  0.0636 -2.5134 -0.1804
 3612SOL     OW22297   4.138   2.327   7.404  0.3668 -0.1538  0.1573
 3612SOL    HW122298   4.100   2.332   7.315  0.1829 -0.6843  0.2077
 3612SOL    HW222299   4.063   2.359   7.454  0.5253  0.2305  0.1545
 3613SOL     OW22300   0.173   1.828   8.341 -0.5160 -0.6085  0.1576
 3613SOL    HW122301   0.230   1.835   8.264 -0.7682  1.5438  0.1606
 3613SOL    HW222302   0.227   1.785   8.408  0.7432  2.6597  1.2491
 3614SOL     OW22303   2.317   1.571   3.618 -0.1735 -0.2838  0.1193
 3614SOL    HW122304   2.382   1.603   3.555 -1.7288  1.4105 -0.6284
 3614SOL    HW222305   2.367   1.534   3.691 -1.2787 -1.6184  0.2045
 3615SOL     OW22306   2.510   1.737  15.576  0.1102  0.1031  0.2382
 3615SOL    HW122307   2.489   1.829  15.591 -1.3693  0.0953 -1.7488
 3615SOL    HW222308   2.426   1.708  15.540  0.1704  3.7427 -2.8000
 3616SOL     OW22309   1.730   2.855   8.567  0.5136 -0.0572 -0.1474
 3616SOL    HW122310   1.669   2.898   8.626  0.2679 -0.3135 -0.2115
 3616SOL    HW222311   1.802   2.839   8.628  0.0894 -0.4180  0.2700
 3617SOL     OW22312   2.332   3.784  15.551  0.2996 -0.1606  0.2695
 3617SOL    HW122313   2.263   3.732  15.510 -0.2245  0.5659  0.2180
 3617SOL    HW222314   2.290   3.851  15.606 -0.1777  1.6779 -2.3371
 3618SOL     OW22315   2.167   3.977   6.648  0.2339 -0.0580 -0.1098
 3618SOL    HW122316   2.072   3.970   6.653  0.2625 -0.8014 -0.8325
 3618SOL    HW222317   2.177   4.061   6.603  3.1874 -0.5559 -0.4250
 3619SOL     OW22318   1.213   1.448   9.382 -0.7363 -0.2138  0.3678
 3619SOL    HW122319   1.159   1.506   9.437  0.4513  0.4863  0.7884
 3619SOL    HW222320   1.263   1.518   9.341 -1.5124 -0.7344 -1.4428
 3620SOL     OW22321   3.877   4.122  14.955 -0.0075 -0.2302 -0.4360
 3620SOL    HW122322   3.872   4.212  14.922 -1.8630  0.1151  0.8051
 3620SOL    HW222323   3.903   4.061  14.886 -0.3727 -0.7098 -0.1549
 3621SOL     OW22324   2.553   3.472   2.147 -0.0341  0.3475  0.0054
 3621SOL    HW122325   2.476   3.527   2.135 -0.7855 -0.7642 -0.3070
 3621SOL    HW222326   2.629   3.521   2.115 -0.2697  1.2339  0.8105
 3622SOL     OW22327   3.269   1.830   9.126 -0.7163 -0.6500 -0.7538
 3622SOL    HW122328   3.209   1.756   9.122 -2.5533  0.7638  0.8180
 3622SOL    HW222329   3.315   1.818   9.043 -1.2144 -1.7442 -0.8660
 3623SOL     OW22330   0.955   3.209   5.212  0.1171  0.3544  0.3812
 3623SOL    HW122331   1.009   3.179   5.285 -2.3205 -0.7409  1.7463
 3623SOL    HW222332   0.944   3.300   5.239 -2.4581  0.4351 -0.8816
 3624SOL     OW22333   4.363   3.919  10.372 -0.4913  0.6014  0.1526
 3624SOL    HW122334   4.413   3.868  10.436  0.4115  1.8751  0.4746
 3624SOL    HW222335   4.439   3.965  10.337 -1.2891  1.2314 -0.7454
 3625SOL     OW22336   0.609   0.773  11.162 -1.1687  0.9372  0.1575
 3625SOL    HW122337   0.534   0.832  11.156 -0.4989  1.5909 -1.9097
 3625SOL    HW222338   0.641   0.788  11.073 -0.8438 -0.0033  0.1119
 3626SOL     OW22339   4.152   1.371  14.468 -0.2790 -0.3154 -0.1744
 3626SOL    HW122340   4.224   1.433  14.462 -0.9370  0.2997 -1.5885
 3626SOL    HW222341   4.071   1.422  14.465  0.7921  1.5631  3.5773
 3627SOL     OW22342   1.733   3.067   3.647  0.3676  0.7500 -0.1100
 3627SOL    HW122343   1.686   3.147   3.623 -1.5030 -0.1423  0.6084
 3627SOL    HW222344   1.821   3.074   3.608  1.0521 -2.3438  0.8337
 3628SOL     OW22345   2.843   3.834   5.968  0.1194  0.6190 -0.3835
 3628SOL    HW122346   2.850   3.776   6.043 -1.6143 -0.4865 -1.0654
 3628SOL    HW222347   2.831   3.919   6.010  0.2375 -0.6123  2.1340
 3629SOL     OW22348   0.481   2.680   0.993 -0.2560  0.6688 -0.0421
 3629SOL    HW122349   0.499   2.647   1.081  0.8575 -1.4234 -1.0749
 3629SOL    HW222350   0.385   2.688   0.995 -0.2778  0.3934  0.0083
 3630SOL     OW22351   3.071   2.698   2.341 -1.1134  0.2361 -0.0988
 3630SOL    HW122352   3.007   2.722   2.274 -0.1779 -2.2053 -1.8951
 3630SOL    HW222353   3.122   2.779   2.343 -0.9832  0.1733 -1.2715
 3631SOL     OW22354   0.737   1.080   8.458 -0.4947 -0.1219  0.2129
 3631SOL    HW122355   0.656   1.038   8.485  1.0153 -2.8742  0.5021
 3631SOL    HW222356   0.790   1.000   8.447  0.3330  0.3240  0.9609
 3632SOL     OW22357   4.118   0.650  13.074 -0.4209  0.0845 -0.2705
 3632SOL    HW122358   4.117   0.586  13.145 -0.6092 -1.1813 -1.4031
 3632SOL    HW222359   4.177   0.717  13.106 -0.4988  0.1812 -0.3284
 3633SOL     OW22360   1.580   1.898   7.715 -0.3781 -0.0628  0.1073
 3633SOL    HW122361   1.548   1.933   7.632 -0.4194  1.1629  0.6521
 3633SOL    HW222362   1.670   1.930   7.717  0.6041 -2.7453 -0.3681
 3634SOL     OW22363   0.026   2.845   1.424  0.0590  0.5147 -0.0574
 3634SOL    HW122364   4.714   2.933   1.404  2.2228  1.3519  0.2170
 3634SOL    HW222365   4.688   2.791   1.369  1.9453 -0.5343 -1.0053
 3635SOL     OW22366   4.552   1.988   8.502  0.2151 -0.2931 -0.0439
 3635SOL    HW122367   4.636   2.021   8.469  0.0760  0.9352  0.8299
 3635SOL    HW222368   4.571   1.993   8.596  0.7725 -0.0848 -0.1657
 3636SOL     OW22369   1.639   4.690   6.657 -0.1940  0.1200 -0.5385
 3636SOL    HW122370   1.656   0.049   6.709 -0.5492  0.1493 -0.4615
 3636SOL    HW222371   1.544   4.681   6.670 -0.2543  2.0609  0.4195
 3637SOL     OW22372   2.222   0.401   2.004 -0.0565 -0.1051 -0.4154
 3637SOL    HW122373   2.252   0.318   1.966 -0.5711  1.0014 -3.2143
 3637SOL    HW222374   2.295   0.435   2.055  0.5353  0.8408 -1.8922
 3638SOL     OW22375   0.571   3.332   5.688 -0.1132  0.0532  0.3319
 3638SOL    HW122376   0.549   3.300   5.775  0.9383  0.9219  0.9154
 3638SOL    HW222377   0.552   3.252   5.639  3.3388 -1.0874  0.8569
 3639SOL     OW22378   4.716   2.157  12.477 -0.0465 -0.1915  0.8074
 3639SOL    HW122379   0.012   2.163  12.383 -2.9554  3.2357  0.5210
 3639SOL    HW222380   0.083   2.187  12.504 -0.0375  0.9894 -0.5300
 3640SOL     OW22381   3.961   3.012   1.704 -0.6153 -0.0696  0.4219
 3640SOL    HW122382   3.866   3.016   1.698 -0.3983  1.5638 -1.8342
 3640SOL    HW222383   3.985   3.089   1.653 -0.5656 -0.7965 -0.6538
 3641SOL     OW22384   0.358   1.111   2.654 -0.2524 -0.0402  0.8718
 3641SOL    HW122385   0.336   1.087   2.744  1.2219 -0.0075  1.2364
 3641SOL    HW222386   0.335   1.043   2.591 -2.3246  1.3584  0.1288
 3642SOL     OW22387   4.325   0.116   0.103 -0.2223  0.0636  0.2745
 3642SOL    HW122388   4.353   0.160   0.183 -0.8127  0.4576  0.2665
 3642SOL    HW222389   4.364   0.169   0.033  1.8835 -0.0551  1.3643
 3643SOL     OW22390   2.725   4.106   9.034  0.1022 -0.0380 -0.4918
 3643SOL    HW122391   2.768   4.045   9.093 -2.8354  1.1932  2.8762
 3643SOL    HW222392   2.632   4.093   9.052 -0.5221  2.9820 -1.5142
 3644SOL     OW22393   0.775   1.284   7.276 -0.4633  0.6843 -0.5408
 3644SOL    HW122394   0.713   1.242   7.335 -0.2291  0.9601 -0.1030
 3644SOL    HW222395   0.767   1.232   7.196 -0.9602 -1.7257  1.0754
 3645SOL     OW22396   3.942   3.001  16.891  0.2924 -0.6153  0.3540
 3645SOL    HW122397   3.982   2.914  16.900  0.3853 -0.3956  2.0670
 3645SOL    HW222398   4.017   3.059  16.882 -0.0918  0.0757  1.6533
 3646SOL     OW22399   3.759   3.495   7.045 -0.0218 -0.1729  0.1111
 3646SOL    HW122400   3.827   3.464   7.104 -1.6870  0.2815  2.2676
 3646SOL    HW222401   3.684   3.462   7.093  0.5272 -0.9109  0.4636
 3647SOL     OW22402   2.061   4.233   4.579  0.8374  0.8015  0.0049
 3647SOL    HW122403   2.043   4.178   4.655 -0.0243  0.5695 -0.3701
 3647SOL    HW222404   2.075   4.168   4.510  1.6704  1.0938 -0.1131
 3648SOL     OW22405   4.464   2.340   7.887  0.5509 -0.0715 -0.4459
 3648SOL    HW122406   4.395   2.380   7.833 -0.4410 -0.2281  0.7127
 3648SOL    HW222407   4.406   2.307   7.955  3.0422 -1.6032  0.9257
 3649SOL     OW22408   1.039   1.534   8.202  0.5264  0.2184 -0.2048
 3649SOL    HW122409   1.070   1.508   8.115 -1.1967  1.6352 -1.2358
 3649SOL    HW222410   0.946   1.544   8.184  0.4359  0.9844  0.7115
 3650SOL     OW22411   0.195   3.605   2.161 -0.4999  0.1986 -0.4398
 3650SOL    HW122412   0.286   3.612   2.131 -1.0342 -0.0148 -2.1067
 3650SOL    HW222413   0.187   3.644   2.248  1.2303  1.7190 -0.9533
 3651SOL     OW22414   1.568   4.491   7.346 -0.1416  0.8134  0.3181
 3651SOL    HW122415   1.581   4.561   7.282 -0.4031 -0.2387 -0.8847
 3651SOL    HW222416   1.592   4.414   7.293  2.3764  1.8896 -0.1025
 3652SOL     OW22417   0.700   1.511   5.964 -0.4202 -0.4765  0.2866
 3652SOL    HW122418   0.743   1.431   5.994  0.2114 -0.5826 -0.8687
 3652SOL    HW222419   0.619   1.513   6.015 -0.4439 -0.2670  0.2393
 3653SOL     OW22420   1.626   0.899   8.942  0.0632 -0.5552  0.3425
 3653SOL    HW122421   1.540   0.861   8.963 -0.5798  0.5392 -0.3213
 3653SOL    HW222422   1.683   0.823   8.944  1.7950  0.7872  1.4674
 3654SOL     OW22423   2.000   2.969   8.001  0.3719  0.7633  0.4420
 3654SOL    HW122424   2.071   2.935   8.056  0.0797 -1.8652 -0.8416
 3654SOL    HW222425   2.013   3.064   8.010 -0.7603  0.7299  2.3744
 3655SOL     OW22426   2.623   0.424  14.667  0.7360 -0.3648  0.2990
 3655SOL    HW122427   2.599   0.346  14.617  0.1486  0.2048 -0.3183
 3655SOL    HW222428   2.536   0.447  14.699  0.3857 -1.0693 -0.1367
 3656SOL     OW22429   3.182   1.982   6.616 -0.0313  0.2538  0.0895
 3656SOL    HW122430   3.208   2.052   6.677  0.5310  0.3993 -0.3134
 3656SOL    HW222431   3.110   1.948   6.668 -0.5672  0.0028 -0.8220
 3657SOL     OW22432   1.138   3.278  17.362  0.6183 -0.3846 -0.0278
 3657SOL    HW122433   1.097   3.256  17.278 -0.0379  0.0002  0.1909
 3657SOL    HW222434   1.071   3.248  17.423 -0.1142  1.8153  0.2263
 3658SOL     OW22435   3.778   0.456   3.829  0.0175  0.5391 -0.0478
 3658SOL    HW122436   3.753   0.364   3.816 -1.1408  0.9568 -0.7388
 3658SOL    HW222437   3.864   0.448   3.872  0.2857 -1.4679 -0.9309
 3659SOL     OW22438   3.401   3.316   4.527 -0.0667 -0.1487 -0.0719
 3659SOL    HW122439   3.305   3.324   4.525 -0.1145 -0.7086 -0.0509
 3659SOL    HW222440   3.422   3.252   4.459 -0.1752 -1.5066  1.1681
 3660SOL     OW22441   0.073   0.611  11.373  0.0740  0.0732  0.4165
 3660SOL    HW122442   0.156   0.658  11.360 -0.5531  1.2061  0.4726
 3660SOL    HW222443   0.007   0.674  11.345 -1.8519 -2.3816 -0.5161
 3661SOL     OW22444   1.571   0.623  10.002  0.4307 -0.2924  1.0717
 3661SOL    HW122445   1.613   0.706  10.022  0.3687  0.4699 -1.8649
 3661SOL    HW222446   1.642   0.561   9.986  0.9241  0.1073  1.7391
 3662SOL     OW22447   3.998   3.980   9.033 -0.8093  0.2582  0.4537
 3662SOL    HW122448   4.053   3.980   9.112 -0.2016  1.1561  0.0190
 3662SOL    HW222449   3.962   4.068   9.030 -1.4455 -0.1381 -2.8398
 3663SOL     OW22450   0.275   1.240   9.115  0.0718  0.0491  0.1496
 3663SOL    HW122451   0.347   1.284   9.161  2.2930 -2.0973 -1.2214
 3663SOL    HW222452   0.311   1.151   9.113  0.7830  0.3611 -0.6885
 3664SOL     OW22453   2.398   0.632   7.974  0.3110 -0.7786  0.3065
 3664SOL    HW122454   2.370   0.586   8.053 -0.5245  0.2081  0.5994
 3664SOL    HW222455   2.460   0.571   7.935 -0.2942  1.7067 -4.5648
 3665SOL     OW22456   3.908   4.557   4.529  0.0506 -0.3323  0.7576
 3665SOL    HW122457   3.848   4.592   4.463  0.5380 -1.8439 -0.4799
 3665SOL    HW222458   3.951   4.487   4.479 -0.4561 -0.4951  0.5487
 3666SOL     OW22459   0.582   2.100   7.678 -0.2447 -0.2244 -0.8465
 3666SOL    HW122460   0.555   2.008   7.677  2.6120 -1.0652 -0.8310
 3666SOL    HW222461   0.651   2.102   7.744  0.7272 -1.5888 -1.8128
 3667SOL     OW22462   1.995   4.160  10.635  0.3585 -0.6892  0.5289
 3667SOL    HW122463   1.949   4.104  10.698 -1.3864 -0.3604 -0.4548
 3667SOL    HW222464   2.076   4.156  10.685  1.2756 -2.1716 -1.0776
 3668SOL     OW22465   1.828   2.653   3.168  0.0310  0.0326 -0.2585
 3668SOL    HW122466   1.850   2.746   3.166 -0.0936  0.0604 -0.3469
 3668SOL    HW222467   1.759   2.660   3.103 -1.8810  3.3325  2.0925
 3669SOL     OW22468   3.770   1.200   5.115 -0.1580 -0.0482 -0.0317
 3669SOL    HW122469   3.735   1.123   5.160 -0.2062  0.8989  1.5694
 3669SOL    HW222470   3.723   1.189   5.033  0.3093  0.8153 -0.4165
 3670SOL     OW22471   0.375   3.339   3.229 -0.0016  0.1916 -0.0045
 3670SOL    HW122472   0.439   3.292   3.282 -1.4283 -0.5607  1.0386
 3670SOL    HW222473   0.420   3.369   3.150 -0.1257 -2.1979 -0.9910
 3671SOL     OW22474   3.359   0.982   7.354 -0.2146  0.0186 -0.2149
 3671SOL    HW122475   3.453   0.992   7.369 -0.6054 -0.2138  2.4394
 3671SOL    HW222476   3.368   0.948   7.265  1.0147 -0.5792  0.1389
 3672SOL     OW22477   0.786   0.739   3.559 -0.1272 -0.6226  0.2033
 3672SOL    HW122478   0.786   0.810   3.623 -0.3294  0.0481 -0.5278
 3672SOL    HW222479   0.723   0.674   3.587 -0.2724 -0.3427  0.5205
 3673SOL     OW22480   4.643   2.403   4.656 -0.1097 -0.5583  0.4489
 3673SOL    HW122481   4.618   2.351   4.580 -0.7726  0.4687 -0.0350
 3673SOL    HW222482   4.557   2.445   4.663  0.3241  0.5980 -1.1165
 3674SOL     OW22483   1.569   3.463   6.090  0.1081 -0.2133  0.5967
 3674SOL    HW122484   1.499   3.400   6.109  0.8750 -0.7901  1.5057
 3674SOL    HW222485   1.525   3.517   6.024 -0.5002  0.6055  1.6789
 3675SOL     OW22486   3.060   2.464   3.555  0.1631  0.0085  0.2050
 3675SOL    HW122487   3.041   2.444   3.463 -2.4720  4.0490 -0.1179
 3675SOL    HW222488   3.003   2.540   3.568 -1.1995 -1.0148  0.2794
 3676SOL     OW22489   2.079   1.875  17.421 -0.3500  0.3303 -0.2178
 3676SOL    HW122490   2.046   1.865  17.510  0.4539 -0.8639 -0.0615
 3676SOL    HW222491   2.161   1.826  17.416 -0.0695  0.6982  1.0556
 3677SOL     OW22492   0.706   0.044   2.343 -0.1822 -0.3041 -0.1968
 3677SOL    HW122493   0.661   0.033   2.259  0.8981 -0.1401 -0.7836
 3677SOL    HW222494   0.779   0.098   2.314 -0.8065  0.5000 -0.2787
 3678SOL     OW22495   3.634   4.316   2.165 -0.0675  0.6003 -0.0045
 3678SOL    HW122496   3.538   4.314   2.159 -0.0574  2.1094 -0.6934
 3678SOL    HW222497   3.646   4.228   2.131  0.2897 -0.3180  2.5073
 3679SOL     OW22498   1.699   2.634   5.841 -0.0251  0.4074 -0.4376
 3679SOL    HW122499   1.630   2.659   5.902 -0.2905  0.4877 -0.7695
 3679SOL    HW222500   1.707   2.541   5.862 -3.4847  0.0516 -0.7217
 3680SOL     OW22501   0.759   2.258   7.535 -0.4261  0.6163 -0.0606
 3680SOL    HW122502   0.692   2.196   7.564 -2.2548  2.7600  0.3130
 3680SOL    HW222503   0.736   2.336   7.585  3.3490 -0.8093  3.8928
 3681SOL     OW22504   4.076   3.018   4.256  0.1815  0.1505  0.0971
 3681SOL    HW122505   4.012   2.983   4.318 -0.0629  0.3600 -0.0358
 3681SOL    HW222506   4.022   3.048   4.183 -0.6176 -0.2997  0.5051
 3682SOL     OW22507   0.194   3.426  16.249  0.1119 -0.0989 -0.1395
 3682SOL    HW122508   0.110   3.467  16.271  1.0606  1.8953 -0.2456
 3682SOL    HW222509   0.251   3.494  16.213 -0.0459  0.3491  0.4627
 3683SOL     OW22510   3.337   0.944   3.009  0.0121 -0.5237  0.4437
 3683SOL    HW122511   3.333   0.957   3.103  1.4869 -2.2598  0.7389
 3683SOL    HW222512   3.310   1.031   2.978 -0.9375 -0.0897  2.5141
 3684SOL     OW22513   0.339   4.603  12.070  0.0277 -0.5577  0.0040
 3684SOL    HW122514   0.339   4.570  12.160 -0.0482 -3.3460 -1.0153
 3684SOL    HW222515   0.426   4.576  12.041  0.2385  1.2705 -1.0909
 3685SOL     OW22516   2.321   1.281   0.689 -0.3653  0.0443 -0.0741
 3685SOL    HW122517   2.278   1.199   0.714  0.4980 -0.1667  0.7221
 3685SOL    HW222518   2.295   1.339   0.762 -0.9144  0.9356 -0.9788
 3686SOL     OW22519   1.823   3.830   4.895 -0.0880  0.5610 -0.6505
 3686SOL    HW122520   1.849   3.763   4.831  1.5975  0.9960 -0.4366
 3686SOL    HW222521   1.729   3.818   4.884 -0.2071  1.1945 -0.3214
 3687SOL     OW22522   1.356   2.912   7.737  0.6480 -0.0765 -0.2824
 3687SOL    HW122523   1.431   2.913   7.678  0.9039 -2.0334 -0.0178
 3687SOL    HW222524   1.376   2.836   7.792 -1.7672  0.9920  2.0673
 3688SOL     OW22525   4.225   3.099   3.941  0.0167  0.3890  0.3019
 3688SOL    HW122526   4.295   3.131   3.885 -0.5304 -0.6835 -0.9945
 3688SOL    HW222527   4.224   3.159   4.015  3.2082  0.1126  0.5642
 3689SOL     OW22528   2.850   1.435  14.437  0.2609 -0.7398 -0.1355
 3689SOL    HW122529   2.927   1.415  14.490  1.5016  0.6511 -1.4250
 3689SOL    HW222530   2.880   1.513  14.390 -0.1187 -0.4299  0.1328
 3690SOL     OW22531   0.714   4.446   2.991  0.2541 -0.2843 -0.2984
 3690SOL    HW122532   0.794   4.408   2.956  0.8536 -2.3889  3.3711
 3690SOL    HW222533   0.760   4.524   3.023  1.0461 -0.5257 -0.8393
 3691SOL     OW22534   3.874   0.654  16.553  0.0087  0.4166  0.0696
 3691SOL    HW122535   3.833   0.578  16.594  0.9593  0.2908  0.7831
 3691SOL    HW222536   3.864   0.722  16.619  1.1883  0.2716  0.4101
 3692SOL     OW22537   1.419   3.270   6.754  0.1951 -0.0111 -0.8852
 3692SOL    HW122538   1.503   3.224   6.759 -0.7284 -1.6835 -0.8526
 3692SOL    HW222539   1.382   3.229   6.676 -1.7807  1.7409 -0.8817
 3693SOL     OW22540   0.844   1.651   8.923  0.0350  1.1092 -0.5164
 3693SOL    HW122541   0.933   1.635   8.893 -0.3232 -1.2130 -0.3435
 3693SOL    HW222542   0.798   1.599   8.857 -0.7446 -1.4393  2.0786
 3694SOL     OW22543   1.608   4.284  12.663 -0.7015 -0.6007  0.1369
 3694SOL    HW122544   1.633   4.304  12.754  1.9659 -0.2751 -0.6757
 3694SOL    HW222545   1.682   4.231  12.633 -3.2065 -4.1261  0.2593
 3695SOL     OW22546   0.922   3.751   1.966  0.3747 -0.5230 -0.4938
 3695SOL    HW122547   0.893   3.697   2.040  2.3434  0.3901  0.9271
 3695SOL    HW222548   0.884   3.834   1.994 -1.6009 -2.3719  2.3478
 3696SOL     OW22549   4.428   3.913  12.401 -0.0283  0.0967 -0.2543
 3696SOL    HW122550   4.418   3.839  12.460 -1.2265 -0.0459 -0.6454
 3696SOL    HW222551   4.491   3.880  12.336  1.4829 -1.2846  1.9017
 3697SOL     OW22552   1.296   0.211  17.485 -0.4296 -0.4556 -0.2906
 3697SOL    HW122553   1.289   0.144  17.418  0.6715 -1.4762  0.6048
 3697SOL    HW222554   1.276   0.155  17.560 -0.0376  0.4266  0.4742
 3698SOL     OW22555   0.010   0.315   6.549  0.2470 -0.8502 -0.4192
 3698SOL    HW122556   0.086   0.265   6.580  0.8196 -0.1699 -0.7195
 3698SOL    HW222557   4.659   0.251   6.547  0.8692 -1.5321 -0.7822
 3699SOL     OW22558   0.583   1.855   6.049 -0.2867 -0.1983 -0.0194
 3699SOL    HW122559   0.673   1.831   6.071 -0.4223 -2.0282 -1.4895
 3699SOL    HW222560   0.572   1.815   5.963 -0.2085  0.1056 -0.1718
 3700SOL     OW22561   0.631   3.143  11.625 -0.4348 -0.1950 -0.2004
 3700SOL    HW122562   0.674   3.125  11.542  1.0524 -0.1610  0.5678
 3700SOL    HW222563   0.636   3.052  11.653  0.1963 -0.7232 -2.0747
 3701SOL     OW22564   4.174   0.917   3.137  0.0689  0.1841 -0.4390
 3701SOL    HW122565   4.178   0.862   3.215  1.7407  1.4621  0.3816
 3701SOL    HW222566   4.162   0.861   3.060 -2.1517  1.4163 -0.9983
 3702SOL     OW22567   0.201   0.364   8.649 -0.2340  0.1165 -0.1633
 3702SOL    HW122568   0.250   0.420   8.588 -0.6440  1.5599  0.8325
 3702SOL    HW222569   0.174   0.432   8.711  0.0521  0.7484 -0.7239
 3703SOL     OW22570   3.025   4.673   1.953 -0.6857 -0.0419 -0.5540
 3703SOL    HW122571   3.055   4.598   1.902  0.2211  1.6618 -2.5375
 3703SOL    HW222572   3.051   4.650   2.042 -0.5298  1.2038 -0.2820
 3704SOL     OW22573   1.890   3.480   5.305 -0.4877 -0.0932 -0.3144
 3704SOL    HW122574   1.907   3.568   5.270 -2.1578  0.5095  0.3664
 3704SOL    HW222575   1.959   3.466   5.369 -1.5856  3.5372  1.6828
 3705SOL     OW22576   1.359   1.463   2.500  0.0252 -0.2450  0.3306
 3705SOL    HW122577   1.279   1.512   2.519  0.4379  0.8323 -0.7062
 3705SOL    HW222578   1.378   1.492   2.410 -2.0772 -0.6513 -0.2511
 3706SOL     OW22579   0.638   2.672   4.231  0.4408 -0.3481 -0.4269
 3706SOL    HW122580   0.568   2.715   4.182 -1.0604  0.5798  2.5491
 3706SOL    HW222581   0.717   2.718   4.202 -0.1582 -1.2247 -3.3695
 3707SOL     OW22582   0.524   3.955   3.342 -0.0722 -0.4724  0.4124
 3707SOL    HW122583   0.457   4.013   3.306 -0.0660 -0.8454 -0.1999
 3707SOL    HW222584   0.482   3.913   3.417 -0.0526 -2.2798 -0.5791
 3708SOL     OW22585   2.324   4.085   6.840  0.4341  0.5303 -0.2389
 3708SOL    HW122586   2.268   4.040   6.777 -1.5646  0.4571  1.5993
 3708SOL    HW222587   2.308   4.179   6.828  2.0044  0.9320  0.7610
 3709SOL     OW22588   2.854   2.086   6.118  0.2247 -0.3430  0.7528
 3709SOL    HW122589   2.888   2.067   6.205 -0.3774  1.0400  1.2837
 3709SOL    HW222590   2.932   2.130   6.083  1.4435 -3.9370 -1.1488
 3710SOL     OW22591   3.920   1.564   2.736 -0.3523  0.5373 -0.3543
 3710SOL    HW122592   3.864   1.582   2.660 -1.8457  0.2930  0.6897
 3710SOL    HW222593   3.905   1.470   2.744  0.6642  0.4184  0.2227
 3711SOL     OW22594   3.885   1.615   6.884  0.6766  0.0354 -0.1563
 3711SOL    HW122595   3.861   1.637   6.974  0.3690 -0.1623 -0.1860
 3711SOL    HW222596   3.828   1.537   6.884  1.2036 -0.3656  2.2854
 3712SOL     OW22597   2.721   2.336   5.590 -0.4181 -0.2775 -0.2535
 3712SOL    HW122598   2.708   2.430   5.592 -0.3548 -0.2585 -0.6877
 3712SOL    HW222599   2.657   2.294   5.647  0.5558 -0.7494  0.4931
 3713SOL     OW22600   0.202   3.682   4.200 -0.1186  0.4378  0.0256
 3713SOL    HW122601   0.196   3.761   4.254  0.2311  1.5383 -1.5534
 3713SOL    HW222602   0.130   3.696   4.139  1.6472  0.1984 -2.1280
 3714SOL     OW22603   2.012   0.109   3.099  0.4357  0.7629 -0.2411
 3714SOL    HW122604   1.991   0.102   3.006  1.1764 -0.5001 -0.3166
 3714SOL    HW222605   2.026   0.204   3.107 -1.4001  1.0075  0.1866
 3715SOL     OW22606   3.413   0.282   3.929  0.4993  0.1121 -0.5923
 3715SOL    HW122607   3.508   0.278   3.918  0.6389 -2.4187  1.5380
 3715SOL    HW222608   3.392   0.212   3.867  1.1863  1.3719 -2.2234
 3716SOL     OW22609   3.196   4.556   8.456  0.6297  0.2428 -0.2594
 3716SOL    HW122610   3.229   4.486   8.513 -1.5663  0.5674  1.3941
 3716SOL    HW222611   3.106   4.526   8.448  0.3405  0.4095  2.3956
 3717SOL     OW22612   3.881   1.223   5.425  0.3656  0.4367 -0.0579
 3717SOL    HW122613   3.821   1.176   5.367 -2.2139  3.2997  0.3084
 3717SOL    HW222614   3.876   1.308   5.382  0.5757  0.7311  0.5094
 3718SOL     OW22615   3.735   3.910  17.381 -0.5077  0.4129 -0.5675
 3718SOL    HW122616   3.757   3.982  17.322  2.0219  0.1150 -0.0042
 3718SOL    HW222617   3.817   3.905  17.429 -0.8938 -0.5068  0.0067
 3719SOL     OW22618   3.970   1.496  10.865  0.1628  0.0922 -0.1083
 3719SOL    HW122619   3.925   1.466  10.944  0.6565 -2.9136 -0.9868
 3719SOL    HW222620   4.059   1.513  10.895  0.5396  0.0560 -1.2162
 3720SOL     OW22621   3.166   1.832  12.620  0.0106 -0.1869 -0.2620
 3720SOL    HW122622   3.182   1.746  12.660  2.3859 -0.2246 -1.2871
 3720SOL    HW222623   3.133   1.883  12.695  0.6945  1.2497 -0.9460
 3721SOL     OW22624   3.252   3.005   4.917  0.1967 -0.3066  0.1663
 3721SOL    HW122625   3.212   3.092   4.927  0.2703 -0.2421 -0.0799
 3721SOL    HW222626   3.319   3.029   4.853 -0.5416  0.8707 -0.1847
 3722SOL     OW22627   0.545   4.491   3.893 -0.1116  0.0840 -0.1033
 3722SOL    HW122628   0.608   4.420   3.886 -0.3198  0.2174 -3.5562
 3722SOL    HW222629   0.465   4.457   3.851  0.5574 -0.2660 -1.0909
 3723SOL     OW22630   0.636   1.531   9.258 -0.2632  0.0720 -0.0113
 3723SOL    HW122631   0.657   1.624   9.246  1.5939 -0.3666 -0.1160
 3723SOL    HW222632   0.611   1.503   9.170 -2.4470  0.9534  0.3271
 3724SOL     OW22633   4.172   2.297   1.254  0.6479  0.5472 -0.3059
 3724SOL    HW122634   4.170   2.202   1.254 -0.9199  0.5712  1.9856
 3724SOL    HW222635   4.251   2.308   1.308  1.4539  0.8778 -1.5498
 3725SOL     OW22636   0.534   1.429   0.623 -0.4410  0.7393 -0.1140
 3725SOL    HW122637   0.552   1.420   0.717 -0.9078 -0.5798 -0.1421
 3725SOL    HW222638   0.439   1.421   0.628 -0.3209 -0.3374  0.5045
 3726SOL     OW22639   3.187   1.848   3.061 -0.5341  0.5801 -0.5964
 3726SOL    HW122640   3.235   1.784   3.114 -1.6188 -0.8254 -1.2804
 3726SOL    HW222641   3.233   1.858   2.977 -0.2906 -1.2896 -0.7006
 3727SOL     OW22642   0.744   1.261   3.692 -0.4072  0.9223 -0.1980
 3727SOL    HW122643   0.726   1.237   3.783  1.9730 -0.7527 -0.1559
 3727SOL    HW222644   0.658   1.251   3.651 -0.4690 -2.1091  0.6539
 3728SOL     OW22645   3.912   4.309   2.171 -0.7765  0.5297 -0.3036
 3728SOL    HW122646   3.816   4.311   2.167 -0.7652  0.9908 -0.3314
 3728SOL    HW222647   3.935   4.354   2.089 -1.4801  1.1813 -0.1334
 3729SOL     OW22648   0.440   1.590   2.753 -0.1644 -0.6008 -0.9708
 3729SOL    HW122649   0.448   1.655   2.823  2.0724 -1.8126 -0.1025
 3729SOL    HW222650   0.345   1.588   2.740 -0.1686 -1.8629 -0.7832
 3730SOL     OW22651   1.200   4.039   2.069 -0.5392 -0.0235 -0.2378
 3730SOL    HW122652   1.122   4.091   2.088 -1.2874 -0.7570 -1.3973
 3730SOL    HW222653   1.249   4.033   2.151 -1.3613  2.0486  0.4245
 3731SOL     OW22654   3.090   3.469  14.724  0.3529  0.0811  0.2323
 3731SOL    HW122655   3.136   3.536  14.673 -0.2797  1.1199  1.0110
 3731SOL    HW222656   3.007   3.514  14.739 -0.9807 -1.9102 -1.1799
 3732SOL     OW22657   3.345   2.878   1.954 -0.6165 -0.2733  0.3826
 3732SOL    HW122658   3.421   2.843   2.001 -1.0130 -0.7647  0.6578
 3732SOL    HW222659   3.345   2.805   1.892 -0.6304  1.6739 -1.9172
 3733SOL     OW22660   0.144   1.705   1.291  0.4937  0.0906  0.1748
 3733SOL    HW122661   0.196   1.716   1.370  0.5969 -1.5898  0.3376
 3733SOL    HW222662   0.214   1.708   1.226  0.0495  1.4942 -0.2569
 3734SOL     OW22663   2.356   3.664   0.054  0.1902  0.4454  0.3791
 3734SOL    HW122664   2.379   3.622   0.137  0.1738 -2.6292 -1.1947
 3734SOL    HW222665   2.330   3.753   0.078 -1.4213  0.3978 -1.2128
 3735SOL     OW22666   2.638   1.837   6.443  0.7965  0.0178 -0.5742
 3735SOL    HW122667   2.590   1.919   6.434 -0.0567 -0.7123 -2.7317
 3735SOL    HW222668   2.730   1.862   6.431  0.7088  0.7413  0.2733
 3736SOL     OW22669   2.715   2.300   3.824  0.4112 -0.3014  0.0736
 3736SOL    HW122670   2.770   2.285   3.902 -0.3202 -0.7912  0.4974
 3736SOL    HW222671   2.779   2.278   3.757  0.5430  3.7632 -1.1011
 3737SOL     OW22672   1.729   3.446   6.319 -0.3454  0.3137 -0.0696
 3737SOL    HW122673   1.668   3.464   6.247  0.4959  0.9185 -0.6226
 3737SOL    HW222674   1.808   3.497   6.301  0.2932 -1.5419 -2.5497
 3738SOL     OW22675   2.499   0.519   6.278  0.4777 -0.7054  0.8436
 3738SOL    HW122676   2.540   0.604   6.294 -2.5237  1.3054 -2.1159
 3738SOL    HW222677   2.458   0.503   6.363 -0.6955 -2.3593 -0.0330
 3739SOL     OW22678   4.603   1.601   5.957 -0.0625 -0.8379 -0.1323
 3739SOL    HW122679   4.518   1.618   5.997  0.4270 -0.1046  0.6028
 3739SOL    HW222680   4.657   1.657   6.013  0.6717 -0.9531 -0.7224
 3740SOL     OW22681   0.372   3.798   5.617  0.1773 -0.1228 -0.4738
 3740SOL    HW122682   0.398   3.708   5.598  0.2669 -0.2607  0.3204
 3740SOL    HW222683   0.304   3.771   5.679 -1.3286  0.9743 -1.6483
 3741SOL     OW22684   1.815   0.201  11.016  0.3378  0.5162 -0.3029
 3741SOL    HW122685   1.798   0.114  10.982  0.3200  0.2745  0.3333
 3741SOL    HW222686   1.879   0.177  11.083 -0.2624  2.6842  1.0710
 3742SOL     OW22687   1.200   0.596   2.993 -0.1782 -0.4832 -0.0756
 3742SOL    HW122688   1.250   0.632   2.919 -0.6351 -3.2279 -1.7359
 3742SOL    HW222689   1.228   0.505   2.982 -1.7114 -0.9843  0.0838
 3743SOL     OW22690   1.717   4.366   2.337  0.1157  0.5351  0.2075
 3743SOL    HW122691   1.731   4.459   2.319  0.2883  0.1094 -1.9695
 3743SOL    HW222692   1.798   4.331   2.299  0.2192 -1.7628  2.5638
 3744SOL     OW22693   1.487   2.263   9.796 -0.2518 -0.1067 -0.1741
 3744SOL    HW122694   1.571   2.251   9.841  0.4285 -0.5747 -1.5596
 3744SOL    HW222695   1.495   2.183   9.744  3.0709 -0.7924  1.3636
 3745SOL     OW22696   1.989   0.384   8.949  0.2121  0.1495 -0.2204
 3745SOL    HW122697   1.981   0.419   9.037 -1.6771 -0.6126 -0.0766
 3745SOL    HW222698   2.045   0.308   8.965 -0.2265 -0.2710 -0.6577
 3746SOL     OW22699   3.951   0.870   9.579  0.2822  0.0752  0.3689
 3746SOL    HW122700   4.031   0.876   9.526 -1.5422  2.0001 -2.2219
 3746SOL    HW222701   3.912   0.947   9.538 -1.0385 -0.8609 -0.1228
 3747SOL     OW22702   2.130   2.834   4.809 -0.4957  0.6356 -0.0879
 3747SOL    HW122703   2.179   2.914   4.789  1.6927  0.0603  2.8712
 3747SOL    HW222704   2.041   2.861   4.786  0.6255  2.6683 -2.0122
 3748SOL     OW22705   2.472   0.384   7.725 -0.0964 -0.3709  0.0377
 3748SOL    HW122706   2.550   0.401   7.778 -2.2187  3.4381  1.9119
 3748SOL    HW222707   2.454   0.298   7.762  1.8446 -0.9274 -0.3100
 3749SOL     OW22708   4.704   3.176  14.981  0.2405 -0.3301 -0.0524
 3749SOL    HW122709   0.021   3.254  15.023  0.3281  0.6554 -1.9554
 3749SOL    HW222710   4.706   3.208  14.891  0.6180 -0.5577 -0.1243
 3750SOL     OW22711   2.849   0.500   3.178 -0.3808 -0.2620  0.2056
 3750SOL    HW122712   2.857   0.571   3.241 -0.1708 -1.2268  1.2628
 3750SOL    HW222713   2.820   0.420   3.222  0.8683 -1.6863 -1.5801
 3751SOL     OW22714   0.485   3.651   2.141 -0.7439  0.3760 -0.5438
 3751SOL    HW122715   0.510   3.560   2.128 -0.8804  0.0884  1.2418
 3751SOL    HW222716   0.498   3.687   2.053  1.3931  0.2391 -0.2759
 3752SOL     OW22717   2.214   3.535  14.069 -0.2095  0.1683 -0.3210
 3752SOL    HW122718   2.180   3.512  13.983  1.7566  3.1576 -1.8925
 3752SOL    HW222719   2.299   3.491  14.079 -0.3629 -0.2233 -0.7698
 3753SOL     OW22720   0.209   2.488   8.753 -0.4287 -0.4574  0.2759
 3753SOL    HW122721   0.223   2.512   8.844 -0.9329 -0.0504  0.2469
 3753SOL    HW222722   0.128   2.439   8.768  0.2194 -0.5154  3.5754
 3754SOL     OW22723   2.222   1.884   4.028  0.2090 -0.2060  0.3931
 3754SOL    HW122724   2.179   1.823   4.087 -1.4661  0.8971  0.3275
 3754SOL    HW222725   2.144   1.914   3.981 -0.8302 -2.0365  0.9855
 3755SOL     OW22726   1.818   3.585  17.374  0.1501 -0.0215  0.3351
 3755SOL    HW122727   1.770   3.519  17.425 -0.5741  0.0474 -0.2564
 3755SOL    HW222728   1.889   3.611  17.433  0.9572  0.4210 -0.8430
 3756SOL     OW22729   2.015   1.922   2.991  0.5284  0.0621  0.4325
 3756SOL    HW122730   2.020   1.878   2.906  0.5932 -1.0426  1.0153
 3756SOL    HW222731   2.078   1.876   3.046 -0.0288 -0.0110  1.0074
 3757SOL     OW22732   3.548   1.607  15.058 -0.2046 -0.2010 -0.1903
 3757SOL    HW122733   3.514   1.691  15.025 -0.8497 -1.2501 -2.2387
 3757SOL    HW222734   3.622   1.597  14.997  0.4728 -1.0133  0.7742
 3758SOL     OW22735   2.464   2.174  15.113 -0.0593 -0.2634 -0.1168
 3758SOL    HW122736   2.527   2.232  15.070 -0.9154  0.7289 -0.0354
 3758SOL    HW222737   2.444   2.108  15.047 -2.4070 -2.0744  2.4068
 3759SOL     OW22738   3.195   0.325   6.412 -0.0093 -0.5965  0.6672
 3759SOL    HW122739   3.117   0.315   6.358 -0.0012  0.9786  0.3639
 3759SOL    HW222740   3.258   0.370   6.356 -2.6830  1.6314 -0.5536
 3760SOL     OW22741   0.521   0.563   6.738 -0.1996  0.1463  0.4473
 3760SOL    HW122742   0.511   0.495   6.805 -1.3737  0.3643  0.4902
 3760SOL    HW222743   0.432   0.553   6.705 -1.2453  2.7398  2.5263
 3761SOL     OW22744   0.278   0.050   6.392  0.3342  0.1915  0.6226
 3761SOL    HW122745   0.362   0.081   6.426  1.1983 -2.3464  0.7768
 3761SOL    HW222746   0.299   0.041   6.299 -4.0363 -0.0583 -0.3298
 3762SOL     OW22747   2.328   4.132  11.049  0.0623 -0.2799  0.3358
 3762SOL    HW122748   2.377   4.086  11.117 -0.5233 -0.7489  0.4441
 3762SOL    HW222749   2.259   4.181  11.094  0.5505  0.5232  0.2169
 3763SOL     OW22750   2.669   0.355   2.033 -0.3490 -0.4093  0.1896
 3763SOL    HW122751   2.677   0.318   1.945  0.1986 -1.2930  0.6109
 3763SOL    HW222752   2.698   0.444   2.014 -1.4983 -0.1342 -0.2527
 3764SOL     OW22753   3.710   1.029   0.212 -0.4205 -0.3556  0.3425
 3764SOL    HW122754   3.705   1.006   0.119  0.7606  1.7331 -0.2410
 3764SOL    HW222755   3.789   1.083   0.210  0.4504 -1.5705  1.5197
 3765SOL     OW22756   0.271   2.769   1.418 -0.6967 -0.1881 -0.5986
 3765SOL    HW122757   0.282   2.674   1.424  3.7316  0.3115 -0.7868
 3765SOL    HW222758   0.176   2.779   1.419 -0.7898 -1.1055 -0.5972
 3766SOL     OW22759   0.892   2.173   7.086  0.5419  0.1621 -0.3220
 3766SOL    HW122760   0.894   2.080   7.111 -0.3310  0.2183 -0.0392
 3766SOL    HW222761   0.889   2.163   6.991  1.1042  1.0553 -0.4319
 3767SOL     OW22762   0.378   4.613   8.736  0.0194  0.3820  0.1906
 3767SOL    HW122763   0.386   4.708   8.732 -1.0952  0.4098 -1.7075
 3767SOL    HW222764   0.287   4.599   8.759 -0.9019  2.7543 -2.0107
 3768SOL     OW22765   1.854   0.242  13.367  0.2729 -0.1427  0.0817
 3768SOL    HW122766   1.927   0.185  13.342  2.0893  2.5923 -0.8877
 3768SOL    HW222767   1.813   0.266  13.285  1.0829 -0.6334 -0.4685
 3769SOL     OW22768   2.915   3.281   1.765 -0.1063  0.3961 -0.4365
 3769SOL    HW122769   2.973   3.296   1.690 -0.9965 -1.0362 -1.4034
 3769SOL    HW222770   2.983   3.268   1.831 -1.5823  1.5514  1.3072
 3770SOL     OW22771   2.041   0.864   8.918 -0.2890  0.0668 -0.3813
 3770SOL    HW122772   1.963   0.908   8.883 -1.5031 -0.8902  1.1233
 3770SOL    HW222773   1.995   0.786   8.949  1.7256 -0.8922  0.1629
 3771SOL     OW22774   3.892   3.990   3.716  0.1123 -0.2253 -0.8007
 3771SOL    HW122775   3.976   4.010   3.675  0.9959 -1.4630  0.3917
 3771SOL    HW222776   3.854   4.078   3.714 -2.9835 -1.5066  0.8745
 3772SOL     OW22777   4.536   3.143  11.235 -0.2748 -0.0823  0.3561
 3772SOL    HW122778   4.555   3.180  11.149 -0.1118 -1.5497 -0.2233
 3772SOL    HW222779   4.597   3.185  11.297  2.1702 -1.7236 -0.9403
 3773SOL     OW22780   3.231   1.441  13.574 -0.2057  0.5000  0.1165
 3773SOL    HW122781   3.287   1.363  13.578  0.9797  1.3843  0.9180
 3773SOL    HW222782   3.146   1.401  13.590 -0.0413  0.1027  0.0019
 3774SOL     OW22783   0.385   1.456  11.186 -0.0246  0.1714 -0.3925
 3774SOL    HW122784   0.331   1.380  11.165 -4.4043  2.5931  2.2085
 3774SOL    HW222785   0.471   1.437  11.149  0.7386  2.3481  0.2401
 3775SOL     OW22786   2.029   4.466   2.807 -0.4853 -0.2961 -0.1071
 3775SOL    HW122787   2.003   4.549   2.767  0.8736  2.1589  4.1120
 3775SOL    HW222788   2.012   4.488   2.899  0.9421 -1.6778  0.4933
 3776SOL     OW22789   2.298   3.786   1.843  0.0676  0.1559  0.0826
 3776SOL    HW122790   2.290   3.829   1.928  2.0786 -0.8004  0.7620
 3776SOL    HW222791   2.264   3.699   1.865  1.0495 -0.7437 -2.0271
 3777SOL     OW22792   3.459   4.024   6.226 -0.1267  0.0415 -0.7625
 3777SOL    HW122793   3.408   4.032   6.307  0.6702 -0.8563 -0.1813
 3777SOL    HW222794   3.508   3.947   6.255  0.0997  0.8255  0.9362
 3778SOL     OW22795   4.719   3.970  17.601 -0.2311 -0.0438  0.0291
 3778SOL    HW122796   0.046   3.933  17.675  2.0590  0.6431 -1.0736
 3778SOL    HW222797   0.046   4.048  17.571  1.8799 -1.8090 -1.2646
 3779SOL     OW22798   4.339   0.836  13.197 -0.3101 -0.3355 -0.2427
 3779SOL    HW122799   4.381   0.902  13.142  1.2131  1.1533  2.7215
 3779SOL    HW222800   4.412   0.811  13.255  1.4198 -1.6827 -2.9964
 3780SOL     OW22801   1.796   3.419   3.307  0.0419 -0.1062  0.1216
 3780SOL    HW122802   1.822   3.409   3.215 -0.9375 -3.9202  0.2539
 3780SOL    HW222803   1.853   3.486   3.344  0.7838  0.4647 -2.0617
 3781SOL     OW22804   0.670   1.550   2.302  0.0651  0.4722  0.0221
 3781SOL    HW122805   0.731   1.542   2.228  1.4513  0.3752  1.1767
 3781SOL    HW222806   0.633   1.464   2.318  1.6643 -0.3623 -0.7465
 3782SOL     OW22807   0.556   2.300   5.871 -0.5876  0.5598  0.1790
 3782SOL    HW122808   0.523   2.384   5.905  1.0252  1.7431 -1.2080
 3782SOL    HW222809   0.505   2.238   5.923 -1.1975  0.5232 -0.4521
 3783SOL     OW22810   4.103   4.372   8.342  0.6153  0.6123  0.1422
 3783SOL    HW122811   4.058   4.453   8.363  1.7026  1.5832 -1.2534
 3783SOL    HW222812   4.144   4.389   8.257 -1.7768  1.9867 -0.7047
 3784SOL     OW22813   4.381   3.158   3.336 -0.0150 -0.3204  0.4749
 3784SOL    HW122814   4.379   3.090   3.269  1.3555 -0.0485  0.1402
 3784SOL    HW222815   4.477   3.164   3.341 -0.1503  3.8247 -1.1851
 3785SOL     OW22816   3.404   4.443   6.013  0.3090 -0.0289 -0.0818
 3785SOL    HW122817   3.351   4.428   6.091  0.2670  0.1055 -0.0847
 3785SOL    HW222818   3.390   4.537   6.005  2.7806  0.2135 -1.7207
 3786SOL     OW22819   4.627   3.825  15.384  0.1941 -0.2298 -0.7554
 3786SOL    HW122820   4.616   3.791  15.473  1.3291  3.8775  0.9403
 3786SOL    HW222821   4.677   3.905  15.396  0.0570 -0.2915  0.2152
 3787SOL     OW22822   2.707   3.200  10.155  0.5728  0.2180  0.0846
 3787SOL    HW122823   2.682   3.108  10.145  1.0280 -0.0878  1.7913
 3787SOL    HW222824   2.727   3.194  10.248 -1.6870 -0.2533  0.5320
 3788SOL     OW22825   4.359   0.321  10.017  0.0262  0.7014 -0.2802
 3788SOL    HW122826   4.365   0.382   9.943 -0.3639  2.7974  1.3949
 3788SOL    HW222827   4.392   0.241   9.978  0.5880  0.2383  1.1428
 3789SOL     OW22828   2.191   2.719   7.958 -0.0745 -0.0782 -0.2301
 3789SOL    HW122829   2.182   2.702   7.864  2.3118 -0.1137 -0.4489
 3789SOL    HW222830   2.213   2.632   7.989  1.1856  0.1101 -0.6008
 3790SOL     OW22831   2.484   2.876   8.158 -0.2837  0.1909 -0.4977
 3790SOL    HW122832   2.506   2.825   8.080  0.1453 -2.3818  1.3091
 3790SOL    HW222833   2.568   2.852   8.198  0.0208  1.0877 -0.5806
 3791SOL     OW22834   2.693   2.460   6.525 -0.4172  0.4310 -0.2122
 3791SOL    HW122835   2.600   2.469   6.504 -0.4580 -0.6388 -0.4658
 3791SOL    HW222836   2.727   2.475   6.437  1.7522  0.1494  0.5710
 3792SOL     OW22837   2.068   2.315   7.842 -0.1093 -0.1704  1.7387
 3792SOL    HW122838   2.031   2.401   7.823  0.8465 -0.2871 -0.6789
 3792SOL    HW222839   2.147   2.341   7.889  2.6593 -1.7772 -1.9551
 3793SOL     OW22840   3.697   2.353   6.282  0.1074 -0.0064 -0.0756
 3793SOL    HW122841   3.688   2.346   6.187  2.1178 -1.3329 -0.1666
 3793SOL    HW222842   3.609   2.341   6.318 -0.3407  2.8632 -0.2179
 3794SOL     OW22843   2.968   3.857  12.205  0.3320 -0.8293 -0.0025
 3794SOL    HW122844   2.954   3.776  12.254 -0.6976 -0.1675  0.8083
 3794SOL    HW222845   2.961   3.918  12.279  0.9379  0.6763 -1.1921
 3795SOL     OW22846   2.812   1.194   9.546 -0.2632 -0.3136  0.5859
 3795SOL    HW122847   2.879   1.128   9.526 -0.0920 -0.0346  0.2348
 3795SOL    HW222848   2.742   1.189   9.481 -1.2901  0.3759  1.6548
 3796SOL     OW22849   0.464   1.013   1.025  0.1936  0.0092 -0.1042
 3796SOL    HW122850   0.510   0.955   0.964  0.3294  1.6677 -1.5693
 3796SOL    HW222851   0.457   0.948   1.096  0.4156 -0.1582 -0.2371
 3797SOL     OW22852   1.245   2.176  16.759 -0.8577  0.4097 -0.2945
 3797SOL    HW122853   1.232   2.269  16.779  1.8903  0.4334  1.3591
 3797SOL    HW222854   1.316   2.179  16.696 -0.2127 -1.9800  0.3396
 3798SOL     OW22855   4.708   1.310   1.808 -0.4700  0.5595  0.1921
 3798SOL    HW122856   4.614   1.305   1.790 -0.3312 -1.3474 -0.0065
 3798SOL    HW222857   0.020   1.221   1.795  0.3925  0.8990 -0.0904
 3799SOL     OW22858   2.088   4.000   8.976 -0.0417 -0.2056 -0.4223
 3799SOL    HW122859   2.004   4.011   8.930 -0.8771 -2.5851  0.5289
 3799SOL    HW222860   2.061   3.964   9.060 -1.1892  1.4218 -0.1004
 3800SOL     OW22861   3.311   0.023   4.733  0.1189 -0.1160  0.4696
 3800SOL    HW122862   3.397   0.028   4.692 -1.7431  2.2321 -3.1485
 3800SOL    HW222863   3.312   4.647   4.744 -1.9452 -0.2729 -0.6587
 3801SOL     OW22864   1.092   1.557   5.450  0.0275 -0.2404 -0.1877
 3801SOL    HW122865   1.154   1.547   5.377  0.4525  2.9004 -0.2784
 3801SOL    HW222866   1.015   1.516   5.411 -1.1515 -0.6616  2.6193
 3802SOL     OW22867   1.973   3.062   7.323 -0.0679  0.5781 -0.4385
 3802SOL    HW122868   1.988   3.125   7.253 -0.2573  1.9107  0.7272
 3802SOL    HW222869   1.881   3.079   7.341 -0.7859 -3.9135  0.2874
 3803SOL     OW22870   4.550   3.865  17.169  0.4792  0.6321 -0.4112
 3803SOL    HW122871   4.626   3.917  17.146  0.8083 -0.0554 -0.8764
 3803SOL    HW222872   4.583   3.815  17.245 -0.2233  1.2103  0.2718
 3804SOL     OW22873   3.910   2.810   4.060  0.6816  0.5059 -0.1785
 3804SOL    HW122874   3.851   2.762   4.118 -0.0638  2.4810  0.7048
 3804SOL    HW222875   3.892   2.772   3.973 -0.0561  1.3420 -0.4039
 3805SOL     OW22876   0.262   4.447   2.308  0.0474  0.1932  0.2168
 3805SOL    HW122877   0.267   4.354   2.331 -0.2812  0.4235  1.1820
 3805SOL    HW222878   0.181   4.460   2.259  0.1908  1.7783  0.4009
 3806SOL     OW22879   4.380   1.291   5.022 -0.0234 -0.0699  0.5159
 3806SOL    HW122880   4.463   1.301   5.068  1.4088 -2.3971 -1.5235
 3806SOL    HW222881   4.327   1.249   5.090 -0.1651 -0.6726  0.0363
 3807SOL     OW22882   1.834   3.122   3.930 -0.3459 -0.0336 -0.5262
 3807SOL    HW122883   1.891   3.133   3.854  0.8846 -1.5222  0.1730
 3807SOL    HW222884   1.841   3.029   3.951 -0.0741 -0.3703 -2.1429
 3808SOL     OW22885   2.319   2.793   3.152  0.3279  0.3488 -0.1268
 3808SOL    HW122886   2.407   2.778   3.186 -0.6254 -0.8952  1.7644
 3808SOL    HW222887   2.332   2.744   3.071 -0.4099  0.8456 -0.5372
 3809SOL     OW22888   1.136   1.559   7.518  0.2232 -0.6781 -0.1202
 3809SOL    HW122889   1.083   1.546   7.440  4.0679 -3.1429 -2.3651
 3809SOL    HW222890   1.102   1.484   7.567  1.3542 -0.9022  0.3393
 3810SOL     OW22891   2.749   2.950   8.722 -0.5844  0.4055  0.2914
 3810SOL    HW122892   2.800   3.031   8.721  0.6053 -0.3593 -1.3173
 3810SOL    HW222893   2.698   2.954   8.641  1.7226  0.3410 -1.1658
 3811SOL     OW22894   1.949   2.883   3.342  0.1236  0.1484  0.3950
 3811SOL    HW122895   1.854   2.878   3.348 -0.2112  1.9029 -3.4395
 3811SOL    HW222896   1.959   2.961   3.287 -1.2004 -0.0388 -0.1090
 3812SOL     OW22897   3.445   3.471   0.958  0.3775 -0.0416  0.2273
 3812SOL    HW122898   3.383   3.507   1.022 -0.9833  2.1890 -2.3273
 3812SOL    HW222899   3.476   3.557   0.930 -0.0015  0.0291  0.0232
 3813SOL     OW22900   2.048   1.142   3.093  0.0822  0.5987 -0.4043
 3813SOL    HW122901   2.015   1.054   3.110 -0.4198  0.5575 -1.5891
 3813SOL    HW222902   2.090   1.154   3.178  0.6084  1.7692 -0.8364
 3814SOL     OW22903   1.565   0.706   6.781 -0.1283 -0.7292  0.3633
 3814SOL    HW122904   1.558   0.634   6.844 -3.0605  1.8385  2.9225
 3814SOL    HW222905   1.481   0.749   6.794 -0.8735 -1.8234 -0.7524
 3815SOL     OW22906   0.157   2.567   7.605  0.6945  0.5599 -0.1623
 3815SOL    HW122907   0.230   2.597   7.552 -1.0865  0.2784 -2.7763
 3815SOL    HW222908   0.189   2.601   7.688  1.3330 -0.9188  0.1944
 3816SOL     OW22909   2.978   1.117  15.734 -0.3683 -0.1961  0.0392
 3816SOL    HW122910   3.001   1.210  15.741  2.2579 -1.0794  3.1296
 3816SOL    HW222911   3.064   1.087  15.763 -1.0433 -2.4297 -0.3059
 3817SOL     OW22912   1.198   4.266  15.240  0.1658 -0.4468 -0.2184
 3817SOL    HW122913   1.146   4.346  15.248 -0.8891 -1.0116 -1.3971
 3817SOL    HW222914   1.149   4.209  15.181 -0.0591 -1.0765  0.5955
 3818SOL     OW22915   4.274   0.614   8.790  0.5545 -0.1409 -0.4238
 3818SOL    HW122916   4.291   0.650   8.703  0.1651  3.2713  0.8862
 3818SOL    HW222917   4.318   0.681   8.843 -0.3547 -0.3037  0.5390
 3819SOL     OW22918   2.323   2.102   6.007  0.0547 -0.4025 -0.2663
 3819SOL    HW122919   2.366   2.117   5.923  0.2442  1.3285  0.1483
 3819SOL    HW222920   2.371   2.152   6.073  0.3443 -0.2279 -0.6078
 3820SOL     OW22921   1.931   1.237   8.620 -0.5274  0.2603 -0.2226
 3820SOL    HW122922   1.870   1.289   8.673 -1.0883 -0.1166 -0.4933
 3820SOL    HW222923   1.930   1.152   8.665  3.6287 -0.0326 -0.7406
 3821SOL     OW22924   1.914   3.573   6.175 -0.5003  0.1021 -0.1118
 3821SOL    HW122925   1.901   3.662   6.208  0.2809  0.2751 -0.2713
 3821SOL    HW222926   2.005   3.550   6.193 -1.0742 -1.7197  0.5126
 3822SOL     OW22927   2.080   1.390  11.861  0.4544  0.2724  0.1296
 3822SOL    HW122928   2.168   1.378  11.897  0.6963 -2.1908 -1.2199
 3822SOL    HW222929   2.064   1.302  11.825  2.7529 -0.3863  0.6915
 3823SOL     OW22930   2.024   3.505   4.989  0.3933 -0.6664  0.8717
 3823SOL    HW122931   2.088   3.560   4.943 -1.9942  1.8099  0.4835
 3823SOL    HW222932   2.028   3.537   5.079  1.6025 -0.3539  0.7038
 3824SOL     OW22933   4.262   2.218  11.477 -0.3858  0.3187 -0.4281
 3824SOL    HW122934   4.301   2.300  11.446 -0.6586  0.5355 -0.2038
 3824SOL    HW222935   4.330   2.156  11.451  1.2914  1.4172  1.3916
 3825SOL     OW22936   1.661   0.541   7.250 -0.4072 -0.7777  0.5338
 3825SOL    HW122937   1.746   0.579   7.229 -0.5175 -0.9440 -0.1903
 3825SOL    HW222938   1.609   0.550   7.170  1.3070  2.6782 -0.1727
 3826SOL     OW22939   4.085   4.632   6.930 -0.2523  0.1476 -0.3158
 3826SOL    HW122940   3.996   4.652   6.958  0.2443 -0.4653  1.7176
 3826SOL    HW222941   4.066   4.565   6.864  1.3580 -1.3147  0.6964
 3827SOL     OW22942   2.302   2.211   5.180  0.1635  0.2898  0.2306
 3827SOL    HW122943   2.210   2.228   5.200 -0.4378 -0.2226 -2.1582
 3827SOL    HW222944   2.301   2.215   5.085  1.0017 -4.3472 -0.0045
 3828SOL     OW22945   0.669   3.922   7.972 -0.3580  0.5078 -0.5317
 3828SOL    HW122946   0.691   3.864   7.900 -0.1848  0.6531 -0.5963
 3828SOL    HW222947   0.663   3.854   8.039  1.1081  1.2800  0.3840
 3829SOL     OW22948   3.694   1.548   7.890 -0.7342 -0.7369 -0.3114
 3829SOL    HW122949   3.695   1.619   7.825  1.1344 -1.2615 -0.8680
 3829SOL    HW222950   3.789   1.549   7.904 -1.0283 -0.2125  1.5830
 3830SOL     OW22951   4.247   0.942   4.923 -0.4138  0.5000 -0.0079
 3830SOL    HW122952   4.254   0.977   4.834 -0.8613  0.4816 -0.0478
 3830SOL    HW222953   4.339   0.938   4.951 -1.0215 -1.8263  1.6207
 3831SOL     OW22954   2.189   3.314   6.378 -0.5436 -0.2764 -0.2756
 3831SOL    HW122955   2.130   3.257   6.329 -0.4571 -0.1641 -0.5118
 3831SOL    HW222956   2.252   3.250   6.409 -1.7346 -0.8849  0.8992
 3832SOL     OW22957   4.598   3.875   6.422  0.3594  0.0116  0.3711
 3832SOL    HW122958   4.663   3.918   6.479 -2.1967  2.0294  1.7378
 3832SOL    HW222959   4.544   3.837   6.492  0.1668 -0.2990  0.0509
 3833SOL     OW22960   1.926   3.852   3.160 -0.5751  0.3694 -0.1461
 3833SOL    HW122961   1.915   3.786   3.092 -1.5113 -0.8221  1.1518
 3833SOL    HW222962   2.003   3.903   3.135  0.0165 -1.2618 -1.5780
 3834SOL     OW22963   0.572   3.822   0.492  0.0205  0.1359 -0.0214
 3834SOL    HW122964   0.544   3.899   0.444 -0.5064 -0.0961 -0.0902
 3834SOL    HW222965   0.507   3.816   0.563  1.2402  2.8954  1.3224
 3835SOL     OW22966   0.616   1.252   2.095  0.0305 -0.2953  0.2516
 3835SOL    HW122967   0.522   1.239   2.077  0.1778  0.2562 -0.9447
 3835SOL    HW222968   0.611   1.273   2.188  1.2502  0.3598  0.1594
 3836SOL     OW22969   2.567   3.918   3.900  0.2405  0.1719  0.1044
 3836SOL    HW122970   2.600   3.977   3.968  1.2973 -1.2876  0.8506
 3836SOL    HW222971   2.574   3.972   3.821 -0.7884 -1.3025 -0.9977
 3837SOL     OW22972   2.349   3.316  15.704 -0.0737 -0.5690  0.0275
 3837SOL    HW122973   2.414   3.264  15.657 -0.3371  0.8966 -1.9400
 3837SOL    HW222974   2.393   3.333  15.787 -1.9364  0.0239  0.8983
 3838SOL     OW22975   1.762   0.955   2.506 -0.2197 -0.2823 -0.2225
 3838SOL    HW122976   1.791   1.036   2.548  0.0979  1.2040 -3.2920
 3838SOL    HW222977   1.848   0.919   2.482  0.5124  1.6907 -0.5850
 3839SOL     OW22978   4.703   1.048   9.624  0.2466  0.2447 -0.1319
 3839SOL    HW122979   0.049   1.117   9.609 -0.4753  0.8185 -0.6814
 3839SOL    HW222980   0.038   0.975   9.654 -1.0883  0.0329  1.7580
 3840SOL     OW22981   2.584   0.911   6.969  0.5298 -0.2393 -0.1666
 3840SOL    HW122982   2.527   0.871   6.903 -0.2355 -1.3877  1.1884
 3840SOL    HW222983   2.538   0.884   7.048  1.7836 -0.6098  0.4180
 3841SOL     OW22984   0.007   1.522   7.047  0.0745 -0.0959 -0.2408
 3841SOL    HW122985   4.661   1.561   6.989  0.3308  1.3781  0.4542
 3841SOL    HW222986   0.088   1.554   7.007  0.8929 -1.4874  0.3080
 3842SOL     OW22987   0.281   4.585  16.224 -0.0628 -0.0477  0.3192
 3842SOL    HW122988   0.202   4.578  16.278 -0.4189  0.1831 -0.1671
 3842SOL    HW222989   0.339   4.519  16.262 -1.1541 -0.4874  1.2223
 3843SOL     OW22990   1.321   1.244   0.294 -0.0115 -0.2171 -0.0193
 3843SOL    HW122991   1.302   1.245   0.200 -0.2901 -1.3782  0.0282
 3843SOL    HW222992   1.293   1.153   0.302 -0.4333 -0.2336 -1.6429
 3844SOL     OW22993   2.099   2.030  15.265 -0.0808  0.3725  0.3080
 3844SOL    HW122994   2.043   2.014  15.342  0.5683 -2.1008  0.2537
 3844SOL    HW222995   2.182   2.013  15.309 -0.0638 -2.2824 -0.8137
 3845SOL     OW22996   1.718   0.084   2.549 -0.3625  0.2685 -0.6060
 3845SOL    HW122997   1.768   0.135   2.484 -0.4398  0.2847 -0.6523
 3845SOL    HW222998   1.753   0.000   2.519 -0.0885 -1.1266  3.6679
 3846SOL     OW22999   2.927   1.180   3.258 -0.2923 -0.2211  0.1701
 3846SOL    HW123000   2.839   1.216   3.268 -0.4126 -0.4238 -0.1656
 3846SOL    HW223001   2.908   1.098   3.302 -2.0230  0.2543  0.3037
 3847SOL     OW23002   4.469   4.306   5.621  0.4884 -0.7520 -0.0189
 3847SOL    HW123003   4.393   4.294   5.678  1.6361  1.2361  1.9286
 3847SOL    HW223004   4.449   4.266   5.536 -0.2248  0.8980 -0.6277
 3848SOL     OW23005   1.568   1.305   4.760  0.1787  0.3558 -0.1633
 3848SOL    HW123006   1.538   1.256   4.836  0.5102  1.0186  0.3920
 3848SOL    HW223007   1.592   1.232   4.703 -1.4911  0.6676 -1.2729
 3849SOL     OW23008   3.989   0.675   7.838 -0.3452  0.1281  0.0940
 3849SOL    HW123009   3.940   0.593   7.836  0.0391 -0.0695 -1.3563
 3849SOL    HW223010   4.077   0.651   7.810 -0.9376 -1.3947 -0.4351
 3850SOL     OW23011   3.447   3.585  17.420 -0.2015  0.5713  0.2625
 3850SOL    HW123012   3.514   3.599  17.487  0.2882  1.5961 -0.4382
 3850SOL    HW223013   3.466   3.654  17.356 -0.3940  0.8709  0.5259
 3851SOL     OW23014   4.619   0.448   4.593 -0.7009  0.1771 -0.3474
 3851SOL    HW123015   4.526   0.442   4.571 -0.2830 -0.7492 -1.8725
 3851SOL    HW223016   4.639   0.540   4.610 -3.1255  0.7668 -0.6464
 3852SOL     OW23017   3.775   2.641   8.351 -0.3950  0.2363 -0.4855
 3852SOL    HW123018   3.834   2.711   8.380  0.1253 -0.7583  0.8493
 3852SOL    HW223019   3.686   2.674   8.342 -0.7286  0.1348  2.4634
 3853SOL     OW23020   0.064   3.296   2.684 -0.7267  0.3630  0.0671
 3853SOL    HW123021   0.092   3.286   2.775  0.4709 -0.5920 -0.4040
 3853SOL    HW223022   0.102   3.218   2.642  0.2811  1.2399 -0.6325
 3854SOL     OW23023   0.737   2.094  13.666  0.6872  0.9319 -0.1441
 3854SOL    HW123024   0.661   2.079  13.610  2.2262 -0.4257 -1.8798
 3854SOL    HW223025   0.808   2.049  13.620  0.4083 -0.3211  0.6386
 3855SOL     OW23026   1.588   2.012   4.095  0.7307  0.2031 -0.1064
 3855SOL    HW123027   1.577   1.997   4.001 -1.5914  0.4885  0.1162
 3855SOL    HW223028   1.582   1.920   4.124  1.1272  0.1933 -0.0613
 3856SOL     OW23029   4.352   2.946   8.565  0.7201 -0.0944  0.2740
 3856SOL    HW123030   4.301   3.005   8.508  0.5740  0.2825  0.7935
 3856SOL    HW223031   4.410   2.906   8.501  0.7833 -1.6384  1.2882
 3857SOL     OW23032   3.490   0.010   8.182 -0.0850 -0.1096 -0.1076
 3857SOL    HW123033   3.566   4.675   8.162 -0.1878 -0.4355  0.4038
 3857SOL    HW223034   3.532   0.058   8.253  0.9328 -1.1395 -0.0304
 3858SOL     OW23035   1.190   2.176   5.030 -0.6302  0.4499 -0.2846
 3858SOL    HW123036   1.097   2.176   5.008 -0.5026  1.1556 -0.8394
 3858SOL    HW223037   1.212   2.207   4.942  0.4921 -1.0229 -0.5242
 3859SOL     OW23038   3.648   3.377   2.526 -0.1343 -0.0851  0.3160
 3859SOL    HW123039   3.686   3.293   2.501  0.6880  0.9223 -1.8259
 3859SOL    HW223040   3.567   3.342   2.565  0.4417 -2.1950 -0.4072
 3860SOL     OW23041   1.919   4.374   5.230  0.2949 -0.1937 -0.2104
 3860SOL    HW123042   1.903   4.366   5.324  0.2956  0.7803 -0.1258
 3860SOL    HW223043   1.926   4.468   5.218  1.0559 -0.3460 -0.9632
 3861SOL     OW23044   4.488   2.255   5.113 -0.1733 -0.1485 -0.0310
 3861SOL    HW123045   4.549   2.229   5.044 -1.2779 -1.2435 -0.6126
 3861SOL    HW223046   4.484   2.350   5.109 -2.4523 -0.2197  0.1630
 3862SOL     OW23047   0.058   0.785   4.368 -0.4029  0.3575 -0.1413
 3862SOL    HW123048   0.032   0.720   4.303  0.2571  1.6777 -1.7100
 3862SOL    HW223049   0.011   0.752   4.445 -0.7501 -1.3303 -1.0731
 3863SOL     OW23050   1.723   2.501  14.773 -0.2147  0.7232  0.5178
 3863SOL    HW123051   1.674   2.540  14.701 -0.9977 -1.0562  0.1039
 3863SOL    HW223052   1.654   2.496  14.839 -1.3049 -0.0889 -0.6981
 3864SOL     OW23053   3.278   2.660  14.129  0.0028  0.3268 -0.6450
 3864SOL    HW123054   3.229   2.735  14.097 -1.5184  0.8418  2.8447
 3864SOL    HW223055   3.254   2.656  14.222 -1.0258 -0.9294 -0.9738
 3865SOL     OW23056   0.879   2.955   3.086  0.4452  0.2003  0.1329
 3865SOL    HW123057   0.829   2.890   3.037  0.2349  0.4996 -0.0453
 3865SOL    HW223058   0.855   2.929   3.175  1.4381  0.4308  0.4665
 3866SOL     OW23059   0.908   1.429   5.310 -0.3174 -0.2049 -0.0726
 3866SOL    HW123060   0.841   1.372   5.345 -0.8349  1.0611  0.9929
 3866SOL    HW223061   0.951   1.364   5.254  1.0849  0.9486 -0.3360
 3867SOL     OW23062   0.586   0.342  15.815 -0.1953  0.4702  0.2247
 3867SOL    HW123063   0.628   0.257  15.803 -0.5992  0.2020  0.6975
 3867SOL    HW223064   0.533   0.333  15.894 -0.8406  0.1839 -0.2411
 3868SOL     OW23065   1.896   0.810   4.770 -0.3638  0.3196  0.0762
 3868SOL    HW123066   1.865   0.886   4.819  2.3359  2.5667 -1.6930
 3868SOL    HW223067   1.863   0.837   4.684 -3.1917 -0.3961  0.9631
 3869SOL     OW23068   2.211   3.815  13.798 -0.0031 -0.1278 -0.8733
 3869SOL    HW123069   2.119   3.810  13.772  0.5026 -0.8608 -2.4809
 3869SOL    HW223070   2.233   3.723  13.786  0.6879 -0.2256  1.0386
 3870SOL     OW23071   2.064   0.236   4.190  0.5640 -0.2567  0.4460
 3870SOL    HW123072   1.971   0.232   4.171  0.2366  3.2111  1.2425
 3870SOL    HW223073   2.071   0.307   4.255 -0.2075  0.7811 -0.5969
 3871SOL     OW23074   2.306   0.188   9.910 -0.8203  0.3029 -0.3006
 3871SOL    HW123075   2.220   0.178   9.950 -0.6489  3.9089  0.9773
 3871SOL    HW223076   2.284   0.207   9.819 -2.8086  2.1443  0.5867
 3872SOL     OW23077   1.073   3.920   2.664 -0.3124 -0.3095 -0.0080
 3872SOL    HW123078   1.054   3.829   2.643 -0.5873 -0.1805 -0.3134
 3872SOL    HW223079   1.046   3.936   2.754  1.7920 -1.0616  0.7587
 3873SOL     OW23080   3.354   4.288   9.463  0.1397 -0.5765 -0.2270
 3873SOL    HW123081   3.410   4.363   9.480  1.0188 -1.0133 -1.2302
 3873SOL    HW223082   3.423   4.223   9.460  1.5085  0.8318  0.9906
 3874SOL     OW23083   2.999   4.366   6.091  0.1839 -0.1697 -0.0603
 3874SOL    HW123084   3.033   4.344   6.179  1.3422 -0.7608 -0.6489
 3874SOL    HW223085   2.945   4.290   6.069  1.5600 -0.8438 -1.1205
 3875SOL     OW23086   2.980   2.772   3.139  0.4830  0.3421  0.8072
 3875SOL    HW123087   2.931   2.727   3.208  0.1833  0.5324  0.7179
 3875SOL    HW223088   3.024   2.700   3.092 -0.3212 -0.3545  1.1338
 3876SOL     OW23089   3.036   2.873   8.766 -0.1933 -0.2863 -0.3645
 3876SOL    HW123090   2.946   2.902   8.780  0.4998  1.5235  0.3193
 3876SOL    HW223091   3.054   2.847   8.856 -1.0353  0.2153 -0.0472
 3877SOL     OW23092   0.928   1.690   9.257 -0.3228 -0.5867 -0.1095
 3877SOL    HW123093   0.937   1.611   9.311 -0.2683 -0.4656  0.0606
 3877SOL    HW223094   0.838   1.720   9.270 -0.1536  0.8564 -2.3615
 3878SOL     OW23095   0.808   1.752   2.023 -0.6885  0.1333 -0.7550
 3878SOL    HW123096   0.758   1.670   2.019  2.3541 -1.6878 -1.0854
 3878SOL    HW223097   0.848   1.737   2.108  1.8632  0.1318 -1.9684
 3879SOL     OW23098   2.116   1.420   3.534 -0.0126 -0.2515 -0.0640
 3879SOL    HW123099   2.057   1.394   3.605 -0.5793 -1.7023 -1.0743
 3879SOL    HW223100   2.186   1.471   3.576 -0.0895 -0.8613  0.7960
 3880SOL     OW23101   4.687   3.014   8.026 -0.5872  0.1206 -0.4116
 3880SOL    HW123102   0.018   3.095   8.024  0.3784 -0.4524  0.7674
 3880SOL    HW223103   4.611   3.043   8.077  2.0330 -1.4929  4.3560
 3881SOL     OW23104   4.699   3.117   6.379  0.3177  0.4095  0.0395
 3881SOL    HW123105   0.032   3.191   6.349  0.8881 -0.2301 -0.5231
 3881SOL    HW223106   4.682   3.071   6.297 -0.2579 -1.1976  1.0541
 3882SOL     OW23107   0.837   2.822   3.337  0.1750  0.4619 -0.1675
 3882SOL    HW123108   0.894   2.751   3.366 -0.5157 -0.7639 -1.8706
 3882SOL    HW223109   0.787   2.830   3.418  0.3845 -0.3691  0.0437
 3883SOL     OW23110   2.498   3.705  14.910 -0.1816  0.2916 -0.0978
 3883SOL    HW123111   2.551   3.634  14.873 -0.0061  0.4261 -0.1012
 3883SOL    HW223112   2.413   3.663  14.926  1.8977 -2.0750  4.8276
 3884SOL     OW23113   0.909   0.118   2.206  0.9094 -0.2000  0.4049
 3884SOL    HW123114   0.969   0.075   2.145  0.2230  1.0376 -1.1507
 3884SOL    HW223115   0.915   0.202   2.160  0.3457  0.0091  0.7162
 3885SOL     OW23116   2.093   4.492  17.093  0.1029  0.3672  0.0598
 3885SOL    HW123117   2.083   4.548  17.170 -0.5398 -0.4330  0.5513
 3885SOL    HW223118   2.171   4.441  17.116 -0.0546  0.8540  1.6574
 3886SOL     OW23119   0.993   1.736  13.539 -0.1551  0.4699  0.2346
 3886SOL    HW123120   0.925   1.680  13.501  0.1092  0.7435 -0.6327
 3886SOL    HW223121   1.077   1.708  13.502  0.1428  3.5343 -1.3789
 3887SOL     OW23122   2.193   3.480  12.940  0.5601 -0.0369  0.0300
 3887SOL    HW123123   2.167   3.471  13.032  2.3240  0.0501  0.5408
 3887SOL    HW223124   2.257   3.550  12.951  4.1742 -2.7978 -3.2522
 3888SOL     OW23125   1.197   1.726   2.182  0.0117  0.8756 -0.3902
 3888SOL    HW123126   1.250   1.654   2.146 -0.3965 -0.1247  0.9962
 3888SOL    HW223127   1.108   1.692   2.188  0.6758 -0.5422  1.4339
 3889SOL     OW23128   2.606   4.331   8.348  0.0619 -0.0030  0.0809
 3889SOL    HW123129   2.527   4.384   8.357  1.1031  1.1105  2.7987
 3889SOL    HW223130   2.572   4.249   8.383 -0.1768  0.1619  0.2334
 3890SOL     OW23131   2.733   0.437   7.542 -0.3562 -0.5990  0.3754
 3890SOL    HW123132   2.687   0.501   7.597 -1.0054 -1.2355  0.5787
 3890SOL    HW223133   2.673   0.425   7.469 -0.5563 -1.6941  0.7233
 3891SOL     OW23134   3.326   1.081   9.018  0.3111 -0.3893 -0.0086
 3891SOL    HW123135   3.242   1.050   8.983  0.3147  0.6179 -0.8753
 3891SOL    HW223136   3.364   1.107   8.935 -1.4769 -0.6294 -0.9100
 3892SOL     OW23137   2.464   2.238  15.498  0.0726 -0.3324 -0.3293
 3892SOL    HW123138   2.518   2.296  15.552 -0.3351 -0.8935  0.6983
 3892SOL    HW223139   2.442   2.289  15.420  1.0021  0.9599  0.2665
 3893SOL     OW23140   2.492   4.634  13.389  0.6304 -0.0564 -0.1246
 3893SOL    HW123141   2.582   4.662  13.373  0.8033 -0.3876  0.2878
 3893SOL    HW223142   2.454   4.641  13.301 -1.0934  0.5343  0.6704
 3894SOL     OW23143   3.481   3.880   4.835  0.0385  0.1207  0.2913
 3894SOL    HW123144   3.551   3.945   4.821 -1.6330  1.4777 -1.9188
 3894SOL    HW223145   3.529   3.799   4.821  0.5401  0.5802 -0.7190
 3895SOL     OW23146   2.822   2.641   6.917  0.5470 -0.3491  0.7665
 3895SOL    HW123147   2.871   2.564   6.889 -1.5069 -0.8556 -1.3966
 3895SOL    HW223148   2.732   2.612   6.903  0.6947  0.6327 -2.3749
 3896SOL     OW23149   0.332   4.456  12.621 -0.2823 -0.4722  0.2795
 3896SOL    HW123150   0.402   4.473  12.685 -0.5677 -0.7957  0.6742
 3896SOL    HW223151   0.380   4.413  12.550  1.1938  2.3421 -0.4507
 3897SOL     OW23152   3.746   4.586   4.310  0.6616  0.0552  0.0160
 3897SOL    HW123153   3.743   4.586   4.215 -2.2522  0.1136  0.1063
 3897SOL    HW223154   3.653   4.602   4.325  0.7282  1.8540 -1.4604
 3898SOL     OW23155   3.910   1.818   5.776  0.4029  0.0434 -0.0789
 3898SOL    HW123156   3.849   1.890   5.795 -0.6602 -0.6170 -0.9613
 3898SOL    HW223157   3.980   1.835   5.839 -0.3959  1.4961  0.4345
 3899SOL     OW23158   2.935   1.669   4.158  0.1515 -0.2100 -0.3082
 3899SOL    HW123159   2.867   1.728   4.189 -0.2331  0.2846 -2.0730
 3899SOL    HW223160   2.926   1.684   4.064  2.2902  2.4675 -0.0870
 3900SOL     OW23161   3.163   4.685   5.337  0.1634 -0.1545  0.1969
 3900SOL    HW123162   3.083   4.644   5.304  0.0769  0.7628 -0.7317
 3900SOL    HW223163   3.218   4.610   5.357  1.4927  0.5951 -0.6933
 3901SOL     OW23164   2.298   2.437  11.292 -0.3023  0.1724 -0.5653
 3901SOL    HW123165   2.256   2.520  11.272 -1.2004  0.0198  0.6994
 3901SOL    HW223166   2.213   2.393  11.289  0.1943 -0.9948  2.0791
 3902SOL     OW23167   4.473   2.992   0.420  0.6556  0.4747 -0.5447
 3902SOL    HW123168   4.424   2.910   0.427 -0.7166  1.4178  0.9586
 3902SOL    HW223169   4.553   2.974   0.469  0.6914 -0.9633 -1.1222
 3903SOL     OW23170   0.386   0.198  10.745 -0.7480  0.0079 -0.4780
 3903SOL    HW123171   0.396   0.105  10.726 -1.7951 -0.1524 -0.2532
 3903SOL    HW223172   0.467   0.208  10.795 -0.5982 -1.6492 -0.3916
 3904SOL     OW23173   2.234   0.699  14.734 -0.2062  0.4424 -0.6309
 3904SOL    HW123174   2.315   0.748  14.719  0.9822 -0.8118  1.6748
 3904SOL    HW223175   2.220   0.641  14.660  0.2211 -0.4423 -0.0172
 3905SOL     OW23176   3.398   4.560   3.405 -0.9223  0.1405  0.4315
 3905SOL    HW123177   3.337   4.624   3.367  0.0486  2.4857  2.8110
 3905SOL    HW223178   3.352   4.530   3.483  2.2356 -0.6884  1.9800
 3906SOL     OW23179   0.829   0.036   4.038 -0.1931 -0.3335  0.0751
 3906SOL    HW123180   0.884   4.682   4.067  1.2002  0.8039  0.3089
 3906SOL    HW223181   0.739   0.004   4.034  0.3746 -2.0202  0.8233
 3907SOL     OW23182   3.427   4.467  14.817 -0.4801 -0.1531  1.1572
 3907SOL    HW123183   3.436   4.512  14.734 -0.7289  0.4411  1.4557
 3907SOL    HW223184   3.331   4.473  14.824 -0.3041  1.7750  1.7392
 3908SOL     OW23185   1.284   1.506   0.304  0.3660 -0.0776 -0.0791
 3908SOL    HW123186   1.306   1.415   0.328  1.3742  0.4863  1.1280
 3908SOL    HW223187   1.247   1.483   0.218 -0.3063  0.8159 -0.0231
 3909SOL     OW23188   1.549   4.116   2.603 -0.4751  0.6860  0.0727
 3909SOL    HW123189   1.596   4.051   2.551 -0.0403  2.2136 -1.4357
 3909SOL    HW223190   1.464   4.071   2.612 -0.3278  0.2733 -0.5977
 3910SOL     OW23191   2.935   2.002   6.756 -0.1837 -0.1734 -0.3493
 3910SOL    HW123192   2.876   2.037   6.689 -0.9468  2.8370  1.8700
 3910SOL    HW223193   2.899   2.043   6.835  1.2954  1.3172 -0.4491
 3911SOL     OW23194   3.659   0.198   3.833 -0.5996 -0.2480 -0.7865
 3911SOL    HW123195   3.600   0.124   3.814 -1.6532  0.7261 -1.2955
 3911SOL    HW223196   3.729   0.172   3.773 -0.2685 -2.5106  0.5645
 3912SOL     OW23197   4.295   3.036  11.068 -0.0425 -0.4798  0.0889
 3912SOL    HW123198   4.320   3.038  11.161 -0.7463  2.4253  0.2199
 3912SOL    HW223199   4.367   3.088  11.032 -0.3458 -0.9931 -1.2590
 3913SOL     OW23200   1.059   3.150   3.985 -0.2577  0.2963 -0.4968
 3913SOL    HW123201   1.113   3.223   3.956 -0.4388  0.6313  0.0108
 3913SOL    HW223202   0.974   3.175   3.948  0.2855  0.6352 -1.5032
 3914SOL     OW23203   1.992   1.650  14.583  0.1122  0.3678  0.0676
 3914SOL    HW123204   2.053   1.664  14.510 -0.0491  0.7295 -0.0003
 3914SOL    HW223205   1.922   1.619  14.525 -1.8504  2.8285  1.1298
 3915SOL     OW23206   4.063   3.935  17.553 -0.6082 -0.8029 -0.0454
 3915SOL    HW123207   4.154   3.964  17.562 -0.8300 -0.1793  0.2173
 3915SOL    HW223208   4.013   3.980  17.621 -1.9139  0.8876 -2.1386
 3916SOL     OW23209   4.475   1.962   8.084 -0.4711 -0.5196 -0.6234
 3916SOL    HW123210   4.537   2.025   8.049 -0.6681  0.0291  0.0114
 3916SOL    HW223211   4.530   1.909   8.141 -0.7640  0.3962  0.5291
 3917SOL     OW23212   4.405   3.598   3.350  0.8227  0.0782  0.1732
 3917SOL    HW123213   4.406   3.692   3.331 -1.6776  0.2727  1.0101
 3917SOL    HW223214   4.311   3.584   3.352  0.9847 -0.5984  2.7958
 3918SOL     OW23215   2.214   1.154   3.703 -0.0346  0.2657 -0.1535
 3918SOL    HW123216   2.202   1.060   3.692 -0.9085  0.3029  0.4983
 3918SOL    HW223217   2.305   1.164   3.675 -0.1198 -0.4143 -0.6779
 3919SOL     OW23218   2.990   0.389   6.566 -0.2145 -0.0521  0.0180
 3919SOL    HW123219   3.078   0.375   6.531  0.0494 -0.1327  0.7107
 3919SOL    HW223220   3.013   0.412   6.656 -2.5327  1.2983  0.2544
 3920SOL     OW23221   2.435   1.802   9.349 -0.7416 -0.4943 -0.2127
 3920SOL    HW123222   2.454   1.765   9.264 -0.7159  0.1892 -0.5071
 3920SOL    HW223223   2.347   1.776   9.377 -0.1077 -2.2562  0.1444
 3921SOL     OW23224   2.066   4.547   7.919 -0.2427  0.0436  0.2739
 3921SOL    HW123225   2.023   4.568   8.002  1.2817  0.0615  1.0501
 3921SOL    HW223226   1.993   4.542   7.857  0.1916  1.4230 -0.3700
 3922SOL     OW23227   0.065   4.032  11.550 -0.0384  0.5169  0.0683
 3922SOL    HW123228   0.098   4.014  11.462  0.5000  0.1931  0.3340
 3922SOL    HW223229   0.122   3.980  11.607 -1.0064 -0.3185  0.2764
 3923SOL     OW23230   2.162   0.111  14.913 -0.1293  0.0304 -0.0697
 3923SOL    HW123231   2.169   0.024  14.953 -0.3676  0.6048  1.2330
 3923SOL    HW223232   2.072   0.116  14.880  0.0666 -3.0023 -1.1372
 3924SOL     OW23233   0.885   0.371  10.395  0.5254  0.1148  0.0188
 3924SOL    HW123234   0.841   0.455  10.386  1.4258  0.2579 -3.0803
 3924SOL    HW223235   0.923   0.388  10.482  1.5614 -0.0656 -0.3965
 3925SOL     OW23236   0.880   4.624   1.075 -0.3601 -0.1047 -0.6935
 3925SOL    HW123237   0.911   4.533   1.077 -0.0407  0.0667  2.6166
 3925SOL    HW223238   0.889   4.633   1.170  1.8183 -0.9980 -0.8204
 3926SOL     OW23239   0.119   2.127   3.881  0.4511  0.2904  0.2679
 3926SOL    HW123240   0.134   2.182   3.958 -1.7804  0.3786  0.6277
 3926SOL    HW223241   0.082   2.048   3.921 -0.0104 -0.3270 -1.3929
 3927SOL     OW23242   1.390   0.632   4.127 -0.1493 -0.7778  0.1440
 3927SOL    HW123243   1.366   0.688   4.054 -0.6527  0.3089  1.1451
 3927SOL    HW223244   1.348   0.672   4.203 -1.8549 -0.3299 -1.0282
 3928SOL     OW23245   4.154   2.974   6.550  0.0137 -0.5905 -0.4024
 3928SOL    HW123246   4.089   2.918   6.591 -2.1224  0.2254 -2.6459
 3928SOL    HW223247   4.225   2.950   6.610 -0.8729  1.1126  1.3383
 3929SOL     OW23248   2.566   4.179   3.124  0.5031 -0.1219  0.0972
 3929SOL    HW123249   2.603   4.104   3.077 -1.5125  0.5474 -2.5437
 3929SOL    HW223250   2.556   4.138   3.210  1.9476 -0.9242 -0.1083
 3930SOL     OW23251   0.033   1.909   5.830 -0.4286  0.8154 -0.0085
 3930SOL    HW123252   4.660   1.911   5.852 -0.5727  0.5330 -0.6133
 3930SOL    HW223253   0.068   1.978   5.887  0.5295 -1.0312  1.6244
 3931SOL     OW23254   2.984   3.224   8.157  0.5001  0.7367 -0.2962
 3931SOL    HW123255   2.917   3.245   8.221  0.8466 -0.5057  0.4871
 3931SOL    HW223256   3.037   3.163   8.209  1.2913  1.2723 -0.4764
 3932SOL     OW23257   2.782   4.449   2.962  0.0238  0.2971  0.4428
 3932SOL    HW123258   2.853   4.429   2.902 -1.0336  0.6455 -0.9134
 3932SOL    HW223259   2.820   4.520   3.014 -1.5840  0.6929  1.0978
 3933SOL     OW23260   0.213   1.015   4.303  1.0867  0.1592 -0.5473
 3933SOL    HW123261   0.168   0.930   4.305  0.6401  0.4470  2.4180
 3933SOL    HW223262   0.261   1.002   4.222  0.5675  1.2001 -1.0067
 3934SOL     OW23263   1.867   1.403   4.541 -0.7760 -0.6884  0.1841
 3934SOL    HW123264   1.830   1.316   4.559  0.5697 -1.3299 -0.1690
 3934SOL    HW223265   1.806   1.467   4.578 -0.8069 -0.9294  0.5545
 3935SOL     OW23266   0.492   1.088   7.095  0.0370 -0.0310 -0.4080
 3935SOL    HW123267   0.586   1.104   7.101 -0.0212 -0.6072  1.9910
 3935SOL    HW223268   0.487   0.997   7.065 -1.9925  1.0132 -3.2160
 3936SOL     OW23269   2.359   3.021   8.585 -0.5692  0.1379 -0.3619
 3936SOL    HW123270   2.382   3.042   8.675  2.5923 -3.3678 -0.3652
 3936SOL    HW223271   2.269   2.987   8.590 -0.3141 -0.6554 -1.2812
 3937SOL     OW23272   2.994   4.040   4.598  0.6150 -0.1749 -0.3779
 3937SOL    HW123273   3.087   4.018   4.585  0.9175  2.2927 -2.2770
 3937SOL    HW223274   2.997   4.128   4.561  2.8620 -0.6574 -1.3246
 3938SOL     OW23275   0.506   0.817  14.449  0.8922 -0.2194 -0.6070
 3938SOL    HW123276   0.520   0.784  14.360  0.4017  1.9360 -1.4918
 3938SOL    HW223277   0.422   0.862  14.441  0.8887  0.1557  1.5543
 3939SOL     OW23278   3.977   4.230   3.101  0.2823 -0.0641 -0.0808
 3939SOL    HW123279   3.940   4.318   3.095  0.8818  0.2014  0.0855
 3939SOL    HW223280   3.904   4.174   3.128 -0.9726  2.0634  0.9004
 3940SOL     OW23281   2.909   1.101  17.171  0.0388 -0.8925  0.1140
 3940SOL    HW123282   2.882   1.189  17.198  1.7150 -0.4673  0.3885
 3940SOL    HW223283   2.997   1.120  17.139  0.4359 -0.1464  1.6745
 3941SOL     OW23284   3.093   2.116   7.378  0.8083 -0.0964  0.2541
 3941SOL    HW123285   3.122   2.136   7.289 -2.5981 -1.3351 -1.1655
 3941SOL    HW223286   3.001   2.098   7.358  0.8922 -0.1863 -0.0560
 3942SOL     OW23287   4.488   3.444   7.545  0.0861 -0.0606  0.0688
 3942SOL    HW123288   4.427   3.516   7.528 -0.5842 -0.8515 -0.9047
 3942SOL    HW223289   4.476   3.386   7.470  0.5305 -0.3814  0.2418
 3943SOL     OW23290   2.880   0.100  13.121 -0.1017 -0.2694  0.0235
 3943SOL    HW123291   2.938   0.176  13.129 -1.5382  0.7798  0.5810
 3943SOL    HW223292   2.924   0.054  13.049 -0.8577  1.2309 -1.4091
 3944SOL     OW23293   3.638   2.175   4.573  0.0469  0.2335  0.0299
 3944SOL    HW123294   3.671   2.173   4.662  1.0078  3.0043 -0.2555
 3944SOL    HW223295   3.547   2.167   4.602  0.4717 -0.1884  1.1995
 3945SOL     OW23296   1.175   2.878   2.922 -0.3220 -0.0138  0.2812
 3945SOL    HW123297   1.264   2.906   2.944 -0.1088  0.2644 -0.9321
 3945SOL    HW223298   1.142   2.876   3.011  0.2143  1.2912  0.5100
 3946SOL     OW23299   3.513   4.264   1.183 -0.1711  0.2957  0.1599
 3946SOL    HW123300   3.483   4.254   1.092 -1.5569 -1.4231  0.8191
 3946SOL    HW223301   3.562   4.184   1.199  1.2545  0.9875 -0.7110
 3947SOL     OW23302   0.967   0.829   7.520  0.3960 -0.0995  0.1024
 3947SOL    HW123303   1.017   0.863   7.594  1.8609  0.2055 -1.0191
 3947SOL    HW223304   1.036   0.796   7.463  0.5858 -1.3319  1.0497
 3948SOL     OW23305   2.566   1.963   2.518 -0.0950  0.5477 -0.0253
 3948SOL    HW123306   2.621   1.885   2.511 -1.1365 -0.0047 -1.9825
 3948SOL    HW223307   2.622   2.018   2.464  0.5983 -1.0811 -0.9614
 3949SOL     OW23308   0.289   0.443  17.626 -0.0471 -0.2779  0.6235
 3949SOL    HW123309   0.243   0.359  17.621 -1.6893  0.6793 -0.1249
 3949SOL    HW223310   0.218   0.492  17.667  1.2578  2.3416 -0.2528
 3950SOL     OW23311   1.633   3.837  17.509 -0.1084  0.4560  0.2742
 3950SOL    HW123312   1.592   3.789  17.438 -2.1097 -1.6421  2.8382
 3950SOL    HW223313   1.634   3.929  17.482  1.5548 -0.5345 -2.9365
 3951SOL     OW23314   3.578   3.745   1.375  0.4975  0.0747  0.2790
 3951SOL    HW123315   3.607   3.696   1.452  0.2268  1.5551  1.3231
 3951SOL    HW223316   3.616   3.689   1.307  1.4618  0.7529  0.2570
 3952SOL     OW23317   0.181   3.796   2.367 -0.4996  0.0024 -0.3742
 3952SOL    HW123318   0.095   3.799   2.408  0.1015  3.7823  0.6139
 3952SOL    HW223319   0.183   3.851   2.289  1.5748 -1.1673 -1.1437
 3953SOL     OW23320   1.353   3.605  14.070 -0.1606  0.6322  0.2606
 3953SOL    HW123321   1.258   3.598  14.081  0.0145  0.6643  1.8271
 3953SOL    HW223322   1.384   3.625  14.158  2.2630  0.3024 -0.5211
 3954SOL     OW23323   3.568   4.267   3.040  0.4909 -0.5751 -0.0235
 3954SOL    HW123324   3.560   4.287   3.134 -1.1829 -0.3745 -0.2139
 3954SOL    HW223325   3.554   4.356   3.007  0.5225 -1.2459 -1.7890
 3955SOL     OW23326   4.356   0.652  14.431 -0.0571  0.0519  0.6940
 3955SOL    HW123327   4.326   0.660  14.341  2.3266 -0.8066 -0.1891
 3955SOL    HW223328   4.273   0.647  14.478 -1.1575  1.1641 -1.1157
 3956SOL     OW23329   1.765   1.029   1.303 -0.0734  0.5382  0.1809
 3956SOL    HW123330   1.715   0.950   1.323 -0.1695  0.9086  1.4196
 3956SOL    HW223331   1.834   1.027   1.370 -0.6091  0.3084  0.7185
 3957SOL     OW23332   1.454   3.337   0.581  0.4208 -0.4914 -0.1509
 3957SOL    HW123333   1.407   3.327   0.664  0.5411 -1.9883 -0.2660
 3957SOL    HW223334   1.419   3.264   0.531  0.4243 -0.2828 -0.4559
 3958SOL     OW23335   2.197   3.379   4.386  0.1731  0.3248 -0.3821
 3958SOL    HW123336   2.244   3.320   4.445  0.3769  2.0564  1.1710
 3958SOL    HW223337   2.112   3.343   4.411  1.5696 -2.3721  0.4275
 3959SOL     OW23338   0.644   2.975  17.099 -0.0804  0.1285 -0.4053
 3959SOL    HW123339   0.631   3.050  17.040  2.2065  1.5639  0.8824
 3959SOL    HW223340   0.579   3.007  17.161 -0.1222  0.7282 -0.7557
 3960SOL     OW23341   0.592   1.109   6.013 -0.1664  0.2988 -0.5937
 3960SOL    HW123342   0.531   1.148   5.951  0.0105 -0.7056 -1.4062
 3960SOL    HW223343   0.651   1.183   6.027 -1.5763  1.9491 -3.3130
 3961SOL     OW23344   3.995   0.397   7.578 -0.3955  0.0241  0.2624
 3961SOL    HW123345   4.029   0.424   7.493  1.7967 -4.0018 -0.1513
 3961SOL    HW223346   3.902   0.412   7.562 -0.0339  2.6646  0.7029
 3962SOL     OW23347   1.776   3.375   7.286  0.3972 -0.7462 -0.0191
 3962SOL    HW123348   1.696   3.400   7.333  0.2912 -0.7641 -0.1891
 3962SOL    HW223349   1.748   3.351   7.198 -0.3266 -1.7590  0.4848
 3963SOL     OW23350   0.043   1.732   4.312  0.3324  0.0810  0.1694
 3963SOL    HW123351   4.715   1.772   4.384  1.4804  1.6800  0.0392
 3963SOL    HW223352   4.719   1.648   4.295 -0.0558  0.2021  0.5886
 3964SOL     OW23353   1.609   0.154   7.046 -0.1631  0.3628  0.5379
 3964SOL    HW123354   1.527   0.200   7.030  1.8976  4.5399  2.2293
 3964SOL    HW223355   1.662   0.163   6.967 -1.1450 -1.7801 -0.3809
 3965SOL     OW23356   3.419   2.477  10.319  0.1289 -0.1593  0.1177
 3965SOL    HW123357   3.486   2.490  10.252 -0.5971  0.8538 -0.4148
 3965SOL    HW223358   3.346   2.525  10.280 -1.1271 -1.0587  1.3489
 3966SOL     OW23359   2.332   4.359   8.405 -0.2164  0.2920  0.2803
 3966SOL    HW123360   2.259   4.351   8.344  0.9177  1.9085 -1.2848
 3966SOL    HW223361   2.289   4.389   8.485 -0.1393  1.2273 -0.0353
 3967SOL     OW23362   0.538   1.204  10.725  0.2299  0.4049 -0.0646
 3967SOL    HW123363   0.575   1.223  10.639 -1.7057  1.7936 -0.6051
 3967SOL    HW223364   0.452   1.173  10.697 -0.0137  0.6491  0.4027
 3968SOL     OW23365   4.600   3.985   4.876 -0.1829  0.0832 -0.8186
 3968SOL    HW123366   4.591   4.011   4.784  0.8580  0.9479 -0.6860
 3968SOL    HW223367   4.603   4.070   4.921 -0.6817  0.0334 -0.6930
 3969SOL     OW23368   3.225   2.420   5.904  0.2547  0.3201 -0.3137
 3969SOL    HW123369   3.282   2.489   5.871  1.2894 -0.3816  0.0171
 3969SOL    HW223370   3.291   2.359   5.936 -0.6003 -0.4858 -0.0760
 3970SOL     OW23371   4.366   1.036   8.354 -0.2045  0.0678  0.0709
 3970SOL    HW123372   4.377   1.052   8.260 -1.3104 -0.7600 -0.1964
 3970SOL    HW223373   4.297   1.098   8.377 -0.9302 -0.9162  0.5412
 3971SOL     OW23374   3.216   1.132   1.804  0.0902  0.5488  0.5060
 3971SOL    HW123375   3.152   1.131   1.875  0.5742 -0.1910  0.9468
 3971SOL    HW223376   3.293   1.141   1.861  0.4824 -0.9698  0.2138
 3972SOL     OW23377   0.999   0.657   1.704 -0.7353 -0.1103 -0.2895
 3972SOL    HW123378   1.009   0.611   1.621 -0.0241 -1.9444  0.8020
 3972SOL    HW223379   1.012   0.750   1.685  1.6528 -0.9623 -2.8731
 3973SOL     OW23380   1.826   0.100  12.492  0.3082  0.1128 -0.9087
 3973SOL    HW123381   1.920   0.118  12.491 -0.4040  3.8837  2.5405
 3973SOL    HW223382   1.830   0.005  12.480  0.0713 -0.2566  1.8339
 3974SOL     OW23383   2.200   0.157   4.951  0.1709  0.1566  0.1168
 3974SOL    HW123384   2.120   0.162   5.003 -0.1105  1.2766 -0.4311
 3974SOL    HW223385   2.163   0.127   4.868 -0.6196  0.8555  0.2223
 3975SOL     OW23386   1.401   2.614   6.951 -0.0589  0.2655 -0.3165
 3975SOL    HW123387   1.415   2.703   6.917  0.5710 -0.4172 -1.8436
 3975SOL    HW223388   1.318   2.617   6.998  0.9146  0.5861  1.3968
 3976SOL     OW23389   0.168   1.443  17.573 -0.1853 -0.2976 -0.5345
 3976SOL    HW123390   0.094   1.420  17.629  0.4037 -0.6065  0.1139
 3976SOL    HW223391   0.232   1.460  17.641 -0.5410 -1.0361 -0.0096
 3977SOL     OW23392   2.767   1.588  11.587  0.5868 -0.4040  0.1088
 3977SOL    HW123393   2.813   1.521  11.535  1.6287  0.0149  0.5138
 3977SOL    HW223394   2.840   1.631  11.630  0.0323  0.3965  0.2428
 3978SOL     OW23395   1.906   3.233   5.604 -0.0666 -0.7484  0.1721
 3978SOL    HW123396   1.818   3.260   5.579 -0.5242  0.4095  3.0204
 3978SOL    HW223397   1.943   3.315   5.638  0.5824 -1.2944  0.7896
 3979SOL     OW23398   4.236   3.760   2.151 -0.8077 -0.2844 -0.4052
 3979SOL    HW123399   4.183   3.761   2.072 -0.0273  0.7117 -0.9179
 3979SOL    HW223400   4.304   3.696   2.129  1.7871  2.2738  0.1247
 3980SOL     OW23401   0.077   1.019   8.878 -0.7146  0.0191  0.3094
 3980SOL    HW123402   0.043   0.970   8.802 -1.5097 -1.8649  1.8857
 3980SOL    HW223403   4.713   1.060   8.901 -1.1311 -0.0729 -1.0363
 3981SOL     OW23404   2.221   2.220  14.482 -0.6408 -0.0825 -0.2564
 3981SOL    HW123405   2.204   2.286  14.549 -1.6218  0.8259 -1.4209
 3981SOL    HW223406   2.203   2.281  14.412  0.9815  0.0952 -0.5202
 3982SOL     OW23407   2.845   3.003   5.599 -0.4064  0.6198 -0.2369
 3982SOL    HW123408   2.881   2.917   5.576 -2.1060 -0.0007 -0.6403
 3982SOL    HW223409   2.777   2.967   5.656  0.0022 -0.3101 -0.3419
 3983SOL     OW23410   3.538   4.370  17.029  0.3055  0.0093  0.5911
 3983SOL    HW123411   3.458   4.318  17.020  0.4171 -0.3256  1.4975
 3983SOL    HW223412   3.568   4.371  16.938 -1.0196  1.5215  0.1686
 3984SOL     OW23413   4.206   2.065   7.980 -0.0896  0.5596  0.2472
 3984SOL    HW123414   4.215   2.153   8.014  0.5643  0.6764 -0.2210
 3984SOL    HW223415   4.274   2.025   8.035 -1.2493  0.1290  1.3559
 3985SOL     OW23416   3.081   2.458   7.197 -0.2786  0.3485 -0.1638
 3985SOL    HW123417   3.138   2.397   7.149 -0.7547 -0.8589  0.8239
 3985SOL    HW223418   3.114   2.548   7.198  1.7531 -0.3739 -0.5654
 3986SOL     OW23419   3.523   3.086   1.904  0.0306 -0.1884  0.7248
 3986SOL    HW123420   3.457   3.020   1.923 -1.2083  0.4996 -1.1564
 3986SOL    HW223421   3.570   3.022   1.850 -0.4012  2.3820 -2.7100
 3987SOL     OW23422   2.052   0.155   3.587  0.6261 -0.0020  0.2881
 3987SOL    HW123423   1.958   0.170   3.579  0.5329 -0.4357  0.5608
 3987SOL    HW223424   2.078   0.191   3.672  2.1690 -0.0577 -0.1519
 3988SOL     OW23425   0.255   3.186   2.458 -0.6906  0.3749 -0.5442
 3988SOL    HW123426   0.205   3.108   2.482 -3.4042  2.5405  0.7319
 3988SOL    HW223427   0.192   3.229   2.400 -1.9614  1.2587  1.4701
 3989SOL     OW23428   3.300   0.128   9.318 -0.3753 -0.5425  0.2143
 3989SOL    HW123429   3.229   0.168   9.368 -1.0697  0.4543 -1.5477
 3989SOL    HW223430   3.349   0.197   9.274 -1.6719 -0.1396 -0.6080
 3990SOL     OW23431   1.142   2.069   8.175  0.7137  0.0399 -0.0391
 3990SOL    HW123432   1.135   2.050   8.081 -1.7377  1.2748 -0.1113
 3990SOL    HW223433   1.155   1.978   8.200  1.5577 -0.0646 -0.9034
 3991SOL     OW23434   0.038   0.920  11.836 -0.4364  0.1516  0.4504
 3991SOL    HW123435   0.009   0.888  11.921 -2.0019 -0.1358 -0.2054
 3991SOL    HW223436   4.672   0.912  11.793  1.5382 -0.5052 -3.3794
 3992SOL     OW23437   2.107   4.443  14.462 -0.5325 -0.1515  0.1807
 3992SOL    HW123438   2.066   4.483  14.385  4.0248  2.9579 -0.6323
 3992SOL    HW223439   2.133   4.356  14.432  0.7115  1.1677 -2.5474
 3993SOL     OW23440   4.704   3.753   7.276  0.1491  0.3457  0.0143
 3993SOL    HW123441   4.630   3.812   7.293 -0.6451 -1.0122  1.2446
 3993SOL    HW223442   0.056   3.817   7.284  1.3700 -1.3320  2.4084
 3994SOL     OW23443   4.550   3.590   3.998  0.1931 -0.1010  0.4093
 3994SOL    HW123444   4.491   3.579   3.923  0.9382 -2.0045  0.1100
 3994SOL    HW223445   4.575   3.498   4.009  0.8408  0.0398  0.0539
 3995SOL     OW23446   0.768   2.858  12.348 -0.1971  0.0126 -0.2167
 3995SOL    HW123447   0.711   2.781  12.351 -0.6117  0.2627 -1.7809
 3995SOL    HW223448   0.707   2.932  12.344  0.2737  0.3178 -1.8599
 3996SOL     OW23449   2.544   4.689  16.877  0.4245  0.0898 -0.0642
 3996SOL    HW123450   2.582   0.019  16.804 -0.4588  0.5749 -0.1953
 3996SOL    HW223451   2.618   4.705  16.936  0.3977  1.1357 -0.3097
 3997SOL     OW23452   1.521   0.693  17.397 -0.4416  0.1113 -0.4393
 3997SOL    HW123453   1.435   0.689  17.355 -1.7500 -1.0549  2.3082
 3997SOL    HW223454   1.522   0.603  17.432 -0.1041  0.5845  0.7671
 3998SOL     OW23455   1.041   4.547  11.646  0.0801 -0.0154 -0.1603
 3998SOL    HW123456   1.010   4.457  11.652 -1.0431  0.4757  1.2650
 3998SOL    HW223457   1.125   4.533  11.602 -0.6682  0.7443 -1.8613
 3999SOL     OW23458   0.513   3.482   7.420  0.2532 -0.6211  0.6157
 3999SOL    HW123459   0.491   3.507   7.331 -0.3927 -2.0577  0.3871
 3999SOL    HW223460   0.592   3.536   7.426 -0.2072  0.0114  0.9921
 4000SOL     OW23461   1.150   4.432  16.280 -0.1197  0.0853 -0.6422
 4000SOL    HW123462   1.205   4.432  16.358  1.1725 -0.5099 -1.5553
 4000SOL    HW223463   1.190   4.506  16.235  0.7776 -0.6661 -1.0696
 4001SOL     OW23464   4.206   4.036   5.008 -0.1387 -0.2202 -0.0258
 4001SOL    HW123465   4.112   4.037   5.023  0.1394 -0.2705  1.6516
 4001SOL    HW223466   4.204   4.061   4.915  0.3490  0.9358  0.2773
 4002SOL     OW23467   1.636   4.031  10.028  0.5107  0.1268 -0.0682
 4002SOL    HW123468   1.666   3.999  10.113  0.9176 -1.3770 -0.7777
 4002SOL    HW223469   1.561   4.086  10.051  1.3922  0.8081  1.1488
 4003SOL     OW23470   2.526   3.046   3.312  0.5955  0.1327 -0.4823
 4003SOL    HW123471   2.565   2.962   3.290  0.8125 -0.2929  1.5234
 4003SOL    HW223472   2.449   3.011   3.358 -0.9784  1.4340 -2.1263
 4004SOL     OW23473   3.657   4.582   1.449 -0.4987 -0.2210 -0.0272
 4004SOL    HW123474   3.611   4.502   1.473  0.2639 -1.0073 -1.1840
 4004SOL    HW223475   3.748   4.556   1.466 -0.4211  0.2401  0.2812
 4005SOL     OW23476   0.077   3.614   8.994 -0.3006 -0.3842 -0.3998
 4005SOL    HW123477   0.036   3.625   9.079  2.8859 -0.9872  1.2088
 4005SOL    HW223478   0.003   3.625   8.933 -0.8862 -2.2803 -0.0260
 4006SOL     OW23479   1.958   4.432   7.303  0.4487 -0.0944 -0.2593
 4006SOL    HW123480   2.020   4.503   7.286  0.2070  0.1847  0.0151
 4006SOL    HW223481   1.951   4.404   7.212 -0.6408 -0.0043 -0.2021
 4007SOL     OW23482   1.514   3.521   6.751 -0.4096  0.0656 -0.1031
 4007SOL    HW123483   1.475   3.434   6.737  0.7425  0.0426 -3.2250
 4007SOL    HW223484   1.455   3.587   6.715  0.5967  1.3143  0.5408
 4008SOL     OW23485   3.911   3.488  17.448  0.2477  0.7913  0.5149
 4008SOL    HW123486   3.832   3.531  17.480 -2.4580 -2.3329 -1.8419
 4008SOL    HW223487   3.977   3.552  17.477  0.4442 -0.0747  1.9735
 4009SOL     OW23488   3.234   1.959   3.368 -0.2862 -0.5496  0.0470
 4009SOL    HW123489   3.258   1.886   3.310 -1.1274 -0.1308 -0.8399
 4009SOL    HW223490   3.157   1.991   3.320  1.3496 -0.4280 -2.5501
 4010SOL     OW23491   2.166   0.271  15.793 -0.8751  0.2316 -1.0205
 4010SOL    HW123492   2.088   0.323  15.816  0.0330  1.0804  0.1247
 4010SOL    HW223493   2.237   0.335  15.795  0.2126 -0.9529 -2.0081
 4011SOL     OW23494   1.536   4.025   8.336 -0.7104 -0.3842 -0.0581
 4011SOL    HW123495   1.500   3.941   8.309 -0.9232  0.0769 -1.1966
 4011SOL    HW223496   1.625   4.003   8.364  0.2803  1.4102 -1.8898
 4012SOL     OW23497   0.264   2.262   3.568 -0.1119  0.5431 -0.5877
 4012SOL    HW123498   0.340   2.320   3.564 -1.5611  2.5161  0.1202
 4012SOL    HW223499   0.195   2.329   3.574 -0.1968  0.6727 -3.3175
 4013SOL     OW23500   4.317   0.635   4.976  0.0246 -0.6034  0.0454
 4013SOL    HW123501   4.273   0.654   5.059 -0.4260  3.9704 -1.2029
 4013SOL    HW223502   4.345   0.545   4.989 -2.1241 -1.2853 -0.0556
 4014SOL     OW23503   0.579   1.952  16.735  0.1645  0.1329  0.0900
 4014SOL    HW123504   0.486   1.941  16.718  0.0474  1.3213 -0.0226
 4014SOL    HW223505   0.596   1.958  16.640 -1.8788 -1.9524 -0.3893
 4015SOL     OW23506   1.147   2.395   9.046  0.0287  0.2753 -0.1302
 4015SOL    HW123507   1.100   2.467   9.088  0.1592  0.7872 -0.8605
 4015SOL    HW223508   1.083   2.349   8.992  0.9707 -1.8492  0.5415
 4016SOL     OW23509   0.059   4.666  10.359 -0.2756  0.2152 -0.0857
 4016SOL    HW123510   4.700   4.619  10.385 -0.3203  0.9866  1.1772
 4016SOL    HW223511   0.091   4.610  10.288 -1.4736 -0.2327 -0.2614
 4017SOL     OW23512   2.913   2.228   3.665 -0.1281 -0.1590 -0.4401
 4017SOL    HW123513   2.990   2.174   3.649  0.9221  1.6747 -1.5010
 4017SOL    HW223514   2.946   2.311   3.631  1.2120 -0.3898  0.3264
 4018SOL     OW23515   0.440   4.435   4.620  0.3924  0.6687 -0.2296
 4018SOL    HW123516   0.472   4.515   4.579  3.5851  0.6424  2.2463
 4018SOL    HW223517   0.446   4.371   4.550  2.5882  3.0576 -2.1926
 4019SOL     OW23518   3.079   0.454   4.682  0.0199 -0.5082  0.3764
 4019SOL    HW123519   3.065   0.382   4.621  1.4740 -0.2658 -0.2534
 4019SOL    HW223520   3.138   0.411   4.745 -0.8103 -0.0726  1.4461
 4020SOL     OW23521   0.789   1.395   8.777  0.2572  0.3138 -0.1589
 4020SOL    HW123522   0.740   1.437   8.706  0.5562  1.6308  0.4166
 4020SOL    HW223523   0.777   1.301   8.759  0.1427  0.0376  1.3605
 4021SOL     OW23524   1.296   4.396   7.172 -0.1670  0.1672  0.0434
 4021SOL    HW123525   1.341   4.329   7.223 -0.0511 -0.6835 -1.1609
 4021SOL    HW223526   1.360   4.462   7.146 -0.0519 -0.4785 -1.3172
 4022SOL     OW23527   1.513   2.241   7.854  0.1347  0.1167  0.1599
 4022SOL    HW123528   1.604   2.240   7.824 -0.2648  0.7859 -1.0500
 4022SOL    HW223529   1.523   2.292   7.934 -0.7189 -0.0065  0.3403
 4023SOL     OW23530   0.264   1.409  10.721 -0.1736 -0.1532  0.1601
 4023SOL    HW123531   0.290   1.450  10.638  0.1301  2.9546  1.8033
 4023SOL    HW223532   0.269   1.319  10.688  0.2706 -0.3632  0.7969
 4024SOL     OW23533   1.217   4.482   5.521  0.1852 -0.0854  0.1194
 4024SOL    HW123534   1.184   4.543   5.587  2.2837 -0.7286  1.7829
 4024SOL    HW223535   1.140   4.462   5.469 -0.9503  2.8100  0.7170
 4025SOL     OW23536   0.158   1.670   7.956  1.0519 -0.5367 -0.6845
 4025SOL    HW123537   0.083   1.665   7.897 -1.3557  0.4086  2.3045
 4025SOL    HW223538   0.218   1.708   7.892  0.2769  2.4631  0.3991
 4026SOL     OW23539   0.504   1.945   0.097  0.1758  0.0496  0.0411
 4026SOL    HW123540   0.494   1.973   0.006  1.2700 -4.0096 -1.3132
 4026SOL    HW223541   0.551   2.021   0.132  0.8344  0.1278 -1.0155
 4027SOL     OW23542   2.391   0.748   8.518 -0.5312  0.3172 -0.3826
 4027SOL    HW123543   2.343   0.794   8.588  0.4946 -1.2710  1.3699
 4027SOL    HW223544   2.432   0.684   8.577 -1.2474 -0.0236 -0.2579
 4028SOL     OW23545   1.028   3.517   7.112 -0.1678 -0.4258 -1.0024
 4028SOL    HW123546   1.060   3.590   7.164 -0.2380 -0.4834 -0.8792
 4028SOL    HW223547   1.109   3.496   7.066  0.3476  0.9854 -0.7559
 4029SOL     OW23548   3.388   1.385   1.643 -0.1369  0.2354  0.2337
 4029SOL    HW123549   3.401   1.294   1.616  0.1188 -0.5800  3.1003
 4029SOL    HW223550   3.296   1.401   1.622  0.1347 -1.1008 -1.9706
 4030SOL     OW23551   4.280   1.476   2.785  0.3014  0.5347  0.1111
 4030SOL    HW123552   4.251   1.540   2.721 -0.3217  1.2089  1.0806
 4030SOL    HW223553   4.312   1.538   2.850  0.0035  0.4002  0.3812
 4031SOL     OW23554   4.479   3.940   9.214  0.1071 -0.0573  0.5259
 4031SOL    HW123555   4.456   3.960   9.123  2.0143 -0.9678 -0.1511
 4031SOL    HW223556   4.407   3.986   9.257 -1.3445 -1.8952  0.0248
 4032SOL     OW23557   0.062   1.207   5.372 -0.3633  0.0544 -0.6625
 4032SOL    HW123558   0.078   1.144   5.301 -2.2505 -1.5664  0.3535
 4032SOL    HW223559   4.689   1.185   5.389 -1.0834  3.1345 -0.6366
 4033SOL     OW23560   2.068   0.008   4.712 -0.1494  0.5179  0.3492
 4033SOL    HW123561   2.030   4.717   4.624  0.1105  0.6281  0.2263
 4033SOL    HW223562   1.991   4.714   4.767 -0.9307 -1.3778 -1.1972
 4034SOL     OW23563   2.633   2.289   9.536  0.0550  0.7288 -0.0645
 4034SOL    HW123564   2.570   2.351   9.572 -0.8615  0.0620 -0.5219
 4034SOL    HW223565   2.698   2.342   9.489 -0.8249  2.3104  0.4930
 4035SOL     OW23566   3.993   0.264   6.400 -0.2840  0.0694 -0.5522
 4035SOL    HW123567   4.063   0.272   6.335 -0.4813  1.3501 -0.6080
 4035SOL    HW223568   3.929   0.326   6.364 -0.1429 -0.0576 -1.0199
 4036SOL     OW23569   4.203   1.684   3.271 -0.3818 -0.3515  0.2587
 4036SOL    HW123570   4.130   1.621   3.269 -3.6783  3.5004  0.3831
 4036SOL    HW223571   4.201   1.704   3.177  1.0240  0.3560  0.3836
 4037SOL     OW23572   2.511   0.967   3.957  0.0484  0.3242  0.3076
 4037SOL    HW123573   2.517   0.933   3.868 -1.3598  1.5354 -0.2593
 4037SOL    HW223574   2.600   1.001   3.945  0.3880 -0.4473  0.6826
 4038SOL     OW23575   1.737   1.148   7.519 -0.1326  0.5270  0.4886
 4038SOL    HW123576   1.793   1.186   7.587  0.4988  0.4375  0.0177
 4038SOL    HW223577   1.652   1.146   7.562  0.0322  2.5280  0.9142
 4039SOL     OW23578   1.812   0.609   8.870  0.3747  0.0236  0.1769
 4039SOL    HW123579   1.870   0.532   8.869  1.2027  0.6761 -1.0663
 4039SOL    HW223580   1.750   0.582   8.939 -2.4410 -0.3559 -2.5038
 4040SOL     OW23581   0.082   4.556  16.013  0.0546 -0.3438  0.3698
 4040SOL    HW123582   0.150   4.538  16.078  0.3959 -3.8311 -1.0100
 4040SOL    HW223583   0.105   4.645  15.985  0.7033 -0.6330  0.0195
 4041SOL     OW23584   2.688   0.091   4.289  0.3613  0.5596 -0.2625
 4041SOL    HW123585   2.686   0.120   4.380 -3.3538 -0.5424 -0.0213
 4041SOL    HW223586   2.663   4.718   4.289  0.9111  0.3945 -2.6487
 4042SOL     OW23587   1.416   1.330   8.293  0.0543 -0.3403  0.3272
 4042SOL    HW123588   1.412   1.425   8.282  1.2769  0.0359  3.0854
 4042SOL    HW223589   1.356   1.318   8.367  0.1108 -1.6505  0.1712
 4043SOL     OW23590   3.563   4.461   8.418 -0.7385  1.0153 -0.2800
 4043SOL    HW123591   3.521   4.419   8.343 -2.0638  2.6128 -0.4364
 4043SOL    HW223592   3.528   4.424   8.498  0.1251  2.7622  0.9061
 4044SOL     OW23593   2.159   1.573   8.740 -0.8624 -0.1181 -0.0572
 4044SOL    HW123594   2.208   1.517   8.801  1.6071 -0.1098 -2.0383
 4044SOL    HW223595   2.219   1.648   8.737 -0.1410 -0.6373  1.1865
 4045SOL     OW23596   3.270   3.607   1.764  0.0626  0.6958 -0.2455
 4045SOL    HW123597   3.223   3.524   1.774  0.6000  0.3092 -0.8990
 4045SOL    HW223598   3.267   3.642   1.853 -1.6240 -1.5645  0.5951
 4046SOL     OW23599   1.206   4.184   6.340 -0.6245 -0.2306  0.3282
 4046SOL    HW123600   1.252   4.253   6.291 -1.5834  0.3198  0.1947
 4046SOL    HW223601   1.270   4.113   6.340  1.2193  1.4225  0.9262
 4047SOL     OW23602   4.187   2.734   4.855 -1.1787  0.2653  0.0677
 4047SOL    HW123603   4.209   2.820   4.890  2.3235 -0.2403 -0.9257
 4047SOL    HW223604   4.149   2.752   4.769  0.3599 -0.5649 -0.7902
 4048SOL     OW23605   4.114   2.276   3.882  0.0909  0.4905  0.6941
 4048SOL    HW123606   4.026   2.264   3.846  0.5258 -2.2817  0.5722
 4048SOL    HW223607   4.161   2.220   3.821 -1.6877 -0.0887 -0.1394
 4049SOL     OW23608   3.207   1.972  15.542  0.5052  0.6902  0.2541
 4049SOL    HW123609   3.213   1.877  15.534  0.7144  0.7782 -0.6159
 4049SOL    HW223610   3.141   1.988  15.474 -1.0832 -1.7992  1.2199
 4050SOL     OW23611   3.969   0.366   9.068  0.4121 -0.4088  0.4386
 4050SOL    HW123612   4.055   0.391   9.101  0.6833 -1.3474  0.4476
 4050SOL    HW223613   3.952   0.447   9.019 -1.4867 -1.0303  0.0542
 4051SOL     OW23614   2.875   1.772   7.705 -0.1813  0.1816  0.7618
 4051SOL    HW123615   2.800   1.828   7.682  0.1361  0.4729  0.4516
 4051SOL    HW223616   2.939   1.815   7.650 -1.7591 -0.5422 -1.6305
 4052SOL     OW23617   2.415   4.086   8.367  0.0249 -0.0743 -0.0450
 4052SOL    HW123618   2.370   4.170   8.367  0.1703 -0.0022 -1.3759
 4052SOL    HW223619   2.348   4.022   8.393 -0.5250  0.1624 -0.8932
 4053SOL     OW23620   2.222   3.355   1.612  0.6330 -0.3448 -0.2396
 4053SOL    HW123621   2.305   3.365   1.566  0.4645  0.6444 -0.3357
 4053SOL    HW223622   2.165   3.386   1.542 -0.7723  0.3883  1.2122
 4054SOL     OW23623   4.301   3.692   5.482 -0.0930 -0.7163  0.2628
 4054SOL    HW123624   4.227   3.739   5.520 -0.4759 -0.0088 -1.3854
 4054SOL    HW223625   4.314   3.624   5.549 -3.9586 -0.4462  1.2793
 4055SOL     OW23626   1.506   3.509   3.208 -0.4550 -0.4480  0.2016
 4055SOL    HW123627   1.424   3.464   3.231 -0.9029 -0.8556 -2.1468
 4055SOL    HW223628   1.559   3.432   3.189 -1.6637 -0.8261 -1.6619
 4056SOL     OW23629   0.408   1.249   1.185 -0.2445 -0.0115 -0.5169
 4056SOL    HW123630   0.316   1.273   1.179  0.3581  2.7234  1.1327
 4056SOL    HW223631   0.411   1.163   1.143  0.2376 -0.0261 -0.4607
 4057SOL     OW23632   2.376   3.671   2.129  0.0064  0.0459  0.3754
 4057SOL    HW123633   2.366   3.766   2.120 -0.3625 -0.0649 -0.3961
 4057SOL    HW223634   2.400   3.665   2.221  3.0786  0.8547 -0.3680
 4058SOL     OW23635   4.322   3.776   3.057 -0.0363  0.5419  0.5571
 4058SOL    HW123636   4.259   3.824   3.111 -1.6633 -0.0789 -0.7700
 4058SOL    HW223637   4.406   3.819   3.074  0.0875  0.5184  0.0163
 4059SOL     OW23638   3.469   2.567   6.392  0.3273 -0.3400  0.0945
 4059SOL    HW123639   3.474   2.652   6.348 -0.8502 -0.6862 -0.7079
 4059SOL    HW223640   3.430   2.597   6.474  0.0015  0.5410 -0.3821
 4060SOL     OW23641   1.541   0.202   3.410 -0.1318 -0.1989 -0.6335
 4060SOL    HW123642   1.484   0.125   3.410  0.3361 -0.5317 -3.3672
 4060SOL    HW223643   1.475   0.261   3.446 -0.2240 -0.9299  0.3962
 4061SOL     OW23644   2.364   0.802   6.780 -0.3305  0.4276  0.8647
 4061SOL    HW123645   2.311   0.879   6.801 -1.0537 -0.3730  1.9306
 4061SOL    HW223646   2.392   0.827   6.692  3.4183  0.1375  1.9691
 4062SOL     OW23647   1.816   4.169  11.249 -0.1645 -0.2200 -0.1438
 4062SOL    HW123648   1.836   4.142  11.339 -1.5041 -2.4344 -0.5243
 4062SOL    HW223649   1.864   4.252  11.244 -1.4895  0.5872  0.4097
 4063SOL     OW23650   3.672   3.140   8.649 -0.3459 -0.5136 -0.2086
 4063SOL    HW123651   3.707   3.122   8.737 -2.0126 -2.6163  0.0199
 4063SOL    HW223652   3.688   3.235   8.652 -0.7911 -0.5161  2.3723
 4064SOL     OW23653   4.600   0.340   5.603 -0.4397  0.9961  0.6694
 4064SOL    HW123654   4.644   0.416   5.567  0.4058  0.8335  1.3564
 4064SOL    HW223655   4.507   0.360   5.593 -1.0253 -1.2283  1.5255
 4065SOL     OW23656   2.097   2.977   8.596  0.2227  0.0045  0.0695
 4065SOL    HW123657   2.009   3.014   8.602  0.0403 -0.3908 -0.2152
 4065SOL    HW223658   2.079   2.885   8.614  2.1994 -0.5767 -0.9348
 4066SOL     OW23659   2.193   1.100  11.830 -0.4352  0.0434 -0.3909
 4066SOL    HW123660   2.245   1.025  11.858 -0.9219  0.0427  0.5116
 4066SOL    HW223661   2.209   1.112  11.736  1.1269 -0.4398 -0.1780
 4067SOL     OW23662   3.947   3.341   5.204 -0.0978 -0.4735 -0.1399
 4067SOL    HW123663   3.901   3.259   5.221 -0.4269 -0.0617  0.9083
 4067SOL    HW223664   3.975   3.304   5.119 -2.1965  0.9610 -1.4393
 4068SOL     OW23665   2.156   3.625  16.746 -0.1206  0.5047 -0.2890
 4068SOL    HW123666   2.078   3.582  16.780 -0.8473  0.0694 -2.5123
 4068SOL    HW223667   2.155   3.586  16.659 -0.6940  1.1688 -0.5791
 4069SOL     OW23668   0.905   3.502   9.244 -0.7035  0.1366  0.7047
 4069SOL    HW123669   0.999   3.495   9.264 -1.1871 -1.9186  2.1639
 4069SOL    HW223670   0.893   3.597   9.240  0.1795  0.2905  1.9403
 4070SOL     OW23671   1.471   1.291   3.028 -0.2140 -0.1061  0.0865
 4070SOL    HW123672   1.445   1.318   2.940  3.2566 -0.1755 -0.9643
 4070SOL    HW223673   1.526   1.362   3.061  0.2385 -1.0113  1.3086
 4071SOL     OW23674   2.496   2.419  13.789 -0.6427 -0.1336 -0.3158
 4071SOL    HW123675   2.525   2.450  13.874  0.9062  1.9766 -1.6459
 4071SOL    HW223676   2.551   2.343  13.771 -2.2956 -1.8056  1.6849
 4072SOL     OW23677   4.268   2.414   5.701 -0.0412 -0.0375 -0.2473
 4072SOL    HW123678   4.292   2.463   5.622  2.5164  0.3609  0.7706
 4072SOL    HW223679   4.329   2.341   5.707  0.2384  0.2416  0.2445
 4073SOL     OW23680   4.357   3.532   8.796 -0.7610  0.1767  0.3772
 4073SOL    HW123681   4.318   3.586   8.865 -0.7861  1.3066 -0.5353
 4073SOL    HW223682   4.332   3.582   8.719 -1.1367  0.0323  0.4061
 4074SOL     OW23683   2.661   4.456  14.528 -0.4364  0.1423  0.7377
 4074SOL    HW123684   2.612   4.513  14.587  0.0794  0.5264  0.7921
 4074SOL    HW223685   2.594   4.436  14.462 -0.0114  2.0969 -0.2905
 4075SOL     OW23686   4.165   0.906   9.416 -0.0744 -0.2662  0.0896
 4075SOL    HW123687   4.164   0.834   9.353 -2.3480  1.6290 -2.0251
 4075SOL    HW223688   4.157   0.985   9.363 -1.7660 -1.4084 -1.3762
 4076SOL     OW23689   0.341   0.930   0.707  0.2124 -0.1842  0.5386
 4076SOL    HW123690   0.379   0.879   0.635  0.4358  0.3329  0.2852
 4076SOL    HW223691   0.334   0.864   0.776  2.8740  0.6374  1.5569
 4077SOL     OW23692   0.596   2.832   8.043 -0.0097  0.0466 -0.1066
 4077SOL    HW123693   0.569   2.924   8.050 -0.7155 -0.0692 -1.3251
 4077SOL    HW223694   0.570   2.789   8.125 -3.2904  0.9801 -0.6419
 4078SOL     OW23695   0.007   4.265   0.878  0.7203  0.5342 -0.0011
 4078SOL    HW123696   0.042   4.214   0.952  0.7864  1.0255  0.3059
 4078SOL    HW223697   4.673   4.332   0.920  1.7474  1.3116  0.0741
 4079SOL     OW23698   2.463   2.514  16.717 -0.2488 -0.1346  0.4051
 4079SOL    HW123699   2.507   2.434  16.687  1.2154  1.7675 -2.6050
 4079SOL    HW223700   2.536   2.575  16.728 -1.9055  2.2361 -1.6124
 4080SOL     OW23701   3.412   2.360   3.549 -0.3441  0.4773  0.3872
 4080SOL    HW123702   3.470   2.398   3.615  0.1789 -0.7735  0.6544
 4080SOL    HW223703   3.417   2.267   3.572 -0.2131  1.2792  3.5133
 4081SOL     OW23704   2.525   4.258   4.714 -0.1428 -0.3688  0.5824
 4081SOL    HW123705   2.607   4.208   4.711 -0.4357 -0.8383  0.3817
 4081SOL    HW223706   2.496   4.242   4.804 -1.0215 -0.0416  0.3602
 4082SOL     OW23707   3.300   0.566   4.000 -0.3119 -0.2309 -0.4953
 4082SOL    HW123708   3.317   0.473   4.013  0.4668  0.1733  1.3974
 4082SOL    HW223709   3.213   0.569   3.959 -0.8404 -1.5874  0.5591
 4083SOL     OW23710   2.930   2.501  14.305  0.6098  0.8936  0.3481
 4083SOL    HW123711   3.016   2.528  14.272  0.0192 -1.2275 -2.9792
 4083SOL    HW223712   2.865   2.541  14.247  2.5869  0.3876 -2.2191
 4084SOL     OW23713   1.625   1.252   9.713  0.1375 -0.8301  0.4310
 4084SOL    HW123714   1.560   1.184   9.699 -0.1375 -0.4311 -0.2438
 4084SOL    HW223715   1.584   1.329   9.673 -0.6637 -1.5535 -0.1259
 4085SOL     OW23716   2.946   1.761   2.554  0.1784  0.1875 -0.3170
 4085SOL    HW123717   2.997   1.771   2.474  1.0459  0.6148  0.2903
 4085SOL    HW223718   3.016   1.733   2.612 -1.9342  0.7988  2.5333
 4086SOL     OW23719   0.990   3.407   4.856  0.1395  0.6407 -0.6400
 4086SOL    HW123720   1.012   3.324   4.813  0.5870  1.7289 -2.4841
 4086SOL    HW223721   1.007   3.375   4.945  0.8609  0.9617 -0.6637
 4087SOL     OW23722   4.493   0.760  16.315 -0.0377 -0.2807 -0.3581
 4087SOL    HW123723   4.438   0.681  16.320 -3.4669  2.0315 -1.7494
 4087SOL    HW223724   4.473   0.813  16.392 -2.0789  1.0002 -1.8055
 4088SOL     OW23725   0.967   0.755   3.924 -0.6200  0.7482 -0.3932
 4088SOL    HW123726   1.025   0.688   3.890  2.7059  2.6899  1.5187
 4088SOL    HW223727   0.940   0.807   3.848  1.7049  3.2993  0.5179
 4089SOL     OW23728   2.894   0.638   4.638  0.2131  0.1043 -0.2026
 4089SOL    HW123729   2.887   0.622   4.732 -0.1872 -0.2608 -0.2966
 4089SOL    HW223730   2.974   0.586   4.627  0.1090 -0.3133  1.0461
 4090SOL     OW23731   4.088   3.553   5.345  0.0404  0.0381 -0.3227
 4090SOL    HW123732   4.147   3.517   5.412 -1.6230 -0.8319  0.6530
 4090SOL    HW223733   4.047   3.479   5.301  0.9052 -1.2943  1.1191
 4091SOL     OW23734   3.331   4.197  10.989 -0.5135 -0.1160 -0.4795
 4091SOL    HW123735   3.380   4.279  10.980 -1.4209  0.3849 -0.8852
 4091SOL    HW223736   3.387   4.149  11.050 -2.0034 -0.0748  0.9290
 4092SOL     OW23737   4.666   1.256   6.340  0.4808  0.3643 -0.1449
 4092SOL    HW123738   4.692   1.348   6.346  1.6674  0.0146  0.0757
 4092SOL    HW223739   4.607   1.246   6.415 -1.5155  2.2584 -1.4888
 4093SOL     OW23740   0.464   1.925  12.135  0.1161  0.5744 -0.3053
 4093SOL    HW123741   0.541   1.964  12.094  1.2395 -1.0810  0.1921
 4093SOL    HW223742   0.492   1.833  12.135 -0.9397  0.2566  2.0393
 4094SOL     OW23743   3.060   1.476   6.343 -0.5008  0.1461 -0.1268
 4094SOL    HW123744   3.007   1.439   6.414  0.3745 -0.5682  0.1504
 4094SOL    HW223745   2.995   1.474   6.273 -1.3560  0.5349  0.6575
 4095SOL     OW23746   0.126   2.314  14.133  0.2081  0.2985 -0.1486
 4095SOL    HW123747   0.183   2.391  14.140  0.3323  0.2189 -0.2855
 4095SOL    HW223748   0.043   2.361  14.144 -0.1191 -0.6321  1.3716
 4096SOL     OW23749   1.193   3.400   7.600 -0.3164 -0.3053  0.2222
 4096SOL    HW123750   1.198   3.333   7.668  1.5132  0.9326  1.2908
 4096SOL    HW223751   1.167   3.482   7.641 -0.4968 -0.4930  0.4831
 4097SOL     OW23752   2.254   2.482  15.845 -0.5109  0.0313 -0.3535
 4097SOL    HW123753   2.332   2.467  15.898  0.1799 -0.0597 -1.3924
 4097SOL    HW223754   2.261   2.400  15.795 -1.2209  0.1685 -0.6777
 4098SOL     OW23755   1.370   1.026  17.133  0.5571  0.4000  0.0809
 4098SOL    HW123756   1.358   1.114  17.096 -0.6586 -0.3550 -1.3021
 4098SOL    HW223757   1.451   0.998  17.089  0.7141 -0.6398  1.0401
 4099SOL     OW23758   2.889   4.520   1.600 -0.0486 -0.1933 -0.1557
 4099SOL    HW123759   2.965   4.484   1.647 -0.5307  0.4146  1.0894
 4099SOL    HW223760   2.934   4.546   1.520 -1.1079 -1.2470 -1.0772
 4100SOL     OW23761   3.685   3.068  16.898  0.0829  0.3086 -0.1524
 4100SOL    HW123762   3.777   3.041  16.895 -0.4665 -1.6240  0.3800
 4100SOL    HW223763   3.678   3.108  16.812 -0.5099 -1.3766 -0.8860
 4101SOL     OW23764   0.550   1.272   4.123 -0.0210  0.1189  0.4164
 4101SOL    HW123765   0.627   1.263   4.179  0.4476  0.0952 -0.2429
 4101SOL    HW223766   0.483   1.310   4.180  0.6512 -0.3840  1.5425
 4102SOL     OW23767   2.510   2.516  11.088  0.5115 -0.0758  0.1574
 4102SOL    HW123768   2.453   2.560  11.151 -1.0709  0.2837 -1.5201
 4102SOL    HW223769   2.509   2.425  11.117  3.7694  0.5053  2.1249
 4103SOL     OW23770   3.417   4.129   4.387 -0.2856 -0.2667 -0.0578
 4103SOL    HW123771   3.476   4.054   4.385 -0.3725 -0.3073 -1.0231
 4103SOL    HW223772   3.354   4.103   4.319  1.0869  1.3097 -1.9460
 4104SOL     OW23773   3.535   0.017   9.777 -0.3288  0.2144 -0.0673
 4104SOL    HW123774   3.594   0.060   9.716  0.1515 -0.9140 -0.3921
 4104SOL    HW223775   3.453   0.060   9.751 -1.6657 -1.6788  1.0028
 4105SOL     OW23776   4.567   2.081  17.558  0.0717 -0.0725  0.6553
 4105SOL    HW123777   4.515   2.026  17.500 -1.2054  2.0734 -0.2321
 4105SOL    HW223778   4.646   2.089  17.505  0.2340  0.5091  0.9863
 4106SOL     OW23779   2.343   0.523   2.282 -0.2977 -0.0862 -0.1292
 4106SOL    HW123780   2.275   0.589   2.296 -1.0041 -0.8579  0.0857
 4106SOL    HW223781   2.410   0.568   2.334  1.2775  0.1288 -2.3597
 4107SOL     OW23782   4.659   2.551   4.073  0.4510 -0.4698  0.1193
 4107SOL    HW123783   4.704   2.549   4.158  1.5053 -0.9308 -0.4510
 4107SOL    HW223784   4.672   2.640   4.042  0.9740 -0.5047  0.2334
 4108SOL     OW23785   3.309   3.506   8.044  0.1426  0.6603 -0.2301
 4108SOL    HW123786   3.302   3.428   7.989  0.3148  1.0563 -0.8189
 4108SOL    HW223787   3.224   3.506   8.088  0.6100  0.6409  0.6673
 4109SOL     OW23788   1.667   4.096   7.481  0.0114 -0.1030  0.1710
 4109SOL    HW123789   1.714   4.178   7.495  2.0572 -0.9778 -1.5368
 4109SOL    HW223790   1.723   4.050   7.544  0.1365  0.2873  0.3424
 4110SOL     OW23791   0.592   4.249  12.010  0.3047 -0.1236  0.6655
 4110SOL    HW123792   0.500   4.234  12.033  0.0843  0.6428  0.2827
 4110SOL    HW223793   0.635   4.212  12.087  0.1631 -0.2455  0.6873
 4111SOL     OW23794   3.346   2.115  13.652 -0.3058  0.5133 -0.5778
 4111SOL    HW123795   3.331   2.202  13.690 -0.7174  0.8602 -1.5138
 4111SOL    HW223796   3.296   2.124  13.570  1.1504 -0.0926 -1.5392
 4112SOL     OW23797   3.434   3.531   6.319 -0.5884 -0.2182 -0.2529
 4112SOL    HW123798   3.362   3.593   6.302 -1.5793 -1.5173 -0.8413
 4112SOL    HW223799   3.417   3.481   6.239  0.3422 -1.8482  0.5805
 4113SOL     OW23800   1.753   4.058   3.836 -0.0523  0.1857 -0.1900
 4113SOL    HW123801   1.736   4.096   3.922 -0.1431 -0.6404  0.1583
 4113SOL    HW223802   1.826   4.001   3.861  0.5244  0.7179 -0.6405
 4114SOL     OW23803   1.175   1.021   3.738  0.0475  0.1450 -0.7981
 4114SOL    HW123804   1.124   1.101   3.746  1.7953  1.1742  0.2015
 4114SOL    HW223805   1.215   1.032   3.652 -1.3522  3.6586 -0.9807
 4115SOL     OW23806   1.334   2.589   4.824  0.2972  0.3909  0.3278
 4115SOL    HW123807   1.352   2.532   4.750  1.7663  0.1155  0.8873
 4115SOL    HW223808   1.324   2.670   4.775 -0.4116  1.7194  2.6438
 4116SOL     OW23809   4.461   2.370  16.785  0.2100 -0.0320  0.3715
 4116SOL    HW123810   4.448   2.282  16.748  0.9993  0.8653 -2.0187
 4116SOL    HW223811   4.488   2.349  16.874 -0.5491  1.4226  0.9344
 4117SOL     OW23812   4.363   1.068   0.586 -0.3889  0.7268  0.2827
 4117SOL    HW123813   4.282   1.073   0.636  1.4862 -1.6435  3.5128
 4117SOL    HW223814   4.400   0.998   0.638 -0.8358  0.8803  0.8098
 4118SOL     OW23815   0.521   0.508   5.188  0.5963 -0.3847 -0.5990
 4118SOL    HW123816   0.477   0.446   5.129 -0.4016  1.3013 -1.6373
 4118SOL    HW223817   0.605   0.464   5.201  1.2129  0.9740  0.0099
 4119SOL     OW23818   3.397   4.552   4.041 -0.0182  0.2433 -0.2542
 4119SOL    HW123819   3.357   4.608   3.975 -0.3697  0.3163  0.0215
 4119SOL    HW223820   3.382   4.467   3.999  0.7662  0.3965 -0.8458
 4120SOL     OW23821   2.699   1.797   4.232  0.0884 -0.1073 -0.1669
 4120SOL    HW123822   2.613   1.816   4.196  0.6246  0.4612 -1.1351
 4120SOL    HW223823   2.685   1.805   4.327  0.8240  1.5743 -0.1903
 4121SOL     OW23824   2.231   2.150   6.466  0.3282  0.2994 -0.1770
 4121SOL    HW123825   2.151   2.172   6.515  0.4032  0.1831 -0.0033
 4121SOL    HW223826   2.261   2.235   6.435  1.8802 -0.4002 -0.5617
 4122SOL     OW23827   1.513   1.303   7.020 -0.0861  0.4991 -0.2228
 4122SOL    HW123828   1.554   1.284   7.104  1.3898 -0.0625 -1.0740
 4122SOL    HW223829   1.440   1.241   7.016  1.4303 -1.3832  1.2417
 4123SOL     OW23830   1.079   0.274   7.784 -0.1899  0.0377  0.5267
 4123SOL    HW123831   1.108   0.268   7.693 -0.8076 -1.5385  0.4242
 4123SOL    HW223832   1.154   0.316   7.827  0.3026 -0.2202 -0.0686
 4124SOL     OW23833   1.398   1.979   7.298 -0.6611  0.8567 -0.5811
 4124SOL    HW123834   1.349   1.944   7.373  2.8085 -1.0556  0.7547
 4124SOL    HW223835   1.373   2.071   7.290  0.9684  1.2763 -0.6734
 4125SOL     OW23836   0.489   3.310   6.213 -0.0142  0.6134  0.2083
 4125SOL    HW123837   0.525   3.347   6.294  0.2730 -0.5304  0.6066
 4125SOL    HW223838   0.523   3.221   6.219  1.4647  1.0014 -2.4656
 4126SOL     OW23839   1.868   2.152   7.958 -0.9020  0.3405  0.0743
 4126SOL    HW123840   1.940   2.203   7.921 -0.9345 -0.7744 -1.4990
 4126SOL    HW223841   1.867   2.070   7.909  2.8029 -0.1654  0.7743
 4127SOL     OW23842   2.407   3.680   2.767 -0.2971 -0.6795 -0.2780
 4127SOL    HW123843   2.487   3.716   2.728 -0.1544  0.0505  0.6790
 4127SOL    HW223844   2.349   3.755   2.777  2.2456  1.1977  0.4552
 4128SOL     OW23845   0.812   4.556   3.799 -0.0877  0.0536  1.5403
 4128SOL    HW123846   0.878   4.625   3.799 -1.6983  1.6378 -0.6326
 4128SOL    HW223847   0.741   4.614   3.827  1.1021  1.7724  1.0197
 4129SOL     OW23848   2.486   3.423   0.403  0.6053 -0.4053  0.4510
 4129SOL    HW123849   2.416   3.487   0.414  0.9535  0.0417  0.0144
 4129SOL    HW223850   2.464   3.383   0.319  0.3698  1.1924 -0.2284
 4130SOL     OW23851   2.893   2.694   6.067  0.1507 -0.1213  0.3748
 4130SOL    HW123852   2.963   2.737   6.017 -0.4311  1.2594  0.7324
 4130SOL    HW223853   2.925   2.713   6.156 -0.6133 -0.9208  0.8218
 4131SOL     OW23854   2.643   1.187   2.324 -0.0041 -0.9673 -0.0733
 4131SOL    HW123855   2.580   1.207   2.393  2.1167 -0.8134  1.8337
 4131SOL    HW223856   2.645   1.264   2.266  0.8575  0.1191  1.4113
 4132SOL     OW23857   1.636   0.044   2.043  0.4117 -0.5409 -0.0605
 4132SOL    HW123858   1.661   0.136   2.040 -1.6205 -0.0248 -1.2595
 4132SOL    HW223859   1.562   0.039   2.104  1.4547  0.5615  1.2884
 4133SOL     OW23860   1.345   2.895  16.912  0.2571 -0.5694  0.2695
 4133SOL    HW123861   1.409   2.862  16.849 -2.0061 -2.7933 -0.8240
 4133SOL    HW223862   1.365   2.848  16.993 -3.0257 -2.3183  0.0627
 4134SOL     OW23863   2.075   3.621   3.746  0.1005 -0.6303  0.3745
 4134SOL    HW123864   2.020   3.698   3.763  0.4838 -0.6172  1.5632
 4134SOL    HW223865   2.032   3.547   3.789 -2.2993  1.0245  0.8724
 4135SOL     OW23866   0.279   3.202   1.907  0.3276  0.5893 -0.6443
 4135SOL    HW123867   0.245   3.191   1.819 -0.0409  0.2010 -0.4533
 4135SOL    HW223868   0.359   3.254   1.896  0.5884  0.3181 -0.0442
 4136SOL     OW23869   3.112   0.140   4.258 -0.2010 -0.1063  0.8434
 4136SOL    HW123870   3.197   0.184   4.252 -0.0885 -0.6269 -1.1925
 4136SOL    HW223871   3.061   0.210   4.298 -0.6806 -0.8311  1.5089
 4137SOL     OW23872   4.600   4.372   2.100  1.0635  0.0752  0.8733
 4137SOL    HW123873   4.609   4.284   2.136  0.1107  0.1032  1.1872
 4137SOL    HW223874   4.543   4.357   2.024  1.9201  0.1713  0.2004
 4138SOL     OW23875   4.000   0.369   7.050  0.5449 -0.1605 -0.1014
 4138SOL    HW123876   4.082   0.320   7.042  0.5923 -0.3067  1.2101
 4138SOL    HW223877   4.022   0.428   7.122 -1.3318 -0.3356  0.5958
 4139SOL     OW23878   0.550   0.707   8.161 -0.3333  0.0144 -1.2646
 4139SOL    HW123879   0.485   0.701   8.092 -1.0724 -1.2914 -0.4691
 4139SOL    HW223880   0.626   0.707   8.102  2.2243  2.5100  2.0125
 4140SOL     OW23881   0.089   4.021  15.428  0.0535 -0.1859 -0.0109
 4140SOL    HW123882   0.165   4.051  15.378 -1.3525  1.4414 -1.1751
 4140SOL    HW223883   0.030   4.097  15.428 -0.3051 -0.4749 -1.2606
 4141SOL     OW23884   1.901   2.470   4.354  0.7618 -0.2697 -0.1036
 4141SOL    HW123885   1.899   2.376   4.337 -1.5684 -0.2636  0.1207
 4141SOL    HW223886   1.887   2.496   4.263 -2.7003 -0.2840  0.4211
 4142SOL     OW23887   1.185   2.649  16.388 -0.4886  0.5234 -0.3033
 4142SOL    HW123888   1.157   2.686  16.304  1.3756  4.3670  0.7350
 4142SOL    HW223889   1.196   2.556  16.370 -0.6909  0.5774 -0.7089
 4143SOL     OW23890   0.952   3.068   5.908  0.3940 -0.3182  0.3808
 4143SOL    HW123891   0.918   3.065   5.819  1.2608 -0.4526  0.0566
 4143SOL    HW223892   1.045   3.049   5.898  1.0910  1.6520  3.0425
 4144SOL     OW23893   4.038   2.612   6.045  0.6397  0.2847  0.5269
 4144SOL    HW123894   3.990   2.672   5.988 -2.8340 -0.9548  2.0769
 4144SOL    HW223895   3.987   2.533   6.022  1.9639 -0.0687 -1.1679
 4145SOL     OW23896   3.224   1.603   2.182 -0.2370  0.5897 -0.5097
 4145SOL    HW123897   3.259   1.633   2.098  1.7289 -0.6735 -0.1321
 4145SOL    HW223898   3.240   1.509   2.180  0.3366  0.6598  0.9797
 4146SOL     OW23899   0.651   3.280   6.464  0.0275 -0.3479  0.0492
 4146SOL    HW123900   0.661   3.355   6.522 -3.6808  0.1059  0.0781
 4146SOL    HW223901   0.564   3.252   6.492 -0.9229  2.1412 -0.4672
 4147SOL     OW23902   4.048   0.943   7.304  0.1805  0.5108 -0.0908
 4147SOL    HW123903   4.085   1.023   7.267  1.1365 -0.7931 -2.0088
 4147SOL    HW223904   3.970   0.938   7.248  1.0066  1.4192 -1.3219
 4148SOL     OW23905   3.896   4.103   3.429  0.1758 -0.5292  0.0710
 4148SOL    HW123906   3.843   4.024   3.417 -2.8463  1.4013  0.6992
 4148SOL    HW223907   3.983   4.068   3.415  0.4893  0.2124  0.1560
 4149SOL     OW23908   2.070   2.099   5.649 -0.1768  0.0765 -0.3602
 4149SOL    HW123909   2.119   2.147   5.582 -0.8744  0.6519 -0.4508
 4149SOL    HW223910   1.978   2.116   5.628 -0.3048 -1.7613 -1.3105
 4150SOL     OW23911   4.255   1.549   9.499 -0.1703  0.0652 -0.5983
 4150SOL    HW123912   4.351   1.558   9.503 -0.1372 -0.5972  0.3741
 4150SOL    HW223913   4.230   1.600   9.423  1.2089  0.9094 -0.5026
 4151SOL     OW23914   3.059   2.170   7.123 -0.1874 -0.0396  0.0449
 4151SOL    HW123915   2.988   2.198   7.065 -1.0334  2.8951  2.4888
 4151SOL    HW223916   3.131   2.138   7.070 -0.6856  1.3050 -1.4224
 4152SOL     OW23917   0.821   1.493  14.283 -0.0258  0.1103  0.4438
 4152SOL    HW123918   0.776   1.564  14.237  0.9417  0.9004  0.7050
 4152SOL    HW223919   0.910   1.527  14.276  0.0508 -0.0348  0.7091
 4153SOL     OW23920   3.669   3.549  12.340 -0.2265  0.6580 -0.1163
 4153SOL    HW123921   3.689   3.609  12.413  1.8289 -0.2113  0.0349
 4153SOL    HW223922   3.634   3.476  12.392 -1.0528  1.7676  0.9062
 4154SOL     OW23923   4.171   1.679   9.298  0.0768  0.9009 -0.2118
 4154SOL    HW123924   4.189   1.626   9.221  2.0745 -1.0510  1.5649
 4154SOL    HW223925   4.076   1.674   9.299  0.1284 -0.4147 -0.7333
 4155SOL     OW23926   0.724   2.421   1.739  0.1960  0.1171 -0.8704
 4155SOL    HW123927   0.719   2.485   1.811 -2.1609  2.1102 -2.7824
 4155SOL    HW223928   0.814   2.448   1.720 -0.4829  2.0455 -1.3689
 4156SOL     OW23929   4.676   0.803   3.207  0.0917 -0.0291 -0.1124
 4156SOL    HW123930   0.025   0.749   3.245 -0.6489  0.1001  1.4150
 4156SOL    HW223931   4.598   0.752   3.231  0.4693 -1.0832 -1.1158
 4157SOL     OW23932   1.996   4.328   1.481  0.3275 -0.9469 -0.2550
 4157SOL    HW123933   2.055   4.282   1.421 -0.3196 -0.0910 -1.5464
 4157SOL    HW223934   1.998   4.418   1.450  1.5775 -0.8311  0.1604
 4158SOL     OW23935   2.403   0.211   6.953  0.2067  0.2150 -0.5730
 4158SOL    HW123936   2.400   0.165   7.037 -1.2418  2.0199  0.3673
 4158SOL    HW223937   2.454   0.147   6.903  1.8554  0.8338  0.3034
 4159SOL     OW23938   4.456   0.702   5.750  0.3142  0.1873  0.7357
 4159SOL    HW123939   4.525   0.639   5.769 -0.1310 -0.6455 -0.4060
 4159SOL    HW223940   4.492   0.776   5.799 -0.1110  1.2375 -0.5703
 4160SOL     OW23941   2.879   0.694   2.359 -0.2100  0.0182 -0.3338
 4160SOL    HW123942   2.958   0.721   2.311  0.2086  0.3745  0.5645
 4160SOL    HW223943   2.821   0.763   2.329 -2.2114 -0.8883  1.5075
 4161SOL     OW23944   2.897   3.795   1.275 -0.2274  0.4209 -0.1472
 4161SOL    HW123945   2.924   3.706   1.299 -0.5515 -0.3290 -2.5032
 4161SOL    HW223946   2.810   3.800   1.313  1.0237  0.8367  2.6694
 4162SOL     OW23947   1.934   2.530   7.720  0.1067 -0.3857  0.7480
 4162SOL    HW123948   2.009   2.580   7.690 -0.5664  0.7238  0.9249
 4162SOL    HW223949   1.861   2.562   7.668  0.7612  0.6187  0.4575
 4163SOL     OW23950   4.437   3.795   6.660  0.0977  0.3126  0.1518
 4163SOL    HW123951   4.449   3.700   6.659 -2.2866  0.0188  1.1237
 4163SOL    HW223952   4.439   3.812   6.754 -1.6775  0.1757  0.2137
 4164SOL     OW23953   4.280   3.143   5.818  0.3958 -0.4794  0.2134
 4164SOL    HW123954   4.251   3.112   5.903 -3.1282  0.5051 -0.6274
 4164SOL    HW223955   4.206   3.142   5.757  2.2267  1.8568 -2.0493
 4165SOL     OW23956   1.243   2.167   1.849  0.7329  0.3860  0.1046
 4165SOL    HW123957   1.202   2.082   1.867  1.4587  0.0268  0.0784
 4165SOL    HW223958   1.188   2.207   1.781 -1.0350 -2.6816 -0.2639
 4166SOL     OW23959   0.202   1.523   7.401 -0.2261 -0.0416  0.4804
 4166SOL    HW123960   0.220   1.601   7.452  1.5097  0.4220 -0.8683
 4166SOL    HW223961   0.125   1.554   7.353  0.3877  0.1325 -0.3950
 4167SOL     OW23962   1.400   0.282   6.042 -0.4093 -0.1960  0.0173
 4167SOL    HW123963   1.414   0.259   6.134 -1.4930 -1.7188 -0.1971
 4167SOL    HW223964   1.306   0.290   6.030 -0.4720  2.0550  2.0984
 4168SOL     OW23965   4.166   2.786   5.856  0.2385  0.4656  0.4222
 4168SOL    HW123966   4.182   2.812   5.947  1.1692  1.1718  0.0604
 4168SOL    HW223967   4.243   2.730   5.851 -0.6979 -0.7734 -0.0409
 4169SOL     OW23968   4.674   3.643   0.401 -0.2635  0.0025 -0.5198
 4169SOL    HW123969   4.697   3.706   0.469  0.3076  0.5798 -1.2638
 4169SOL    HW223970   4.700   3.560   0.440 -1.2362  0.1194  0.3995
 4170SOL     OW23971   3.807   3.085   4.513  0.0602 -0.1863 -0.0656
 4170SOL    HW123972   3.891   3.113   4.550  0.8245 -0.1528 -1.8391
 4170SOL    HW223973   3.754   3.053   4.586  0.4022  1.6606  1.0172
 4171SOL     OW23974   3.700   0.777   4.512  0.1132 -0.1458 -0.0123
 4171SOL    HW123975   3.628   0.750   4.569 -0.5281 -1.5414 -1.5055
 4171SOL    HW223976   3.751   0.696   4.509  1.3051  0.5986  0.2536
 4172SOL     OW23977   1.311   1.496  16.224 -0.6295 -0.4028 -0.1334
 4172SOL    HW123978   1.349   1.532  16.144 -1.9073  0.3939 -0.3783
 4172SOL    HW223979   1.219   1.488  16.199 -0.3910  1.7021 -1.6530
 4173SOL     OW23980   3.574   0.478  11.007 -0.2193  0.0418  1.1357
 4173SOL    HW123981   3.490   0.498  11.048 -0.8426  1.5723 -0.8642
 4173SOL    HW223982   3.625   0.553  11.039  0.5504  0.6052 -1.3352
 4174SOL     OW23983   3.256   0.604   0.630  0.5569  0.1067 -0.0083
 4174SOL    HW123984   3.183   0.651   0.670  0.4340  0.4117 -0.5800
 4174SOL    HW223985   3.323   0.673   0.632  0.6090  0.0793 -0.6476
 4175SOL     OW23986   3.000   0.157  12.425 -0.4497 -0.7969  0.4033
 4175SOL    HW123987   2.962   0.116  12.347  1.1447 -1.4845 -0.0164
 4175SOL    HW223988   2.934   0.226  12.433  0.9812  0.5912  0.3055
 4176SOL     OW23989   3.532   1.684   3.438  0.3681 -0.2628 -0.0025
 4176SOL    HW123990   3.575   1.755   3.390  0.9005 -1.3163 -1.0969
 4176SOL    HW223991   3.603   1.621   3.451  0.7452 -0.2575 -1.9574
 4177SOL     OW23992   4.409   4.222   4.416 -0.0455  0.3089 -0.2861
 4177SOL    HW123993   4.396   4.229   4.510  2.4096  0.1495  0.0811
 4177SOL    HW223994   4.504   4.208   4.404  0.3921  1.6965  1.6606
 4178SOL     OW23995   1.468   2.495   8.621 -0.3585  0.4748  0.1313
 4178SOL    HW123996   1.426   2.461   8.700  0.4498  0.0685  0.3853
 4178SOL    HW223997   1.456   2.590   8.627  0.4916  0.6088 -0.2858
 4179SOL     OW23998   1.202   2.919   1.469 -0.0205 -0.2679  0.3431
 4179SOL    HW123999   1.208   2.998   1.414 -1.1084 -0.6760 -0.3766
 4179SOL    HW224000   1.122   2.931   1.520 -1.2898  0.9958 -1.9576
 4180SOL     OW24001   4.402   0.190   2.067  0.0285 -0.5013 -0.3188
 4180SOL    HW124002   4.489   0.150   2.059  0.6618  1.1506 -1.5549
 4180SOL    HW224003   4.376   0.152   2.151  1.3188 -0.2833  0.1796
 4181SOL     OW24004   3.444   1.076   6.110  0.6077 -0.4789  0.1477
 4181SOL    HW124005   3.461   0.982   6.105 -1.4420 -0.7550 -1.8070
 4181SOL    HW224006   3.357   1.087   6.148  0.6267 -2.8109  0.8363
 4182SOL     OW24007   3.938   4.054  11.660 -0.1434 -0.3804  0.0386
 4182SOL    HW124008   3.868   4.028  11.600  0.4001  0.3264 -0.9053
 4182SOL    HW224009   3.916   4.147  11.673  1.1727 -0.2013  1.0433
 4183SOL     OW24010   4.331   2.960   5.079  0.5311  0.2862 -0.2112
 4183SOL    HW124011   4.400   2.894   5.081  1.6966  1.5114 -0.0983
 4183SOL    HW224012   4.322   2.972   5.174  0.2908 -0.2804 -0.1615
 4184SOL     OW24013   3.287   3.129   2.872  0.0027 -0.3225 -0.2548
 4184SOL    HW124014   3.373   3.105   2.904  0.4380  1.3941 -0.1144
 4184SOL    HW224015   3.272   3.207   2.927  1.3789 -0.3591  0.1543
 4185SOL     OW24016   4.447   0.199   7.600 -0.0227 -0.0750  0.2794
 4185SOL    HW124017   4.403   0.179   7.682 -2.7040 -1.1132 -1.4293
 4185SOL    HW224018   4.378   0.225   7.539  0.8279  1.7065  0.0639
 4186SOL     OW24019   1.500   2.193   2.245  0.0648  0.1884  0.8718
 4186SOL    HW124020   1.500   2.169   2.152  1.7371  2.7928  0.1787
 4186SOL    HW224021   1.409   2.178   2.269 -0.2690 -0.1651 -0.6248
 4187SOL     OW24022   2.760   3.451   4.142  0.3532 -0.0205 -0.1787
 4187SOL    HW124023   2.775   3.501   4.222  1.9463  0.2767 -0.6640
 4187SOL    HW224024   2.674   3.480   4.112  0.3901 -0.6462 -0.8896
 4188SOL     OW24025   3.792   4.476   1.678  0.4106  0.1790 -0.4716
 4188SOL    HW124026   3.807   4.382   1.693 -0.6866 -0.1665 -1.4746
 4188SOL    HW224027   3.840   4.490   1.596  1.7480  1.7522  0.5795
 4189SOL     OW24028   2.058   2.629   9.209 -0.3427 -0.2249  0.0954
 4189SOL    HW124029   2.006   2.572   9.153 -0.0023 -2.3766  1.9398
 4189SOL    HW224030   2.064   2.587   9.295  2.0250  0.8881  0.4776
 4190SOL     OW24031   1.334   2.282   9.419  0.0294 -0.1705 -0.1777
 4190SOL    HW124032   1.306   2.190   9.421  4.4176 -1.4582  1.6468
 4190SOL    HW224033   1.353   2.288   9.325 -1.5645 -0.9020 -0.5468
 4191SOL     OW24034   0.868   4.494   0.747  0.4532  0.6402  0.3210
 4191SOL    HW124035   0.841   4.468   0.836  2.4265  0.8328  0.9803
 4191SOL    HW224036   0.935   4.561   0.759 -0.9460  2.0296  0.4099
 4192SOL     OW24037   4.070   0.316   2.077  0.0574  0.0525  0.0269
 4192SOL    HW124038   4.059   0.411   2.070 -1.8763 -0.0771  1.2777
 4192SOL    HW224039   4.163   0.301   2.059 -0.0307  2.1917 -2.2739
 4193SOL     OW24040   2.315   1.164   6.543 -0.0817  0.3191 -0.1083
 4193SOL    HW124041   2.225   1.179   6.513  0.4619  0.0676 -1.8929
 4193SOL    HW224042   2.355   1.245   6.513 -1.5581  1.5182  1.1817
 4194SOL     OW24043   4.470   3.435   2.492 -0.1281 -0.1993  0.2028
 4194SOL    HW124044   4.420   3.427   2.411 -0.9489  0.8277  0.6061
 4194SOL    HW224045   4.396   3.425   2.552 -0.6669 -0.5920 -0.5198
 4195SOL     OW24046   3.165   1.017   3.459 -0.5307 -0.0373  0.1557
 4195SOL    HW124047   3.125   1.069   3.529  1.3943  0.4927  0.8589
 4195SOL    HW224048   3.105   0.943   3.451 -1.8942  0.9110  1.6339
 4196SOL     OW24049   3.824   1.753  17.397 -0.8326  0.4476  0.0318
 4196SOL    HW124050   3.827   1.848  17.410  1.1196  0.3339  0.4739
 4196SOL    HW224051   3.902   1.726  17.446  0.5210 -1.0950 -2.9506
 4197SOL     OW24052   0.283   0.147   2.267 -0.3817  0.1385 -0.0389
 4197SOL    HW124053   0.208   0.188   2.225  0.7343  2.0393 -0.1751
 4197SOL    HW224054   0.320   0.107   2.189 -0.6615 -0.9402  0.3789
 4198SOL     OW24055   4.042   4.306   7.008 -0.3392 -0.0446  0.5940
 4198SOL    HW124056   4.114   4.343   6.958 -0.4077 -2.4176 -1.2603
 4198SOL    HW224057   3.999   4.258   6.937 -1.7768  2.1969 -0.0377
 4199SOL     OW24058   2.987   1.745  16.962  0.1328  0.3639  0.0061
 4199SOL    HW124059   2.929   1.691  16.909  1.1250  1.1834 -1.9069
 4199SOL    HW224060   2.990   1.831  16.922 -0.0806  0.3919  0.0538
 4200SOL     OW24061   2.408   0.307   0.543  0.7160 -0.3939 -0.6151
 4200SOL    HW124062   2.360   0.364   0.602  1.2551 -1.3367  0.7281
 4200SOL    HW224063   2.403   0.360   0.463 -2.4030 -1.0433 -0.8807
 4201SOL     OW24064   3.277   0.449   8.186 -0.0167  0.1586  0.1573
 4201SOL    HW124065   3.225   0.372   8.212  1.7144 -0.2506  2.3412
 4201SOL    HW224066   3.354   0.408   8.146 -0.6621  1.0621 -2.0310
 4202SOL     OW24067   4.325   0.645   6.160 -0.2849  0.0342  0.0708
 4202SOL    HW124068   4.415   0.679   6.163 -1.4536  3.1995 -1.3145
 4202SOL    HW224069   4.346   0.572   6.218  0.6771  1.3525  1.3634
 4203SOL     OW24070   1.688   2.170   2.705  0.2331  0.0221 -0.1337
 4203SOL    HW124071   1.694   2.124   2.621  1.2197  0.6064 -0.3910
 4203SOL    HW224072   1.759   2.233   2.695 -0.3366  0.6797 -0.0136
 4204SOL     OW24073   2.830   3.854   5.693 -0.8607 -0.0107  0.0811
 4204SOL    HW124074   2.834   3.834   5.786  0.3534 -0.4590 -0.0663
 4204SOL    HW224075   2.801   3.944   5.679  1.1489  0.3386 -1.8663
 4205SOL     OW24076   2.591   0.651  17.167  0.2403  0.1008  0.2583
 4205SOL    HW124077   2.630   0.731  17.133 -0.2563  0.1479 -0.2040
 4205SOL    HW224078   2.503   0.689  17.171  0.1203 -0.1095 -0.3117
 4206SOL     OW24079   0.061   1.447   9.373 -0.3136  0.1763  0.2594
 4206SOL    HW124080   0.148   1.479   9.348 -0.6605  1.9517  1.3694
 4206SOL    HW224081   0.008   1.476   9.299 -1.6327 -0.9713  0.7613
 4207SOL     OW24082   3.198   3.800  10.216  0.2088  0.3719  0.2058
 4207SOL    HW124083   3.276   3.775  10.265 -0.4597  0.1245  1.1314
 4207SOL    HW224084   3.142   3.846  10.278 -0.9496  0.6479 -1.0306
 4208SOL     OW24085   2.035   4.523  15.363 -0.5319 -0.2931  0.1370
 4208SOL    HW124086   2.000   4.450  15.414 -1.2265  0.6262  0.9781
 4208SOL    HW224087   2.011   4.498  15.274 -0.1422  0.4963 -0.1957
 4209SOL     OW24088   0.489   4.448  16.336 -0.7029 -0.4485 -0.1629
 4209SOL    HW124089   0.553   4.386  16.369 -3.0942 -2.9346 -0.2470
 4209SOL    HW224090   0.499   4.432  16.242  2.1254  1.8463 -0.2581
 4210SOL     OW24091   1.508   3.752   1.956  0.1720 -0.9198  0.2030
 4210SOL    HW124092   1.489   3.820   1.893  1.7223 -2.0328 -1.4835
 4210SOL    HW224093   1.439   3.692   1.930 -0.9573  0.9103 -0.9676
 4211SOL     OW24094   3.999   1.005   2.108 -0.3447 -0.7225  0.0026
 4211SOL    HW124095   3.983   0.911   2.120 -0.2041 -0.9958 -1.8787
 4211SOL    HW224096   3.911   1.038   2.124 -1.0366 -2.7494  0.3976
 4212SOL     OW24097   1.296   2.630   4.003 -0.2003 -0.2219  0.0500
 4212SOL    HW124098   1.240   2.707   4.000  0.3955  0.1666 -1.0901
 4212SOL    HW224099   1.377   2.681   3.999  0.1200 -0.7829 -0.6591
 4213SOL     OW24100   3.398   3.309   2.667  0.3765 -0.2925 -0.0856
 4213SOL    HW124101   3.303   3.319   2.660  0.6993  2.5824 -0.6620
 4213SOL    HW224102   3.402   3.226   2.714 -0.5497 -0.7675 -0.8522
 4214SOL     OW24103   4.692   0.960   6.599 -0.6500  0.1881 -0.0876
 4214SOL    HW124104   4.641   1.031   6.560 -1.0103  1.0516  1.9727
 4214SOL    HW224105   4.683   0.987   6.691 -0.6548 -0.1213  0.0032
 4215SOL     OW24106   2.444   3.770   4.180 -0.1627  0.4525 -0.4275
 4215SOL    HW124107   2.440   3.685   4.224  1.0300 -0.1572 -1.5049
 4215SOL    HW224108   2.538   3.786   4.193  0.2399 -0.5100 -2.2101
 4216SOL     OW24109   0.384   4.288   7.117  0.4084 -0.5648 -0.4244
 4216SOL    HW124110   0.430   4.371   7.111  0.9610 -0.7486  1.2128
 4216SOL    HW224111   0.456   4.225   7.118  0.1703 -0.8239  0.5861
 4217SOL     OW24112   3.874   3.126   2.162 -0.4370 -0.2535  0.1085
 4217SOL    HW124113   3.853   3.033   2.151 -1.2319 -0.1359  0.6064
 4217SOL    HW224114   3.964   3.137   2.134 -0.6038  0.0549 -0.2976
 4218SOL     OW24115   3.711   0.897  13.713 -0.0760 -0.1597  0.2865
 4218SOL    HW124116   3.754   0.873  13.795 -0.0835 -0.4435  0.2074
 4218SOL    HW224117   3.774   0.957  13.674  0.5688 -0.8331  0.2742
 4219SOL     OW24118   0.838   1.231  16.245 -0.1010 -1.0081  0.2907
 4219SOL    HW124119   0.853   1.295  16.314  1.2936 -0.8539 -0.1561
 4219SOL    HW224120   0.885   1.262  16.167  0.5109 -1.1517  0.6016
 4220SOL     OW24121   4.177   4.120  17.181 -0.1945 -0.3661 -0.5717
 4220SOL    HW124122   4.121   4.187  17.219  2.2934  1.2522  0.2771
 4220SOL    HW224123   4.149   4.056  17.246  1.7669 -0.3276  0.3080
 4221SOL     OW24124   3.763   1.538  14.886  0.7571  0.0199  0.1200
 4221SOL    HW124125   3.811   1.457  14.869 -2.0631 -1.9163  1.3558
 4221SOL    HW224126   3.828   1.599  14.851 -2.0091  2.5049 -0.7149
 4222SOL     OW24127   1.050   4.451   3.188 -0.1401 -0.2609  0.2994
 4222SOL    HW124128   1.134   4.465   3.233 -0.5344 -0.7763  1.1894
 4222SOL    HW224129   0.997   4.451   3.267  0.1298  0.6286  0.4834
 4223SOL     OW24130   2.416   1.052   4.693  0.7920  0.1570  0.0104
 4223SOL    HW124131   2.462   0.978   4.653  1.3522  0.8907 -0.7117
 4223SOL    HW224132   2.351   1.091   4.634 -0.4716 -2.3602 -0.2583
 4224SOL     OW24133   1.518   4.633   4.239  0.1208  0.5360  0.6902
 4224SOL    HW124134   1.600   4.613   4.195 -1.6528  1.7567 -3.1351
 4224SOL    HW224135   1.558   4.655   4.324  0.9634 -0.2226  0.4913
 4225SOL     OW24136   3.704   2.983  12.429  0.4868  0.3424  0.9068
 4225SOL    HW124137   3.790   3.024  12.434  1.2899 -1.2229 -0.1480
 4225SOL    HW224138   3.723   2.891  12.448 -1.1563  0.4227  2.9034
 4226SOL     OW24139   2.404   3.513   4.305  0.0181 -0.0509  0.1304
 4226SOL    HW124140   2.326   3.483   4.352 -0.9849  0.7126 -1.0625
 4226SOL    HW224141   2.406   3.437   4.247 -1.1049  2.8745 -3.6807
 4227SOL     OW24142   2.337   1.778  15.069  0.0896 -0.0566 -0.1141
 4227SOL    HW124143   2.397   1.720  15.023  1.3934  0.2322  1.2224
 4227SOL    HW224144   2.360   1.865  15.035 -1.1679  0.8547  1.3394
 4228SOL     OW24145   3.303   2.638   5.765 -0.0221  0.0299 -0.0244
 4228SOL    HW124146   3.283   2.706   5.701  2.7297  1.1778  0.3203
 4228SOL    HW224147   3.332   2.705   5.828  0.4477 -0.1574 -0.0427
 4229SOL     OW24148   3.825   3.203   9.982 -0.3495  0.0852  0.1865
 4229SOL    HW124149   3.752   3.158   9.940  0.9710 -0.3136 -1.6923
 4229SOL    HW224150   3.900   3.161   9.938  1.7545  1.0127  2.8843
 4230SOL     OW24151   0.329   1.137   7.564  0.6123  0.1604  0.4019
 4230SOL    HW124152   0.348   1.126   7.471  0.6461 -1.5999  0.6181
 4230SOL    HW224153   0.251   1.192   7.552 -1.1985 -2.7130 -1.0299
 4231SOL     OW24154   0.548   4.388   3.217  0.5982 -0.1675 -0.4239
 4231SOL    HW124155   0.629   4.380   3.268  0.6835  1.3314 -0.3187
 4231SOL    HW224156   0.588   4.381   3.131  1.1465 -3.0866  0.0904
 4232SOL     OW24157   1.563   0.962  16.922  0.2256  0.0963 -0.1241
 4232SOL    HW124158   1.546   0.967  16.828  1.3319 -0.5104 -0.3632
 4232SOL    HW224159   1.658   0.976  16.928 -0.0105  0.5212  2.9898
 4233SOL     OW24160   2.849   2.156  12.890 -0.4408  0.4185  0.4308
 4233SOL    HW124161   2.909   2.199  12.829 -1.0409  2.5642  1.3677
 4233SOL    HW224162   2.915   2.129  12.955 -2.9389 -2.2010  1.9374
 4234SOL     OW24163   2.447   0.695   2.612  0.0708 -0.1476  0.1827
 4234SOL    HW124164   2.515   0.633   2.584  2.8790  2.4991  1.2416
 4234SOL    HW224165   2.495   0.745   2.677  1.4743  1.2109 -1.9179
 4235SOL     OW24166   1.947   4.298   5.651 -0.0782  0.1800  0.4493
 4235SOL    HW124167   1.869   4.309   5.595 -0.0412  0.1958  0.4009
 4235SOL    HW224168   2.003   4.357   5.601  0.5225  0.0233  0.9454
 4236SOL     OW24169   0.059   2.841   5.817  0.4256 -0.3505  0.1584
 4236SOL    HW124170   0.020   2.770   5.867  1.3900 -1.1797 -0.2700
 4236SOL    HW224171   0.099   2.895   5.885  0.6058  0.6688 -0.7443
 4237SOL     OW24172   4.519   1.587   9.491  0.3200 -0.3882  0.0019
 4237SOL    HW124173   4.610   1.560   9.481  0.2186 -1.4744  1.8759
 4237SOL    HW224174   4.517   1.666   9.438  0.3164 -2.3563 -2.8874
 4238SOL     OW24175   0.859   0.664   3.148  0.3485 -0.0584  0.1261
 4238SOL    HW124176   0.843   0.576   3.182 -1.5122 -0.2017 -1.1162
 4238SOL    HW224177   0.930   0.659   3.084 -2.6761 -1.3876 -3.1242
 4239SOL     OW24178   3.336   1.912   2.839 -0.4785 -0.4674  0.0452
 4239SOL    HW124179   3.369   2.000   2.819  1.6273 -1.3632 -0.4387
 4239SOL    HW224180   3.324   1.886   2.747 -0.1600 -1.0630  0.1736
 4240SOL     OW24181   3.147   2.297   9.182  0.3320 -0.2612  0.1659
 4240SOL    HW124182   3.210   2.231   9.155  1.2529  0.7948 -0.2642
 4240SOL    HW224183   3.113   2.321   9.096 -1.1981  0.7577  1.0436
 4241SOL     OW24184   1.748   3.214   1.525  0.3015  0.5134  0.1796
 4241SOL    HW124185   1.750   3.302   1.488  0.0142 -0.4479 -2.0764
 4241SOL    HW224186   1.834   3.208   1.567  0.3062 -1.3382 -0.1274
 4242SOL     OW24187   4.562   4.683   7.573  0.9309 -0.5208 -0.5196
 4242SOL    HW124188   4.507   0.042   7.582  0.0982 -1.2441  0.6506
 4242SOL    HW224189   4.556   4.648   7.662  0.8558  1.2043  0.1596
 4243SOL     OW24190   3.368   1.218   8.502  0.0183  0.1155  0.5910
 4243SOL    HW124191   3.274   1.228   8.486  0.1268 -0.1376 -0.1740
 4243SOL    HW224192   3.385   1.152   8.435  1.3578 -0.9384  1.9640
 4244SOL     OW24193   4.298   1.719   8.038  0.7261  0.1600  0.0961
 4244SOL    HW124194   4.245   1.771   8.098 -0.3144 -0.6703 -0.1056
 4244SOL    HW224195   4.368   1.782   8.020 -0.6181  1.1950 -1.4489
 4245SOL     OW24196   1.807   1.634  14.394  0.6895 -0.1201  0.2204
 4245SOL    HW124197   1.796   1.601  14.305 -1.7412 -1.3245  0.9783
 4245SOL    HW224198   1.730   1.690  14.384  0.3598 -0.5992  0.0638
 4246SOL     OW24199   0.149   2.660   1.804 -0.5127 -0.0702 -0.1089
 4246SOL    HW124200   0.062   2.672   1.766  0.1128 -0.7998 -1.7761
 4246SOL    HW224201   0.157   2.753   1.826  1.4103 -0.0736 -0.7490
 4247SOL     OW24202   3.031   2.278  15.014  0.2338  0.0072 -0.1640
 4247SOL    HW124203   3.003   2.269  14.923  0.0724  1.7575 -0.2857
 4247SOL    HW224204   2.966   2.225  15.060 -0.6261  1.3668  0.1807
 4248SOL     OW24205   4.389   1.813   1.874 -0.3338 -0.0902 -0.0176
 4248SOL    HW124206   4.410   1.723   1.896 -0.6153  0.1378  1.1579
 4248SOL    HW224207   4.437   1.835   1.794  2.3264 -2.0726  1.0433
 4249SOL     OW24208   3.725   4.448   6.939 -0.1191  0.0194 -0.6893
 4249SOL    HW124209   3.754   4.538   6.926  0.1326 -0.0897 -0.8863
 4249SOL    HW224210   3.722   4.415   6.849  0.3279 -0.3914 -0.5554
 4250SOL     OW24211   0.846   4.372   9.293  0.3367 -0.5286 -0.2213
 4250SOL    HW124212   0.818   4.445   9.348 -2.0036 -0.7097 -1.1824
 4250SOL    HW224213   0.813   4.404   9.209 -0.6723  0.2079  0.4588
 4251SOL     OW24214   4.674   4.196   4.420  0.0963 -0.6630  0.0126
 4251SOL    HW124215   4.690   4.277   4.468 -1.1599  0.9023 -2.1735
 4251SOL    HW224216   4.658   4.138   4.494 -2.6295 -0.9775 -0.8285
 4252SOL     OW24217   2.202   4.175   0.027 -0.1980  1.1060  0.2390
 4252SOL    HW124218   2.260   4.211  17.640  0.8536  0.2735  0.7039
 4252SOL    HW224219   2.126   4.233   0.028  0.1145  1.5618 -2.4132
 4253SOL     OW24220   0.508   2.718   2.409  0.0122 -0.4418  0.4581
 4253SOL    HW124221   0.584   2.748   2.359 -0.5351  1.1005  0.5591
 4253SOL    HW224222   0.520   2.626   2.431 -2.0902 -0.5311  1.2355
 4254SOL     OW24223   1.716   0.559   5.866  0.2760  0.0004  0.8152
 4254SOL    HW124224   1.795   0.542   5.816 -1.1905 -0.4788 -1.3522
 4254SOL    HW224225   1.751   0.617   5.933  1.6521 -1.7131  1.5842
 4255SOL     OW24226   3.262   1.317   4.901  0.4928 -0.2396 -0.3189
 4255SOL    HW124227   3.189   1.334   4.961  1.9419 -2.3652  2.0368
 4255SOL    HW224228   3.271   1.407   4.872 -2.9442  0.4612  0.6836
 4256SOL     OW24229   1.507   1.405   5.745  0.2989  0.1417  0.5145
 4256SOL    HW124230   1.483   1.319   5.779  1.5952 -0.3530  0.1655
 4256SOL    HW224231   1.542   1.379   5.660 -2.2074  0.4150 -0.6206
 4257SOL     OW24232   0.327   0.848   7.656 -0.3241 -0.0056  0.0090
 4257SOL    HW124233   0.302   0.937   7.629  0.6271  1.1446  2.9300
 4257SOL    HW224234   0.351   0.818   7.568 -2.3216  0.5682 -0.7231
 4258SOL     OW24235   0.201   0.544   3.858  0.4182 -0.6197  0.2245
 4258SOL    HW124236   0.260   0.492   3.912  0.8943 -0.4307 -0.1158
 4258SOL    HW224237   0.263   0.594   3.805  0.6394  2.2161  3.2052
 4259SOL     OW24238   4.516   0.621   5.443  0.2811 -0.0887  0.6670
 4259SOL    HW124239   4.491   0.706   5.479 -0.6493 -1.1629  2.5500
 4259SOL    HW224240   4.598   0.607   5.491  0.6338  2.6783  0.8963
 4260SOL     OW24241   2.281   2.472   7.942  0.3820 -0.5001 -0.4332
 4260SOL    HW124242   2.303   2.407   8.008  0.6911 -1.6267 -1.6313
 4260SOL    HW224243   2.351   2.450   7.879  1.3308  0.8878  0.1419
 4261SOL     OW24244   2.040   0.917   6.199 -0.1808 -0.1701 -0.5814
 4261SOL    HW124245   2.082   0.925   6.285  1.3265 -3.6003 -0.9717
 4261SOL    HW224246   2.055   1.000   6.153  1.5748  0.4153  1.0589
 4262SOL     OW24247   0.655   2.647   1.859  0.4039  0.2211  0.3649
 4262SOL    HW124248   0.642   2.691   1.775  2.4366  0.1866  0.0149
 4262SOL    HW224249   0.591   2.691   1.914 -0.0928 -2.0312  1.5931
 4263SOL     OW24250   4.311   4.501   4.450  0.1067  0.4694  0.2481
 4263SOL    HW124251   4.402   4.530   4.437  0.0817  1.3987  2.1417
 4263SOL    HW224252   4.288   4.455   4.370 -0.0221  2.3302 -0.7746
 4264SOL     OW24253   3.373   3.570  16.922 -0.0824  0.1065  0.3531
 4264SOL    HW124254   3.333   3.483  16.914 -2.9667  1.6341 -1.4624
 4264SOL    HW224255   3.326   3.604  16.998 -2.2264  0.7144 -1.2413
 4265SOL     OW24256   2.298   0.848  11.892 -0.1114 -0.1256  0.5744
 4265SOL    HW124257   2.323   0.760  11.864 -0.4781  0.1241 -0.5118
 4265SOL    HW224258   2.367   0.866  11.956  0.2159  0.2137  0.1252
 4266SOL     OW24259   0.155   1.342   1.218 -0.2348  0.1884 -0.3521
 4266SOL    HW124260   0.086   1.276   1.207  0.5290 -0.6437 -0.1867
 4266SOL    HW224261   0.174   1.338   1.312  1.9173  0.2581 -0.7906
 4267SOL     OW24262   3.318   0.118   7.182 -0.5677  0.1528 -0.0114
 4267SOL    HW124263   3.263   0.162   7.117  0.9367  0.1222 -1.2999
 4267SOL    HW224264   3.251   0.086   7.243 -0.6380 -1.3515 -0.8721
 4268SOL     OW24265   4.042   4.132   6.552 -0.3221  0.1812 -0.1642
 4268SOL    HW124266   4.097   4.081   6.612  1.7479  0.4627 -1.8321
 4268SOL    HW224267   3.982   4.060   6.532  0.7678 -0.7299 -0.2187
 4269SOL     OW24268   1.908   2.360   5.377  1.3497  0.0667 -0.0500
 4269SOL    HW124269   1.878   2.412   5.302 -0.3000 -0.0626  0.5083
 4269SOL    HW224270   1.937   2.425   5.442  1.5309 -0.0116 -0.0542
 4270SOL     OW24271   1.640   1.433  16.581 -0.3115  0.8807 -0.4791
 4270SOL    HW124272   1.557   1.466  16.545 -1.4199 -1.6585 -0.2542
 4270SOL    HW224273   1.624   1.381  16.660 -0.7099  1.9320  0.1387
 4271SOL     OW24274   2.502   1.626   5.028  0.1143 -0.7516  0.1997
 4271SOL    HW124275   2.486   1.657   5.117  0.8239  1.4765 -0.4354
 4271SOL    HW224276   2.438   1.671   4.972 -0.5373 -1.6258  0.2404
 4272SOL     OW24277   0.046   3.418   8.721  0.8700 -0.2894 -0.1360
 4272SOL    HW124278   4.704   3.473   8.671 -1.0434 -1.6780  0.6904
 4272SOL    HW224279   4.713   3.374   8.788  1.4685 -0.1477  0.4294
 4273SOL     OW24280   3.854   2.658   1.818  0.0353 -0.0165 -0.0739
 4273SOL    HW124281   3.849   2.670   1.723  0.3030 -0.1368 -0.1036
 4273SOL    HW224282   3.813   2.571   1.820  0.3349 -0.1787 -0.7785
 4274SOL     OW24283   3.005   0.341   6.176 -0.4338  0.4945 -0.1301
 4274SOL    HW124284   2.961   0.292   6.246  2.8033 -0.4649  1.2112
 4274SOL    HW224285   2.933   0.393   6.140 -0.1643  1.1676  0.2989
 4275SOL     OW24286   3.006   3.939   3.688 -0.3251 -0.2935  0.5475
 4275SOL    HW124287   3.077   3.958   3.627  0.1382 -2.0216  0.5383
 4275SOL    HW224288   3.039   3.979   3.768 -0.3741  0.8832 -0.0312
 4276SOL     OW24289   0.505   0.200   6.432 -0.0199 -0.2663 -0.0329
 4276SOL    HW124290   0.540   0.142   6.365 -3.2548 -1.5126 -0.6409
 4276SOL    HW224291   0.586   0.247   6.452 -0.9288  0.4566  1.9960
 4277SOL     OW24292   4.457   1.335   0.944 -0.4886  0.0925 -0.4411
 4277SOL    HW124293   4.438   1.241   0.938 -0.1919  0.1153 -1.7548
 4277SOL    HW224294   4.553   1.338   0.948 -0.4133 -2.5998 -0.5720
 4278SOL     OW24295   0.097   0.715   2.638 -0.1208 -0.3285  0.1262
 4278SOL    HW124296   0.139   0.701   2.723  2.6025  1.2026 -0.9803
 4278SOL    HW224297   0.161   0.667   2.585 -0.9382  0.4747 -1.5842
 4279SOL     OW24298   0.486   0.037   8.462 -0.1747 -0.1215  0.6288
 4279SOL    HW124299   0.480   4.664   8.486  3.6613 -0.2017  1.2952
 4279SOL    HW224300   0.419   0.075   8.518  0.0455  0.5676  0.4329
 4280SOL     OW24301   1.141   4.556  10.406  0.2886  0.5000 -0.3349
 4280SOL    HW124302   1.075   4.620  10.380  1.9661  2.6103  0.6576
 4280SOL    HW224303   1.214   4.611  10.436  1.4373 -1.8310  1.1905
 4281SOL     OW24304   3.651   4.061   7.051  0.4160  0.3285  0.3105
 4281SOL    HW124305   3.617   3.985   7.098  0.4053  0.2114  0.1114
 4281SOL    HW224306   3.642   4.121   7.125 -2.2257 -2.0432  1.8808
 4282SOL     OW24307   2.475   3.393   4.014  0.3675 -1.0286  0.5255
 4282SOL    HW124308   2.509   3.475   3.980  0.7620 -1.6651 -0.6143
 4282SOL    HW224309   2.379   3.391   4.006  0.2952  2.5693  0.6900
 4283SOL     OW24310   1.805   0.601   2.852 -0.0075 -0.2928  0.1017
 4283SOL    HW124311   1.819   0.673   2.790  1.4169 -1.5426 -0.9953
 4283SOL    HW224312   1.882   0.546   2.842  0.9202  0.9533  0.3037
 4284SOL     OW24313   2.084   0.695   2.949 -0.1386 -0.1998  0.2187
 4284SOL    HW124314   2.156   0.696   2.887 -2.6712  0.6318 -2.7075
 4284SOL    HW224315   2.101   0.607   2.984  0.1500 -0.6326 -1.0192
 4285SOL     OW24316   2.874   4.144   5.962  0.3284 -0.0238  0.2524
 4285SOL    HW124317   2.845   4.136   5.871  0.9210 -1.1001  0.1648
 4285SOL    HW224318   2.789   4.166   6.001 -0.3062 -0.4549 -0.9077
 4286SOL     OW24319   3.598   4.059   6.593 -0.0511  0.1691  0.7737
 4286SOL    HW124320   3.629   4.138   6.549 -1.4761  0.0723 -0.4034
 4286SOL    HW224321   3.679   4.033   6.636  0.2812 -1.6787 -0.9673
 4287SOL     OW24322   2.093   2.288   7.359  0.1833  0.3176  0.0600
 4287SOL    HW124323   2.002   2.299   7.330  0.9164 -0.7620 -2.5799
 4287SOL    HW224324   2.118   2.379   7.375  0.0772  0.1584  1.1400
 4288SOL     OW24325   1.924   2.829   1.741  0.1662  0.3391  0.0417
 4288SOL    HW124326   1.860   2.898   1.721  1.0858  0.8624 -1.1099
 4288SOL    HW224327   1.956   2.803   1.655 -3.1011  0.1624 -1.1534
 4289SOL     OW24328   3.266   0.311   9.948  0.0533 -0.0158 -0.2804
 4289SOL    HW124329   3.353   0.276   9.930  1.2106  1.0274  3.2771
 4289SOL    HW224330   3.230   0.254  10.015  0.5864 -0.5616 -0.4582
 4290SOL     OW24331   3.676   3.374   7.912  0.5486  0.1021  0.4147
 4290SOL    HW124332   3.592   3.356   7.955  0.4473  0.0052  0.1755
 4290SOL    HW224333   3.736   3.330   7.974  1.5253  1.5384  0.4881
 4291SOL     OW24334   3.150   1.723   6.788 -0.0798 -0.1344  0.3513
 4291SOL    HW124335   3.157   1.738   6.883  3.1471  0.6608 -0.0113
 4291SOL    HW224336   3.235   1.750   6.752 -0.1899 -1.0102 -0.5469
 4292SOL     OW24337   3.363   1.704   6.503  0.4617  0.6868  0.0741
 4292SOL    HW124338   3.384   1.768   6.571  0.8223  0.8456 -0.1871
 4292SOL    HW224339   3.345   1.632   6.563  0.4777 -0.2739 -1.0843
 4293SOL     OW24340   4.594   0.727   8.870 -0.5137  0.0101  0.2335
 4293SOL    HW124341   4.620   0.785   8.798  1.9012  1.0213  1.9267
 4293SOL    HW224342   4.546   0.792   8.922  0.8029 -0.6025  2.2010
 4294SOL     OW24343   1.530   2.898   9.087  0.6819 -0.3786  0.6097
 4294SOL    HW124344   1.447   2.859   9.113 -0.0487  2.6934  2.8864
 4294SOL    HW224345   1.587   2.894   9.164  1.0585  2.7434  0.4956
 4295SOL     OW24346   1.227   4.400   0.370  0.3256 -0.1347  0.1666
 4295SOL    HW124347   1.199   4.324   0.319 -2.3763  0.6780  0.4769
 4295SOL    HW224348   1.150   4.400   0.426  2.0700  0.4392  2.5699
 4296SOL     OW24349   0.410   0.398   9.644  0.2138 -0.4792 -0.0336
 4296SOL    HW124350   0.337   0.402   9.582 -0.6211 -0.6675  0.9413
 4296SOL    HW224351   0.361   0.383   9.725 -0.8496  0.4055 -0.5215
 4297SOL     OW24352   0.483   3.634   4.114 -0.1640  0.1970  0.2857
 4297SOL    HW124353   0.476   3.582   4.033 -0.5094  0.0362  0.4174
 4297SOL    HW224354   0.401   3.684   4.106 -0.5688 -0.7842 -1.8590
 4298SOL     OW24355   3.738   0.158   4.377  0.3033  0.3895 -0.1158
 4298SOL    HW124356   3.821   0.117   4.403  0.5767  1.6438  0.9813
 4298SOL    HW224357   3.732   0.144   4.282 -2.3218 -1.0784  0.2760
 4299SOL     OW24358   1.501   0.977   0.341 -0.0839  0.3572 -0.2600
 4299SOL    HW124359   1.454   0.899   0.313  0.3466  0.6382 -1.7582
 4299SOL    HW224360   1.472   1.033   0.269  0.8091  1.8116  0.5080
 4300SOL     OW24361   0.763   3.861   6.930 -0.2669  0.4752 -0.7112
 4300SOL    HW124362   0.719   3.790   6.882 -0.7874  0.8480 -0.7802
 4300SOL    HW224363   0.849   3.820   6.920 -0.0577  0.6591  0.3946
 4301SOL     OW24364   3.555   4.718   4.577  0.0998 -0.0715 -0.1693
 4301SOL    HW124365   3.616   4.663   4.627 -0.1990  1.4008  1.7909
 4301SOL    HW224366   3.532   4.659   4.505 -0.0364  0.4138 -0.5201
 4302SOL     OW24367   3.015   0.739   5.891 -0.0666  0.1513 -0.1734
 4302SOL    HW124368   2.988   0.686   5.816 -0.1790 -3.1406  2.1684
 4302SOL    HW224369   2.973   0.687   5.960  0.4443  0.6015  0.4817
 4303SOL     OW24370   3.812   4.005   5.316  0.6364  0.2293  0.0523
 4303SOL    HW124371   3.744   4.069   5.295 -0.9883 -1.2115  0.8843
 4303SOL    HW224372   3.834   4.045   5.401  0.0454 -1.7521  1.1293
 4304SOL     OW24373   3.162   4.366   5.178  0.3040  0.0111  0.0101
 4304SOL    HW124374   3.110   4.388   5.101 -1.3260 -0.0999  1.0975
 4304SOL    HW224375   3.128   4.278   5.192  0.2523  0.4593  2.6283
 4305SOL     OW24376   3.597   0.899  16.829 -0.2668 -0.2197 -0.3547
 4305SOL    HW124377   3.573   0.809  16.804 -1.5474  0.4572 -1.5799
 4305SOL    HW224378   3.593   0.893  16.924 -0.4362  1.9188 -0.2347
 4306SOL     OW24379   2.263   1.252   6.993 -0.1607  0.6201  0.1683
 4306SOL    HW124380   2.344   1.283   6.953  0.8643  0.1333  1.8247
 4306SOL    HW224381   2.292   1.173   7.040 -2.0693  0.7130  1.4984
 4307SOL     OW24382   2.339   1.390   9.683 -0.4486 -0.0143  0.1198
 4307SOL    HW124383   2.393   1.423   9.754 -2.9312 -0.3938  2.1696
 4307SOL    HW224384   2.338   1.467   9.627 -0.3197 -0.4155 -0.4394
 4308SOL     OW24385   1.660   1.230   5.596  0.0879  0.0702  0.2932
 4308SOL    HW124386   1.670   1.137   5.573  0.4819  0.2653 -0.3423
 4308SOL    HW224387   1.604   1.257   5.523  1.0162  0.7917 -0.1526
 4309SOL     OW24388   1.292   0.171   0.479 -0.7347  0.1733  0.1738
 4309SOL    HW124389   1.200   0.152   0.460 -1.1751  3.3378 -0.9917
 4309SOL    HW224390   1.312   0.214   0.396 -0.5667  0.6848  0.4792
 4310SOL     OW24391   0.813   0.193   5.364 -0.3367  0.2323 -0.3900
 4310SOL    HW124392   0.817   0.274   5.312  0.6062  0.2483 -0.3024
 4310SOL    HW224393   0.850   0.136   5.296  1.2122  0.5983  0.1454
 4311SOL     OW24394   1.308   2.838   9.179 -0.2002 -0.0370 -0.0336
 4311SOL    HW124395   1.258   2.912   9.214 -1.5792 -0.8553 -0.2597
 4311SOL    HW224396   1.232   2.788   9.147  1.5559 -0.7069 -3.1808
 4312SOL     OW24397   2.336   4.513   0.509 -0.3797 -0.6091 -0.1468
 4312SOL    HW124398   2.265   4.482   0.566  0.4503 -0.6049  0.9038
 4312SOL    HW224399   2.366   4.591   0.555  1.6596 -0.6238 -1.4493
 4313SOL     OW24400   0.916   1.898   9.533 -0.4868 -0.3427  0.3535
 4313SOL    HW124401   0.822   1.891   9.518 -0.8955  1.4742  1.9724
 4313SOL    HW224402   0.945   1.926   9.446 -2.0594 -0.5041 -0.2130
 4314SOL     OW24403   4.686   3.473   8.080 -0.1715  0.3434 -0.4601
 4314SOL    HW124404   4.625   3.507   8.146 -0.3920 -0.5104 -0.2235
 4314SOL    HW224405   4.624   3.464   8.007 -0.5596 -1.9213  0.1422
 4315SOL     OW24406   4.234   1.490   5.771  0.0739 -0.0056 -1.0052
 4315SOL    HW124407   4.200   1.422   5.712  0.2969 -0.2003 -0.9116
 4315SOL    HW224408   4.180   1.464   5.846 -0.8525 -0.2546 -1.7620
 4316SOL     OW24409   1.869   1.373  13.419 -0.2736 -0.4811 -0.3333
 4316SOL    HW124410   1.789   1.347  13.373  0.4825 -1.9903 -0.8107
 4316SOL    HW224411   1.841   1.354  13.509  0.2588 -1.1678 -0.3135
 4317SOL     OW24412   2.889   3.350   6.119 -0.4061 -0.3165  0.0983
 4317SOL    HW124413   2.794   3.356   6.129 -0.4558  1.3230 -1.3008
 4317SOL    HW224414   2.886   3.263   6.082  0.4958 -0.7516  1.0553
 4318SOL     OW24415   0.013   3.948   7.032  0.1675 -0.5229 -0.2274
 4318SOL    HW124416   4.713   4.039   7.012  0.9186  0.4161  3.1889
 4318SOL    HW224417   4.660   3.926   7.091  2.0082 -0.1572  2.2042
 4319SOL     OW24418   2.871   2.386   7.343  0.0933 -0.4344  0.0525
 4319SOL    HW124419   2.940   2.333   7.383  0.3920  0.0729  0.2168
 4319SOL    HW224420   2.925   2.427   7.275 -1.3532  0.9821 -0.2409
 4320SOL     OW24421   3.159   0.964   6.640 -0.0142 -0.4572 -0.1432
 4320SOL    HW124422   3.239   0.926   6.676 -0.6118  0.9688  2.6758
 4320SOL    HW224423   3.116   0.880   6.626  2.1608 -2.0544  2.8233
 4321SOL     OW24424   3.761   1.127   2.093 -0.7532 -0.8932 -0.0480
 4321SOL    HW124425   3.673   1.112   2.128 -0.7209  0.3615  0.5885
 4321SOL    HW224426   3.751   1.197   2.028 -0.4398 -1.6013 -0.8486
 4322SOL     OW24427   0.554   1.314   2.342  0.6096 -0.1622  0.5593
 4322SOL    HW124428   0.466   1.278   2.341  1.6437 -2.7203  1.1937
 4322SOL    HW224429   0.569   1.343   2.432 -0.4382  1.4931  0.1880
 4323SOL     OW24430   1.828   2.658   6.171 -0.3144  0.2894  0.0643
 4323SOL    HW124431   1.880   2.597   6.119 -1.3440  0.2992 -0.9676
 4323SOL    HW224432   1.788   2.589   6.223 -1.1880  0.3637 -0.5129
 4324SOL     OW24433   3.600   2.733   6.861  0.0251 -0.1679  0.0621
 4324SOL    HW124434   3.555   2.817   6.860  1.7709  0.7518 -0.5849
 4324SOL    HW224435   3.528   2.671   6.873 -1.9854  1.3796 -4.0517
 4325SOL     OW24436   4.459   2.029   3.059 -0.2110 -0.5332 -0.1945
 4325SOL    HW124437   4.524   1.972   3.099 -1.0233 -1.5435 -0.3112
 4325SOL    HW224438   4.406   2.062   3.132  1.8704 -0.0679  1.0795
 4326SOL     OW24439   0.231   0.051   5.540 -0.7152  0.2033 -0.3994
 4326SOL    HW124440   0.273   0.087   5.462  1.3883 -2.2365 -0.3885
 4326SOL    HW224441   0.146   0.023   5.506  0.2185 -0.2359 -2.3885
 4327SOL     OW24442   0.200   3.293   6.288 -0.1251  0.2528  0.2640
 4327SOL    HW124443   0.290   3.324   6.283 -0.1139  0.4381  1.7961
 4327SOL    HW224444   0.149   3.362   6.330  0.7807 -0.5459  2.6535
 4328SOL     OW24445   2.518   3.517   5.050 -0.0993  0.0443 -0.7001
 4328SOL    HW124446   2.587   3.491   4.988 -0.6815 -0.7696 -1.0019
 4328SOL    HW224447   2.513   3.449   5.117 -0.8433  1.7696  0.9945
 4329SOL     OW24448   0.240   0.671  10.662  0.5277 -0.4187 -0.3972
 4329SOL    HW124449   0.310   0.630  10.712  1.9296  2.3164 -0.1226
 4329SOL    HW224450   0.270   0.760  10.642 -1.7000  0.5331  0.4329
 4330SOL     OW24451   1.397   2.806  13.023 -0.0362  0.0291 -0.5391
 4330SOL    HW124452   1.308   2.805  12.989 -0.7054 -0.8757  1.2019
 4330SOL    HW224453   1.398   2.753  13.103  2.0359 -0.9832 -1.2343
 4331SOL     OW24454   2.631   1.718   3.881  0.3983 -0.3166  0.0648
 4331SOL    HW124455   2.594   1.745   3.966  2.4356  1.2232  0.4618
 4331SOL    HW224456   2.596   1.630   3.870  2.2294 -0.6602 -2.7862
 4332SOL     OW24457   0.614   0.094   6.087 -0.0647 -0.1436  0.3340
 4332SOL    HW124458   0.643   0.032   6.020 -0.2434 -0.0174  0.1403
 4332SOL    HW224459   0.524   0.070   6.111 -1.2066  2.0122 -1.7449
 4333SOL     OW24460   4.555   1.573   1.652  0.2636  0.1805  0.2459
 4333SOL    HW124461   4.485   1.508   1.655 -0.3245  0.7321 -1.4218
 4333SOL    HW224462   4.501   1.651   1.638  0.5235 -0.0354 -1.8811
 4334SOL     OW24463   1.006   0.211   5.110  0.2828  0.2438 -0.1131
 4334SOL    HW124464   0.935   0.254   5.062  1.8428  2.8202 -0.1141
 4334SOL    HW224465   1.075   0.203   5.043 -0.4702 -0.0079 -0.8639
 4335SOL     OW24466   4.239   0.783   1.543 -0.2986 -0.2798  0.0862
 4335SOL    HW124467   4.255   0.836   1.621 -0.1586 -2.3328  1.4535
 4335SOL    HW224468   4.278   0.698   1.561  2.1108  0.3676 -1.9902
 4336SOL     OW24469   0.713   0.347   6.572  0.4530  0.1087  0.1298
 4336SOL    HW124470   0.750   0.259   6.583  1.3604  0.3746 -0.7879
 4336SOL    HW224471   0.745   0.362   6.483 -2.7938 -0.9928 -1.2081
 4337SOL     OW24472   4.557   3.023   6.990  0.0315 -0.5914  0.4425
 4337SOL    HW124473   4.530   3.114   6.995  1.8888  0.0102 -0.4381
 4337SOL    HW224474   4.652   3.033   6.988 -0.1490  1.1918  1.0056
 4338SOL     OW24475   0.212   2.748   6.419 -0.3790  0.1321 -0.3243
 4338SOL    HW124476   0.272   2.682   6.454  0.6611  0.3108 -1.7917
 4338SOL    HW224477   0.123   2.720   6.440 -0.8236  1.1799 -0.7726
 4339SOL     OW24478   0.653   0.080   9.147  0.4305  0.1844  0.2966
 4339SOL    HW124479   0.562   0.078   9.119  1.3376 -1.8687 -2.4470
 4339SOL    HW224480   0.633   0.077   9.241 -1.0345  0.3197 -0.0149
 4340SOL     OW24481   3.612   1.909  15.232 -0.4585  0.4153 -0.3079
 4340SOL    HW124482   3.631   2.001  15.212  1.1460 -0.4962 -3.0338
 4340SOL    HW224483   3.604   1.875  15.143  0.1453  0.5265 -0.4013
 4341SOL     OW24484   4.113   0.141  16.487 -0.0454  0.8762 -0.3401
 4341SOL    HW124485   4.051   0.072  16.464  0.1344  0.8544 -0.7608
 4341SOL    HW224486   4.086   0.152  16.578 -1.3444  0.9549 -0.7358
 4342SOL     OW24487   0.993   1.378  10.092 -0.1080  0.0540  0.0440
 4342SOL    HW124488   1.052   1.412  10.025  1.5815 -2.3452  0.3271
 4342SOL    HW224489   0.907   1.394  10.052 -2.0271 -4.4269  2.3820
 4343SOL     OW24490   1.159   4.209   4.166  0.1876 -0.1837  0.1354
 4343SOL    HW124491   1.121   4.225   4.080  0.9923 -0.3147 -0.2462
 4343SOL    HW224492   1.137   4.118   4.182  1.1662 -0.6775 -1.3099
 4344SOL     OW24493   0.555   0.814   3.984  0.0318 -0.0881  0.0660
 4344SOL    HW124494   0.505   0.872   4.041  1.2896 -0.4043  1.4669
 4344SOL    HW224495   0.623   0.877   3.960  0.9212 -1.5606 -1.3207
 4345SOL     OW24496   2.706   2.823  15.005  0.2401  0.0614 -0.2423
 4345SOL    HW124497   2.736   2.895  14.949  1.1394  1.5793  2.2103
 4345SOL    HW224498   2.711   2.754  14.939  1.3924 -1.0599  1.0260
 4346SOL     OW24499   2.369   3.293   7.669  0.4841  0.6954 -0.3455
 4346SOL    HW124500   2.438   3.226   7.671  1.9045  2.0852 -2.7422
 4346SOL    HW224501   2.367   3.318   7.761  0.5507  0.1118 -0.1874
 4347SOL     OW24502   1.711   4.511   4.768 -0.0035 -0.1884  0.2075
 4347SOL    HW124503   1.756   4.474   4.692 -1.3387 -0.7382 -0.3303
 4347SOL    HW224504   1.738   4.603   4.762  1.6874 -0.7463 -0.6179
 4348SOL     OW24505   3.593   3.284   9.163  0.5123  0.0245 -0.2788
 4348SOL    HW124506   3.573   3.339   9.087  2.2320  3.1220  1.4920
 4348SOL    HW224507   3.535   3.208   9.158 -1.7026  1.7143 -0.2093
 4349SOL     OW24508   3.160   2.262   3.181 -0.4347  0.0220  0.3844
 4349SOL    HW124509   3.132   2.254   3.089  1.6567 -0.9834 -0.1442
 4349SOL    HW224510   3.240   2.211   3.188 -1.5267 -1.8845 -0.9346
 4350SOL     OW24511   1.769   2.274   3.649  0.1320 -0.1046  0.1726
 4350SOL    HW124512   1.822   2.304   3.576  0.0534  1.2476  0.6824
 4350SOL    HW224513   1.692   2.329   3.633  0.2591  0.3329  1.0940
 4351SOL     OW24514   0.244   3.636   2.556 -0.0254 -0.3423  0.4233
 4351SOL    HW124515   0.215   3.704   2.495  0.5939  0.3731  0.9163
 4351SOL    HW224516   0.163   3.595   2.584  0.2434 -0.7966  0.5333
 4352SOL     OW24517   4.508   1.191   3.792  0.1082  0.5102  0.2925
 4352SOL    HW124518   4.577   1.126   3.801  0.7130  1.2837  1.1959
 4352SOL    HW224519   4.433   1.152   3.836 -0.1394  1.2579  0.5236
 4353SOL     OW24520   0.880   2.755   4.104  0.7617  0.1540 -0.5402
 4353SOL    HW124521   0.899   2.824   4.039 -0.7842 -0.2253 -1.3910
 4353SOL    HW224522   0.952   2.764   4.167 -0.1674 -2.1293  0.8229
 4354SOL     OW24523   1.084   0.360  13.323  0.0612  0.1149 -0.6246
 4354SOL    HW124524   1.086   0.277  13.371  0.5041  0.5032  0.0383
 4354SOL    HW224525   1.133   0.337  13.245 -0.3901 -1.3616 -0.4711
 4355SOL     OW24526   0.934   2.434   9.849  0.0379  0.2431  0.5264
 4355SOL    HW124527   0.953   2.418   9.942  0.9344  0.2321  0.3389
 4355SOL    HW224528   0.870   2.365   9.832  0.3282  0.2433 -0.5348
 4356SOL     OW24529   1.328   2.901  16.359 -0.3378  0.3831 -0.0859
 4356SOL    HW124530   1.235   2.879  16.373 -0.5799  0.7649 -1.1252
 4356SOL    HW224531   1.375   2.828  16.319  0.9181  1.1245  0.0317
 4357SOL     OW24532   2.663   2.734   2.252  0.2392 -0.4256  0.1634
 4357SOL    HW124533   2.666   2.665   2.317 -1.2923 -0.5541  0.1110
 4357SOL    HW224534   2.747   2.730   2.207  0.0467  0.6393 -0.3044
 4358SOL     OW24535   0.918   1.030  10.329  0.2224  0.2851  0.5794
 4358SOL    HW124536   0.875   0.986  10.256  2.5842 -0.7246 -0.2057
 4358SOL    HW224537   0.844   1.086  10.354  0.3375  1.5318 -1.8690
 4359SOL     OW24538   3.060   0.544  10.505 -0.2398 -0.1784  0.5412
 4359SOL    HW124539   2.987   0.593  10.544  0.9757  1.0233  1.2760
 4359SOL    HW224540   3.021   0.520  10.421  0.1591  1.3847 -0.0720
 4360SOL     OW24541   4.314   2.153  16.723 -0.3657 -0.5819  0.4289
 4360SOL    HW124542   4.259   2.158  16.801 -1.3578 -1.0858 -0.2230
 4360SOL    HW224543   4.329   2.060  16.707  1.4836  0.3001 -3.0539
 4361SOL     OW24544   2.853   1.517   5.279 -0.3989 -1.0628 -0.8138
 4361SOL    HW124545   2.796   1.457   5.231  0.1259 -1.7067 -0.6380
 4361SOL    HW224546   2.785   1.580   5.303  1.0959 -0.1943  1.1836
 4362SOL     OW24547   3.620   1.719  13.635 -0.4846 -0.1762 -0.0713
 4362SOL    HW124548   3.631   1.776  13.558  0.2756 -0.0718  0.1152
 4362SOL    HW224549   3.635   1.631  13.601  0.3962  0.1548 -0.5486
 4363SOL     OW24550   0.235   3.150   7.283  0.7747  0.4114 -0.0847
 4363SOL    HW124551   0.283   3.125   7.362  0.1633 -1.8249 -0.4282
 4363SOL    HW224552   0.169   3.204   7.327  0.8081 -0.0059  0.4818
 4364SOL     OW24553   3.671   3.877  12.077 -0.1173 -0.0009  0.3460
 4364SOL    HW124554   3.750   3.848  12.122  0.1485  0.3644  0.1186
 4364SOL    HW224555   3.623   3.894  12.158 -1.0534 -0.4875 -0.1132
 4365SOL     OW24556   0.478   1.998   5.057 -0.4812 -0.3975 -0.1442
 4365SOL    HW124557   0.450   2.055   4.985  1.5599  0.0776 -0.5705
 4365SOL    HW224558   0.439   1.915   5.030  0.9938 -1.2167  0.2353
 4366SOL     OW24559   3.699   1.904   6.902  0.7125 -0.2316  0.1821
 4366SOL    HW124560   3.728   1.845   6.832 -1.5632 -1.1895  0.0413
 4366SOL    HW224561   3.748   1.983   6.878  0.0197  0.2817  0.4795
 4367SOL     OW24562   4.617   3.851  10.074 -0.2531  0.1065 -0.2193
 4367SOL    HW124563   4.702   3.865  10.115  0.1081 -0.1468 -0.8735
 4367SOL    HW224564   4.582   3.777  10.123  0.0890 -0.7082 -1.1971
 4368SOL     OW24565   2.584   4.085  12.260  0.4632 -0.0793  0.7325
 4368SOL    HW124566   2.652   4.037  12.212 -1.1285 -1.9444  0.3520
 4368SOL    HW224567   2.634   4.121  12.333 -0.0023 -0.7219  1.3680
 4369SOL     OW24568   2.729   4.013   2.976 -0.0502 -0.1933  0.1095
 4369SOL    HW124569   2.753   3.930   3.016 -2.0208 -1.1744 -0.7509
 4369SOL    HW224570   2.760   3.987   2.889  0.1071 -2.5522  0.8780
 4370SOL     OW24571   0.500   1.445   6.557  0.2327 -0.1577  0.7989
 4370SOL    HW124572   0.528   1.503   6.486  1.6403 -0.2501  1.2674
 4370SOL    HW224573   0.511   1.363   6.509 -2.0294 -0.6771  1.1634
 4371SOL     OW24574   4.451   1.951   3.524 -0.3480 -0.5498  0.1026
 4371SOL    HW124575   4.420   1.862   3.544 -0.4425 -0.2667  1.1669
 4371SOL    HW224576   4.545   1.944   3.538 -0.4340 -0.5377  0.6586
 4372SOL     OW24577   2.316   3.710   1.061 -0.0835 -0.2128 -0.1806
 4372SOL    HW124578   2.350   3.694   1.149 -2.1530 -1.2741  0.4146
 4372SOL    HW224579   2.261   3.787   1.077  1.1437  0.7385 -0.4822
 4373SOL     OW24580   0.249   3.800  14.885 -0.2922 -0.5059 -0.4295
 4373SOL    HW124581   0.316   3.753  14.835  0.1463 -0.0909 -0.2285
 4373SOL    HW224582   0.302   3.870  14.923 -1.0753  0.8415 -1.8109
 4374SOL     OW24583   0.082   2.583   7.123 -0.1185  0.5465 -0.5564
 4374SOL    HW124584   0.020   2.651   7.094 -0.8046  0.0991 -0.1342
 4374SOL    HW224585   0.151   2.636   7.162  1.9594 -2.3866 -0.3434
 4375SOL     OW24586   0.910   2.091   1.008 -0.1879  0.1112  0.0461
 4375SOL    HW124587   0.866   2.144   1.073  0.8202  1.0474 -0.0436
 4375SOL    HW224588   0.838   2.069   0.949 -0.7374 -0.2240  0.8501
 4376SOL     OW24589   1.653   0.014   2.790 -0.3239 -0.2562  0.4625
 4376SOL    HW124590   1.611   4.651   2.764  0.4010 -1.2406  2.3495
 4376SOL    HW224591   1.652   0.063   2.708 -3.3454 -1.4359 -0.2250
 4377SOL     OW24592   1.978   3.917   8.571 -0.0737  0.6798 -0.2792
 4377SOL    HW124593   2.063   3.961   8.570  0.2663  0.0408  2.0382
 4377SOL    HW224594   1.971   3.898   8.477 -0.2973  0.5073 -0.2277
 4378SOL     OW24595   2.874   1.802   3.932 -0.1057  0.8712 -0.5718
 4378SOL    HW124596   2.788   1.761   3.921  0.6413 -1.0364  0.6806
 4378SOL    HW224597   2.909   1.777   3.847  1.0027 -2.4210  0.8730
 4379SOL     OW24598   1.846   3.320   5.992 -0.0016  0.0466  0.2404
 4379SOL    HW124599   1.782   3.375   6.037  0.8726 -1.3852  3.2804
 4379SOL    HW224600   1.879   3.375   5.921  1.6896 -0.5959  0.5383
 4380SOL     OW24601   2.914   0.541  12.613 -0.2095  0.1815 -0.9549
 4380SOL    HW124602   2.981   0.609  12.605 -1.9670  2.3217  2.3389
 4380SOL    HW224603   2.961   0.470  12.656  0.1784  1.1873  0.3032
 4381SOL     OW24604   0.071   4.551  16.385 -0.8041 -0.2437 -0.2892
 4381SOL    HW124605   0.103   4.569  16.473 -1.3529  0.5350 -0.2438
 4381SOL    HW224606   0.018   4.473  16.405  0.2552 -0.4053  1.8962
 4382SOL     OW24607   2.368   2.067   1.025 -0.0029 -0.3803  0.5146
 4382SOL    HW124608   2.398   2.003   1.090 -0.0188  0.5853  1.4719
 4382SOL    HW224609   2.277   2.039   1.034  0.0805 -1.3397 -1.7320
 4383SOL     OW24610   2.202   0.056   5.938  0.1347  0.1311  0.0568
 4383SOL    HW124611   2.292   0.047   5.907  0.7161  1.6033  1.3242
 4383SOL    HW224612   2.169   4.686   5.925  1.1739 -0.2687  0.2180
 4384SOL     OW24613   1.338   2.689  12.633 -0.2449  0.1509  0.3091
 4384SOL    HW124614   1.318   2.772  12.590  0.0693 -0.1235 -0.3716
 4384SOL    HW224615   1.433   2.693  12.626 -0.1232 -0.4287  1.7042
 4385SOL     OW24616   0.462   3.132   5.876 -0.4001  0.2048  0.2182
 4385SOL    HW124617   0.410   3.107   5.799 -1.5999 -0.0929  1.1403
 4385SOL    HW224618   0.408   3.146   5.953  0.7703 -0.2216  1.1074
 4386SOL     OW24619   1.293   4.388  15.876  0.0643  0.1845 -0.7520
 4386SOL    HW124620   1.305   4.473  15.835 -0.0997  0.9624  0.8171
 4386SOL    HW224621   1.376   4.374  15.921 -0.7703  0.7463  0.9733
 4387SOL     OW24622   2.083   1.735  12.238  0.1805 -0.2508  0.1608
 4387SOL    HW124623   2.101   1.828  12.251  2.1938 -0.6978  0.6007
 4387SOL    HW224624   2.006   1.718  12.291 -1.5874 -3.5403 -3.4690
 4388SOL     OW24625   2.684   2.052   4.070  0.2084 -0.2253  0.3610
 4388SOL    HW124626   2.702   1.962   4.097  0.0302 -0.5334 -0.5468
 4388SOL    HW224627   2.598   2.053   4.029  1.1908 -0.4150 -1.7149
 4389SOL     OW24628   2.215   3.483   1.858 -0.0342 -0.2751  0.4385
 4389SOL    HW124629   2.276   3.434   1.912 -0.3883  1.4213  2.3915
 4389SOL    HW224630   2.230   3.432   1.778  0.2811 -0.8713  0.8853
 4390SOL     OW24631   1.930   3.813   3.949 -0.4539 -0.3974 -0.1102
 4390SOL    HW124632   1.908   3.823   4.041  2.3949  1.8220  0.3272
 4390SOL    HW224633   1.994   3.744   3.965  0.6622  0.4675 -0.8308
 4391SOL     OW24634   0.629   0.815   9.350  0.0018 -0.0796  0.3515
 4391SOL    HW124635   0.602   0.767   9.429 -0.1031 -1.5250 -0.5694
 4391SOL    HW224636   0.610   0.905   9.375  0.3598 -0.2808  1.3502
 4392SOL     OW24637   3.886   4.713  10.361  0.6710 -0.2545  0.0112
 4392SOL    HW124638   3.974   0.010  10.328  0.0332 -0.9683 -1.9943
 4392SOL    HW224639   3.873   4.618  10.359 -1.2974 -0.0043  0.9565
 4393SOL     OW24640   1.099   4.115   3.128  0.4637  0.0201  0.0687
 4393SOL    HW124641   1.132   4.127   3.039 -0.2603  0.7270 -0.1080
 4393SOL    HW224642   1.006   4.134   3.111  0.6670  0.1099 -0.9536
 4394SOL     OW24643   0.550   1.503   9.755 -0.6545  0.8927 -0.2411
 4394SOL    HW124644   0.615   1.547   9.700 -0.3647  0.0215 -0.6028
 4394SOL    HW224645   0.500   1.581   9.781 -1.2106 -0.1086  1.6758
 4395SOL     OW24646   2.121   2.701   7.657 -0.1573 -0.0713  0.1657
 4395SOL    HW124647   2.064   2.740   7.590  1.0275  3.3148  1.1026
 4395SOL    HW224648   2.206   2.727   7.621 -0.7587 -0.7548 -1.7214
 4396SOL     OW24649   2.063   2.012  12.056 -0.5231  0.6343  0.6941
 4396SOL    HW124650   2.008   2.081  12.092  1.0705  1.3691  1.7053
 4396SOL    HW224651   2.135   2.018  12.119 -0.2396  0.3267  0.4030
 4397SOL     OW24652   0.218   1.820  14.130 -0.4212 -0.1143 -0.1273
 4397SOL    HW124653   0.266   1.828  14.212  0.3140 -0.7742 -0.4967
 4397SOL    HW224654   0.276   1.773  14.071 -1.5537  0.5076 -1.7451
 4398SOL     OW24655   2.449   1.623   8.428  0.3882 -0.5780 -0.1298
 4398SOL    HW124656   2.459   1.707   8.473 -0.6998 -1.1754  1.2352
 4398SOL    HW224657   2.498   1.636   8.347 -1.9928 -1.4556 -1.7116
 4399SOL     OW24658   2.687   3.788   3.362 -0.0760 -0.1168  0.4458
 4399SOL    HW124659   2.700   3.706   3.314 -0.3779 -0.3476  0.7609
 4399SOL    HW224660   2.604   3.815   3.323  0.1322  2.2279  1.6739
 4400SOL     OW24661   2.249   2.650  14.454  0.3797  0.3509  0.3360
 4400SOL    HW124662   2.222   2.572  14.405 -0.1045  0.6167  0.1858
 4400SOL    HW224663   2.274   2.708  14.382  0.5822 -2.0870 -1.5462
 4401SOL     OW24664   4.613   2.766   7.057  0.2110 -0.3680  0.0428
 4401SOL    HW124665   4.595   2.745   6.965  0.3568 -0.1607 -0.0330
 4401SOL    HW224666   4.602   2.861   7.065  0.1334 -0.3396 -0.4087
 4402SOL     OW24667   2.164   2.584   2.048 -0.2444 -0.0885 -0.4438
 4402SOL    HW124668   2.236   2.640   2.080  0.2229 -0.4537 -0.8593
 4402SOL    HW224669   2.170   2.515   2.114 -1.3431  1.9908  1.8349
 4403SOL     OW24670   2.706   2.687  10.663 -0.3495 -0.1063 -0.3811
 4403SOL    HW124671   2.799   2.677  10.643 -0.4300 -0.1130 -0.7429
 4403SOL    HW224672   2.701   2.619  10.730 -0.2266 -1.2908 -1.5870
 4404SOL     OW24673   0.552   2.828  14.946 -0.4883  0.6226 -0.5347
 4404SOL    HW124674   0.592   2.758  14.997  0.6337  0.8297 -1.1187
 4404SOL    HW224675   0.615   2.900  14.952  1.9007 -1.8601  4.0787
 4405SOL     OW24676   1.148   1.503  11.689  0.1717 -0.0421  0.1016
 4405SOL    HW124677   1.243   1.509  11.691  0.0978  0.7888  0.8898
 4405SOL    HW224678   1.124   1.567  11.755  3.0882 -1.5110  2.5782
 4406SOL     OW24679   3.317   1.358   4.301 -0.1302 -0.1701  0.3242
 4406SOL    HW124680   3.341   1.448   4.322 -0.2301  0.1329 -0.8420
 4406SOL    HW224681   3.271   1.376   4.219  0.6527  0.7328  0.0830
 4407SOL     OW24682   0.057   0.019   7.429 -0.2776 -0.4434  0.1873
 4407SOL    HW124683   0.005   0.069   7.365  3.4706  3.6547  0.3673
 4407SOL    HW224684   4.710   4.717   7.495  0.7143 -0.8194  1.0537
 4408SOL     OW24685   3.964   3.420  11.820  0.6567 -0.3590 -0.6626
 4408SOL    HW124686   4.018   3.388  11.748  0.5665  2.9585 -2.2261
 4408SOL    HW224687   3.964   3.350  11.885  1.5574 -2.8127 -3.2917
 4409SOL     OW24688   1.051   0.401   8.170  0.0059  0.5996 -0.6845
 4409SOL    HW124689   1.083   0.312   8.181  0.1924  0.6814 -0.5727
 4409SOL    HW224690   1.048   0.405   8.074  1.4740 -0.4818 -0.7743
 4410SOL     OW24691   2.179   0.608   2.595 -0.8094  0.2458 -0.0982
 4410SOL    HW124692   2.155   0.662   2.520  1.8189 -1.6742 -2.2973
 4410SOL    HW224693   2.274   0.621   2.600 -0.1827 -4.2492 -0.9089
 4411SOL     OW24694   2.760   2.577  17.017  0.0935  0.3372 -0.4098
 4411SOL    HW124695   2.844   2.547  16.981 -0.6637 -0.5353 -1.4461
 4411SOL    HW224696   2.717   2.608  16.937 -1.6181  0.9020  0.7278
 4412SOL     OW24697   3.179   2.960   3.181  0.0739  0.3324  0.4657
 4412SOL    HW124698   3.137   2.875   3.187  1.2758 -0.2876  0.1555
 4412SOL    HW224699   3.100   3.001   3.216 -0.1101 -0.1509  0.6036
 4413SOL     OW24700   2.650   0.651   7.678 -0.1594  0.2418  0.6669
 4413SOL    HW124701   2.560   0.673   7.703 -0.6662 -1.5173  0.4521
 4413SOL    HW224702   2.685   0.736   7.702  0.7434  0.4849 -1.6276
 4414SOL     OW24703   1.258   3.376   3.254 -0.1105 -0.3415  0.6704
 4414SOL    HW124704   1.278   3.297   3.202 -0.8804 -0.1048  0.0073
 4414SOL    HW224705   1.181   3.406   3.205  0.4790 -0.3599 -0.2744
 4415SOL     OW24706   2.737   1.602   9.449 -0.4625 -0.6555 -0.4118
 4415SOL    HW124707   2.724   1.693   9.476 -1.3739 -1.2714  1.1994
 4415SOL    HW224708   2.791   1.628   9.374 -0.4562  0.1395 -0.1404
 4416SOL     OW24709   1.173   4.272   3.826  0.4750  0.0725 -0.1617
 4416SOL    HW124710   1.085   4.303   3.809 -0.6621 -2.3892  1.1676
 4416SOL    HW224711   1.153   4.179   3.838 -0.5760  0.1515 -1.2773
 4417SOL     OW24712   4.066   0.040   8.053  0.1960 -0.3947  0.4681
 4417SOL    HW124713   4.141   0.014   7.999  0.6751  1.5414  0.2159
 4417SOL    HW224714   4.114   0.076   8.127 -1.0217  0.2536  0.9310
 4418SOL     OW24715   2.908   0.532   5.434  0.1085  0.1795  0.1652
 4418SOL    HW124716   2.914   0.462   5.499  0.3023  3.1626  3.3687
 4418SOL    HW224717   2.903   0.607   5.493  1.0852  0.9651 -0.7722
 4419SOL     OW24718   1.065   2.694  10.327  0.2031  0.2150  0.2560
 4419SOL    HW124719   1.080   2.780  10.365 -1.6895  0.9255 -0.5893
 4419SOL    HW224720   1.064   2.632  10.401  0.4820 -0.8306 -0.6125
 4420SOL     OW24721   2.481   2.059   6.349 -0.0638 -0.2241  0.4824
 4420SOL    HW124722   2.411   2.124   6.342 -0.0919 -0.3671 -0.6522
 4420SOL    HW224723   2.538   2.077   6.274 -0.3608  1.1251  0.5804
 4421SOL     OW24724   2.356   3.262   3.263  0.4054 -0.0994  0.4255
 4421SOL    HW124725   2.362   3.227   3.175 -0.9417 -2.7049  1.3664
 4421SOL    HW224726   2.435   3.230   3.306 -0.0663 -0.3682  1.1118
 4422SOL     OW24727   4.169   4.046   4.732  0.0558 -0.6981 -0.0565
 4422SOL    HW124728   4.122   4.125   4.704 -0.3898  0.1542  3.0855
 4422SOL    HW224729   4.246   4.046   4.676  0.1201  1.4259  0.0105
 4423SOL     OW24730   3.824   1.719  12.943  0.1503  0.1731  0.0442
 4423SOL    HW124731   3.862   1.677  12.866  0.4123  0.0262  0.2552
 4423SOL    HW224732   3.777   1.792  12.901  1.0073 -0.0161 -1.2559
 4424SOL     OW24733   4.472   0.088   9.409  0.0503  0.3923  1.1100
 4424SOL    HW124734   4.472   4.712   9.398  3.2003  0.6159 -0.9097
 4424SOL    HW224735   4.384   0.122   9.390  0.4782  1.5147  1.1729
 4425SOL     OW24736   0.291   2.447   4.472 -0.6173 -0.1984  0.2487
 4425SOL    HW124737   0.366   2.493   4.510 -0.8234 -0.9479  1.5903
 4425SOL    HW224738   0.334   2.383   4.416 -1.5853 -0.0006 -0.7203
 4426SOL     OW24739   0.672   2.376  16.496  0.0730 -0.3225  0.0233
 4426SOL    HW124740   0.584   2.371  16.458  1.4432 -0.4815 -3.1525
 4426SOL    HW224741   0.645   2.401  16.584 -0.4746  0.6888 -0.4306
 4427SOL     OW24742   0.433   0.313   4.312 -0.4232  0.6632  0.3491
 4427SOL    HW124743   0.368   0.259   4.267  0.3627  0.4463 -0.5326
 4427SOL    HW224744   0.505   0.296   4.252 -1.3314 -0.5693 -0.3814
 4428SOL     OW24745   1.169   1.442   3.948 -0.5801  0.1286 -0.4215
 4428SOL    HW124746   1.108   1.373   3.975 -0.2648 -0.0808 -0.2488
 4428SOL    HW224747   1.192   1.473   4.035 -0.8672 -0.9570  0.0464
 4429SOL     OW24748   0.248   3.825   7.023  0.7733  0.0069  0.5823
 4429SOL    HW124749   0.179   3.889   7.004  0.5592 -0.6942 -0.9772
 4429SOL    HW224750   0.251   3.838   7.117 -0.7742  2.8406  0.2498
 4430SOL     OW24751   3.897   2.016   2.146  0.3840 -0.1636  0.0012
 4430SOL    HW124752   3.965   2.036   2.082 -0.7617 -0.8352 -1.4483
 4430SOL    HW224753   3.849   1.957   2.088  0.9730  1.5817 -2.3014
 4431SOL     OW24754   1.612   3.021  13.517 -0.3613 -0.3592  0.4120
 4431SOL    HW124755   1.651   3.103  13.485  0.2178 -1.3504 -1.4212
 4431SOL    HW224756   1.682   2.990  13.575 -1.0664  1.6211  2.3468
 4432SOL     OW24757   2.257   1.106   8.031  0.0393 -0.1023  0.1450
 4432SOL    HW124758   2.205   1.140   7.958 -1.4754  0.4444  1.4779
 4432SOL    HW224759   2.244   1.016   8.001 -0.7898 -0.7374  2.4369
 4433SOL     OW24760   0.692   1.229   8.203 -0.1042  0.0683 -0.2192
 4433SOL    HW124761   0.697   1.220   8.298 -0.9927 -2.2368 -0.3942
 4433SOL    HW224762   0.628   1.166   8.172 -1.6650  1.4919  0.1139
 4434SOL     OW24763   2.593   1.802  11.174 -0.3140  0.3169 -0.0763
 4434SOL    HW124764   2.575   1.888  11.213  1.0303 -0.4768  2.2437
 4434SOL    HW224765   2.677   1.801  11.220 -0.3393  3.6048  0.0696
 4435SOL     OW24766   4.425   0.345  14.218  0.6825  0.5239  0.0618
 4435SOL    HW124767   4.383   0.285  14.157  0.4605  2.0313 -1.2718
 4435SOL    HW224768   4.508   0.301  14.236 -0.3153 -0.8648  1.2509
 4436SOL     OW24769   1.147   2.808   3.184 -0.5004  0.6308 -0.4514
 4436SOL    HW124770   1.115   2.718   3.191  1.1373  0.0927  0.0792
 4436SOL    HW224771   1.223   2.809   3.243  1.3704  2.5196 -2.8833
 4437SOL     OW24772   2.089   2.462   4.872  0.0619  0.3685 -0.2419
 4437SOL    HW124773   2.137   2.543   4.890  0.4596  0.3832 -1.4111
 4437SOL    HW224774   2.001   2.490   4.847 -0.4441 -0.4106  0.6328
 4438SOL     OW24775   3.470   3.779   1.673 -0.4474 -0.2514  0.1414
 4438SOL    HW124776   3.549   3.726   1.658 -1.8521 -2.1184 -0.6510
 4438SOL    HW224777   3.416   3.713   1.716 -0.4181 -1.3027 -1.4050
 4439SOL     OW24778   2.722   2.623  15.664  0.1588  0.3964 -0.3073
 4439SOL    HW124779   2.817   2.627  15.666  0.0598  2.0962  1.5468
 4439SOL    HW224780   2.694   2.664  15.583  0.2636  1.2750  0.1028
 4440SOL     OW24781   4.463   3.002  16.293 -0.4887  0.1326 -0.7952
 4440SOL    HW124782   4.548   3.041  16.316 -0.3055  0.5554 -2.1718
 4440SOL    HW224783   4.489   2.921  16.250 -1.1285  2.2454 -5.2051
 4441SOL     OW24784   2.044   0.049   0.072  0.3074  0.0176 -0.5500
 4441SOL    HW124785   1.959   0.012   0.095  0.3829 -1.1951 -2.1805
 4441SOL    HW224786   2.021   0.141   0.079  2.1641  0.3215  1.6291
 4442SOL     OW24787   4.566   4.706   4.399  0.5136 -0.6955  0.4892
 4442SOL    HW124788   4.519   0.068   4.385 -2.5009 -2.2890  1.1722
 4442SOL    HW224789   4.653   0.024   4.389 -0.3965  1.4178  0.4281
 4443SOL     OW24790   0.374   2.173  10.537 -0.1846  0.0093  0.3502
 4443SOL    HW124791   0.308   2.238  10.514 -1.3298 -0.5074  2.1739
 4443SOL    HW224792   0.406   2.150  10.449 -1.5127 -0.2388 -0.0576
 4444SOL     OW24793   2.350   0.115   7.217 -0.1907 -0.0454  0.3920
 4444SOL    HW124794   2.387   0.054   7.281  2.2816  1.8736  0.8202
 4444SOL    HW224795   2.273   0.154   7.259 -0.6729 -0.2015 -0.3495
 4445SOL     OW24796   1.744   0.268  12.277 -0.5309  0.1259 -0.0831
 4445SOL    HW124797   1.791   0.241  12.355 -0.8253 -0.0231  0.0416
 4445SOL    HW224798   1.731   0.362  12.286 -1.1574  0.1699 -1.3276
 4446SOL     OW24799   1.446   0.714   6.019 -0.4005  0.4636 -0.3246
 4446SOL    HW124800   1.504   0.676   6.085  0.3275 -0.1337 -1.3092
 4446SOL    HW224801   1.452   0.643   5.955 -0.8622 -1.0702  1.3355
 4447SOL     OW24802   2.091   1.510  13.371 -0.2097 -0.1033 -0.5978
 4447SOL    HW124803   2.050   1.597  13.376 -2.2580 -1.1244  0.1914
 4447SOL    HW224804   2.017   1.451  13.385  0.2713 -0.1134  1.8684
 4448SOL     OW24805   4.588   2.958  11.467  0.0838  0.4110 -0.7187
 4448SOL    HW124806   4.536   2.958  11.386  0.4581 -3.2897 -0.9574
 4448SOL    HW224807   4.528   2.968  11.540  1.5275  1.8275  0.2740
 4449SOL     OW24808   1.342   0.896   8.384  0.2353 -0.6245  0.0022
 4449SOL    HW124809   1.316   0.930   8.298 -1.3169  4.0976  2.3300
 4449SOL    HW224810   1.405   0.965   8.404  0.5789 -0.8694 -0.2323
 4450SOL     OW24811   4.106   4.295   1.111 -0.5262 -0.5107  0.2537
 4450SOL    HW124812   4.018   4.310   1.077 -0.0838 -0.9340 -1.1051
 4450SOL    HW224813   4.104   4.340   1.195 -0.6822 -2.8047  1.4679
 4451SOL     OW24814   2.885   1.349   5.638  0.6384  0.5895 -0.1896
 4451SOL    HW124815   2.871   1.412   5.708 -2.1600 -1.7716  1.4136
 4451SOL    HW224816   2.841   1.273   5.678 -0.1310  0.5040 -1.1870
 4452SOL     OW24817   1.239   3.175   1.708 -0.8075 -0.0476  0.1995
 4452SOL    HW124818   1.173   3.229   1.750 -0.3347  0.0715  0.7847
 4452SOL    HW224819   1.311   3.182   1.770 -0.5382  1.4168 -0.2915
 4453SOL     OW24820   3.191   2.659   1.147 -0.2966  0.0701 -0.0778
 4453SOL    HW124821   3.182   2.570   1.112 -0.5151 -0.4695  1.3316
 4453SOL    HW224822   3.225   2.712   1.075 -2.9704  0.5511 -0.9892
 4454SOL     OW24823   1.028   1.897  12.735  0.4661 -0.3179 -0.2405
 4454SOL    HW124824   0.943   1.926  12.705  0.4576 -0.0843  0.0068
 4454SOL    HW224825   1.081   1.970  12.702 -2.0142  1.2642 -0.6497
 4455SOL     OW24826   4.515   0.294  17.657 -0.2635  0.5675 -0.0359
 4455SOL    HW124827   4.558   0.328   0.055 -1.5612  0.2118  0.8133
 4455SOL    HW224828   4.574   0.339  17.596 -3.7321  1.3339 -2.8035
 4456SOL     OW24829   2.596   1.951  12.098  0.0136  0.0168  0.0129
 4456SOL    HW124830   2.562   2.035  12.128  1.0729 -0.1993  1.8654
 4456SOL    HW224831   2.546   1.936  12.018  0.5758 -1.0091 -0.1563
 4457SOL     OW24832   3.138   4.098   5.828 -0.0437 -0.1164 -0.4284
 4457SOL    HW124833   3.186   4.037   5.885 -0.3291  0.5510  0.5268
 4457SOL    HW224834   3.055   4.108   5.874 -0.9849 -1.7897 -1.7757
 4458SOL     OW24835   0.806   2.580  11.401  0.0450  0.0718  0.0970
 4458SOL    HW124836   0.801   2.488  11.427  0.8282 -0.1336 -0.4451
 4458SOL    HW224837   0.732   2.583  11.340 -1.2238 -0.3279  1.6359
 4459SOL     OW24838   2.914   0.742   5.618  0.2029  0.1110 -0.5489
 4459SOL    HW124839   2.832   0.692   5.626  0.5266 -0.2824  0.3782
 4459SOL    HW224840   2.887   0.819   5.567  1.4585  1.0975  0.2824
 4460SOL     OW24841   2.649   3.301   6.372  0.1815 -0.3102  0.5206
 4460SOL    HW124842   2.560   3.290   6.405 -0.8093 -1.7743 -2.7263
 4460SOL    HW224843   2.624   3.353   6.296 -0.0557 -2.0878 -0.5955
 4461SOL     OW24844   2.250   1.626  17.533 -0.1506 -0.6105  0.4773
 4461SOL    HW124845   2.208   1.544  17.509  0.4386 -0.8809  0.3732
 4461SOL    HW224846   2.214   1.643  17.620  1.2290 -0.8609  1.0903
 4462SOL     OW24847   0.658   1.636  13.794  0.0809 -0.5387  0.3784
 4462SOL    HW124848   0.629   1.676  13.712 -1.9108 -2.6234  0.0434
 4462SOL    HW224849   0.713   1.704  13.833 -0.8024  0.0329  0.6372
 4463SOL     OW24850   1.964   2.517   8.522  0.3305  0.5266  0.5699
 4463SOL    HW124851   1.993   2.565   8.444  1.2938 -1.0798 -0.0650
 4463SOL    HW224852   1.880   2.477   8.502  0.1829 -0.8350  3.9450
 4464SOL     OW24853   1.597   3.705   6.512  0.1834  1.0611  0.0814
 4464SOL    HW124854   1.548   3.628   6.539  0.9214  0.6999  0.4017
 4464SOL    HW224855   1.532   3.753   6.460 -0.8132  1.1334  1.4165
 4465SOL     OW24856   4.171   0.768  10.577 -0.3196  0.2984  0.4758
 4465SOL    HW124857   4.231   0.836  10.545  0.8048 -1.3663 -0.9842
 4465SOL    HW224858   4.113   0.762  10.500  0.1761  0.2623  0.1057
 4466SOL     OW24859   3.174   0.727   5.647  0.2673  0.1310  0.3099
 4466SOL    HW124860   3.079   0.730   5.645  0.2602 -0.1727  0.0540
 4466SOL    HW224861   3.203   0.706   5.558 -1.7538 -1.0334 -0.0795
 4467SOL     OW24862   0.685   0.975   9.711 -0.4115  0.0373  0.3279
 4467SOL    HW124863   0.714   1.063   9.736 -0.2502 -0.6655  2.6135
 4467SOL    HW224864   0.699   0.974   9.616  1.2432  0.9818  0.5653
 4468SOL     OW24865   3.350   1.966  11.890  0.4476  0.1957  0.4138
 4468SOL    HW124866   3.446   1.972  11.896  0.6175 -0.3819 -1.8912
 4468SOL    HW224867   3.326   1.984  11.799  1.9690 -2.5158 -0.5219
 4469SOL     OW24868   1.966   2.053  13.698  0.1584 -0.4290  0.0270
 4469SOL    HW124869   1.899   2.026  13.635 -0.0033 -1.3901  0.6283
 4469SOL    HW224870   1.958   1.983  13.762 -1.1022  0.8552  1.2575
 4470SOL     OW24871   3.405   4.117   8.944  0.1923  0.0724  0.1954
 4470SOL    HW124872   3.403   4.212   8.954  0.8094  0.0496  0.5344
 4470SOL    HW224873   3.467   4.101   9.015 -0.1422  2.1502  0.9471
 4471SOL     OW24874   1.079   1.299   7.649  0.3216  0.1249  0.0495
 4471SOL    HW124875   1.012   1.231   7.651  1.8546 -1.3782 -0.0364
 4471SOL    HW224876   1.138   1.273   7.720  0.1003 -0.1571  0.1293
 4472SOL     OW24877   3.744   1.595   1.744  0.2706 -0.4805  0.2742
 4472SOL    HW124878   3.782   1.517   1.782 -1.8895 -0.1692  3.0215
 4472SOL    HW224879   3.657   1.558   1.726  0.1581  0.4991 -1.2278
 4473SOL     OW24880   4.584   1.905  14.229  0.0647 -0.5901  0.0352
 4473SOL    HW124881   4.551   1.967  14.294 -0.6181  2.2019 -3.0376
 4473SOL    HW224882   4.652   1.950  14.180  0.3858  0.6863  1.6423
 4474SOL     OW24883   1.406   0.582   2.013  0.5400 -0.8264 -0.1926
 4474SOL    HW124884   1.314   0.579   1.987  0.0841  1.3176  1.2148
 4474SOL    HW224885   1.460   0.576   1.935 -0.9788  0.8648 -1.3525
 4475SOL     OW24886   3.580   1.359   9.203  0.3237 -0.4456 -0.4191
 4475SOL    HW124887   3.539   1.378   9.288  0.3983 -0.4601 -0.3802
 4475SOL    HW224888   3.657   1.414   9.210 -0.4516  0.7000 -0.9501
 4476SOL     OW24889   0.219   3.227   5.504 -0.5233  0.4936 -0.3288
 4476SOL    HW124890   0.193   3.294   5.441 -1.3759  0.5377  0.0627
 4476SOL    HW224891   0.215   3.273   5.588  0.2507  1.5870 -0.8920
 4477SOL     OW24892   3.424   2.007   8.942 -0.2803  0.2053 -0.0102
 4477SOL    HW124893   3.415   1.957   8.861  0.9571  1.3103 -0.8414
 4477SOL    HW224894   3.409   2.094   8.905  0.2536 -0.4315 -1.7046
 4478SOL     OW24895   1.452   2.795  15.235  0.0186 -0.2140  0.2542
 4478SOL    HW124896   1.410   2.828  15.155 -1.7156  0.3695  1.3998
 4478SOL    HW224897   1.476   2.709  15.200 -2.1663 -1.1213  0.9489
 4479SOL     OW24898   3.923   1.156   8.827  0.3938  0.1407  0.2117
 4479SOL    HW124899   3.919   1.133   8.919 -2.3342  0.5117  0.2090
 4479SOL    HW224900   3.896   1.247   8.836 -1.0933 -0.2195 -0.5102
 4480SOL     OW24901   2.861   3.700   3.922  0.4663 -0.8119 -0.0655
 4480SOL    HW124902   2.849   3.795   3.926  0.5300 -0.7991 -0.1745
 4480SOL    HW224903   2.788   3.686   3.981  1.8923 -0.8537  1.6827
 4481SOL     OW24904   4.256   3.464   5.665  0.0379 -0.0588  0.0064
 4481SOL    HW124905   4.174   3.493   5.704  0.3148 -0.0509  0.5868
 4481SOL    HW224906   4.220   3.387   5.622 -0.4437 -0.0286  0.3573
 4482SOL     OW24907   0.465   2.071   3.018  0.7263 -0.1304  0.1585
 4482SOL    HW124908   0.414   2.150   3.001  2.2412  0.5276 -1.2762
 4482SOL    HW224909   0.457   2.075   3.113 -1.2890  1.7279 -0.0799
 4483SOL     OW24910   3.185   2.836   3.755  0.1902  0.1907  0.1476
 4483SOL    HW124911   3.175   2.882   3.838  0.2882  0.0898  0.2164
 4483SOL    HW224912   3.179   2.746   3.785  0.5422 -0.1890 -0.9183
 4484SOL     OW24913   4.704   2.237  12.224  0.1624  0.7243 -0.3710
 4484SOL    HW124914   4.643   2.309  12.207  0.2256  0.6390 -0.9474
 4484SOL    HW224915   0.067   2.278  12.197 -0.3130  2.0149  0.1097
 4485SOL     OW24916   2.402   4.669  17.172  0.0740 -0.9399 -0.6701
 4485SOL    HW124917   2.369   0.034  17.141  0.3957 -0.4385  0.3524
 4485SOL    HW224918   2.442   4.635  17.092 -1.6772  0.8596 -2.3018
 4486SOL     OW24919   3.430   0.310  15.560 -0.1471  0.3412 -0.6934
 4486SOL    HW124920   3.473   0.358  15.489  0.6792  1.5825  0.6542
 4486SOL    HW224921   3.505   0.257  15.587 -0.8038  0.0144  0.4736
 4487SOL     OW24922   4.069   2.142   8.648  0.7429  0.7881  0.1133
 4487SOL    HW124923   4.076   2.219   8.703 -2.1195 -0.2434  1.9261
 4487SOL    HW224924   4.070   2.170   8.557 -0.1232 -1.2829 -0.5403
 4488SOL     OW24925   2.056   1.386  10.668  0.4988  0.4580 -0.3012
 4488SOL    HW124926   2.062   1.477  10.697  0.1011 -0.6327  3.1340
 4488SOL    HW224927   1.962   1.370  10.675  0.9119 -1.7913  0.3240
 4489SOL     OW24928   1.540   2.687   7.371  0.0272  0.5140 -0.0803
 4489SOL    HW124929   1.492   2.698   7.288  0.8876  1.0798 -0.5065
 4489SOL    HW224930   1.470   2.709   7.432 -1.4736 -1.3193 -1.1276
 4490SOL     OW24931   1.636   3.943   5.797 -0.0484 -0.2403 -0.3480
 4490SOL    HW124932   1.568   3.897   5.748 -0.4981 -0.1447  0.1936
 4490SOL    HW224933   1.697   3.963   5.726  0.0653 -0.8559 -0.4279
 4491SOL     OW24934   1.889   4.582   3.049  0.4711 -0.3232  0.1350
 4491SOL    HW124935   1.804   4.625   3.039  0.9702  1.0579  1.8431
 4491SOL    HW224936   1.924   4.648   3.109  1.5207 -1.0315  0.3208
 4492SOL     OW24937   4.028   3.161   6.792  0.0206 -0.2877 -0.4059
 4492SOL    HW124938   3.999   3.093   6.731 -0.1733 -0.5225 -0.0524
 4492SOL    HW224939   3.990   3.149   6.879  0.9968  2.2022  0.3868
 4493SOL     OW24940   3.597   1.994  11.062  0.7584  1.0978 -0.1779
 4493SOL    HW124941   3.670   2.052  11.040  1.8077  0.2536  1.0749
 4493SOL    HW224942   3.631   1.950  11.140 -1.0693  1.8213  1.0273
 4494SOL     OW24943   0.202   4.214   6.342 -0.5334 -0.1236 -0.0570
 4494SOL    HW124944   0.239   4.146   6.284 -0.6194 -0.5965  0.4417
 4494SOL    HW224945   0.274   4.231   6.403  0.1844  0.8327 -1.1523
 4495SOL     OW24946   3.089   3.917   6.801 -0.3944 -0.7374  0.0853
 4495SOL    HW124947   3.122   3.848   6.743 -2.8875  0.0958 -2.2820
 4495SOL    HW224948   3.118   3.995   6.755  0.9575 -1.4746 -0.3252
 4496SOL     OW24949   0.501   2.640   0.294  0.0569  0.0459 -0.1347
 4496SOL    HW124950   0.506   2.639   0.389  0.0021 -1.8751 -0.1441
 4496SOL    HW224951   0.435   2.708   0.279  0.5692  0.1812 -1.7587
 4497SOL     OW24952   3.506   2.528  10.585 -0.2136  0.0873  0.0748
 4497SOL    HW124953   3.448   2.472  10.638  0.8945 -0.7371  0.4196
 4497SOL    HW224954   3.484   2.501  10.496  0.7965 -0.6934  0.0624
 4498SOL     OW24955   2.648   0.158   7.573 -0.1835 -0.3899 -0.1664
 4498SOL    HW124956   2.635   0.142   7.479  0.8630 -2.0876 -0.0161
 4498SOL    HW224957   2.675   0.250   7.569 -0.6663 -0.2844 -1.1797
 4499SOL     OW24958   3.910   3.572   5.970 -0.0308  0.3158  0.0902
 4499SOL    HW124959   3.909   3.513   5.894  1.4581  1.0569 -0.4931
 4499SOL    HW224960   3.825   3.544   6.003  0.3100  1.9194  2.2741
 4500SOL     OW24961   1.892   3.875   3.428  0.6997  0.0362 -0.4041
 4500SOL    HW124962   1.901   3.863   3.334  2.2314 -1.6073 -0.0536
 4500SOL    HW224963   1.877   3.969   3.431 -2.7348 -0.4839 -0.4814
 4501SOL     OW24964   2.917   3.117   3.216  0.5650 -0.2957 -0.0124
 4501SOL    HW124965   2.829   3.153   3.201  1.6965  2.7651  0.7154
 4501SOL    HW224966   2.897   3.033   3.174 -1.9062 -0.7890  2.0975
 4502SOL     OW24967   4.492   1.885  12.710 -0.7252 -0.1461  0.6075
 4502SOL    HW124968   4.445   1.902  12.791  0.3353 -0.8375  1.3680
 4502SOL    HW224969   4.422   1.853  12.653  2.2394 -1.8648 -2.0787
 4503SOL     OW24970   2.193   4.185   1.344  0.4283 -0.0509 -0.0772
 4503SOL    HW124971   2.259   4.183   1.275  0.9908  0.7244  0.4321
 4503SOL    HW224972   2.258   4.169   1.413  1.3271  0.9085 -0.6922
 4504SOL     OW24973   2.707   1.792   7.351  0.4421 -0.1690 -0.2601
 4504SOL    HW124974   2.629   1.762   7.305  0.7093 -0.2501 -0.6612
 4504SOL    HW224975   2.719   1.715   7.406  0.5866 -1.6001 -2.2965
 4505SOL     OW24976   3.445   0.516   2.489  0.2070  0.0006 -0.1260
 4505SOL    HW124977   3.359   0.480   2.510  0.7393 -0.2264  1.6239
 4505SOL    HW224978   3.417   0.586   2.429  3.2454 -0.0302 -1.5979
 4506SOL     OW24979   2.072   3.529   2.092 -0.4187  0.3869 -0.1643
 4506SOL    HW124980   2.159   3.566   2.108 -0.0261 -0.8518  0.5651
 4506SOL    HW224981   2.076   3.527   1.997 -2.1037 -0.7306 -0.2065
 4507SOL     OW24982   4.690   0.902  12.488  0.0773  0.2396 -0.0363
 4507SOL    HW124983   0.036   0.949  12.437 -0.3094  0.7095 -0.0913
 4507SOL    HW224984   4.620   0.873  12.430  0.1790  0.4081 -0.2391
 4508SOL     OW24985   0.069   4.568  12.665  0.4457 -0.5235 -0.3405
 4508SOL    HW124986   0.150   4.527  12.636  0.1927  0.7321 -2.8634
 4508SOL    HW224987   0.013   4.540  12.592 -1.9365 -0.5470  1.5051
 4509SOL     OW24988   4.392   0.478  11.580  0.5385  0.3243 -0.1962
 4509SOL    HW124989   4.411   0.444  11.668 -1.6741  1.9014  0.8981
 4509SOL    HW224990   4.364   0.399  11.533  2.0850  1.2551 -2.6503
 4510SOL     OW24991   1.259   1.188  13.728  0.3411 -0.2062  0.3397
 4510SOL    HW124992   1.317   1.154  13.796 -1.2190  0.7704  2.1717
 4510SOL    HW224993   1.180   1.133  13.735 -0.6295  1.0679 -0.5696
 4511SOL     OW24994   4.708   0.032  12.831 -0.2105 -0.4092  0.4902
 4511SOL    HW124995   0.007   4.666  12.792 -1.6600 -0.8864  0.8553
 4511SOL    HW224996   4.652   0.062  12.760  0.3400  0.5709  0.4819
 4512SOL     OW24997   1.972   2.601   3.536  0.5180 -0.3917  0.5040
 4512SOL    HW124998   2.027   2.623   3.461  0.6536 -0.9828  0.4291
 4512SOL    HW224999   1.891   2.651   3.525  0.3688  0.0920  3.7763
 4513SOL     OW25000   4.186   1.190   3.183 -0.1774  0.2431  0.2888
 4513SOL    HW125001   4.191   1.095   3.179  1.0780  0.4142 -1.9723
 4513SOL    HW225002   4.103   1.197   3.232 -0.1101  0.8715  0.3157
 4514SOL     OW25003   2.801   3.068   6.057 -0.4076 -0.1050 -0.4681
 4514SOL    HW125004   2.787   3.018   5.977  0.3015  0.8796 -1.2114
 4514SOL    HW225005   2.802   3.003   6.127  0.3991  0.6356  0.2184
 4515SOL     OW25006   1.685   2.121   4.741 -0.4087  0.0604  0.2356
 4515SOL    HW125007   1.765   2.069   4.746 -0.8161 -0.5418  0.4094
 4515SOL    HW225008   1.722   2.207   4.719  0.5008 -0.3644  0.1156
 4516SOL     OW25009   3.827   3.697  17.083  0.2481  1.1063 -0.0021
 4516SOL    HW125010   3.770   3.774  17.076 -0.9952  0.2264  0.4152
 4516SOL    HW225011   3.766   3.628  17.055 -0.5643  1.6711  0.3640
 4517SOL     OW25012   3.027   4.662  12.933 -0.6562  0.2947  0.5448
 4517SOL    HW125013   2.989   4.597  12.874  0.2681  0.2464  0.0077
 4517SOL    HW225014   3.115   4.631  12.956 -0.2080 -0.8678 -2.7406
 4518SOL     OW25015   2.300   3.568  13.698  0.4766 -0.5314  0.2774
 4518SOL    HW125016   2.219   3.541  13.741 -0.8259 -0.8263 -2.4045
 4518SOL    HW225017   2.355   3.490  13.706  0.5408 -0.4686  0.4593
 4519SOL     OW25018   3.685   2.066  16.656  0.8392 -0.2379 -0.6184
 4519SOL    HW125019   3.654   2.154  16.634  1.1295 -0.2193 -0.9462
 4519SOL    HW225020   3.623   2.008  16.611  0.8778  1.2455 -2.5791
 4520SOL     OW25021   2.295   3.991  14.785 -0.2156 -0.3480  0.0251
 4520SOL    HW125022   2.245   4.030  14.714 -0.7325 -2.4338 -0.7694
 4520SOL    HW225023   2.372   3.957  14.739  0.0622 -0.7441  0.7718
 4521SOL     OW25024   2.047   1.620  11.733 -0.1317 -0.4710  0.0134
 4521SOL    HW125025   2.044   1.606  11.638 -1.5326  0.5261 -0.0880
 4521SOL    HW225026   2.037   1.535  11.776  2.1687  0.5137  2.4254
 4522SOL     OW25027   1.409   3.970   6.470  0.2357  0.5990 -0.2919
 4522SOL    HW125028   1.433   4.016   6.550  1.3478  0.7974 -0.7399
 4522SOL    HW225029   1.317   3.949   6.488  0.4426 -0.2992 -0.2978
 4523SOL     OW25030   4.548   3.576   3.584  0.1725  0.1809  0.5840
 4523SOL    HW125031   4.483   3.550   3.648  0.1854  0.0910  0.5612
 4523SOL    HW225032   4.496   3.562   3.505  0.4218  2.4319  0.0191
 4524SOL     OW25033   2.271   3.873  16.821 -0.7793 -0.6409  0.0582
 4524SOL    HW125034   2.230   3.787  16.815  0.7017 -1.3021 -0.7087
 4524SOL    HW225035   2.325   3.852  16.897 -2.2037  2.4465  1.9005
 4525SOL     OW25036   1.756   0.545   1.214 -0.3318  0.1721  0.1975
 4525SOL    HW125037   1.834   0.502   1.180  0.1894 -0.1344  1.7634
 4525SOL    HW225038   1.690   0.479   1.192 -0.7125 -0.0896  2.0991
 4526SOL     OW25039   3.690   2.736   4.671  0.1620 -0.4223 -0.5905
 4526SOL    HW125040   3.781   2.711   4.683  0.2953  1.1894  1.7955
 4526SOL    HW225041   3.699   2.828   4.695  1.1271 -0.7087  0.1409
 4527SOL     OW25042   0.574   0.582   0.845  0.6275  0.2775 -0.1704
 4527SOL    HW125043   0.591   0.505   0.900 -1.3694 -0.9387 -1.2681
 4527SOL    HW225044   0.594   0.555   0.756  0.6428  0.0918 -0.1106
 4528SOL     OW25045   2.293   1.891   7.301  0.3125 -0.2657  0.4791
 4528SOL    HW125046   2.311   1.976   7.261 -0.2226  0.1471  1.1273
 4528SOL    HW225047   2.197   1.891   7.296  0.3399  2.3346  0.2853
 4529SOL     OW25048   1.606   1.285   6.665  0.2037 -0.0515  0.0125
 4529SOL    HW125049   1.640   1.323   6.746 -0.0940 -1.3165  0.7228
 4529SOL    HW225050   1.576   1.199   6.693 -1.6975  1.1478  1.6675
 4530SOL     OW25051   4.091   3.534   4.015  0.0149  0.2778 -0.2387
 4530SOL    HW125052   4.139   3.588   4.078 -0.8478  2.1233 -1.1787
 4530SOL    HW225053   4.090   3.451   4.063 -1.3330 -0.2665 -1.2132
 4531SOL     OW25054   1.668   3.442  13.368 -0.3996  0.0264  0.3284
 4531SOL    HW125055   1.718   3.498  13.308 -1.3716 -2.5174 -2.8735
 4531SOL    HW225056   1.593   3.498  13.389 -1.1839 -0.0526 -2.3106
 4532SOL     OW25057   4.021   2.258   3.261  0.2545 -0.6486 -0.2095
 4532SOL    HW125058   3.992   2.349   3.254  2.2039  0.0168  0.4993
 4532SOL    HW225059   4.077   2.247   3.184  0.7717 -1.8542  0.3556
 4533SOL     OW25060   4.593   1.266  15.385 -0.1774 -0.3120  0.0143
 4533SOL    HW125061   4.568   1.173  15.391  1.4471 -0.7441 -0.0845
 4533SOL    HW225062   4.569   1.281  15.294  3.5578 -4.0556 -1.5867
 4534SOL     OW25063   1.656   0.604   7.613 -0.5417 -0.4735 -0.3918
 4534SOL    HW125064   1.689   0.691   7.638 -2.8955  0.6625 -1.2333
 4534SOL    HW225065   1.734   0.566   7.573  1.3446  1.1691  1.7250
 4535SOL     OW25066   3.341   2.748  16.138  0.4584 -0.5297  0.0856
 4535SOL    HW125067   3.298   2.829  16.166  1.8778 -0.5394  2.3140
 4535SOL    HW225068   3.401   2.771  16.067 -0.0210  1.9122  0.4841
 4536SOL     OW25069   0.042   2.524   2.956  0.4630  0.2045 -0.0502
 4536SOL    HW125070   4.686   2.547   3.010  0.0048  2.1989 -1.5592
 4536SOL    HW225071   0.008   2.533   2.867  0.8189 -1.0155 -0.3128
 4537SOL     OW25072   4.503   3.092   4.724 -0.2360 -0.6639  0.0908
 4537SOL    HW125073   4.585   3.119   4.682 -0.3533 -1.0998 -0.4182
 4537SOL    HW225074   4.454   3.039   4.662 -2.7532  0.7558  0.8874
 4538SOL     OW25075   2.759   0.741   9.555 -0.4628  0.0993  0.4387
 4538SOL    HW125076   2.854   0.753   9.563 -0.5774  1.5620 -0.5750
 4538SOL    HW225077   2.731   0.829   9.533 -1.6838 -0.3682  0.1133
 4539SOL     OW25078   1.030   1.914  14.659  0.2765  0.4837 -0.3831
 4539SOL    HW125079   0.981   1.995  14.672 -1.2476 -0.5164  0.1766
 4539SOL    HW225080   0.993   1.892  14.573 -0.6941  1.4513 -0.2069
 4540SOL     OW25081   0.907   3.221   0.296 -0.2013 -0.6441 -0.0570
 4540SOL    HW125082   0.893   3.166   0.373 -1.6941 -1.6239 -1.0400
 4540SOL    HW225083   0.851   3.297   0.314 -2.9092 -2.7755  0.5539
 4541SOL     OW25084   2.004   2.038  17.204  0.6084  0.0995 -0.0256
 4541SOL    HW125085   2.030   1.967  17.263  1.9970 -1.2071 -2.2260
 4541SOL    HW225086   2.092   2.054  17.170  0.4281  3.1046  0.8805
 4542SOL     OW25087   1.261   0.339   0.264  0.2333  0.4597  0.3952
 4542SOL    HW125088   1.222   0.410   0.315  0.1679  2.3185 -2.2400
 4542SOL    HW225089   1.345   0.382   0.242  1.1078 -0.3793  2.1308
 4543SOL     OW25090   0.340   2.576   6.772  0.2755  0.3642 -0.1528
 4543SOL    HW125091   0.334   2.491   6.816 -0.5714  0.7745  0.5089
 4543SOL    HW225092   0.363   2.639   6.840 -0.8963 -0.4090  0.9726
 4544SOL     OW25093   3.534   0.301   7.703 -0.3626 -0.0549  0.0554
 4544SOL    HW125094   3.443   0.315   7.729 -0.0906  0.6444  0.6349
 4544SOL    HW225095   3.563   0.221   7.746 -0.2527 -1.0755 -1.8910
 4545SOL     OW25096   1.950   0.516   7.250 -0.1252  0.0530 -0.7458
 4545SOL    HW125097   2.013   0.584   7.228  2.0968 -1.7578 -0.0679
 4545SOL    HW225098   2.009   0.447   7.282 -0.9520 -0.2024  0.2213
 4546SOL     OW25099   4.674   1.812   8.172  0.0072  0.0800  0.0690
 4546SOL    HW125100   0.009   1.745   8.129 -0.9965 -0.6669 -0.0346
 4546SOL    HW225101   0.023   1.848   8.229  2.9300 -2.0997 -2.0095
 4547SOL     OW25102   3.821   0.901  15.347  0.2896  0.4105 -1.1320
 4547SOL    HW125103   3.892   0.960  15.321  0.3095  0.2171 -1.5205
 4547SOL    HW225104   3.809   0.912  15.441  1.6366 -0.2985 -0.8854
 4548SOL     OW25105   2.152   2.390   4.140 -0.3932  0.6748 -0.1497
 4548SOL    HW125106   2.071   2.421   4.099  0.6561  1.4988 -1.5631
 4548SOL    HW225107   2.209   2.461   4.111  0.6959  0.7824  2.2022
 4549SOL     OW25108   4.588   2.342   3.376  0.1919  0.1249  0.1155
 4549SOL    HW125109   4.603   2.253   3.344  2.2320 -0.1046  1.7166
 4549SOL    HW225110   4.599   2.323   3.469 -0.1454  2.4389  0.6241
 4550SOL     OW25111   0.225   3.500   5.359  0.2270 -0.0683  0.6467
 4550SOL    HW125112   0.234   3.434   5.291  1.2103  0.6331  0.1079
 4550SOL    HW225113   0.217   3.580   5.307 -0.9671  1.2001  2.7367
 4551SOL     OW25114   3.236   2.955   8.612 -0.0965  0.0262 -0.8101
 4551SOL    HW125115   3.151   2.932   8.650  1.3306 -0.0892  2.3434
 4551SOL    HW225116   3.287   2.887   8.657 -2.4920 -2.3507 -1.6617
 4552SOL     OW25117   2.203   3.790   7.770  0.2505 -0.0209  0.4962
 4552SOL    HW125118   2.240   3.794   7.858  0.4943 -3.0168  0.5338
 4552SOL    HW225119   2.194   3.695   7.764  0.8323 -0.1640  1.7850
 4553SOL     OW25120   1.877   2.567  13.359 -0.2889  0.2228  0.2792
 4553SOL    HW125121   1.955   2.622  13.365  1.0070 -1.9452  3.1514
 4553SOL    HW225122   1.917   2.480  13.370 -1.4281 -0.3514 -0.0946
 4554SOL     OW25123   0.006   2.540  15.548 -0.5582 -0.0674 -0.0954
 4554SOL    HW125124   0.002   2.622  15.498  1.4638  0.2568  0.2459
 4554SOL    HW225125   4.695   2.476  15.484  0.4171  1.4043 -2.0482
 4555SOL     OW25126   0.869   1.100   6.570 -0.1899 -0.2250 -0.1394
 4555SOL    HW125127   0.925   1.034   6.528  0.5647 -0.3855  1.1157
 4555SOL    HW225128   0.785   1.053   6.571  0.6091 -1.5834  1.5971
 4556SOL     OW25129   4.429   2.788   6.348 -0.3129 -0.6474  0.5543
 4556SOL    HW125130   4.462   2.734   6.276  0.7156 -1.8262  1.9237
 4556SOL    HW225131   4.446   2.876   6.313  2.5994 -1.1086  0.8581
 4557SOL     OW25132   2.303   0.407   0.789 -0.0360  0.1569 -0.2052
 4557SOL    HW125133   2.367   0.368   0.849 -0.0377  1.0336  0.3587
 4557SOL    HW225134   2.223   0.363   0.816  0.8611 -0.9712  0.6244
 4558SOL     OW25135   2.534   1.760   3.159  0.0855 -0.2387 -0.4529
 4558SOL    HW125136   2.588   1.784   3.084  1.7305  1.1466  1.1684
 4558SOL    HW225137   2.533   1.665   3.146  0.3766 -0.0647 -1.7397
 4559SOL     OW25138   3.187   3.086   9.093  0.2673 -0.0518  0.2554
 4559SOL    HW125139   3.282   3.074   9.104  0.7441  1.7898 -1.6238
 4559SOL    HW225140   3.181   3.107   8.999 -2.2979  0.2632  0.4968
 4560SOL     OW25141   2.671   3.084  14.178  0.0098  0.1431  0.2200
 4560SOL    HW125142   2.595   3.034  14.150 -0.5368 -0.2638  2.4769
 4560SOL    HW225143   2.733   3.012  14.180 -0.3491 -0.1693  0.0001
 4561SOL     OW25144   1.727   4.620   3.320  0.2312  0.6492 -0.0007
 4561SOL    HW125145   1.727   4.681   3.246 -0.2946 -0.2788 -0.7704
 4561SOL    HW225146   1.643   4.578   3.300  0.6482 -1.0434  1.9159
 4562SOL     OW25147   3.214   0.007   8.253 -0.1190 -0.2729 -0.5207
 4562SOL    HW125148   3.198   4.686   8.338 -1.5221  1.6005  0.1071
 4562SOL    HW225149   3.307   4.713   8.236 -0.0646 -0.6160  0.0419
 4563SOL     OW25150   3.425   4.001   5.060  0.0438 -0.5691  0.4619
 4563SOL    HW125151   3.420   3.930   5.124 -0.9243  0.3407  1.3850
 4563SOL    HW225152   3.437   3.948   4.981 -0.3939  2.7885 -1.8635
 4564SOL     OW25153   2.994   2.780   7.830 -0.3686 -0.6544  0.3068
 4564SOL    HW125154   3.079   2.778   7.786  0.6736  1.0130  2.2329
 4564SOL    HW225155   2.949   2.843   7.775 -1.2041  0.1640  1.9123
 4565SOL     OW25156   2.322   1.843   4.439 -0.2845  0.3096  0.2905
 4565SOL    HW125157   2.379   1.784   4.488 -0.1263  0.4260  0.2466
 4565SOL    HW225158   2.380   1.904   4.394  0.3325 -1.3477 -1.1575
 4566SOL     OW25159   2.257   3.032   3.058 -0.1169 -0.4969  0.1834
 4566SOL    HW125160   2.339   3.047   3.010 -0.5252  2.5697  0.4346
 4566SOL    HW225161   2.281   2.962   3.118  1.0902 -0.5092 -0.3033
 4567SOL     OW25162   4.712   3.705   2.837  0.0793  0.2287 -0.3676
 4567SOL    HW125163   0.079   3.666   2.819 -0.7855 -1.8577  0.0117
 4567SOL    HW225164   4.653   3.646   2.789 -1.5626  1.4278  0.2212
 4568SOL     OW25165   4.066   3.200   8.746 -0.1909  0.8364  0.3264
 4568SOL    HW125166   4.138   3.198   8.809  0.4882  0.3231 -0.4732
 4568SOL    HW225167   3.999   3.247   8.796 -1.1789  0.4388 -0.6412
 4569SOL     OW25168   1.433   0.601  15.954 -0.2063 -0.3954 -0.1857
 4569SOL    HW125169   1.429   0.633  15.864 -1.1140  3.2234  1.1455
 4569SOL    HW225170   1.383   0.519  15.949 -1.7363  0.4954  0.4027
 4570SOL     OW25171   3.755   0.313   8.464 -1.3390 -0.3575 -0.3617
 4570SOL    HW125172   3.774   0.407   8.474 -0.0800 -0.7145  0.5944
 4570SOL    HW225173   3.833   0.269   8.497 -0.9405 -0.7175 -1.7742
 4571SOL     OW25174   0.531   0.882   3.617 -0.2490  0.3968  0.5750
 4571SOL    HW125175   0.538   0.929   3.534 -0.3843 -0.9898 -0.2152
 4571SOL    HW225176   0.614   0.913   3.654  0.7679 -1.9305  0.1976
 4572SOL     OW25177   1.362   2.687   9.544  0.1917  0.1024 -0.3769
 4572SOL    HW125178   1.366   2.617   9.609 -3.4982  1.3615  1.2178
 4572SOL    HW225179   1.325   2.641   9.469 -0.5466  2.3109 -1.3512
 4573SOL     OW25180   2.482   2.825  13.688 -0.3455  0.2498  0.1568
 4573SOL    HW125181   2.537   2.893  13.727 -0.1410  0.5570 -0.6692
 4573SOL    HW225182   2.471   2.858  13.599  1.8276  0.9339  0.1515
 4574SOL     OW25183   0.298   0.228   3.887  0.3820  0.3833 -0.3460
 4574SOL    HW125184   0.385   0.267   3.899  0.5598 -0.1282 -0.0008
 4574SOL    HW225185   0.315   0.134   3.890  1.5761  0.5789 -1.1234
 4575SOL     OW25186   0.602   3.344   4.570 -0.8282  0.3372  0.2889
 4575SOL    HW125187   0.645   3.261   4.547  0.7292  1.3035 -0.2839
 4575SOL    HW225188   0.648   3.387   4.642  0.5956  0.3706 -0.6382
 4576SOL     OW25189   0.908   4.094  16.379  0.3980 -0.7832  0.2671
 4576SOL    HW125190   0.887   4.024  16.442 -2.2245  0.3520  0.6348
 4576SOL    HW225191   0.929   4.163  16.442 -3.1905  0.6740 -0.1691
 4577SOL     OW25192   2.256   1.469   2.761  0.0344 -0.1809 -0.2970
 4577SOL    HW125193   2.312   1.543   2.788 -1.2507 -0.2236  2.4992
 4577SOL    HW225194   2.187   1.486   2.825 -1.0177  1.5478 -1.8762
 4578SOL     OW25195   1.505   2.344   2.882  0.5289 -0.0205 -0.3903
 4578SOL    HW125196   1.568   2.281   2.917  1.7973  0.5969 -1.5486
 4578SOL    HW225197   1.546   2.361   2.797  1.6597  1.1580  0.3819
 4579SOL     OW25198   0.008   0.278   2.243  0.2881  0.2903 -0.1364
 4579SOL    HW125199   0.047   0.365   2.253  0.6336  0.2173 -0.8372
 4579SOL    HW225200   4.683   0.274   2.328  3.5465  0.1697  1.5515
 4580SOL     OW25201   2.811   3.834  13.427 -0.1418 -0.0788 -0.6828
 4580SOL    HW125202   2.760   3.870  13.500  3.7077 -2.0242  3.0210
 4580SOL    HW225203   2.789   3.896  13.358 -1.7156 -2.6038 -2.4872
 4581SOL     OW25204   3.286   4.137   2.519 -0.0203 -0.0349 -0.1628
 4581SOL    HW125205   3.297   4.194   2.596 -0.2858 -1.3698  0.8627
 4581SOL    HW225206   3.376   4.142   2.488 -0.1954  0.6237 -0.5692
 4582SOL     OW25207   0.304   0.661   0.809  0.3407  0.4547  0.4667
 4582SOL    HW125208   0.276   0.685   0.898 -1.9293 -0.1650 -0.0707
 4582SOL    HW225209   0.396   0.640   0.822  0.4121 -0.0388 -0.8626
 4583SOL     OW25210   1.086   2.460  14.318 -0.1310 -0.3976  0.5109
 4583SOL    HW125211   1.167   2.416  14.293  0.1001  1.4791 -2.0706
 4583SOL    HW225212   1.024   2.389  14.301 -1.0311  0.8517 -1.4325
 4584SOL     OW25213   1.066   0.468   5.386 -0.1691  0.1065 -0.6178
 4584SOL    HW125214   1.115   0.406   5.332 -1.2320  0.2585 -1.7829
 4584SOL    HW225215   1.124   0.542   5.370 -0.7577  0.1109 -2.7546
 4585SOL     OW25216   2.023   1.925  14.439  0.2855 -0.1180 -0.4672
 4585SOL    HW125217   2.083   1.854  14.464 -0.3600 -0.5443 -0.1332
 4585SOL    HW225218   1.953   1.932  14.504  0.9208 -0.3983  0.2536
 4586SOL     OW25219   0.339   1.759   4.964 -0.2986 -0.1676  0.5680
 4586SOL    HW125220   0.244   1.756   4.981 -0.6768 -1.7831 -1.7861
 4586SOL    HW225221   0.373   1.689   5.020 -0.9953  0.0239  1.2390
 4587SOL     OW25222   3.168   3.885  13.118 -0.4105  0.1324 -0.1784
 4587SOL    HW125223   3.240   3.927  13.164 -1.7270 -1.6654  3.5312
 4587SOL    HW225224   3.206   3.866  13.032  1.6069 -1.5498  1.1087
 4588SOL     OW25225   4.165   1.515   7.559  0.0337  0.4107  0.3162
 4588SOL    HW125226   4.200   1.601   7.581  0.6925  0.0608  0.6486
 4588SOL    HW225227   4.210   1.462   7.626 -2.3143 -1.3982  0.4376
 4589SOL     OW25228   1.984   3.813   7.346  0.4344  0.3444 -0.2712
 4589SOL    HW125229   1.999   3.885   7.407 -0.1412  0.3554 -0.1461
 4589SOL    HW225230   1.890   3.800   7.360  0.6197  1.1687  1.7629
 4590SOL     OW25231   2.550   2.324   3.061 -0.9594  0.7067  0.6083
 4590SOL    HW125232   2.457   2.325   3.085 -1.1565 -2.2091 -0.0980
 4590SOL    HW225233   2.564   2.230   3.070  1.0117  1.0151  0.6612
 4591SOL     OW25234   2.626   2.240   7.422 -0.3620 -0.4292  0.1540
 4591SOL    HW125235   2.673   2.161   7.395  1.7109  0.3923  1.2856
 4591SOL    HW225236   2.695   2.307   7.412  0.0012 -1.2186 -2.6169
 4592SOL     OW25237   0.550   3.782  11.052 -0.2401  0.0309 -0.2390
 4592SOL    HW125238   0.519   3.768  10.962 -1.8796 -0.6766  0.4373
 4592SOL    HW225239   0.634   3.738  11.041 -0.8084 -1.5523  1.7387
 4593SOL     OW25240   0.864   1.713   3.869 -0.0662 -0.2091 -0.5256
 4593SOL    HW125241   0.909   1.765   3.936 -0.6744  0.9041 -0.9773
 4593SOL    HW225242   0.810   1.661   3.928 -1.5303  1.3785 -0.4787
 4594SOL     OW25243   1.819   1.391   5.728  0.0056 -0.4884  0.1442
 4594SOL    HW125244   1.748   1.416   5.787  0.7239  0.5911  0.5540
 4594SOL    HW225245   1.760   1.332   5.682 -0.9721 -0.3036  1.1774
 4595SOL     OW25246   4.028   2.122   4.738  0.2644  0.0732 -0.6555
 4595SOL    HW125247   4.077   2.179   4.796  0.4065 -0.5195 -0.1955
 4595SOL    HW225248   4.108   2.084   4.702 -0.4588  0.3938 -2.6412
 4596SOL     OW25249   4.466   3.415   9.124 -0.2194  0.1865 -0.2196
 4596SOL    HW125250   4.553   3.397   9.160 -1.4502 -1.0761  2.1822
 4596SOL    HW225251   4.431   3.452   9.205 -0.9895 -2.0479  0.4933
 4597SOL     OW25252   0.869   0.632   2.541 -0.1410 -0.2704  0.1128
 4597SOL    HW125253   0.901   0.722   2.552 -0.5896  0.3362 -3.5109
 4597SOL    HW225254   0.955   0.590   2.537  0.0534  0.1542 -0.2544
 4598SOL     OW25255   3.696   3.862   9.374 -0.6488 -0.0926 -0.3492
 4598SOL    HW125256   3.611   3.858   9.416 -0.4815 -2.0204 -0.2037
 4598SOL    HW225257   3.733   3.936   9.423 -1.1831  1.1762 -1.8568
 4599SOL     OW25258   0.541   2.991  13.996 -0.0038  0.6473 -0.3516
 4599SOL    HW125259   0.601   2.917  14.000 -1.1912 -0.2867  0.2184
 4599SOL    HW225260   0.459   2.946  14.017  0.6703 -0.1263  0.6303
 4600SOL     OW25261   3.003   4.093   1.091  0.3610 -0.2305  0.0445
 4600SOL    HW125262   2.964   4.181   1.087  1.3123  0.0508 -2.9262
 4600SOL    HW225263   3.013   4.091   1.186  1.4072 -1.7403 -0.1081
 4601SOL     OW25264   1.190   2.546   2.610 -0.0745 -0.2871 -0.1901
 4601SOL    HW125265   1.266   2.565   2.556 -0.4234  2.6696  0.3683
 4601SOL    HW225266   1.214   2.473   2.667 -0.1681 -0.1165  0.0693
 4602SOL     OW25267   4.675   0.853  12.074  0.2487 -0.2377  0.1594
 4602SOL    HW125268   4.645   0.762  12.077 -0.3110  0.0541  2.8899
 4602SOL    HW225269   4.623   0.895  12.142  1.3246  0.4587  0.5381
 4603SOL     OW25270   2.068   0.190  17.047  0.4102  0.5587 -0.2839
 4603SOL    HW125271   1.997   0.230  17.098 -1.1490  0.1574 -2.1477
 4603SOL    HW225272   2.143   0.202  17.106  0.5228  0.4440 -0.4059
 4604SOL     OW25273   4.457   0.896   0.777 -0.1810  0.3203 -0.3578
 4604SOL    HW125274   4.553   0.893   0.771 -0.1897  1.3784 -0.9995
 4604SOL    HW225275   4.444   0.808   0.814 -1.2272  1.9107  2.9985
 4605SOL     OW25276   0.419   4.613  17.503 -0.3317 -0.0862 -0.0691
 4605SOL    HW125277   0.349   4.661  17.458 -0.3478 -0.8523 -0.8791
 4605SOL    HW225278   0.472   4.677  17.549  0.7244 -0.2015 -1.1394
 4606SOL     OW25279   4.079   3.098   2.922  0.4850 -0.0615  0.3697
 4606SOL    HW125280   4.017   3.044   2.873 -0.1880  0.9504  0.1085
 4606SOL    HW225281   4.148   3.114   2.857 -1.4027 -0.6980 -1.7863
 4607SOL     OW25282   3.979   3.117   0.603  0.2474  0.2406  0.7358
 4607SOL    HW125283   3.927   3.057   0.549  0.2299 -2.0987  3.3361
 4607SOL    HW225284   3.972   3.063   0.682 -2.3350  0.1834  0.4619
 4608SOL     OW25285   4.254   0.303   2.742 -0.4369 -0.2906 -0.1701
 4608SOL    HW125286   4.162   0.276   2.736 -0.3930 -0.7019  0.9492
 4608SOL    HW225287   4.285   0.305   2.652 -0.0259  0.1370 -0.0210
 4609SOL     OW25288   1.345   3.977   2.307  0.4620  0.5333 -0.4035
 4609SOL    HW125289   1.332   3.966   2.401  3.0678  3.5676  0.3009
 4609SOL    HW225290   1.385   3.892   2.291  1.5505  0.2361  3.7938
 4610SOL     OW25291   3.040   0.845  13.245 -0.2270 -0.1381  0.8085
 4610SOL    HW125292   2.959   0.868  13.199  1.4025  0.2532 -1.8410
 4610SOL    HW225293   3.092   0.909  13.197  1.2473 -2.0293 -0.1141
 4611SOL     OW25294   3.236   1.142   5.611  0.0167  0.5996 -0.1184
 4611SOL    HW125295   3.328   1.166   5.599 -0.1638  1.4169  0.0724
 4611SOL    HW225296   3.188   1.216   5.574 -0.7558  0.2751  0.2423
 4612SOL     OW25297   0.321   0.023   6.118  0.2934 -0.1144 -0.6243
 4612SOL    HW125298   0.307   4.670   6.057 -1.9276  1.4231 -1.9775
 4612SOL    HW225299   0.273   0.090   6.068  1.3806  0.0587 -1.4402
 4613SOL     OW25300   3.849   4.073   8.704  0.3059  0.3262 -0.0212
 4613SOL    HW125301   3.789   4.142   8.674 -0.3205  0.3923  1.3706
 4613SOL    HW225302   3.925   4.121   8.737  1.4686  0.0651 -2.3290
 4614SOL     OW25303   3.980   3.584   1.744 -0.0199 -0.0701  0.5507
 4614SOL    HW125304   4.056   3.601   1.689  0.2679 -2.8342  0.1295
 4614SOL    HW225305   3.934   3.539   1.674  0.2433  1.2798 -0.4838
 4615SOL     OW25306   4.187   2.434   7.762 -0.9169 -0.2068  0.0934
 4615SOL    HW125307   4.204   2.527   7.770  0.9568 -0.6517  1.2067
 4615SOL    HW225308   4.235   2.417   7.681 -0.3595 -1.7534  0.7377
 4616SOL     OW25309   1.533   2.451   3.668 -0.2896 -0.0569  0.4791
 4616SOL    HW125310   1.491   2.536   3.671  0.6074  0.4390 -0.8728
 4616SOL    HW225311   1.472   2.397   3.619  0.8761 -0.7518 -0.2218
 4617SOL     OW25312   2.421   1.381   4.855  0.1930 -0.4864 -0.0991
 4617SOL    HW125313   2.348   1.443   4.855  1.9343  1.5728  2.5986
 4617SOL    HW225314   2.410   1.344   4.768 -0.2353  1.1397 -0.7464
 4618SOL     OW25315   0.035   0.854   0.896  0.2424 -0.1228  0.0890
 4618SOL    HW125316   0.048   0.784   0.832 -0.3683 -0.3498  0.2089
 4618SOL    HW225317   0.063   0.811   0.977 -1.9260 -1.3174  0.2016
 4619SOL     OW25318   0.150   3.899   6.498 -0.1229 -0.0090 -0.1477
 4619SOL    HW125319   0.126   3.806   6.493  0.3489 -0.2312  1.4358
 4619SOL    HW225320   0.166   3.917   6.591  1.1750  0.1151 -0.3874
 4620SOL     OW25321   4.636   4.182   1.410 -0.0544 -0.4262  0.4497
 4620SOL    HW125322   4.561   4.182   1.350  0.9876 -0.5108 -0.8413
 4620SOL    HW225323   4.655   4.276   1.409  1.7363 -0.8317 -2.5917
 4621SOL     OW25324   4.199   4.258   3.991  0.6602 -0.6467 -0.4746
 4621SOL    HW125325   4.172   4.336   4.038  1.6077  0.4230 -1.6971
 4621SOL    HW225326   4.168   4.264   3.900 -0.1316  1.6230 -0.0429
 4622SOL     OW25327   2.397   3.794   6.642 -0.3868  0.1153 -0.2575
 4622SOL    HW125328   2.358   3.729   6.700  0.3949  1.9563  2.3522
 4622SOL    HW225329   2.324   3.855   6.630 -0.5924 -0.0551  0.1385
 4623SOL     OW25330   4.698   1.520  12.507 -0.4374 -0.3920 -0.0082
 4623SOL    HW125331   4.658   1.538  12.422  0.2013  0.3889 -0.1471
 4623SOL    HW225332   4.692   1.425  12.504 -1.5906 -0.2739 -1.7634
 4624SOL     OW25333   3.753   1.901   8.406  0.6336  0.0005 -0.6003
 4624SOL    HW125334   3.687   1.854   8.355  0.5495  1.1510 -1.5554
 4624SOL    HW225335   3.781   1.959   8.336 -0.5739  1.4207  0.0920
 4625SOL     OW25336   4.310   3.124  10.778 -0.6163 -0.2528  0.2231
 4625SOL    HW125337   4.272   3.196  10.828  1.3714 -0.2567  1.7567
 4625SOL    HW225338   4.229   3.073  10.769 -0.0040 -1.1787 -0.0523
 4626SOL     OW25339   3.477   2.821   2.256  0.0398  0.6100  0.2677
 4626SOL    HW125340   3.523   2.827   2.172  1.0233 -0.7454  0.7026
 4626SOL    HW225341   3.432   2.737   2.257 -2.1095  1.7684  0.3665
 4627SOL     OW25342   3.337   2.035   8.664  0.1728 -0.7731  0.2044
 4627SOL    HW125343   3.262   2.087   8.635  0.9847  1.3022  1.7873
 4627SOL    HW225344   3.393   2.063   8.592  1.8044 -0.6769  1.5173
 4628SOL     OW25345   3.417   2.092   5.496  0.2317  0.7323 -0.4559
 4628SOL    HW125346   3.322   2.090   5.507  0.1893 -0.2856 -0.9709
 4628SOL    HW225347   3.423   2.011   5.444  1.1385  0.7653 -0.3989
 4629SOL     OW25348   1.906   2.608   8.002  0.7172 -0.6831 -0.0391
 4629SOL    HW125349   1.938   2.697   7.991  0.7485 -0.7271 -0.2967
 4629SOL    HW225350   1.920   2.572   7.915  2.4141  1.1059 -0.4883
 4630SOL     OW25351   3.267   1.645   1.420 -0.3933 -0.1868  0.1217
 4630SOL    HW125352   3.315   1.685   1.347  2.0206 -1.4694  1.0376
 4630SOL    HW225353   3.268   1.555   1.388  0.6184 -0.0049 -0.3667
 4631SOL     OW25354   0.462   0.007  15.515  0.0516 -0.0710 -0.4953
 4631SOL    HW125355   0.490   4.657  15.574  1.9585 -0.6759 -2.1249
 4631SOL    HW225356   0.543   0.041  15.478  1.2245  1.3158  3.3418
 4632SOL     OW25357   3.328   4.684  14.119  0.2650 -0.1221  0.5393
 4632SOL    HW125358   3.384   4.709  14.193 -0.1947  0.2975  0.7481
 4632SOL    HW225359   3.385   4.669  14.044 -1.0773 -1.3355 -0.2377
 4633SOL     OW25360   1.436   0.836   8.049 -0.1956 -0.1664 -0.5589
 4633SOL    HW125361   1.516   0.880   8.081 -1.1767  0.0888  1.5557
 4633SOL    HW225362   1.368   0.888   8.091 -0.2053 -0.6030 -0.0312
 4634SOL     OW25363   4.213   4.380   6.770 -0.2624  0.3821 -0.4272
 4634SOL    HW125364   4.277   4.316   6.801 -0.1213  0.1636 -1.1510
 4634SOL    HW225365   4.269   4.443   6.724 -0.2641  2.1227  1.9967
 4635SOL     OW25366   1.170   2.370  16.356  0.2482 -0.0900 -0.2751
 4635SOL    HW125367   1.232   2.324  16.414  0.8381 -1.3254 -1.8965
 4635SOL    HW225368   1.084   2.358  16.397  0.9105 -2.3570  0.4860
 4636SOL     OW25369   2.701   2.481   8.013  0.1731  0.0068  0.0287
 4636SOL    HW125370   2.741   2.531   8.084 -0.1428 -0.0113  0.2195
 4636SOL    HW225371   2.760   2.407   8.010 -1.3714 -1.1348 -2.0169
 4637SOL     OW25372   0.123   4.079   1.977 -0.3130  0.3162  0.4408
 4637SOL    HW125373   0.095   4.065   2.068 -2.0347 -0.0370 -0.1369
 4637SOL    HW225374   0.044   4.080   1.923 -1.7226  0.4304  2.4945
 4638SOL     OW25375   4.563   1.059   3.297 -0.1149  0.0270  0.1618
 4638SOL    HW125376   4.630   1.117   3.261  0.6970 -2.0151 -1.5843
 4638SOL    HW225377   4.596   0.973   3.272 -1.6572 -0.9116  1.3575
 4639SOL     OW25378   0.002   0.181   3.811  0.3222 -0.0853 -0.6092
 4639SOL    HW125379   0.078   0.231   3.840 -0.9802  0.9626  1.0063
 4639SOL    HW225380   4.667   0.173   3.890 -1.0299  1.7696 -1.3572
 4640SOL     OW25381   0.645   2.354   2.859  0.1244  0.2836  0.3327
 4640SOL    HW125382   0.604   2.430   2.899 -1.7581  0.4274 -1.8343
 4640SOL    HW225383   0.725   2.344   2.911 -1.0823 -1.7588  1.8120
 4641SOL     OW25384   0.595   3.876   4.356 -0.4286  0.1310  0.6613
 4641SOL    HW125385   0.653   3.935   4.403 -1.8978  0.5240  1.9826
 4641SOL    HW225386   0.570   3.806   4.417  0.8839 -1.8902 -1.1294
 4642SOL     OW25387   4.681   1.950  13.413 -1.0608 -0.0016  0.3318
 4642SOL    HW125388   0.010   1.985  13.338 -1.2441  2.8563  1.5158
 4642SOL    HW225389   0.007   1.992  13.487  1.4046  0.5399 -1.4607
 4643SOL     OW25390   0.580   3.309   7.835  0.0141  0.2035 -0.3745
 4643SOL    HW125391   0.648   3.295   7.902  1.4587  0.5019 -1.7941
 4643SOL    HW225392   0.643   3.330   7.766 -0.2180 -0.8065 -0.8989
 4644SOL     OW25393   2.517   2.619   9.797 -0.3419  0.8784 -0.2234
 4644SOL    HW125394   2.501   2.605   9.704  0.2712 -1.2073 -0.0077
 4644SOL    HW225395   2.509   2.532   9.836  1.0235  0.7481 -0.2297
 4645SOL     OW25396   0.537   0.656   9.566  0.1718 -0.1795  0.3185
 4645SOL    HW125397   0.562   0.679   9.656  0.8353  0.5358 -0.0543
 4645SOL    HW225398   0.515   0.563   9.573 -0.3194  0.0070  1.2642
 4646SOL     OW25399   3.708   0.342  15.993  0.5688 -0.0100 -0.1228
 4646SOL    HW125400   3.655   0.262  15.995  0.0901  0.2775 -1.3624
 4646SOL    HW225401   3.636   0.404  15.982  0.8188  0.5267  1.3535
 4647SOL     OW25402   1.067   2.541  11.220 -0.0563 -0.0396  0.0767
 4647SOL    HW125403   1.043   2.472  11.282 -0.2600 -2.4912 -2.7350
 4647SOL    HW225404   1.162   2.530  11.213  0.0840  1.7492 -0.6929
 4648SOL     OW25405   2.760   2.596   3.548 -0.5033 -0.0907  0.6033
 4648SOL    HW125406   2.713   2.527   3.501 -0.3192  0.2503 -0.0774
 4648SOL    HW225407   2.721   2.593   3.636 -0.3557  0.1981  0.6772
 4649SOL     OW25408   1.509   4.432   5.965 -0.6173  0.1142  0.3012
 4649SOL    HW125409   1.431   4.383   5.940  1.0880 -0.7128 -3.4268
 4649SOL    HW225410   1.476   4.521   5.966  0.4903  0.5401 -1.3299
 4650SOL     OW25411   1.420   3.778   8.282 -0.9230  0.0204  0.0068
 4650SOL    HW125412   1.471   3.718   8.227  1.6673  1.0872  1.2759
 4650SOL    HW225413   1.386   3.712   8.342 -0.7887 -0.3203 -0.2907
 4651SOL     OW25414   4.585   3.073   7.490  0.0276  0.1537  0.2487
 4651SOL    HW125415   4.616   2.988   7.459  1.8651  1.7361 -2.2386
 4651SOL    HW225416   4.608   3.065   7.583  0.7184 -0.8265 -0.0054
 4652SOL     OW25417   3.652   1.352   6.469  0.0364  0.3767 -0.3536
 4652SOL    HW125418   3.609   1.311   6.544  0.5594  0.1139 -0.1968
 4652SOL    HW225419   3.742   1.326   6.492 -0.0695 -0.3022 -0.7316
 4653SOL     OW25420   0.776   1.485   3.484 -0.0382  0.1240  0.1871
 4653SOL    HW125421   0.805   1.460   3.571 -2.5001  1.3939  1.3649
 4653SOL    HW225422   0.861   1.480   3.438  0.1112  1.1121  0.3452
 4654SOL     OW25423   3.447   2.561   8.504 -0.6847  0.0089 -0.1506
 4654SOL    HW125424   3.505   2.486   8.499  0.3583  0.7240  1.3406
 4654SOL    HW225425   3.402   2.547   8.588  1.4002 -2.1472  0.6031
 4655SOL     OW25426   3.716   4.619   6.262  0.1805  0.2954 -0.3148
 4655SOL    HW125427   3.702   4.666   6.344  0.6727 -0.7889  0.3836
 4655SOL    HW225428   3.804   4.585   6.275  0.8952  2.3377  0.2564
 4656SOL     OW25429   1.229   4.519   2.100  0.5243  0.2686 -0.1370
 4656SOL    HW125430   1.184   4.598   2.070  3.6771  1.7314 -1.0152
 4656SOL    HW225431   1.153   4.471   2.134  0.7273  0.8064  1.0544
 4657SOL     OW25432   1.491   2.851  10.904 -0.4111 -0.2444  0.1621
 4657SOL    HW125433   1.568   2.828  10.852 -0.0535 -0.6047  0.8547
 4657SOL    HW225434   1.514   2.827  10.994 -1.9274 -3.2058 -0.2625
 4658SOL     OW25435   2.229   4.649   5.356 -0.4180 -0.4298 -0.1270
 4658SOL    HW125436   2.169   4.712   5.316 -0.0935  0.0696  0.1705
 4658SOL    HW225437   2.306   4.673   5.304  0.1812  1.6314  1.7296
 4659SOL     OW25438   1.036   4.137   9.039  0.4221  0.0649 -0.4055
 4659SOL    HW125439   1.117   4.140   9.090  0.1513  0.3488  0.0096
 4659SOL    HW225440   1.031   4.224   9.001  2.5855  0.1926 -0.3660
 4660SOL     OW25441   4.300   3.091  15.851  0.4129  0.1278 -0.0096
 4660SOL    HW125442   4.291   3.101  15.946  0.1721 -0.4230  0.0300
 4660SOL    HW225443   4.228   3.030  15.838 -0.9680  1.8509 -0.4079
 4661SOL     OW25444   0.785   4.198   3.109 -0.0460 -0.0924 -0.0341
 4661SOL    HW125445   0.738   4.187   3.026  2.2899 -0.3731 -1.3091
 4661SOL    HW225446   0.854   4.262   3.089 -0.6818  1.0824  1.5768
 4662SOL     OW25447   2.528   1.570  16.225  0.6330 -0.6076 -0.1811
 4662SOL    HW125448   2.593   1.640  16.216 -1.6684  1.4060 -1.3550
 4662SOL    HW225449   2.511   1.571  16.131 -2.1974 -2.7383  0.3078
 4663SOL     OW25450   1.440   2.357   3.949 -0.3132 -0.3760  0.3518
 4663SOL    HW125451   1.384   2.399   3.883  0.1764 -0.1346  0.0944
 4663SOL    HW225452   1.424   2.263   3.938 -0.9384 -0.1640 -0.5757
 4664SOL     OW25453   0.397   1.354  10.215 -0.0900  0.4611  0.0526
 4664SOL    HW125454   0.469   1.412  10.188 -0.7111 -0.2490 -3.1498
 4664SOL    HW225455   0.331   1.371  10.148 -0.6775  0.5097  0.6481
 4665SOL     OW25456   0.747   4.216   4.404  0.0086 -0.2405  0.4404
 4665SOL    HW125457   0.716   4.194   4.491 -0.7120  0.0109  0.2440
 4665SOL    HW225458   0.815   4.149   4.398  1.8957  1.7776 -0.9232
 4666SOL     OW25459   1.615   4.003   6.292  0.2801  0.4028  0.0630
 4666SOL    HW125460   1.563   4.006   6.372  1.7736 -0.7423  1.0926
 4666SOL    HW225461   1.553   3.961   6.233 -0.0151  0.6402  0.2036
 4667SOL     OW25462   4.060   2.256  11.995 -0.4194  0.4818 -0.1273
 4667SOL    HW125463   4.065   2.313  11.918 -1.4661  0.6990 -0.0388
 4667SOL    HW225464   4.151   2.254  12.023  0.0830  0.0508 -1.8151
 4668SOL     OW25465   3.713   3.753   4.560 -0.1484 -0.3248 -0.1731
 4668SOL    HW125466   3.789   3.704   4.527  1.0091  0.6926  0.9462
 4668SOL    HW225467   3.646   3.686   4.554  1.3331 -1.8238 -0.0312
 4669SOL     OW25468   3.424   2.553   2.475  0.2455  0.4120 -0.3704
 4669SOL    HW125469   3.451   2.501   2.400 -3.0411 -1.5956 -0.1292
 4669SOL    HW225470   3.502   2.586   2.521  0.8234 -0.6064 -0.6011
 4670SOL     OW25471   3.398   1.848   5.811 -0.2769  0.4904 -0.0024
 4670SOL    HW125472   3.370   1.793   5.884  1.0724  0.4901  0.5270
 4670SOL    HW225473   3.317   1.898   5.812  0.0247  1.0435 -2.6940
 4671SOL     OW25474   1.627   4.601   5.250  0.6313  0.3291 -0.1656
 4671SOL    HW125475   1.613   4.559   5.166  1.0833  0.8212 -0.4813
 4671SOL    HW225476   1.587   4.536   5.308 -2.5346  2.0470 -0.3932
 4672SOL     OW25477   4.588   2.095   7.143 -0.0260  0.0934 -0.0726
 4672SOL    HW125478   4.534   2.170   7.169 -1.0827 -0.1549 -1.5123
 4672SOL    HW225479   4.519   2.067   7.082  1.7658 -0.6427 -1.7398
 4673SOL     OW25480   4.410   1.700   0.771 -0.0799 -0.5536  0.1560
 4673SOL    HW125481   4.443   1.696   0.681 -1.4969  1.8616 -0.4569
 4673SOL    HW225482   4.494   1.697   0.816  0.0429  2.0950  0.1201
 4674SOL     OW25483   0.316   2.267  12.925  0.5158 -0.5513 -0.1171
 4674SOL    HW125484   0.315   2.183  12.971 -1.3980 -1.1826 -1.3248
 4674SOL    HW225485   0.279   2.242  12.840 -1.0569 -1.7447  0.9321
 4675SOL     OW25486   3.470   2.605   4.240  0.6818 -0.1107  0.0398
 4675SOL    HW125487   3.400   2.667   4.225 -0.9360 -1.4883  1.8015
 4675SOL    HW225488   3.483   2.609   4.335 -3.1472 -2.2089  0.6767
 4676SOL     OW25489   4.208   2.234   4.915 -0.3559  0.6252 -0.1585
 4676SOL    HW125490   4.272   2.200   4.976 -1.5768 -1.9311 -0.2934
 4676SOL    HW225491   4.208   2.328   4.932  1.1083  0.7719 -1.0465
 4677SOL     OW25492   3.161   1.166  14.284 -0.1533  0.4885  0.6935
 4677SOL    HW125493   3.197   1.208  14.206 -1.0560  0.0878  0.0602
 4677SOL    HW225494   3.235   1.185  14.342  0.4091 -1.4020  0.5751
 4678SOL     OW25495   0.962   2.099   3.508  0.4810 -0.2448 -0.3943
 4678SOL    HW125496   0.875   2.115   3.545 -1.1183 -0.6618 -4.0090
 4678SOL    HW225497   0.976   2.005   3.512 -1.6341 -0.6312 -2.3913
 4679SOL     OW25498   3.658   0.622   7.704 -0.2529  0.0789 -0.1843
 4679SOL    HW125499   3.635   0.530   7.700 -1.5288  0.4277 -1.0852
 4679SOL    HW225500   3.737   0.628   7.758  0.0979  0.4852 -0.7374
 4680SOL     OW25501   1.056   3.877   1.526 -0.0226 -0.4428  0.1507
 4680SOL    HW125502   1.093   3.798   1.565  2.0541 -0.0109 -0.9330
 4680SOL    HW225503   0.965   3.849   1.527 -1.0856  2.9620 -0.3056
 4681SOL     OW25504   0.235   2.722   2.409 -0.3420 -0.3969  0.1748
 4681SOL    HW125505   0.323   2.687   2.395  0.3937  1.8354 -0.7490
 4681SOL    HW225506   0.230   2.782   2.335  1.9025  1.8636  1.9133
 4682SOL     OW25507   1.426   2.052   2.711 -0.3934  0.2314  0.4817
 4682SOL    HW125508   1.498   2.115   2.706 -0.4991  0.4945  2.2279
 4682SOL    HW225509   1.393   2.046   2.800 -1.7982 -0.9554 -0.1275
 4683SOL     OW25510   3.951   4.290   7.359  0.1887 -0.1560 -0.4060
 4683SOL    HW125511   3.946   4.200   7.325 -1.5026 -0.2156 -0.0302
 4683SOL    HW225512   3.887   4.336   7.304 -1.0023 -3.8898 -2.1958
 4684SOL     OW25513   0.807   4.703   8.264 -0.1703  0.4477  0.6853
 4684SOL    HW125514   0.751   4.625   8.264 -0.0958  0.3954  0.0611
 4684SOL    HW225515   0.896   4.668   8.255 -0.9379 -1.3207 -0.0756
 4685SOL     OW25516   0.185   3.730   5.202 -0.3415  0.2954  0.6288
 4685SOL    HW125517   0.123   3.728   5.129  0.0859  0.0389  0.2756
 4685SOL    HW225518   0.174   3.812   5.250  0.6482  1.3156 -0.8446
 4686SOL     OW25519   4.447   3.947   5.532 -0.0863  0.5691 -0.4781
 4686SOL    HW125520   4.517   3.893   5.570 -0.8811 -0.6311 -0.7253
 4686SOL    HW225521   4.412   3.889   5.465 -0.4290  0.3497 -0.1087
 4687SOL     OW25522   3.483   1.369   3.848  0.0554 -0.1529  0.2814
 4687SOL    HW125523   3.500   1.342   3.939  4.2657 -2.3613 -1.1789
 4687SOL    HW225524   3.562   1.336   3.805  0.2746 -0.1172  0.6545
 4688SOL     OW25525   4.660   0.642   1.577  0.2052 -0.0832 -0.2388
 4688SOL    HW125526   4.670   0.719   1.521  1.2534  0.2571  0.4284
 4688SOL    HW225527   4.678   0.570   1.515  1.1513  0.6084 -0.7553
 4689SOL     OW25528   3.744   2.539  16.771  0.3034 -0.1615 -0.2310
 4689SOL    HW125529   3.836   2.514  16.782  1.1211  3.7249  1.6493
 4689SOL    HW225530   3.703   2.456  16.746 -0.0883 -0.3035  0.8718
 4690SOL     OW25531   1.382   1.648   9.281  0.4433  0.5077  0.0713
 4690SOL    HW125532   1.398   1.677   9.371 -0.2543 -2.7714  1.2553
 4690SOL    HW225533   1.391   1.732   9.237 -0.9787  2.0394  2.6686
 4691SOL     OW25534   3.863   4.278   3.750  0.1872 -0.4175 -0.5587
 4691SOL    HW125535   3.958   4.293   3.744  0.3587 -0.9104  1.1515
 4691SOL    HW225536   3.852   4.254   3.842  2.0240  1.0446  0.0459
 4692SOL     OW25537   2.484   3.439   1.524 -0.0325  0.7124  0.7910
 4692SOL    HW125538   2.566   3.424   1.570  0.1258 -0.8460  0.0207
 4692SOL    HW225539   2.460   3.529   1.547  0.1078 -0.2015  4.4627
 4693SOL     OW25540   2.037   2.722   8.683  0.1816  0.4330  0.1108
 4693SOL    HW125541   2.034   2.642   8.630  0.7893  0.1257  0.5368
 4693SOL    HW225542   1.964   2.705   8.743  1.0059  0.0157  0.9941
 4694SOL     OW25543   0.629   1.958  14.694  0.2479 -0.1940 -0.4787
 4694SOL    HW125544   0.647   1.905  14.617  1.7723 -2.4214  1.4221
 4694SOL    HW225545   0.540   1.989  14.676 -0.5431 -0.7807  2.3245
 4695SOL     OW25546   2.458   1.816   6.193 -0.0826 -0.0306 -0.0600
 4695SOL    HW125547   2.496   1.895   6.231 -1.0409  0.9166 -1.0740
 4695SOL    HW225548   2.366   1.842   6.190  0.5154  1.9569 -1.0611
 4696SOL     OW25549   1.915   4.295   2.001  0.1980 -0.1346 -0.2517
 4696SOL    HW125550   1.822   4.278   1.992  0.6813 -3.1489  0.4450
 4696SOL    HW225551   1.939   4.330   1.915  0.1566 -2.4941 -1.2094
 4697SOL     OW25552   2.951   1.240  12.411  0.5758  0.1078 -0.5540
 4697SOL    HW125553   2.966   1.303  12.482 -0.8284  0.6030 -0.6918
 4697SOL    HW225554   2.858   1.219  12.422  0.6987 -0.6930 -0.9854
 4698SOL     OW25555   1.467   0.855   5.294  0.6378  0.0400 -0.5778
 4698SOL    HW125556   1.392   0.818   5.342  1.6767 -0.6075  0.5336
 4698SOL    HW225557   1.476   0.790   5.224  0.3825 -1.0434  0.3900
 4699SOL     OW25558   2.749   3.084  10.419  0.2664  0.0521 -0.6658
 4699SOL    HW125559   2.815   3.015  10.421 -0.4063 -0.6340 -2.0930
 4699SOL    HW225560   2.701   3.044  10.492  0.0079 -0.0635 -0.8979
 4700SOL     OW25561   4.167   1.037   8.953  0.3324  0.3355  0.3661
 4700SOL    HW125562   4.162   1.084   8.870  1.2955  2.2456  1.3591
 4700SOL    HW225563   4.088   1.061   9.000  0.4150  1.7753 -0.2160
 4701SOL     OW25564   0.572   0.835   0.863  0.6328 -0.5575  0.2912
 4701SOL    HW125565   0.585   0.740   0.868 -0.6320 -0.6557  1.8978
 4701SOL    HW225566   0.627   0.852   0.787  1.2028  3.6614  1.6863
 4702SOL     OW25567   4.235   3.473   2.603  0.7594  0.1492  0.6019
 4702SOL    HW125568   4.268   3.466   2.692 -2.0612  0.5658  1.6695
 4702SOL    HW225569   4.226   3.568   2.604  1.3073  0.1883  1.4228
 4703SOL     OW25570   4.318   3.830   0.345 -0.3572  0.2142 -0.4623
 4703SOL    HW125571   4.383   3.896   0.370  1.0546 -0.5661 -2.0462
 4703SOL    HW225572   4.241   3.884   0.330  0.5786  1.5345 -0.4859
 4704SOL     OW25573   0.497   1.286  13.209  0.2811 -0.4460 -0.3311
 4704SOL    HW125574   0.557   1.211  13.204 -1.9492 -2.1508 -1.3673
 4704SOL    HW225575   0.488   1.298  13.115  0.6844 -0.1331 -0.3309
 4705SOL     OW25576   0.991   0.476   7.547 -0.4256  0.6093  0.0067
 4705SOL    HW125577   1.030   0.533   7.613 -0.9875  0.5545  0.3786
 4705SOL    HW225578   1.055   0.405   7.536  0.8348  1.7250  0.1508
 4706SOL     OW25579   4.634   3.551   2.120  0.3895 -0.1105 -0.2081
 4706SOL    HW125580   4.663   3.588   2.037  0.5925  0.0498 -0.0665
 4706SOL    HW225581   0.001   3.549   2.160  0.0927  0.9675  0.5061
 4707SOL     OW25582   4.645   0.609  11.822  0.2329 -0.0205 -0.2612
 4707SOL    HW125583   4.598   0.533  11.791 -1.0587  1.1925 -1.2477
 4707SOL    HW225584   0.006   0.603  11.771  1.4089  0.7709  1.4695
 4708SOL     OW25585   3.269   2.481   8.240 -0.0655 -0.4218  0.0487
 4708SOL    HW125586   3.311   2.548   8.293 -2.7967  1.0479  0.3327
 4708SOL    HW225587   3.203   2.526   8.188 -0.4459  0.0102  0.9072
 4709SOL     OW25588   0.781   2.795   6.225  0.1718 -0.0418  0.3210
 4709SOL    HW125589   0.730   2.720   6.256  1.0647 -0.0284  1.8336
 4709SOL    HW225590   0.871   2.775   6.249 -0.0007 -2.1056 -0.7237
 4710SOL     OW25591   1.129   3.062   3.315  0.4815 -0.0970 -0.0725
 4710SOL    HW125592   1.082   2.990   3.272 -0.8283  1.9928 -2.0738
 4710SOL    HW225593   1.178   3.100   3.242 -0.4350 -1.1375 -1.2268
 4711SOL     OW25594   1.396   3.092   1.251  0.4208  0.5492 -0.3218
 4711SOL    HW125595   1.407   3.128   1.339  0.3171  0.0943 -0.1199
 4711SOL    HW225596   1.388   3.172   1.199  0.6090  0.5790 -0.3022
 4712SOL     OW25597   2.936   1.865   7.158 -0.3307  0.3276 -0.2717
 4712SOL    HW125598   2.941   1.960   7.164 -1.1878  0.4399 -1.2720
 4712SOL    HW225599   2.890   1.855   7.242  1.6544 -1.4951  0.5907
 4713SOL     OW25600   4.386   0.291   9.043 -0.1789  0.3025  0.0199
 4713SOL    HW125601   4.423   0.332   9.121  1.5741 -2.8421  0.8597
 4713SOL    HW225602   4.458   0.299   8.981  3.0220 -1.6715  3.4574
 4714SOL     OW25603   1.996   4.650   6.925 -0.2309  0.4177 -0.8536
 4714SOL    HW125604   2.081   4.611   6.903 -1.0379 -0.7666 -1.8689
 4714SOL    HW225605   1.954   4.676   6.843 -0.9650  0.4706 -0.4599
 4715SOL     OW25606   4.092   3.462   3.610 -0.3039 -0.0679  0.4917
 4715SOL    HW125607   4.164   3.440   3.552  1.4316  0.7432  2.3636
 4715SOL    HW225608   4.039   3.382   3.602  0.1672 -0.3127 -0.1312
 4716SOL     OW25609   1.841   0.618   8.389 -0.0869 -0.3266  0.3469
 4716SOL    HW125610   1.756   0.597   8.428  0.3774 -3.7394 -0.4373
 4716SOL    HW225611   1.852   0.549   8.323  0.1270 -1.7927  1.9116
 4717SOL     OW25612   2.188   3.748   5.269  0.1242 -0.0656 -0.1424
 4717SOL    HW125613   2.114   3.761   5.209  0.7638 -0.6966 -1.0633
 4717SOL    HW225614   2.265   3.743   5.213  0.1751  1.0029 -0.1677
 4718SOL     OW25615   0.037   3.882   6.755  0.3485  0.0705  0.0330
 4718SOL    HW125616   4.691   3.813   6.750 -0.6975  0.9236  2.2728
 4718SOL    HW225617   0.052   3.895   6.848 -0.1574 -0.2254  0.1538
 4719SOL     OW25618   3.787   0.035   3.031  0.1383  0.6014 -0.2689
 4719SOL    HW125619   3.825   0.123   3.026  3.3302 -0.8020 -0.9661
 4719SOL    HW225620   3.700   0.047   3.069  1.3344 -1.1250  2.9672
 4720SOL     OW25621   4.312   3.113   4.364  0.4487 -0.1093  0.4128
 4720SOL    HW125622   4.305   3.208   4.361 -0.5387 -0.1051  3.0449
 4720SOL    HW225623   4.230   3.093   4.319  1.1292  0.8001 -1.2308
 4721SOL     OW25624   3.474   4.498   7.049  0.4470 -0.0199  0.2176
 4721SOL    HW125625   3.555   4.452   7.025  0.0148 -0.9091  0.4859
 4721SOL    HW225626   3.458   4.542   6.965 -0.4950 -1.3597 -0.3140
 4722SOL     OW25627   2.943   2.377   3.312  0.4461 -0.2496  0.0673
 4722SOL    HW125628   2.901   2.424   3.240  0.9978  0.7291  0.3856
 4722SOL    HW225629   3.018   2.334   3.270  0.6358  1.5449 -1.4550
 4723SOL     OW25630   0.761   1.513   8.129  0.0386 -0.2259  0.0150
 4723SOL    HW125631   0.711   1.433   8.147  0.3366 -0.9540 -2.4540
 4723SOL    HW225632   0.711   1.584   8.169 -0.1115 -1.3376  1.8091
 4724SOL     OW25633   4.159   1.772   4.859  0.6291 -0.8671 -0.1594
 4724SOL    HW125634   4.221   1.735   4.796  0.3168 -1.6346 -0.0169
 4724SOL    HW225635   4.078   1.762   4.809  0.0298 -1.8829  1.0034
 4725SOL     OW25636   3.412   2.104  15.375 -0.3653 -0.3716  0.4480
 4725SOL    HW125637   3.328   2.148  15.371 -0.6618 -0.9949 -0.3167
 4725SOL    HW225638   3.390   2.041  15.444  0.2450  0.3835  1.3410
 4726SOL     OW25639   3.425   3.165  14.731 -0.5936 -0.2609  0.3107
 4726SOL    HW125640   3.380   3.239  14.773 -1.4109 -1.2047  1.0978
 4726SOL    HW225641   3.509   3.204  14.706 -2.0412  0.1370 -3.8625
 4727SOL     OW25642   0.183   1.136  11.273  0.4302 -0.0215 -0.4008
 4727SOL    HW125643   0.203   1.140  11.179  0.4666  0.0134 -0.3920
 4727SOL    HW225644   0.270   1.145  11.312  0.7640  0.5444 -1.2560
 4728SOL     OW25645   4.504   0.870   7.040  0.2068 -0.2854  0.2160
 4728SOL    HW125646   4.415   0.847   7.012 -0.8100  2.2487  1.3284
 4728SOL    HW225647   4.561   0.827   6.976 -0.7943 -4.5911  2.2107
 4729SOL     OW25648   2.120   2.857  14.829  0.4945  0.2611  0.0090
 4729SOL    HW125649   2.102   2.770  14.793  0.7317  0.5189 -0.7458
 4729SOL    HW225650   2.065   2.837  14.904  0.4225  1.3407  0.2427
 4730SOL     OW25651   2.550   1.379   2.496  1.0930 -0.1536  0.3138
 4730SOL    HW125652   2.576   1.430   2.419  1.1780 -0.0173  0.4326
 4730SOL    HW225653   2.454   1.386   2.503  1.0859 -2.1753  1.9666
 4731SOL     OW25654   3.961   3.846  11.990 -0.5012 -0.1084 -0.0955
 4731SOL    HW125655   3.983   3.772  12.047  1.0587 -0.6073 -1.3678
 4731SOL    HW225656   3.963   3.808  11.903 -2.2664  0.7404 -0.5112
 4732SOL     OW25657   1.202   0.289   6.779 -0.3148 -0.0987  0.4355
 4732SOL    HW125658   1.185   0.196   6.792 -1.7580  0.1088 -0.0693
 4732SOL    HW225659   1.138   0.317   6.714 -0.2258  0.7063  0.6946
 4733SOL     OW25660   4.594   1.132   6.027  0.0154  0.1269  0.0802
 4733SOL    HW125661   4.516   1.188   6.030  0.4065  0.5821  1.8194
 4733SOL    HW225662   4.658   1.202   6.016 -1.1289  1.5353  2.2906
 4734SOL     OW25663   2.964   3.869   2.278  0.3051 -0.0598 -0.2805
 4734SOL    HW125664   2.988   3.962   2.279 -0.9968  0.2729 -0.9109
 4734SOL    HW225665   2.991   3.849   2.368  0.4350 -1.5234 -0.6424
 4735SOL     OW25666   4.362   0.344   8.709 -0.2641  0.4017  0.1601
 4735SOL    HW125667   4.311   0.423   8.728  0.6488  1.0559 -0.0647
 4735SOL    HW225668   4.427   0.346   8.780 -0.8481 -1.0802  0.7179
 4736SOL     OW25669   2.727   1.036   3.814 -0.0690  0.0204  0.1056
 4736SOL    HW125670   2.733   1.045   3.719  0.8920 -0.3309  0.1425
 4736SOL    HW225671   2.761   0.947   3.825  0.2568  0.0447 -0.7350
 4737SOL     OW25672   0.868   3.794   0.533  0.2088 -0.7697 -0.0317
 4737SOL    HW125673   0.910   3.723   0.484  0.9044 -1.1922  1.1979
 4737SOL    HW225674   0.791   3.812   0.479  0.7472 -1.0361 -0.8994
 4738SOL     OW25675   0.578   3.431  13.257 -0.0643 -0.0266  0.5042
 4738SOL    HW125676   0.673   3.430  13.268 -0.2440  0.3009  2.0724
 4738SOL    HW225677   0.577   3.489  13.180 -2.6866  0.3253  0.8215
 4739SOL     OW25678   1.685   2.119   6.735 -0.3829  0.4237 -0.7130
 4739SOL    HW125679   1.619   2.052   6.716 -0.2422  0.8680 -2.8091
 4739SOL    HW225680   1.677   2.109   6.829 -1.0271 -0.4691 -0.8561
 4740SOL     OW25681   4.256   0.102   2.267 -0.1083 -0.7916 -0.4551
 4740SOL    HW125682   4.266   0.045   2.343 -2.7034 -2.1380 -1.1061
 4740SOL    HW225683   4.174   0.067   2.232 -0.3393  0.6578 -1.3630
 4741SOL     OW25684   3.088   1.756   1.607  0.4107 -0.1644  0.0064
 4741SOL    HW125685   3.114   1.834   1.557 -0.0249 -0.2518 -0.3576
 4741SOL    HW225686   3.134   1.692   1.553  0.1119  1.8358 -2.6363
 4742SOL     OW25687   2.437   0.053   0.655 -0.4167 -0.2666  0.2320
 4742SOL    HW125688   2.407   0.137   0.618 -2.5738 -1.9718 -1.9224
 4742SOL    HW225689   2.489   0.087   0.727 -1.5771 -0.7164  1.2707
 4743SOL     OW25690   2.713   1.824   4.814 -0.0890  0.5908  0.1530
 4743SOL    HW125691   2.776   1.890   4.846 -0.8185  1.2675  0.2075
 4743SOL    HW225692   2.638   1.884   4.823 -0.5653 -0.4736  3.4140
 4744SOL     OW25693   1.694   4.153  10.499  0.0682 -0.3312 -0.6729
 4744SOL    HW125694   1.730   4.137  10.586 -1.2600  1.1154  0.1512
 4744SOL    HW225695   1.601   4.175  10.511  0.0019 -0.7757 -0.3849
 4745SOL     OW25696   0.263   3.391   5.754  0.7833  0.6743  0.0708
 4745SOL    HW125697   0.320   3.387   5.831  0.2230  0.8545  0.4991
 4745SOL    HW225698   0.175   3.400   5.792  1.3555  2.3502  0.9607
 4746SOL     OW25699   3.641   3.376   3.198  0.1987 -0.2071 -0.2447
 4746SOL    HW125700   3.636   3.349   3.107  2.8944 -0.5150 -0.2916
 4746SOL    HW225701   3.724   3.420   3.184 -0.6679  0.6025 -2.7738
 4747SOL     OW25702   3.248   0.212  16.051  0.0016 -0.2993 -0.2939
 4747SOL    HW125703   3.239   0.299  16.090  0.9770  0.5452 -1.9697
 4747SOL    HW225704   3.295   0.231  15.970  2.2570 -1.3077  0.7875
 4748SOL     OW25705   2.862   0.474   7.295  0.2903 -0.1235  0.2931
 4748SOL    HW125706   2.767   0.485   7.294  0.5100  1.8488  0.8976
 4748SOL    HW225707   2.882   0.442   7.383 -0.5236 -0.9586  0.1759
 4749SOL     OW25708   2.393   3.795  10.068 -0.4748 -0.0181  0.1524
 4749SOL    HW125709   2.368   3.711  10.030 -2.3737  1.2089 -1.2627
 4749SOL    HW225710   2.484   3.774  10.091  0.3522  3.3058 -0.1169
 4750SOL     OW25711   3.652   2.797   4.990 -0.2870  0.4234 -0.1011
 4750SOL    HW125712   3.591   2.794   5.064 -1.0865  3.1317 -0.6355
 4750SOL    HW225713   3.616   2.720   4.947 -0.5718 -1.1987  3.0033
 4751SOL     OW25714   2.259   2.370   4.417  0.0168  0.1658  0.4746
 4751SOL    HW125715   2.213   2.367   4.333 -2.6711  0.8277  1.9322
 4751SOL    HW225716   2.227   2.287   4.453  0.1764  0.0512  0.3531
 4752SOL     OW25717   3.439   3.080   7.943 -0.1805 -0.8319  0.1398
 4752SOL    HW125718   3.428   2.991   7.977  1.0661 -0.8429  0.5128
 4752SOL    HW225719   3.528   3.076   7.907  0.1355  0.0174  0.8190
 4753SOL     OW25720   1.650   2.310   9.513 -0.0127 -0.2569 -0.9016
 4753SOL    HW125721   1.558   2.284   9.518 -0.4109  1.4790  0.5825
 4753SOL    HW225722   1.657   2.331   9.420  0.2216  2.1608 -0.3252
 4754SOL     OW25723   1.208   2.262   4.767 -0.5178 -0.1334  0.8961
 4754SOL    HW125724   1.188   2.316   4.690  3.9441  1.2139  0.6654
 4754SOL    HW225725   1.255   2.189   4.727  2.3059  2.9646 -1.5177
 4755SOL     OW25726   1.187   2.009   4.019 -0.1100  0.1935 -0.0725
 4755SOL    HW125727   1.103   1.970   4.043  0.8820 -1.4971  0.6373
 4755SOL    HW225728   1.246   1.934   4.027 -1.8287 -1.0056  1.3251
 4756SOL     OW25729   3.761   2.904   3.510 -0.7113 -0.1254 -0.3332
 4756SOL    HW125730   3.754   2.935   3.601  0.8677  1.4564 -0.7306
 4756SOL    HW225731   3.680   2.855   3.500  0.0036 -1.1118 -1.2303
 4757SOL     OW25732   3.111   1.340   4.481 -0.4566  0.7595 -0.2398
 4757SOL    HW125733   3.077   1.356   4.393 -0.7528  1.0969 -0.0643
 4757SOL    HW225734   3.202   1.338   4.451 -0.2760  2.6965  0.1388
 4758SOL     OW25735   4.358   0.517  10.649 -0.7520  0.1452  0.1748
 4758SOL    HW125736   4.279   0.503  10.597 -1.3392  1.1928  0.7718
 4758SOL    HW225737   4.389   0.603  10.619 -0.5758 -0.0891 -0.3140
 4759SOL     OW25738   2.483   1.654   9.120 -0.7665  0.2007 -0.3751
 4759SOL    HW125739   2.419   1.591   9.152 -0.2158 -1.3359 -2.3130
 4759SOL    HW225740   2.459   1.657   9.027 -0.3035  1.3518 -0.4592
 4760SOL     OW25741   3.495   3.582  12.143 -0.2385  0.0499  0.0376
 4760SOL    HW125742   3.552   3.576  12.219 -0.2447 -0.1303  0.0276
 4760SOL    HW225743   3.555   3.596  12.070 -0.5701 -2.5892 -0.7306
 4761SOL     OW25744   1.379   2.136   3.870 -0.0728 -0.2662  0.1084
 4761SOL    HW125745   1.308   2.086   3.912  0.2201  0.2603  1.2021
 4761SOL    HW225746   1.444   2.067   3.860  1.3176  1.0410  0.2789
 4762SOL     OW25747   0.499   3.622   4.415 -0.1363 -0.1269 -0.7707
 4762SOL    HW125748   0.495   3.659   4.327  1.9749  0.9912 -0.3802
 4762SOL    HW225749   0.558   3.551   4.390 -1.4696 -1.2021 -0.8702
 4763SOL     OW25750   2.997   1.462   4.714 -0.1709  0.1129 -0.3973
 4763SOL    HW125751   3.008   1.400   4.642  0.8602 -0.6291  0.3983
 4763SOL    HW225752   3.082   1.458   4.758  0.3023 -2.5366 -1.5921
 4764SOL     OW25753   1.052   2.235   8.374  0.1874 -0.0623  0.3645
 4764SOL    HW125754   1.061   2.171   8.304 -2.3900  0.3127 -0.3116
 4764SOL    HW225755   1.144   2.253   8.392 -0.2272  2.0315  0.4596
 4765SOL     OW25756   1.147   1.231  17.520 -0.3346 -0.4645 -0.1929
 4765SOL    HW125757   1.176   1.143  17.495 -1.4460 -0.0816 -2.8470
 4765SOL    HW225758   1.149   1.282  17.439 -0.1679  0.7229  0.5620
 4766SOL     OW25759   3.702   1.216   1.192 -0.7814  0.3548  0.1004
 4766SOL    HW125760   3.784   1.227   1.144 -2.6856 -0.1768 -3.2949
 4766SOL    HW225761   3.700   1.300   1.238  0.2903  0.7279 -0.5214
 4767SOL     OW25762   0.135   0.808   7.848 -0.4612  0.3471  0.7970
 4767SOL    HW125763   0.178   0.801   7.763  1.2397 -0.2181  1.7054
 4767SOL    HW225764   0.061   0.860   7.817 -1.5682 -1.5690  0.2443
 4768SOL     OW25765   0.054   1.761  11.064 -0.3559 -0.1962  0.0702
 4768SOL    HW125766   0.109   1.686  11.089 -1.6185 -1.9767 -2.4362
 4768SOL    HW225767   0.064   1.762  10.969 -1.5207  2.1640 -0.0185
 4769SOL     OW25768   4.478   1.106   9.792  0.4218 -0.2848 -0.0781
 4769SOL    HW125769   4.560   1.098   9.743 -1.0206  0.4404 -2.6310
 4769SOL    HW225770   4.512   1.132   9.877  1.7394 -2.0845 -0.0551
 4770SOL     OW25771   3.530   1.775   2.184 -0.2405 -0.4320  0.4252
 4770SOL    HW125772   3.454   1.775   2.125 -0.0701 -0.6937  0.2072
 4770SOL    HW225773   3.519   1.867   2.207  1.2547  0.0681 -0.8508
 4771SOL     OW25774   3.490   4.716   9.445  0.0539  0.0204  0.4687
 4771SOL    HW125775   3.568   0.051   9.436  0.1663 -0.2663 -0.2538
 4771SOL    HW225776   3.423   0.047   9.399 -0.5017  1.6162  3.0218
 4772SOL     OW25777   0.018   0.576   2.339 -0.3873 -0.6676  0.0703
 4772SOL    HW125778   4.685   0.601   2.415  2.5007 -0.3789  1.9391
 4772SOL    HW225779   0.089   0.640   2.342 -0.6596 -0.3494 -0.3794
 4773SOL     OW25780   2.008   4.486  16.313 -0.0129 -0.1597  0.0268
 4773SOL    HW125781   2.025   4.579  16.300 -0.6488  0.2435  2.1337
 4773SOL    HW225782   2.092   4.456  16.348 -0.2533 -2.6175 -1.4737
 4774SOL     OW25783   3.765   3.427   7.472 -0.1511 -0.5706 -0.0910
 4774SOL    HW125784   3.697   3.361   7.487 -0.2001 -0.5049 -0.0245
 4774SOL    HW225785   3.768   3.429   7.377 -1.3655 -0.2818 -0.1187
 4775SOL     OW25786   1.113   4.013   3.750  0.0529  0.0929  0.4020
 4775SOL    HW125787   1.200   4.013   3.712 -0.2008  0.2829 -0.1779
 4775SOL    HW225788   1.057   4.058   3.686  0.1507  0.6775  0.7224
 4776SOL     OW25789   1.082   1.780   7.227 -0.0756 -0.2249 -0.3462
 4776SOL    HW125790   1.068   1.791   7.132 -2.5952 -0.0652  0.0362
 4776SOL    HW225791   1.004   1.833   7.242  0.5922  0.4287  0.7998
 4777SOL     OW25792   1.197   4.360  17.028 -0.0140  0.1095  0.5960
 4777SOL    HW125793   1.140   4.353  17.104  0.9116 -2.3831  1.0575
 4777SOL    HW225794   1.133   4.341  16.959  0.1296  0.0764  0.4718
 4778SOL     OW25795   1.284   2.022   9.428  0.2607  0.3211  0.2864
 4778SOL    HW125796   1.322   1.976   9.353 -3.3570 -1.7072 -0.2605
 4778SOL    HW225797   1.213   1.960   9.444  0.7634  0.2923  2.3381
 4779SOL     OW25798   1.560   3.540  12.356 -0.0384 -0.0138 -0.6047
 4779SOL    HW125799   1.585   3.497  12.274 -0.4774 -1.6027  0.0977
 4779SOL    HW225800   1.548   3.625  12.312 -1.0098  0.4922  0.6328
 4780SOL     OW25801   2.733   0.660  12.466  0.3997 -0.7540 -0.2937
 4780SOL    HW125802   2.783   0.684  12.388  0.1141  0.6538 -0.0520
 4780SOL    HW225803   2.797   0.602  12.505  1.6309  1.2446  0.6643
 4781SOL     OW25804   4.120   0.370   9.630  0.2790  0.3374  0.3607
 4781SOL    HW125805   4.073   0.314   9.691  1.3204  0.5095  1.3143
 4781SOL    HW225806   4.064   0.448   9.631 -1.7206 -1.0935 -0.0642
 4782SOL     OW25807   2.328   4.655   7.904 -0.0596 -0.1873  0.7762
 4782SOL    HW125808   2.246   4.606   7.913 -0.3788 -0.2291 -2.3435
 4782SOL    HW225809   2.394   4.585   7.901 -0.5739 -0.5719 -1.4050
 4783SOL     OW25810   3.320   1.637   2.430 -0.0014 -0.5298  0.6735
 4783SOL    HW125811   3.271   1.638   2.348  0.4170 -2.0660  0.4118
 4783SOL    HW225812   3.335   1.730   2.446 -0.5084 -0.2130 -0.7127
 4784SOL     OW25813   3.392   3.647   6.772 -0.4075 -0.3896  0.4940
 4784SOL    HW125814   3.344   3.564   6.764  1.2728 -1.3323  0.0596
 4784SOL    HW225815   3.358   3.695   6.697  0.4647  0.6497  0.7652
 4785SOL     OW25816   0.136   3.416  12.514 -0.3440  0.4731 -0.1296
 4785SOL    HW125817   0.225   3.450  12.507  0.4828 -1.2420  1.8362
 4785SOL    HW225818   0.147   3.328  12.551 -2.8112  0.7807  1.2938
 4786SOL     OW25819   3.345   3.539   8.512  0.0354  0.6038 -0.4220
 4786SOL    HW125820   3.441   3.548   8.515 -0.0965  1.5375  0.9702
 4786SOL    HW225821   3.312   3.628   8.502 -0.4371  0.5803  0.9545
 4787SOL     OW25822   0.853   2.248  13.422  0.2749  0.1487  0.6482
 4787SOL    HW125823   0.947   2.232  13.422  0.6117  2.1748  1.5106
 4787SOL    HW225824   0.822   2.157  13.420 -0.8954  0.6002 -1.8267
 4788SOL     OW25825   1.416   2.858   5.810  0.0178  0.1158  0.1915
 4788SOL    HW125826   1.467   2.802   5.870  1.7105  2.3692  0.8513
 4788SOL    HW225827   1.408   2.804   5.731  0.9382 -0.8783  0.7834
 4789SOL     OW25828   3.911   2.870   8.472  0.9392 -0.1246  0.0424
 4789SOL    HW125829   3.901   2.924   8.551  0.7136  0.1144 -0.1452
 4789SOL    HW225830   3.938   2.937   8.409 -0.6029 -1.6296 -2.2245
 4790SOL     OW25831   0.778   3.406   7.637  0.4703 -0.1379  0.7657
 4790SOL    HW125832   0.718   3.341   7.602  0.6923  0.0691  0.0047
 4790SOL    HW225833   0.773   3.461   7.559 -2.0609 -1.7495 -0.1878
 4791SOL     OW25834   1.273   3.136   3.113  0.2724  0.0083  0.4510
 4791SOL    HW125835   1.339   3.081   3.071 -1.1668 -0.8896 -0.6607
 4791SOL    HW225836   1.205   3.118   3.048  0.1696  4.3331 -0.6560
 4792SOL     OW25837   1.938   2.798   2.906  0.2687  0.0422  0.0920
 4792SOL    HW125838   1.991   2.736   2.856  1.6448  0.8590  0.5480
 4792SOL    HW225839   2.007   2.852   2.944 -0.1668  1.0212 -0.5221
 4793SOL     OW25840   4.266   2.547   0.673 -0.3576  0.1657  0.4947
 4793SOL    HW125841   4.287   2.486   0.602  0.5470  0.5122  0.4519
 4793SOL    HW225842   4.178   2.575   0.649  0.3660  2.8098  0.8887
 4794SOL     OW25843   2.301   1.469   6.698 -0.1221  0.1573  0.5374
 4794SOL    HW125844   2.258   1.514   6.625 -1.3217  2.3009  2.5588
 4794SOL    HW225845   2.368   1.536   6.709  1.0386 -1.2151  1.8605
 4795SOL     OW25846   1.037   4.609   8.217  0.8940 -0.4393 -0.0202
 4795SOL    HW125847   1.086   4.546   8.269  0.2736 -1.1998 -0.3644
 4795SOL    HW225848   1.054   4.578   8.128  1.5649 -0.5460  0.1468
 4796SOL     OW25849   4.217   0.418  14.693  0.7174 -0.8144 -0.1154
 4796SOL    HW125850   4.248   0.329  14.713 -0.2026 -0.9012  0.9342
 4796SOL    HW225851   4.228   0.417  14.597  0.9056  1.1001 -0.1075
 4797SOL     OW25852   0.759   3.272   5.983 -0.5112  0.2358  0.5886
 4797SOL    HW125853   0.715   3.202   6.030  1.2823  0.2738  2.3490
 4797SOL    HW225854   0.829   3.223   5.941 -0.1879  0.4318  0.8946
 4798SOL     OW25855   0.193   0.455  17.140  0.5060 -0.8511 -0.0495
 4798SOL    HW125856   0.171   0.368  17.174  0.1884 -1.2009 -1.1758
 4798SOL    HW225857   0.186   0.510  17.218 -0.4246  0.8588 -1.3502
 4799SOL     OW25858   2.911   3.227  14.703 -0.2083 -0.2225  0.6395
 4799SOL    HW125859   2.974   3.298  14.697  0.1612 -0.6774 -0.8026
 4799SOL    HW225860   2.880   3.215  14.614  2.9249 -2.5766 -0.1403
 4800SOL     OW25861   0.067   4.582   5.797 -0.0066 -0.3289 -0.0554
 4800SOL    HW125862   0.006   4.612   5.730  2.0316 -1.3027 -2.3264
 4800SOL    HW225863   0.144   4.622   5.759  0.0943 -1.9400 -1.5190
 4801SOL     OW25864   2.700   1.734   7.924 -0.2893 -0.7196  0.1995
 4801SOL    HW125865   2.699   1.828   7.946 -0.6997 -0.2459 -1.8584
 4801SOL    HW225866   2.757   1.723   7.848 -1.9969 -0.0440 -1.1772
 4802SOL     OW25867   2.157   2.285   2.887 -0.6653 -0.5386 -0.2465
 4802SOL    HW125868   2.139   2.375   2.913  1.7590  0.1275 -0.8956
 4802SOL    HW225869   2.192   2.257   2.972 -1.7714  0.2125  0.4587
 4803SOL     OW25870   2.964   0.384   4.362 -0.1684  0.1954  0.2473
 4803SOL    HW125871   2.891   0.394   4.300 -1.7132 -1.4069  1.7972
 4803SOL    HW225872   2.916   0.341   4.433 -1.6226  1.3007 -0.0679
 4804SOL     OW25873   3.840   2.151   6.794  0.5895 -0.2101 -0.0277
 4804SOL    HW125874   3.780   2.197   6.735  0.8194 -1.2152 -1.0397
 4804SOL    HW225875   3.893   2.096   6.737  1.7962  2.5149 -1.5579
 4805SOL     OW25876   1.327   2.780   4.289  0.1447 -0.2989  0.6299
 4805SOL    HW125877   1.366   2.801   4.204 -1.4249  0.7276  0.1683
 4805SOL    HW225878   1.382   2.822   4.355  0.1503  1.9942 -0.8405
 4806SOL     OW25879   1.346   3.693   2.748  0.1187 -0.4773 -0.3789
 4806SOL    HW125880   1.413   3.643   2.796  1.5097  1.0214 -0.7616
 4806SOL    HW225881   1.272   3.633   2.758 -0.6133  0.2113 -1.5881
 4807SOL     OW25882   0.740   3.241   8.032  0.2877  0.6419 -0.1005
 4807SOL    HW125883   0.788   3.259   8.113 -1.0749  1.0100  0.6417
 4807SOL    HW225884   0.812   3.237   7.970 -1.1317  0.0901 -1.7063
 4808SOL     OW25885   0.721   4.187   8.913 -0.0339  0.4173  0.1327
 4808SOL    HW125886   0.732   4.274   8.952  1.3500  0.6868 -0.8661
 4808SOL    HW225887   0.635   4.197   8.872  0.4563  1.2524 -0.6674
 4809SOL     OW25888   1.275   1.354   9.676 -0.3631 -0.0424  0.2831
 4809SOL    HW125889   1.306   1.410   9.605 -1.7492  0.3403 -0.0382
 4809SOL    HW225890   1.335   1.281   9.666  1.3913  1.1868  1.8696
 4810SOL     OW25891   0.665   3.200  16.928 -0.0704 -0.1853 -0.4312
 4810SOL    HW125892   0.706   3.199  16.842 -0.7587 -0.5852 -0.7468
 4810SOL    HW225893   0.711   3.279  16.957 -0.5749  0.6220 -1.8927
 4811SOL     OW25894   2.259   1.400  14.305  0.2990  0.1334  0.2124
 4811SOL    HW125895   2.242   1.387  14.211  0.5234  0.9302  0.0612
 4811SOL    HW225896   2.177   1.368  14.342  0.6458 -0.3043  0.5910
 4812SOL     OW25897   3.860   1.977   7.245 -0.1388  0.2811  0.0256
 4812SOL    HW125898   3.947   1.967   7.207  1.2034 -0.9574  3.4234
 4812SOL    HW225899   3.825   2.032   7.174  1.3898  1.7363  0.4160
 4813SOL     OW25900   3.069   1.166   3.673  0.5318  0.0389  0.4985
 4813SOL    HW125901   3.161   1.192   3.677  0.5920  0.0613 -0.8410
 4813SOL    HW225902   3.081   1.082   3.717  0.6435 -1.3784 -2.1855
 4814SOL     OW25903   1.320   2.047   3.370  0.0415 -0.0982  0.0877
 4814SOL    HW125904   1.413   2.068   3.376 -0.2363  0.9631  0.6413
 4814SOL    HW225905   1.309   2.067   3.277 -3.9659 -2.9252 -0.0294
 4815SOL     OW25906   1.828   2.192  15.858  0.4337 -0.4679  0.1596
 4815SOL    HW125907   1.877   2.120  15.897  0.8212 -0.2580  0.0618
 4815SOL    HW225908   1.897   2.253  15.831  1.9230 -2.0750  0.3667
 4816SOL     OW25909   3.619   3.825   9.937 -0.2755  0.5189  0.1916
 4816SOL    HW125910   3.636   3.873  10.017 -0.1922  2.1036 -0.7838
 4816SOL    HW225911   3.693   3.860   9.888  0.5864 -1.9931 -0.3371
 4817SOL     OW25912   2.724   0.660   2.016  0.3282  0.2820 -0.5711
 4817SOL    HW125913   2.773   0.737   2.046 -0.6847  0.8238 -0.3129
 4817SOL    HW225914   2.794   0.641   1.954  0.1062 -0.6255 -0.5421
 4818SOL     OW25915   4.444   2.987   0.844  0.0940 -0.8607  0.0658
 4818SOL    HW125916   4.431   2.895   0.821  0.1971 -0.8267 -0.1312
 4818SOL    HW225917   4.497   2.969   0.922  1.2076  1.4976 -0.1312
 4819SOL     OW25918   1.296   2.797  11.290 -0.1820 -0.0078  0.3775
 4819SOL    HW125919   1.236   2.811  11.217  1.3011 -1.0707 -1.0517
 4819SOL    HW225920   1.340   2.716  11.264 -1.8594 -0.6394 -0.4838
 4820SOL     OW25921   2.265   2.846  11.950 -0.4622  0.1488  0.0708
 4820SOL    HW125922   2.212   2.782  11.998 -0.8276  0.1518 -0.3300
 4820SOL    HW225923   2.306   2.895  12.021 -0.1901  2.4351 -1.6530
 4821SOL     OW25924   2.355   1.751   8.760 -0.0580  0.2167  0.2862
 4821SOL    HW125925   2.434   1.698   8.757  0.5904  1.1030  1.4764
 4821SOL    HW225926   2.380   1.816   8.694 -1.2186 -0.8463 -1.2020
 4822SOL     OW25927   0.551   4.477   6.979 -0.4063  0.7047 -0.2250
 4822SOL    HW125928   0.549   4.567   6.948  0.9212  0.3320 -1.4149
 4822SOL    HW225929   0.638   4.481   7.020 -0.0720 -1.9216 -0.6459
 4823SOL     OW25930   1.855   1.665   5.636 -0.5028 -0.0921 -1.1499
 4823SOL    HW125931   1.771   1.664   5.591 -0.6000  1.4450 -1.0281
 4823SOL    HW225932   1.858   1.581   5.682  0.3800  0.6222  0.1029
 4824SOL     OW25933   0.785   0.923  12.079 -0.3022  0.4488  0.5084
 4824SOL    HW125934   0.782   0.850  12.141 -2.0449  1.8692  2.0881
 4824SOL    HW225935   0.774   0.879  11.994  2.8453  1.4342 -0.4110
 4825SOL     OW25936   0.348   2.963   5.689 -0.1420 -0.7754 -0.0091
 4825SOL    HW125937   0.300   2.895   5.641 -1.6721  0.3808 -0.0776
 4825SOL    HW225938   0.358   3.034   5.626  0.4383 -1.0698 -0.2565
 4826SOL     OW25939   2.542   3.948  14.679  0.3404  0.4645 -0.0122
 4826SOL    HW125940   2.589   3.889  14.739  1.8224  0.8913 -0.7529
 4826SOL    HW225941   2.596   4.025  14.659  1.4289 -0.3170 -0.1156
 4827SOL     OW25942   1.328   3.178   2.785  0.3101 -0.6749  0.2623
 4827SOL    HW125943   1.349   3.085   2.790 -1.2999 -1.0718 -0.1555
 4827SOL    HW225944   1.261   3.176   2.717  0.0388  1.2825  0.4713
 4828SOL     OW25945   1.775   1.339   8.818 -0.2771 -0.4016  0.2069
 4828SOL    HW125946   1.698   1.318   8.871 -0.5607  0.3130  0.0807
 4828SOL    HW225947   1.827   1.372   8.892  0.1746 -2.2050  0.6813
 4829SOL     OW25948   2.387   3.125  15.395 -0.0498 -0.0130 -0.0607
 4829SOL    HW125949   2.332   3.052  15.370 -0.3959 -0.1839  1.2056
 4829SOL    HW225950   2.384   3.193  15.328  0.1172  0.5440  0.4885
 4830SOL     OW25951   0.151   0.461   8.249 -0.4384 -0.0733 -0.0464
 4830SOL    HW125952   0.113   0.381   8.212  0.4185 -0.7058  0.4544
 4830SOL    HW225953   0.069   0.511   8.246  0.2142  0.9050 -2.1974
 4831SOL     OW25954   2.065   4.413   2.378 -0.0159  0.3007  0.2239
 4831SOL    HW125955   2.083   4.394   2.286  1.0506 -2.4484  1.0090
 4831SOL    HW225956   2.113   4.338   2.414 -1.0685  0.0527  1.0965
 4832SOL     OW25957   3.466   0.469   5.295  0.2036 -0.0443 -0.5751
 4832SOL    HW125958   3.392   0.468   5.356  1.7867  2.0078  1.3732
 4832SOL    HW225959   3.504   0.389   5.330 -0.0444  0.2174  0.2982
 4833SOL     OW25960   3.657   2.723   8.683 -0.5361  0.4933 -0.4390
 4833SOL    HW125961   3.661   2.769   8.599  0.7278  0.5765 -0.3344
 4833SOL    HW225962   3.562   2.711   8.687 -0.3571 -0.6954 -0.0854
 4834SOL     OW25963   0.361   0.496   7.474 -0.2304  0.0997  0.1225
 4834SOL    HW125964   0.352   0.590   7.460 -3.2275  0.0140  1.3382
 4834SOL    HW225965   0.365   0.507   7.569  1.8577 -0.6377  0.1035
 4835SOL     OW25966   1.863   3.979   9.655  0.1361  0.0765 -0.0089
 4835SOL    HW125967   1.893   3.900   9.610  0.3982  0.1032  0.1169
 4835SOL    HW225968   1.798   3.947   9.717 -1.9706  0.6058 -1.9600
 4836SOL     OW25969   4.548   3.838  11.283 -0.4903  0.0860 -0.2275
 4836SOL    HW125970   4.473   3.795  11.325 -0.0413 -0.2746  0.1961
 4836SOL    HW225971   4.619   3.822  11.345  0.2054  1.2681 -0.7345
 4837SOL     OW25972   3.277   2.295  12.359 -0.2328 -0.3100  0.2189
 4837SOL    HW125973   3.312   2.375  12.398  0.3644 -0.2927 -0.3479
 4837SOL    HW225974   3.183   2.314  12.361  0.0295  0.8558  1.1023
 4838SOL     OW25975   2.470   3.131  11.548 -0.3850 -0.9989  0.5615
 4838SOL    HW125976   2.419   3.084  11.481  0.4159 -2.1866  0.7724
 4838SOL    HW225977   2.558   3.137  11.511 -1.4870 -0.1792 -1.9347
 4839SOL     OW25978   1.515   4.096   6.678 -0.3357  0.2779 -0.0556
 4839SOL    HW125979   1.584   4.145   6.633  1.3180 -0.5653  1.5467
 4839SOL    HW225980   1.563   4.079   6.759 -2.0093  0.2002  0.9229
 4840SOL     OW25981   4.517   2.907  15.285  0.3931  0.3847 -0.4801
 4840SOL    HW125982   4.429   2.929  15.314  0.8689 -0.9508  1.9220
 4840SOL    HW225983   4.510   2.880  15.193 -0.8765 -3.5361  0.7708
 4841SOL     OW25984   3.617   3.722   8.704 -0.2096  0.2863  0.3047
 4841SOL    HW125985   3.671   3.741   8.781  1.1523 -0.6027 -0.4315
 4841SOL    HW225986   3.531   3.759   8.725 -0.3178  0.3201 -0.1972
 4842SOL     OW25987   3.020   0.050   4.898 -0.0402 -0.3314 -0.6165
 4842SOL    HW125988   3.069   0.022   4.820  0.1113 -2.2071  0.1468
 4842SOL    HW225989   3.044   0.142   4.904 -1.4480  0.1093 -1.9675
 4843SOL     OW25990   2.400   0.340  11.045 -0.2981  0.3495 -0.0959
 4843SOL    HW125991   2.407   0.414  11.106  0.3788 -1.9283  2.5581
 4843SOL    HW225992   2.477   0.291  11.075 -0.2553  1.1210  1.0564
 4844SOL     OW25993   0.455   0.076   7.247  0.0462 -0.5942  0.0733
 4844SOL    HW125994   0.504   0.074   7.165  0.4932  1.9704  0.3066
 4844SOL    HW225995   0.385   0.138   7.228 -1.2841 -1.6943  1.3570
 4845SOL     OW25996   0.147   2.451  10.156 -0.2409 -0.3084  0.2155
 4845SOL    HW125997   0.119   2.530  10.111  2.5722  0.5563 -0.0396
 4845SOL    HW225998   0.233   2.480  10.187 -0.2907 -0.1412  0.1980
 4846SOL     OW25999   0.196   2.007   6.776 -0.6011  1.0298 -1.0010
 4846SOL    HW126000   0.139   2.068   6.731  0.1260  1.9731 -0.6590
 4846SOL    HW226001   0.144   1.933   6.805  2.4054 -1.2720 -1.4590
 4847SOL     OW26002   4.174   2.607   7.297  0.0521  0.0811  0.0272
 4847SOL    HW126003   4.247   2.640   7.245 -1.9450  1.2097 -2.0466
 4847SOL    HW226004   4.177   2.514   7.273  1.7962 -0.7925  3.6860
 4848SOL     OW26005   0.151   1.069   0.578  0.2272  0.1784  0.6502
 4848SOL    HW126006   0.188   0.993   0.623  1.9738 -0.1118 -1.2233
 4848SOL    HW226007   0.219   1.071   0.510  0.2042  2.5499  0.7039
 4849SOL     OW26008   4.405   4.503   4.171 -0.2759  0.0879  0.5179
 4849SOL    HW126009   4.466   4.571   4.199 -1.4590  0.8755  1.1979
 4849SOL    HW226010   4.458   4.447   4.115  0.0766  0.1752  0.7608
 4850SOL     OW26011   2.745   0.601   8.156 -0.5671 -0.1594 -0.3079
 4850SOL    HW126012   2.666   0.648   8.183  0.8374  0.0754  3.4148
 4850SOL    HW226013   2.816   0.653   8.193 -0.2315 -0.6794 -0.2194
 4851SOL     OW26014   1.696   0.052   3.085  0.0198 -0.3674  0.0921
 4851SOL    HW126015   1.703   0.052   2.990 -2.0227  1.3697 -0.0466
 4851SOL    HW226016   1.673   0.141   3.112 -0.6149 -0.4298 -0.2316
 4852SOL     OW26017   2.736   4.711   8.873 -0.7692 -1.0493 -0.4588
 4852SOL    HW126018   2.708   0.057   8.809  1.1991  0.4201  0.1876
 4852SOL    HW226019   2.822   4.698   8.834 -1.3219  0.6936 -2.1986
 4853SOL     OW26020   1.396   3.619   3.661  0.0393  0.7193 -0.0969
 4853SOL    HW126021   1.466   3.622   3.596  1.8772 -3.6735  1.6848
 4853SOL    HW226022   1.438   3.654   3.740 -0.9508  1.8812 -0.0900
 4854SOL     OW26023   3.609   4.337   0.510  0.7788 -0.3380  0.0624
 4854SOL    HW126024   3.524   4.381   0.502 -0.8201 -3.4533 -0.3232
 4854SOL    HW226025   3.576   4.269   0.569  0.9100 -0.5364 -0.0936
 4855SOL     OW26026   1.342   3.908  10.348  0.1515 -0.3642  0.3417
 4855SOL    HW126027   1.379   3.995  10.358 -2.8120  0.7647  1.4766
 4855SOL    HW226028   1.356   3.872  10.436  2.7355  0.5438  0.2988
 4856SOL     OW26029   1.717   0.391   6.448 -0.2634  0.6012 -0.1008
 4856SOL    HW126030   1.763   0.311   6.472  0.4006  0.6202 -1.3221
 4856SOL    HW226031   1.796   0.438   6.420  0.6949 -1.5260 -0.9338
 4857SOL     OW26032   4.517   1.685   6.955  0.2757  0.0621 -0.3766
 4857SOL    HW126033   4.485   1.747   6.889 -0.1980 -1.4606 -1.6029
 4857SOL    HW226034   4.503   1.737   7.034 -0.0630  1.5474 -1.4146
 4858SOL     OW26035   3.881   2.169   4.415 -0.5057  0.0342 -0.0143
 4858SOL    HW126036   3.944   2.223   4.462  1.0256 -2.2350  0.5380
 4858SOL    HW226037   3.799   2.188   4.459 -0.8324  2.1967 -1.5526
 4859SOL     OW26038   3.972   0.082   4.052 -0.6588 -0.2979  0.7434
 4859SOL    HW126039   3.947   0.053   3.965  1.5176  1.2323 -0.4022
 4859SOL    HW226040   4.064   0.056   4.041 -0.0030  2.0835  0.5189
 4860SOL     OW26041   1.908   4.383  16.557  0.5824 -0.1868  0.0575
 4860SOL    HW126042   1.914   4.383  16.462  1.4926  2.6371  0.0960
 4860SOL    HW226043   1.936   4.471  16.581 -0.7843 -0.3560  2.3140
 4861SOL     OW26044   3.440   2.290   8.042 -0.1627  0.2318  0.6567
 4861SOL    HW126045   3.371   2.338   8.088 -2.1481 -0.2644 -1.7579
 4861SOL    HW226046   3.473   2.221   8.099  1.9649  0.4790 -0.2891
 4862SOL     OW26047   1.370   2.271   7.331 -0.1009 -0.0915  0.2283
 4862SOL    HW126048   1.377   2.258   7.425 -0.8989 -0.7433  0.1958
 4862SOL    HW226049   1.278   2.295   7.322  0.4852  1.1409 -2.4163
 4863SOL     OW26050   1.863   0.050   8.453  0.1070  0.5418 -0.3508
 4863SOL    HW126051   1.930   0.108   8.491  1.4201  0.4024 -2.4452
 4863SOL    HW226052   1.784   0.105   8.452 -0.2421  0.0639  0.7882
 4864SOL     OW26053   3.341   0.974   1.363  0.0955  0.3039 -0.3725
 4864SOL    HW126054   3.428   0.983   1.401 -0.3079  1.0504  0.4064
 4864SOL    HW226055   3.287   1.037   1.411  2.4834 -0.3643  3.1534
 4865SOL     OW26056   4.009   0.944   7.765  0.0158 -0.1351  0.2113
 4865SOL    HW126057   3.988   0.858   7.800 -1.2679 -0.7510 -2.0114
 4865SOL    HW226058   3.917   0.972   7.766  0.1313  0.2378  0.3975
 4866SOL     OW26059   0.906   3.859   8.279  0.7269  0.6591 -0.4628
 4866SOL    HW126060   0.836   3.920   8.301 -0.3787 -1.0392  0.7321
 4866SOL    HW226061   0.979   3.918   8.261 -0.7534  2.3351 -1.0599
 4867SOL     OW26062   0.513   3.145   8.731 -0.4102 -0.3358 -0.1872
 4867SOL    HW126063   0.445   3.080   8.714  0.2040 -1.2720  0.9256
 4867SOL    HW226064   0.550   3.097   8.805 -0.5096  1.3498  0.9467
 4868SOL     OW26065   1.193   2.619   8.323 -0.6661  0.2375 -0.9620
 4868SOL    HW126066   1.238   2.696   8.287 -1.0371  0.7856 -0.2477
 4868SOL    HW226067   1.268   2.561   8.307  0.2503  1.2177 -0.1503
 4869SOL     OW26068   1.413   3.290   8.271  0.6763  0.0497 -0.1510
 4869SOL    HW126069   1.453   3.236   8.338 -1.1278 -1.2931 -0.1599
 4869SOL    HW226070   1.396   3.218   8.210 -0.1256  2.2306 -2.4987
 4870SOL     OW26071   3.220   3.603   2.785 -0.3407 -0.5248 -0.0465
 4870SOL    HW126072   3.261   3.683   2.753 -1.4796  0.6894  1.5527
 4870SOL    HW226073   3.266   3.611   2.869 -0.6730  0.9199 -0.0033
 4871SOL     OW26074   4.679   0.324   7.691 -0.3651 -0.2889  0.0479
 4871SOL    HW126075   4.619   0.383   7.737  1.6840  1.4064  0.5740
 4871SOL    HW226076   4.624   0.281   7.625 -0.1637 -0.3354 -0.0891
 4872SOL     OW26077   2.538   1.639  17.219 -0.1140  0.0899  0.0570
 4872SOL    HW126078   2.534   1.734  17.216 -0.6133  0.0941  0.8633
 4872SOL    HW226079   2.490   1.615  17.298  1.6802  0.4780  1.2738
 4873SOL     OW26080   0.049   0.242  10.277 -0.6324  0.1413 -0.2166
 4873SOL    HW126081   0.013   0.330  10.266  2.3207  1.4641  0.9277
 4873SOL    HW226082   0.010   0.190  10.206 -1.1683  1.0271 -0.5650
 4874SOL     OW26083   3.928   0.090   8.299 -0.5189  0.0650  0.4104
 4874SOL    HW126084   3.954   0.182   8.305  3.2495 -1.0150  0.8467
 4874SOL    HW226085   3.957   0.062   8.212  0.2839  0.6926  0.4708
 4875SOL     OW26086   3.226   2.216   8.365  0.1069  0.3427 -0.8864
 4875SOL    HW126087   3.224   2.243   8.457 -0.3133 -2.4278 -0.0854
 4875SOL    HW226088   3.250   2.303   8.333 -0.3785  0.5759 -0.6246
 4876SOL     OW26089   4.195   3.338   8.989 -0.1990 -0.2602 -0.0083
 4876SOL    HW126090   4.258   3.331   9.061  0.9797  0.6145 -0.9513
 4876SOL    HW226091   4.243   3.385   8.921 -1.0991  0.1673 -0.3409
 4877SOL     OW26092   0.541   2.653   8.639  0.1514  0.3648 -0.4579
 4877SOL    HW126093   0.449   2.678   8.646 -0.3554 -1.8214  0.8217
 4877SOL    HW226094   0.544   2.576   8.696  0.7056 -0.7141 -1.9463
 4878SOL     OW26095   1.926   1.569  14.843 -0.6429 -0.3447 -0.0826
 4878SOL    HW126096   1.839   1.533  14.826  0.7600 -3.6221 -0.2881
 4878SOL    HW226097   1.944   1.604  14.756 -1.3020  0.4076  0.0869
 4879SOL     OW26098   0.506   4.417  13.596 -0.1570  0.0993  0.4684
 4879SOL    HW126099   0.504   4.470  13.676 -3.1229  0.5203  0.1130
 4879SOL    HW226100   0.414   4.413  13.571 -0.4366 -2.0708  1.8549
 4880SOL     OW26101   0.913   0.406   5.613 -0.9242 -0.1335  0.2179
 4880SOL    HW126102   0.958   0.421   5.529 -1.1657 -0.9998 -0.0722
 4880SOL    HW226103   0.943   0.472   5.675  2.4761  0.3213 -1.8494
 4881SOL     OW26104   1.737   1.163   4.542  0.4349 -0.1640 -0.4570
 4881SOL    HW126105   1.671   1.170   4.473 -0.7424  2.5121  0.9495
 4881SOL    HW226106   1.788   1.089   4.509  1.3529  0.0849  0.3981
 4882SOL     OW26107   0.542   1.284   3.462 -0.1930  0.3544  0.6876
 4882SOL    HW126108   0.562   1.192   3.449  0.6550  0.5194  0.8068
 4882SOL    HW226109   0.629   1.325   3.460 -1.0049  2.0703  0.6821
 4883SOL     OW26110   0.952   0.358   2.064 -0.2590  0.0662  0.0864
 4883SOL    HW126111   1.048   0.357   2.059 -0.2366  0.3634  0.4789
 4883SOL    HW226112   0.942   0.418   2.137 -1.3523  1.2183 -1.0255
 4884SOL     OW26113   3.385   2.716  16.693 -0.8095 -0.1695  0.5172
 4884SOL    HW126114   3.471   2.747  16.720 -0.4437  2.7554 -4.0833
 4884SOL    HW226115   3.396   2.711  16.599  2.5731 -1.7348  1.0197
 4885SOL     OW26116   2.564   4.147   0.520 -0.5905 -0.2576 -0.1738
 4885SOL    HW126117   2.616   4.187   0.450 -1.8096  0.9275 -0.4066
 4885SOL    HW226118   2.478   4.163   0.481  0.8147  0.1008 -3.1513
 4886SOL     OW26119   2.467   2.866   6.356 -0.4230  0.1162  0.2454
 4886SOL    HW126120   2.372   2.856   6.348 -0.3634  1.0806 -1.5265
 4886SOL    HW226121   2.482   2.910   6.272 -0.0582  0.5343  0.5327
 4887SOL     OW26122   3.215   3.965  17.183  0.1096  0.2256  0.2767
 4887SOL    HW126123   3.275   3.904  17.227  0.1006  0.6942  0.9287
 4887SOL    HW226124   3.160   3.910  17.127 -1.5535  2.7616 -0.5750
 4888SOL     OW26125   2.358   3.260   8.425  0.0342 -0.1277  0.2745
 4888SOL    HW126126   2.410   3.235   8.349  2.7082 -0.2409  2.1551
 4888SOL    HW226127   2.348   3.175   8.467 -0.6042 -0.9689 -1.5622
 4889SOL     OW26128   3.005   2.091   0.561  0.5919  0.3889 -0.3210
 4889SOL    HW126129   2.918   2.060   0.586  0.4738  0.0194 -1.1877
 4889SOL    HW226130   2.982   2.115   0.471 -0.0300 -2.5036 -0.9196
 4890SOL     OW26131   1.642   3.891   4.080  0.0432  0.4371 -0.8029
 4890SOL    HW126132   1.557   3.888   4.124  0.2122  0.3430 -0.4857
 4890SOL    HW226133   1.667   3.810   4.036  0.6159  0.1573  0.0496
 4891SOL     OW26134   3.356   2.529   3.337  0.0629 -0.6206  0.2629
 4891SOL    HW126135   3.393   2.486   3.414  0.8430 -0.0613  0.1995
 4891SOL    HW226136   3.307   2.599   3.380 -1.8388 -0.3554 -2.3322
 4892SOL     OW26137   1.885   3.942   6.626  0.4693  0.2547 -0.0112
 4892SOL    HW126138   1.833   3.954   6.706  1.5782 -0.5525  0.8369
 4892SOL    HW226139   1.845   3.997   6.559  0.8158  0.1291 -0.3186
 4893SOL     OW26140   0.408   0.904   5.887 -0.1177  0.1675  0.7240
 4893SOL    HW126141   0.471   0.966   5.925 -1.6065  3.9100 -2.9356
 4893SOL    HW226142   0.419   0.828   5.945  0.7941 -0.4977 -0.3234
 4894SOL     OW26143   3.360   1.740   3.244 -0.2821 -0.6551 -0.1707
 4894SOL    HW126144   3.406   1.705   3.320 -2.2670 -1.6236  0.5956
 4894SOL    HW226145   3.436   1.760   3.191 -0.6831  0.8061 -0.2109
 4895SOL     OW26146   3.094   2.065  12.164  0.3143  0.2855 -0.5310
 4895SOL    HW126147   3.009   2.030  12.136  0.8546  0.1134 -1.9685
 4895SOL    HW226148   3.099   2.027  12.252 -0.5618 -0.3035 -0.7346
 4896SOL     OW26149   3.360   1.965   9.541  0.1052  0.4686  0.6177
 4896SOL    HW126150   3.270   1.996   9.544  0.4255  1.1700  3.2843
 4896SOL    HW226151   3.385   1.968   9.633  1.8769  1.4602  0.1156
 4897SOL     OW26152   4.149   4.560   3.418  0.1057 -0.1843  0.4258
 4897SOL    HW126153   4.106   4.544   3.335 -0.6260  1.6028  0.4632
 4897SOL    HW226154   4.235   4.524   3.398 -0.6714 -0.3080 -2.5744
 4898SOL     OW26155   1.046   2.269   3.306  0.2034 -0.5234 -0.0318
 4898SOL    HW126156   1.017   2.211   3.376 -0.0647  0.0604  0.3440
 4898SOL    HW226157   1.139   2.255   3.288 -0.2468 -0.3765 -2.5111
 4899SOL     OW26158   1.131   1.548  15.807  0.3587  0.2513 -0.1325
 4899SOL    HW126159   1.040   1.574  15.793  0.9201  1.9084 -0.7564
 4899SOL    HW226160   1.134   1.464  15.853 -3.1392  1.1540  1.7391
 4900SOL     OW26161   4.055   2.117  13.206 -0.3288 -0.5986 -0.8433
 4900SOL    HW126162   4.085   2.141  13.294 -1.5853 -0.4665 -0.4407
 4900SOL    HW226163   4.009   2.197  13.180 -0.0542  0.3593  1.6138
 4901SOL     OW26164   2.063   2.178  17.482 -0.2575 -0.7400  0.3386
 4901SOL    HW126165   2.067   2.105  17.420  1.5185  0.4286 -0.9462
 4901SOL    HW226166   2.105   2.250  17.436 -0.5629 -1.4576 -1.0596
 4902SOL     OW26167   0.973   1.924   8.961 -0.1089  0.1681  0.2428
 4902SOL    HW126168   1.059   1.939   9.001 -0.8796  0.7492  1.6683
 4902SOL    HW226169   1.001   1.895   8.874 -2.1539  2.5367 -1.2157
 4903SOL     OW26170   4.204   0.855  10.943 -0.0355  0.1138  0.1202
 4903SOL    HW126171   4.109   0.866  10.942  0.0146  0.1339 -4.1164
 4903SOL    HW226172   4.239   0.931  10.990  1.3053 -0.4537  0.0559
 4904SOL     OW26173   3.253   2.206  11.769  0.0666  0.2504 -0.2119
 4904SOL    HW126174   3.339   2.191  11.728  0.5563  1.9198  0.2118
 4904SOL    HW226175   3.191   2.207  11.697 -1.0579  1.8255  0.7770
 4905SOL     OW26176   4.285   3.745   6.215  0.4842  0.3687 -0.1392
 4905SOL    HW126177   4.199   3.778   6.189 -1.0436 -3.0476  0.5464
 4905SOL    HW226178   4.279   3.762   6.309 -0.9344 -1.1559  0.0652
 4906SOL     OW26179   0.542   1.660   8.904 -0.8101  0.4515 -0.6937
 4906SOL    HW126180   0.456   1.678   8.942  0.1153  1.6384  0.8287
 4906SOL    HW226181   0.553   1.574   8.944 -2.6521  1.1327  1.2957
 4907SOL     OW26182   0.870   0.786   6.793 -0.2123 -0.3947 -0.4790
 4907SOL    HW126183   0.810   0.842   6.744 -0.0114 -0.0570 -0.3442
 4907SOL    HW226184   0.883   0.705   6.744 -0.6910 -0.9697  0.3467
 4908SOL     OW26185   2.589   4.521  15.137  0.2666  0.2863 -0.0027
 4908SOL    HW126186   2.678   4.537  15.107  0.5974 -0.1966  0.7144
 4908SOL    HW226187   2.597   4.518  15.232 -0.4212 -2.4777 -0.0383
 4909SOL     OW26188   0.475   2.820   7.631 -0.3416 -0.0379  0.1869
 4909SOL    HW126189   0.429   2.781   7.557  0.8388  1.5037 -1.3692
 4909SOL    HW226190   0.415   2.789   7.699  0.2450  2.6838  1.9452
 4910SOL     OW26191   4.008   4.650  15.534  1.0396  0.0353  0.1203
 4910SOL    HW126192   4.016   0.026  15.532  1.5343 -0.0220 -0.6061
 4910SOL    HW226193   4.035   4.641  15.626 -1.0982  2.0960  0.9282
 4911SOL     OW26194   3.429   3.133   4.745 -0.4618 -0.2383 -0.4010
 4911SOL    HW126195   3.416   3.172   4.658  1.2537 -0.2841 -0.6849
 4911SOL    HW226196   3.485   3.201   4.783 -0.9567  0.1549 -0.3733
 4912SOL     OW26197   2.440   2.908  14.445 -0.2893 -0.3548 -0.0565
 4912SOL    HW126198   2.436   2.983  14.504 -0.8395 -1.9365  1.9224
 4912SOL    HW226199   2.345   2.899  14.433 -0.0108 -1.6404 -1.3116
 4913SOL     OW26200   1.963   1.819   6.437  0.7101  0.0177  0.2644
 4913SOL    HW126201   1.955   1.914   6.443 -0.6978  0.0316 -1.8863
 4913SOL    HW226202   2.058   1.819   6.435  0.6789  1.0577 -0.7838
 4914SOL     OW26203   0.009   1.248   4.095  0.3230 -0.1334  0.4358
 4914SOL    HW126204   0.059   1.167   4.093  1.0529  0.4604 -4.2577
 4914SOL    HW226205   4.646   1.221   4.137  0.9778 -2.0670  0.4801
 4915SOL     OW26206   3.924   2.466   2.889  0.4339  0.0449  0.3994
 4915SOL    HW126207   4.010   2.440   2.855 -0.6583 -0.0705 -2.3032
 4915SOL    HW226208   3.920   2.560   2.872 -1.6663  0.2818  2.1863
 4916SOL     OW26209   1.711   3.431  17.604 -0.0985 -0.4293  0.2784
 4916SOL    HW126210   1.775   3.361  17.619 -0.3489  0.1714  4.2705
 4916SOL    HW226211   1.626   3.390  17.592 -1.5812  1.7526  3.1947
 4917SOL     OW26212   0.978   3.439   3.939  0.2458  0.3938 -0.5321
 4917SOL    HW126213   0.906   3.464   3.881  0.3329 -1.9368 -1.6115
 4917SOL    HW226214   1.050   3.483   3.894 -1.1286  1.4627 -1.7133
 4918SOL     OW26215   2.875   4.225   6.621  0.3960 -0.2871 -0.3053
 4918SOL    HW126216   2.797   4.250   6.572  0.4994 -0.3030 -0.4793
 4918SOL    HW226217   2.854   4.257   6.709 -0.1281  2.7232 -1.5254
 4919SOL     OW26218   4.414   4.534   6.641 -0.0623  0.0368 -0.3706
 4919SOL    HW126219   4.507   4.546   6.622  0.3231 -1.7011  0.4122
 4919SOL    HW226220   4.393   4.471   6.571 -3.1073  0.7204 -0.0697
 4920SOL     OW26221   3.319   3.311   1.859 -0.6148 -0.1410 -0.5556
 4920SOL    HW126222   3.304   3.223   1.824  1.6853 -1.1387  0.9721
 4920SOL    HW226223   3.413   3.316   1.877 -1.0584  0.1201  1.6030
 4921SOL     OW26224   2.473   1.128  16.789  0.0950 -0.2351  0.4961
 4921SOL    HW126225   2.492   1.110  16.697 -1.0418 -1.8487  0.5810
 4921SOL    HW226226   2.387   1.088  16.800 -0.2193  0.4259  0.4828
 4922SOL     OW26227   0.553   0.494   2.891 -0.2779 -0.1104  0.6283
 4922SOL    HW126228   0.477   0.444   2.858 -0.6217  1.7866 -1.4059
 4922SOL    HW226229   0.578   0.443   2.968  0.2094 -0.4787  0.2291
 4923SOL     OW26230   2.381   1.963   6.707  0.6592 -0.6635 -0.1823
 4923SOL    HW126231   2.425   1.915   6.777  0.7597 -0.3676 -0.0392
 4923SOL    HW226232   2.289   1.953   6.731  0.7887  0.2646  0.6807
 4924SOL     OW26233   1.536   4.247   8.096  0.0250  0.8822 -0.1049
 4924SOL    HW126234   1.448   4.284   8.098 -0.5470 -0.5114  0.2426
 4924SOL    HW226235   1.512   4.155   8.097 -1.6188  1.3056 -0.6483
 4925SOL     OW26236   3.579   2.684  17.504  0.0251  0.0141 -0.4960
 4925SOL    HW126237   3.671   2.692  17.531  0.0876 -3.2587  0.1647
 4925SOL    HW226238   3.589   2.750  17.436  0.0109  0.9100  0.3547
 4926SOL     OW26239   0.668   1.064  12.863 -0.4167  0.0458 -0.3075
 4926SOL    HW126240   0.603   1.032  12.800  1.1402 -1.8772 -0.9550
 4926SOL    HW226241   0.682   1.153  12.829  0.0271  0.1073  0.0305
 4927SOL     OW26242   1.143   3.868   6.480  0.7953  0.2056 -0.0372
 4927SOL    HW126243   1.146   3.857   6.385 -0.6568  1.5858 -0.2318
 4927SOL    HW226244   1.068   3.923   6.502  0.8441 -0.4316  1.7302
 4928SOL     OW26245   2.603   0.834   1.722 -0.1088 -0.0207  0.5317
 4928SOL    HW126246   2.693   0.838   1.691 -0.5514 -0.1850 -0.7836
 4928SOL    HW226247   2.605   0.743   1.752 -1.0590 -0.1780  0.1378
 4929SOL     OW26248   4.644   1.232  15.718 -0.5034 -0.3572  0.1558
 4929SOL    HW126249   4.606   1.209  15.634  0.2231 -1.6855  0.1903
 4929SOL    HW226250   4.660   1.150  15.765  1.0862  0.6657  1.4168
 4930SOL     OW26251   3.524   3.036   5.207  0.1878 -0.0783 -0.1761
 4930SOL    HW126252   3.464   3.069   5.274 -1.6861 -1.1231 -1.3573
 4930SOL    HW226253   3.480   3.063   5.127  0.6640  2.3500  0.3726
 4931SOL     OW26254   1.835   3.057   2.425  0.0444 -0.2871  0.0879
 4931SOL    HW126255   1.743   3.040   2.444  0.2074 -1.7806 -0.4573
 4931SOL    HW226256   1.835   3.126   2.358 -1.0375  1.6059  2.0287
 4932SOL     OW26257   2.334   3.768  13.505  0.4267 -0.0185  0.3828
 4932SOL    HW126258   2.339   3.721  13.588  0.5671  1.5618  1.2720
 4932SOL    HW226259   2.252   3.818  13.511 -0.8964 -1.9949 -1.1619
 4933SOL     OW26260   0.349   2.682   7.447 -0.2724  0.2443  0.0312
 4933SOL    HW126261   0.303   2.715   7.370  0.4980 -2.3733 -1.5731
 4933SOL    HW226262   0.414   2.626   7.405  0.0523  1.7313 -1.4336
 4934SOL     OW26263   2.673   2.782  14.713 -0.2196 -0.2502  0.2156
 4934SOL    HW126264   2.638   2.866  14.683  2.2091  1.2245  1.5521
 4934SOL    HW226265   2.750   2.778  14.657 -0.6343  1.4433 -0.4825
 4935SOL     OW26266   2.216   3.859  15.017  0.0539  0.0097  0.2729
 4935SOL    HW126267   2.225   3.899  14.931 -0.4506 -1.9029 -0.6664
 4935SOL    HW226268   2.213   3.765  15.000  1.5150  0.2462 -1.2499
 4936SOL     OW26269   4.332   1.188   9.158 -0.2492  0.1227 -0.6804
 4936SOL    HW126270   4.320   1.168   9.251  0.0149  1.1908 -0.4215
 4936SOL    HW226271   4.258   1.139   9.122 -0.9776 -0.3130  1.3720
 4937SOL     OW26272   1.060   0.376  17.192  0.6095  0.1048  0.2155
 4937SOL    HW126273   1.055   0.287  17.229  2.2867  1.1816  3.0732
 4937SOL    HW226274   1.018   0.420  17.266  0.3480  1.0673 -0.5093
 4938SOL     OW26275   4.599   0.994   9.359  0.1255  0.2633 -0.0422
 4938SOL    HW126276   4.637   1.027   9.440 -1.4469  0.7871  0.4724
 4938SOL    HW226277   4.607   1.072   9.304 -0.9110 -0.0273 -0.6095
 4939SOL     OW26278   0.481   1.976  12.399  0.2907  0.3382 -0.5235
 4939SOL    HW126279   0.475   1.972  12.304 -1.9742  0.6417 -0.3871
 4939SOL    HW226280   0.576   1.971  12.407  0.3067 -1.6937 -2.0106
 4940SOL     OW26281   1.898   3.386   3.021 -0.6724  0.0954  0.2692
 4940SOL    HW126282   1.971   3.324   3.015  0.0790  0.9798  0.2355
 4940SOL    HW226283   1.844   3.344   2.954 -1.4082 -0.1817  1.0472
 4941SOL     OW26284   0.760   2.256  17.171  0.1507 -0.1138  0.4555
 4941SOL    HW126285   0.704   2.216  17.105  0.2778  0.8583 -0.2265
 4941SOL    HW226286   0.769   2.347  17.143  0.5504 -0.2967 -0.0213
 4942SOL     OW26287   3.264   3.414  11.071  0.0528 -0.0204 -0.4294
 4942SOL    HW126288   3.238   3.357  10.999  0.9307 -0.3002 -0.5279
 4942SOL    HW226289   3.186   3.437  11.120 -0.1921 -0.0380 -0.8087
 4943SOL     OW26290   2.088   2.793   3.754 -0.2075  0.6340 -0.1366
 4943SOL    HW126291   2.175   2.767   3.786 -0.7800 -1.4836 -0.3418
 4943SOL    HW226292   2.068   2.747   3.673  1.3804 -1.3103  0.5875
 4944SOL     OW26293   3.192   1.690   2.678 -0.3627  0.0946  0.0080
 4944SOL    HW126294   3.242   1.676   2.598  0.4387 -0.7670  0.6755
 4944SOL    HW226295   3.244   1.649   2.746 -2.9531 -2.7892  0.2662
 4945SOL     OW26296   0.543   3.596  11.868 -0.8608  0.0971 -0.3970
 4945SOL    HW126297   0.565   3.521  11.924  2.7620 -0.9165 -3.1664
 4945SOL    HW226298   0.590   3.572  11.788 -2.5947 -1.4601 -0.9338
 4946SOL     OW26299   3.547   3.059   3.942  0.2584 -0.2239 -0.0048
 4946SOL    HW126300   3.567   2.974   3.981  1.3259 -0.5102 -1.1865
 4946SOL    HW226301   3.466   3.070   3.993  0.3996  1.6367 -0.2031
 4947SOL     OW26302   2.215   3.735   0.325 -0.3810  0.7734 -0.2847
 4947SOL    HW126303   2.249   3.816   0.286 -0.1987  0.6368 -0.4088
 4947SOL    HW226304   2.125   3.765   0.342 -1.3451 -2.4620  0.2963
 4948SOL     OW26305   0.010   4.270  10.324  0.4557 -0.3960 -0.1860
 4948SOL    HW126306   0.046   4.238  10.407 -0.4332  0.9331  0.7199
 4948SOL    HW226307   0.013   4.365  10.332 -0.2334 -0.4725  0.9633
 4949SOL     OW26308   2.979   0.308   5.619 -0.2926 -0.3842 -0.2434
 4949SOL    HW126309   3.015   0.304   5.708 -0.0627  1.0968 -0.2594
 4949SOL    HW226310   3.048   0.260   5.573 -0.3064  1.6750 -2.4310
 4950SOL     OW26311   4.439   1.424   6.851 -0.4163  0.2982 -0.1336
 4950SOL    HW126312   4.523   1.391   6.819 -0.3621 -1.1831  1.5611
 4950SOL    HW226313   4.463   1.504   6.898 -0.1259 -0.3922  0.8809
 4951SOL     OW26314   1.069   4.236  16.543 -0.2238 -0.3430 -0.2551
 4951SOL    HW126315   1.124   4.314  16.550  1.8365 -1.8242  0.0405
 4951SOL    HW226316   1.118   4.165  16.586  0.6755  0.7940  0.5773
 4952SOL     OW26317   0.485   0.849   6.937 -0.1168 -0.4165  0.1429
 4952SOL    HW126318   0.483   0.901   6.857 -0.0008  0.9094  1.0122
 4952SOL    HW226319   0.402   0.802   6.938 -1.4960  2.0473 -0.1923
 4953SOL     OW26320   2.580   4.582   5.016  0.5058  0.0183 -0.7306
 4953SOL    HW126321   2.568   4.555   4.925 -1.1894  0.3700 -0.6289
 4953SOL    HW226322   2.549   4.507   5.066  1.4620 -1.1486 -1.9136
 4954SOL     OW26323   4.280   2.085   4.359 -0.2380  0.4494 -0.5415
 4954SOL    HW126324   4.204   2.026   4.360 -0.9319  1.3314 -1.7542
 4954SOL    HW226325   4.348   2.032   4.401 -0.1892 -2.0762 -3.7645
 4955SOL     OW26326   0.615   0.103  13.615  0.1457  0.0955 -0.1031
 4955SOL    HW126327   0.703   0.138  13.625  0.3332 -0.7614  1.3583
 4955SOL    HW226328   0.569   0.133  13.537 -1.3057 -3.1614 -0.4892
 4956SOL     OW26329   3.472   3.714   9.060 -0.0749 -0.2087 -0.2921
 4956SOL    HW126330   3.508   3.801   9.074 -0.4813 -0.3011  1.3171
 4956SOL    HW226331   3.383   3.732   9.091 -0.1277  1.4571 -1.4411
 4957SOL     OW26332   2.693   3.409   7.462 -0.0749 -0.1212 -0.4080
 4957SOL    HW126333   2.693   3.362   7.546 -1.9260  1.8407  0.6864
 4957SOL    HW226334   2.601   3.435   7.461 -0.5466 -1.6501  2.2298
 4958SOL     OW26335   0.248   2.770   4.607 -0.2690  0.4079  0.2438
 4958SOL    HW126336   0.219   2.701   4.667 -0.3838  0.2636  0.0231
 4958SOL    HW226337   0.311   2.824   4.655 -0.0860  1.8144 -1.5698
 4959SOL     OW26338   3.655   4.120   2.001  0.1057 -0.7939  0.3521
 4959SOL    HW126339   3.727   4.108   1.939  1.7280  0.3097  2.0296
 4959SOL    HW226340   3.614   4.034   1.990 -0.0625 -0.9956  2.5305
 4960SOL     OW26341   3.664   1.887  11.321  0.1770 -0.1703  0.2889
 4960SOL    HW126342   3.749   1.924  11.344  0.5217  0.2399 -1.5989
 4960SOL    HW226343   3.683   1.795  11.302  1.4392 -0.1619  1.5504
 4961SOL     OW26344   2.546   2.220  13.322 -0.1154  0.3292  0.1722
 4961SOL    HW126345   2.551   2.199  13.415  0.2293 -0.2213  0.0296
 4961SOL    HW226346   2.512   2.309  13.337 -2.7067 -0.5544 -0.4533
 4962SOL     OW26347   1.645   1.266  13.258  0.3534 -0.8820  0.5825
 4962SOL    HW126348   1.606   1.186  13.296 -0.2455 -0.7568  0.2321
 4962SOL    HW226349   1.713   1.234  13.199  0.7003  2.2353 -0.6870
 4963SOL     OW26350   0.666   2.640  15.122 -0.0440 -0.2511  0.0145
 4963SOL    HW126351   0.719   2.578  15.071  0.7277  1.7630 -1.6717
 4963SOL    HW226352   0.709   2.615  15.203 -1.0518  1.7763  1.1550
 4964SOL     OW26353   2.205   2.653   6.507 -0.0185 -0.6014 -0.2489
 4964SOL    HW126354   2.160   2.709   6.444  3.3201  2.2496 -0.1233
 4964SOL    HW226355   2.144   2.580   6.517  0.0089 -0.1767  3.0508
 4965SOL     OW26356   0.351   2.025   2.554 -0.1874  0.1091 -0.1101
 4965SOL    HW126357   0.387   2.081   2.622 -1.0139 -0.4913  0.8293
 4965SOL    HW226358   0.406   2.044   2.478 -0.4877  1.5721  0.0430
 4966SOL     OW26359   3.753   4.674   8.827 -0.6009 -0.0824 -0.1463
 4966SOL    HW126360   3.686   4.687   8.760 -0.8578  0.6716  0.2515
 4966SOL    HW226361   3.815   0.019   8.792 -1.7804  0.8145 -0.5813
 4967SOL     OW26362   2.776   4.684  14.000  0.0606 -0.2190 -0.0795
 4967SOL    HW126363   2.865   4.686  14.038  1.0047 -0.0206 -2.3163
 4967SOL    HW226364   2.723   4.635  14.064 -0.0584 -0.0280 -0.0339
 4968SOL     OW26365   1.585   1.951   3.844  0.3914  0.2404  0.6099
 4968SOL    HW126366   1.655   1.974   3.782 -0.3473 -1.8511 -1.0179
 4968SOL    HW226367   1.550   1.872   3.803  1.4658  0.2626 -0.3645
 4969SOL     OW26368   4.398   3.837   6.951 -0.3802 -0.8745  0.5693
 4969SOL    HW126369   4.373   3.768   7.012 -4.2163 -0.5010 -0.5720
 4969SOL    HW226370   4.415   3.912   7.008 -1.8738  0.1813 -0.3621
 4970SOL     OW26371   3.560   4.040   5.581  0.3093 -0.0806 -1.2219
 4970SOL    HW126372   3.527   4.049   5.491 -1.9559  1.2681 -0.2680
 4970SOL    HW226373   3.584   4.127   5.614 -0.4739 -0.0022 -0.8431
 4971SOL     OW26374   4.286   1.557   1.003 -0.2907 -0.2400 -0.0329
 4971SOL    HW126375   4.308   1.628   0.943 -0.0941 -0.0766  0.2291
 4971SOL    HW226376   4.364   1.502   0.996  0.1359  0.3355  0.2195
 4972SOL     OW26377   0.184   3.616  10.940  0.3016  0.0010 -0.2354
 4972SOL    HW126378   0.202   3.620  11.034  0.0248  1.2871 -0.2413
 4972SOL    HW226379   0.271   3.634  10.904  0.2664  0.3614 -0.1352
 4973SOL     OW26380   0.441   1.190   3.729  0.4182  0.0705 -0.2542
 4973SOL    HW126381   0.377   1.175   3.799  1.1891 -4.0290 -0.3805
 4973SOL    HW226382   0.385   1.187   3.651 -0.2438 -1.0863  0.2516
 4974SOL     OW26383   4.258   3.882   5.855  0.7482  0.1747 -0.6835
 4974SOL    HW126384   4.221   3.901   5.769 -0.5635 -0.0201 -0.1720
 4974SOL    HW226385   4.185   3.835   5.896 -0.1331  0.7639 -1.5636
 4975SOL     OW26386   3.064   1.626   9.674  0.6987  0.2178 -0.5159
 4975SOL    HW126387   2.998   1.696   9.681  1.4612  0.7204  1.8866
 4975SOL    HW226388   3.013   1.545   9.673  1.9406 -0.5503 -1.6397
 4976SOL     OW26389   1.603   4.435   5.014 -0.0047  0.3994  0.4325
 4976SOL    HW126390   1.650   4.441   4.931  0.6601 -0.2383  0.7565
 4976SOL    HW226391   1.517   4.470   4.991  1.0221  2.1828 -0.6977
 4977SOL     OW26392   4.360   4.627   5.271 -0.5661  0.9780  0.2846
 4977SOL    HW126393   4.314   4.543   5.274 -2.0590  1.6957 -1.6814
 4977SOL    HW226394   4.448   4.606   5.301 -0.6624  0.4758  0.2130
 4978SOL     OW26395   3.214   2.821   7.637 -0.2093 -0.1449  0.4430
 4978SOL    HW126396   3.187   2.778   7.556 -2.3381  2.1633 -0.0773
 4978SOL    HW226397   3.301   2.782   7.647 -0.1198 -0.3617 -1.1530
 4979SOL     OW26398   1.388   1.174   9.375 -0.0211 -0.3417 -0.3411
 4979SOL    HW126399   1.364   1.098   9.428 -1.9298 -0.2110 -1.0201
 4979SOL    HW226400   1.304   1.220   9.372 -0.4171 -1.0599 -0.2997
 4980SOL     OW26401   2.147   1.171   9.188  0.2721 -0.3607  0.6131
 4980SOL    HW126402   2.226   1.148   9.139 -1.0113 -0.4158 -1.4162
 4980SOL    HW226403   2.187   1.204   9.269 -0.7455 -0.0701  0.9874
 4981SOL     OW26404   3.753   3.850   2.958  0.1348  0.0206  0.3458
 4981SOL    HW126405   3.812   3.841   2.883 -1.0074 -0.9615 -0.4364
 4981SOL    HW226406   3.692   3.779   2.939  0.0868  0.0072  0.5541
 4982SOL     OW26407   4.475   3.882   8.647 -0.3660  0.2869  0.3871
 4982SOL    HW126408   4.480   3.969   8.686 -1.4425 -0.3531  1.9598
 4982SOL    HW226409   4.540   3.897   8.578 -0.1354 -0.1860  0.4932
 4983SOL     OW26410   2.515   2.030   4.658 -0.2194 -0.2000 -0.0910
 4983SOL    HW126411   2.433   2.077   4.641 -1.4761 -1.7452  1.7733
 4983SOL    HW226412   2.555   2.092   4.720  1.3161 -2.6382  1.3689
 4984SOL     OW26413   4.223   2.514  16.867 -0.3442 -0.0453 -0.1158
 4984SOL    HW126414   4.171   2.435  16.855 -0.2892  0.3943 -3.4156
 4984SOL    HW226415   4.296   2.489  16.810 -0.7932  0.9276 -1.1378
 4985SOL     OW26416   3.610   0.205   5.108 -0.6714  0.3334 -0.3386
 4985SOL    HW126417   3.528   0.159   5.124  0.1959  0.0451  3.2783
 4985SOL    HW226418   3.655   0.225   5.191  0.7639  0.8263 -1.2289
 4986SOL     OW26419   1.418   0.169   4.228  0.2676 -0.4692  0.2103
 4986SOL    HW126420   1.455   0.081   4.240 -0.5260 -0.7859  0.3791
 4986SOL    HW226421   1.327   0.149   4.251  0.0439  1.5582  1.0591
 4987SOL     OW26422   1.510   1.551   6.901  0.3255 -0.1098 -0.0050
 4987SOL    HW126423   1.519   1.457   6.920 -0.0583 -0.1077  0.1908
 4987SOL    HW226424   1.600   1.583   6.907  0.6335 -0.7484 -1.2469
 4988SOL     OW26425   0.167   0.193   7.189 -0.2012  0.0636  0.0870
 4988SOL    HW126426   0.075   0.191   7.214 -0.3644  2.5386 -0.3345
 4988SOL    HW226427   0.164   0.149   7.104  0.3936  2.3610 -1.1423
 4989SOL     OW26428   0.026   0.796   1.208  0.2798 -0.1366  0.0019
 4989SOL    HW126429   4.664   0.845   1.199  1.3265  1.2169 -2.2286
 4989SOL    HW226430   0.001   0.725   1.266  0.5623 -0.0722  0.2018
 4990SOL     OW26431   3.441   2.554   3.964 -0.6551  0.3823 -0.0252
 4990SOL    HW126432   3.463   2.547   4.057 -0.2741  2.1528  0.0087
 4990SOL    HW226433   3.502   2.494   3.921 -3.1324 -2.1093 -0.0690
 4991SOL     OW26434   1.073   3.066   4.730 -0.0715  0.2603 -0.1502
 4991SOL    HW126435   1.030   2.980   4.732 -0.6318  0.5833  2.2354
 4991SOL    HW226436   1.053   3.092   4.820 -0.0676  0.8601 -0.3260
 4992SOL     OW26437   2.895   3.258   5.581 -0.1652  0.1815  0.6222
 4992SOL    HW126438   2.829   3.293   5.641 -1.5060 -0.4530 -0.4714
 4992SOL    HW226439   2.883   3.163   5.576  1.5207  0.0719 -1.4621
 4993SOL     OW26440   3.136   3.347  11.960 -0.0554 -0.3670 -0.1678
 4993SOL    HW126441   3.161   3.430  12.000 -0.1079 -1.6128  2.4817
 4993SOL    HW226442   3.222   3.328  11.923 -0.5818 -0.7680 -1.2039
 4994SOL     OW26443   0.295   3.425  16.915  0.2630  0.5097 -0.0974
 4994SOL    HW126444   0.374   3.476  16.899  2.1502 -2.0816  0.9685
 4994SOL    HW226445   0.245   3.477  16.978 -1.2077 -0.3372 -0.5533
 4995SOL     OW26446   0.194   1.310   1.501  0.1007 -0.4930  0.2603
 4995SOL    HW126447   0.194   1.303   1.596  0.2097 -0.3144  0.2727
 4995SOL    HW226448   0.175   1.216   1.494 -4.3674  0.2116  3.0867
 4996SOL     OW26449   0.144   3.167   4.755 -0.5500 -0.8975  0.3074
 4996SOL    HW126450   0.164   3.092   4.811  0.4352 -1.0449 -0.2461
 4996SOL    HW226451   0.218   3.171   4.695  1.0128  1.1794  2.3721
 4997SOL     OW26452   0.222   3.284   8.536  0.0402  0.2347 -0.3796
 4997SOL    HW126453   0.170   3.330   8.602 -1.2084 -2.0933  0.2486
 4997SOL    HW226454   0.305   3.331   8.530 -0.3009  0.7025 -1.3498
 4998SOL     OW26455   4.089   1.455   9.082 -0.0436  0.0807 -0.0189
 4998SOL    HW126456   4.004   1.470   9.041 -0.8079  1.4859  2.0954
 4998SOL    HW226457   4.066   1.398   9.155 -0.8703  0.9234  0.3666
 4999SOL     OW26458   4.186   4.222   6.337  0.2295 -0.8933  0.5537
 4999SOL    HW126459   4.254   4.272   6.382  1.5058 -2.3897  0.2886
 4999SOL    HW226460   4.149   4.179   6.414  1.8162  0.9192  2.3497
 5000SOL     OW26461   3.343   2.338   7.107  0.1078  0.0273  0.2242
 5000SOL    HW126462   3.337   2.248   7.140 -1.9474 -0.0917 -0.4719
 5000SOL    HW226463   3.435   2.334   7.080 -0.2852 -2.6761 -0.7462
 5001SOL     OW26464   3.528   3.838   7.161 -0.0837 -0.0816 -0.0027
 5001SOL    HW126465   3.519   3.760   7.106  1.0636  0.1220 -0.4842
 5001SOL    HW226466   3.449   3.827   7.213  0.9717  1.2964  1.9254
 5002SOL     OW26467   4.394   0.151   4.686  0.1643  0.2076  0.0941
 5002SOL    HW126468   4.324   0.213   4.705 -0.8262 -1.3389  1.5114
 5002SOL    HW226469   4.383   0.098   4.766  0.4465  0.9707  0.6375
 5003SOL     OW26470   3.452   3.889   9.508  0.0019  0.6171  0.0647
 5003SOL    HW126471   3.400   3.812   9.485  0.9850 -0.8773  2.8227
 5003SOL    HW226472   3.440   3.886   9.603 -0.5949 -1.2119 -0.0656
 5004SOL     OW26473   2.836   3.524  14.877 -0.3354 -0.0656 -0.2205
 5004SOL    HW126474   2.745   3.520  14.849 -0.5280 -1.1363  0.5404
 5004SOL    HW226475   2.827   3.469  14.955  3.1387  2.0042  1.6360
 5005SOL     OW26476   0.391   0.299   2.481 -0.0647  0.2702  0.0390
 5005SOL    HW126477   0.476   0.288   2.438  0.4141 -0.9746  1.2694
 5005SOL    HW226478   0.352   0.232   2.425  1.3032 -0.3760 -0.1326
 5006SOL     OW26479   3.629   1.411   4.828 -0.0252 -0.3997 -0.1478
 5006SOL    HW126480   3.627   1.316   4.819  1.8968 -0.3910 -0.6363
 5006SOL    HW226481   3.705   1.416   4.885  0.2315  2.6454 -0.7079
 5007SOL     OW26482   1.400   0.105   1.152  0.1212  0.7476 -0.3225
 5007SOL    HW126483   1.308   0.126   1.167 -0.4792 -1.0230 -1.5320
 5007SOL    HW226484   1.407   0.141   1.064  1.5131  1.2506 -0.0132
 5008SOL     OW26485   3.155   4.065   3.038 -0.5488  0.6120  0.4501
 5008SOL    HW126486   3.091   4.030   3.100 -1.3241  0.5502 -0.3829
 5008SOL    HW226487   3.098   4.137   3.011 -0.3794  0.4156 -0.4118
 5009SOL     OW26488   3.355   1.915   2.553  0.4626 -0.5762 -0.2771
 5009SOL    HW126489   3.429   1.975   2.553  1.1158 -1.3840  1.6948
 5009SOL    HW226490   3.287   1.981   2.565  0.0169 -1.1356  0.3284
 5010SOL     OW26491   1.228   3.532   5.055 -0.4888 -0.4705  0.1361
 5010SOL    HW126492   1.244   3.455   5.001 -0.7154 -0.9566  0.7582
 5010SOL    HW226493   1.234   3.504   5.146  0.1261 -1.4756 -0.2155
 5011SOL     OW26494   3.763   1.294   0.372 -0.1590  0.3053  0.5946
 5011SOL    HW126495   3.730   1.336   0.451  0.0556  4.3225 -1.4348
 5011SOL    HW226496   3.761   1.206   0.409 -0.5131  0.2872  0.5329
 5012SOL     OW26497   3.305   3.847   3.001 -0.0708  0.4025  0.6902
 5012SOL    HW126498   3.274   3.937   3.005 -1.9657 -0.2020 -0.3973
 5012SOL    HW226499   3.360   3.849   2.922 -0.7383 -3.9985  0.0784
 5013SOL     OW26500   1.589   1.010   6.730  0.2476 -0.1439 -0.3544
 5013SOL    HW126501   1.587   1.013   6.825 -0.5447  1.6329 -0.4297
 5013SOL    HW226502   1.636   0.930   6.706  0.2153 -1.0024  2.4768
 5014SOL     OW26503   4.258   4.131  16.049 -0.1937 -0.1548  0.5688
 5014SOL    HW126504   4.291   4.041  16.051 -2.2003 -0.9088 -0.5597
 5014SOL    HW226505   4.164   4.143  16.041 -0.5749 -2.9083  1.0104
 5015SOL     OW26506   2.379   1.668   7.445  0.6461 -0.0433  0.5057
 5015SOL    HW126507   2.308   1.664   7.510  0.9056  0.4559  0.8140
 5015SOL    HW226508   2.341   1.701   7.364  0.1126  1.7244  1.4769
 5016SOL     OW26509   3.205   1.674   8.350  0.0982 -0.0007  0.3177
 5016SOL    HW126510   3.207   1.589   8.305  2.0252  0.7303 -0.9495
 5016SOL    HW226511   3.140   1.718   8.295  0.3470 -0.7890 -0.6186
 5017SOL     OW26512   1.983   3.092   6.650  0.2506  0.1431 -0.4661
 5017SOL    HW126513   1.955   3.182   6.632 -1.4400 -0.0859  0.9767
 5017SOL    HW226514   1.911   3.038   6.617  0.5613  0.0152 -0.9363
 5018SOL     OW26515   2.489   3.723   3.056 -0.2885 -0.5473  0.0631
 5018SOL    HW126516   2.449   3.642   3.023  2.2073 -1.0545 -1.6753
 5018SOL    HW226517   2.439   3.792   3.012  1.2551  1.5964  1.7038
 5019SOL     OW26518   3.106   1.134   2.043  0.6438  0.1685 -0.1444
 5019SOL    HW126519   3.158   1.189   2.102 -0.4197  0.8704  0.1247
 5019SOL    HW226520   3.015   1.145   2.070  0.8191 -0.2624  0.6237
 5020SOL     OW26521   2.102   2.092  16.157 -0.1659 -0.2698  0.1152
 5020SOL    HW126522   2.127   2.090  16.249  0.0823 -0.3357  0.0449
 5020SOL    HW226523   2.052   2.171  16.135  1.4945  0.0091 -2.5965
 5021SOL     OW26524   0.724   4.061   2.545  0.7148  0.0227  0.2655
 5021SOL    HW126525   0.811   4.101   2.554  0.1374  1.6305 -1.4020
 5021SOL    HW226526   0.705   4.046   2.638  1.7736 -2.1159  0.1416
 5022SOL     OW26527   2.550   2.222   5.297  0.3623 -0.4332 -0.2008
 5022SOL    HW126528   2.455   2.217   5.286  0.3699 -1.8302  0.3564
 5022SOL    HW226529   2.569   2.310   5.265 -0.7865 -0.2753 -0.4452
 5023SOL     OW26530   1.503   3.401   2.671 -0.3250 -0.4674 -0.2217
 5023SOL    HW126531   1.438   3.406   2.740 -0.2744 -2.6805 -0.0015
 5023SOL    HW226532   1.510   3.307   2.657 -1.8860 -0.7343  0.8825
 5024SOL     OW26533   2.027   1.436  13.915 -0.3555 -0.2889  0.6548
 5024SOL    HW126534   2.105   1.472  13.871 -0.5529 -1.9493 -1.0377
 5024SOL    HW226535   2.070   1.358  13.949  0.5725 -0.1403 -0.1695
 5025SOL     OW26536   1.792   1.673   1.509  0.5508 -0.4908 -0.4447
 5025SOL    HW126537   1.727   1.696   1.577  0.0562  0.8858 -1.3791
 5025SOL    HW226538   1.776   1.580   1.493 -2.5559 -0.5024  2.4673
 5026SOL     OW26539   0.502   4.136   5.397 -0.0459 -0.1971  0.0490
 5026SOL    HW126540   0.427   4.125   5.455 -1.5960  0.1531 -1.8740
 5026SOL    HW226541   0.528   4.044   5.393  0.1726 -0.1513  0.4136
 5027SOL     OW26542   2.686   1.095   1.279  0.3216  0.2678 -0.6226
 5027SOL    HW126543   2.715   1.132   1.362  0.1754 -1.3196  0.1486
 5027SOL    HW226544   2.605   1.140   1.257 -0.7053 -1.9411 -1.4009
 5028SOL     OW26545   4.311   0.132   3.363 -0.4945  0.7218 -0.6627
 5028SOL    HW126546   4.324   0.068   3.293 -1.0874 -1.1900  0.9590
 5028SOL    HW226547   4.393   0.129   3.413  0.3640  1.2006 -2.0662
 5029SOL     OW26548   0.387   2.613  15.574  0.2806  0.0580 -0.1767
 5029SOL    HW126549   0.469   2.658  15.554  0.3149 -1.1398 -2.7429
 5029SOL    HW226550   0.424   2.557  15.642  2.3830 -0.1481 -1.4817
 5030SOL     OW26551   2.412   4.528  17.614  0.2048  0.3830 -0.1166
 5030SOL    HW126552   2.367   4.563  17.537 -0.1485  1.1901  0.4537
 5030SOL    HW226553   2.403   4.433  17.602 -0.7163  0.5875 -1.0936
 5031SOL     OW26554   3.734   1.392   6.864  0.2912 -0.1972  0.1015
 5031SOL    HW126555   3.743   1.337   6.942 -2.9969  0.4412  0.9360
 5031SOL    HW226556   3.706   1.322   6.805 -0.1147  0.3438 -0.3483
 5032SOL     OW26557   2.856   1.423   7.952 -0.3404 -0.0762 -0.1187
 5032SOL    HW126558   2.931   1.404   8.008  1.4648  2.4425 -1.6829
 5032SOL    HW226559   2.870   1.369   7.874  2.6841  1.1593 -0.4438
 5033SOL     OW26560   0.800   1.759   8.641  0.3723 -0.2932  0.2365
 5033SOL    HW126561   0.889   1.727   8.657 -0.3301 -1.2360  2.1946
 5033SOL    HW226562   0.832   1.848   8.655 -1.8855  0.5785 -0.1633
 5034SOL     OW26563   2.758   3.627  15.165  0.2488 -0.4060 -0.1846
 5034SOL    HW126564   2.756   3.575  15.245 -1.1109  0.9440  0.6647
 5034SOL    HW226565   2.716   3.708  15.193  0.9818 -0.7827  1.9850
 5035SOL     OW26566   1.619   3.261  11.431  0.1655 -0.5848 -0.5579
 5035SOL    HW126567   1.554   3.198  11.462  0.6798 -0.8150  0.0399
 5035SOL    HW226568   1.618   3.314  11.510 -0.0062 -0.6607 -0.5085
 5036SOL     OW26569   1.797   1.768  13.625 -0.9847 -0.4026 -0.2724
 5036SOL    HW126570   1.836   1.702  13.681  1.4742  0.1754 -1.2987
 5036SOL    HW226571   1.871   1.784  13.567 -2.5753 -1.3413 -2.5382
 5037SOL     OW26572   3.270   3.558   3.474 -0.2622  0.3463 -0.1744
 5037SOL    HW126573   3.350   3.581   3.426  0.2358  0.6818  0.8277
 5037SOL    HW226574   3.255   3.465   3.461  0.2618  0.4047 -1.2296
 5038SOL     OW26575   4.540   4.515  10.322 -0.8515  0.1892  0.0165
 5038SOL    HW126576   4.478   4.452  10.359  2.2198 -3.5654 -1.1428
 5038SOL    HW226577   4.484   4.556  10.256  0.6837  2.2208 -0.0190
 5039SOL     OW26578   2.209   2.982   2.654  0.1990 -0.0578 -0.1458
 5039SOL    HW126579   2.249   2.993   2.568 -0.0997  1.5432 -0.0861
 5039SOL    HW226580   2.125   3.026   2.643  0.3883 -0.0098 -1.4044
 5040SOL     OW26581   0.950   3.668   4.463 -0.5672 -0.1759  0.3224
 5040SOL    HW126582   0.966   3.636   4.375  4.0596 -0.9196  1.4310
 5040SOL    HW226583   0.913   3.596   4.515 -1.3984 -0.1226 -0.1807
 5041SOL     OW26584   4.340   1.481   6.571  0.6217  0.3401 -0.1534
 5041SOL    HW126585   4.348   1.560   6.624  1.7087 -0.6340  1.1326
 5041SOL    HW226586   4.334   1.413   6.637  0.4711  0.9211  0.4252
 5042SOL     OW26587   3.873   1.202   8.558  0.5120 -0.8999 -0.2960
 5042SOL    HW126588   3.835   1.121   8.523  0.7835 -1.4340  0.6440
 5042SOL    HW226589   3.884   1.177   8.650 -1.0711  2.2032  0.7085
 5043SOL     OW26590   2.205   3.711   4.895  0.2213 -0.2524 -0.0231
 5043SOL    HW126591   2.282   3.733   4.948  0.3348  3.7009 -1.8543
 5043SOL    HW226592   2.233   3.752   4.814 -0.6837 -1.9963 -1.2123
 5044SOL     OW26593   2.914   1.519   9.928  0.0531  0.1496 -0.0625
 5044SOL    HW126594   2.981   1.453   9.911  1.1658  1.3151 -0.1957
 5044SOL    HW226595   2.858   1.510   9.851 -0.0967  2.1631 -0.1749
 5045SOL     OW26596   4.009   3.067  16.243  0.2021 -0.0552  0.0850
 5045SOL    HW126597   3.949   3.136  16.270 -0.7316 -0.2393 -1.4841
 5045SOL    HW226598   3.972   2.985  16.276  0.6451 -1.1169 -2.0423
 5046SOL     OW26599   1.672   4.530  13.807  0.3298  0.0569  0.1387
 5046SOL    HW126600   1.708   4.532  13.719 -1.8218  4.2351 -0.6665
 5046SOL    HW226601   1.657   4.437  13.821 -1.2928  0.4319  0.9475
 5047SOL     OW26602   2.247   2.996   7.820  0.3355 -0.2584  0.1272
 5047SOL    HW126603   2.226   2.933   7.888  0.4683 -0.9358 -0.4558
 5047SOL    HW226604   2.164   3.002   7.772  0.5247  0.0809 -0.1618
 5048SOL     OW26605   3.542   0.874   5.813  0.1115  0.4133 -0.3408
 5048SOL    HW126606   3.570   0.966   5.807 -0.5789  0.6188 -0.3846
 5048SOL    HW226607   3.447   0.885   5.811  0.1963  1.5017  1.8022
 5049SOL     OW26608   0.770   2.134  17.595 -0.1600  0.0678  0.5427
 5049SOL    HW126609   0.706   2.075  17.553  0.3080  0.8077 -1.2108
 5049SOL    HW226610   0.826   2.073  17.644  1.7637  0.8299 -0.7092
 5050SOL     OW26611   4.415   3.801   0.078 -0.9870 -0.1819  0.4511
 5050SOL    HW126612   4.501   3.839   0.094 -0.6703 -0.3009 -0.9081
 5050SOL    HW226613   4.369   3.802   0.162 -1.2550 -0.2092  0.3055
 5051SOL     OW26614   1.815   3.332   4.864  0.1849  0.3766  0.1029
 5051SOL    HW126615   1.789   3.250   4.906  1.9417 -0.6286 -0.7629
 5051SOL    HW226616   1.850   3.380   4.939  1.2558  1.0753 -0.8492
 5052SOL     OW26617   4.649   1.479   4.269 -0.3360  0.4226  0.1088
 5052SOL    HW126618   4.564   1.505   4.233 -1.0155  0.5569  1.8034
 5052SOL    HW226619   4.670   1.407   4.211  0.2926  0.5014  0.2367
 5053SOL     OW26620   0.247   1.052   9.381  0.5516  0.0733  0.7475
 5053SOL    HW126621   0.174   1.111   9.365  0.9624 -0.3055 -2.4111
 5053SOL    HW226622   0.213   0.977   9.333 -1.3334  1.1275  0.4273
 5054SOL     OW26623   1.094   0.273   4.839  0.0834  0.1399 -0.6269
 5054SOL    HW126624   1.011   0.288   4.793  0.2962  0.5133 -0.8854
 5054SOL    HW226625   1.160   0.261   4.771 -0.0932 -0.9186 -0.6072
 5055SOL     OW26626   0.532   0.553  11.325  0.3917  0.0788 -0.3325
 5055SOL    HW126627   0.474   0.604  11.383  0.1252 -0.5056 -0.0829
 5055SOL    HW226628   0.562   0.621  11.266  2.7337 -1.1719 -0.5720
 5056SOL     OW26629   3.697   4.301   5.581 -0.5058  0.0470 -0.3199
 5056SOL    HW126630   3.673   4.327   5.669 -0.7190  0.1907 -0.4208
 5056SOL    HW226631   3.791   4.305   5.594 -0.4812  1.2624 -0.8420
 5057SOL     OW26632   1.520   1.191   7.785  0.3808  0.2579  0.1754
 5057SOL    HW126633   1.535   1.263   7.846  2.5282 -1.2692  1.4416
 5057SOL    HW226634   1.509   1.238   7.702 -0.5424  1.9909  1.2841
 5058SOL     OW26635   3.442   2.946   3.263  0.2756 -0.2782 -0.5010
 5058SOL    HW126636   3.488   3.027   3.285  0.0166 -0.3019  0.1246
 5058SOL    HW226637   3.361   2.987   3.232  2.2875  2.4514 -2.1382
 5059SOL     OW26638   1.015   3.274   7.241 -1.0218  0.0324 -0.2862
 5059SOL    HW126639   0.992   3.351   7.190  0.8937  0.5812 -0.3297
 5059SOL    HW226640   0.978   3.200   7.192 -0.9249 -0.7849  0.8792
 5060SOL     OW26641   0.033   1.116   0.816  0.3636  0.1174 -0.2773
 5060SOL    HW126642   0.023   1.031   0.858  1.1056 -0.4750 -1.3131
 5060SOL    HW226643   0.069   1.092   0.731 -0.6460  0.0582 -0.6747
 5061SOL     OW26644   1.896   1.248   7.079  0.1602 -0.1373  0.2851
 5061SOL    HW126645   1.846   1.168   7.067  1.8517 -1.0626 -0.6396
 5061SOL    HW226646   1.830   1.285   7.137 -0.5838  1.8383 -1.8010
 5062SOL     OW26647   1.732   2.309   3.925  0.0301  0.2381 -0.4336
 5062SOL    HW126648   1.741   2.290   3.831 -0.3438  2.4474 -0.9279
 5062SOL    HW226649   1.655   2.366   3.923 -0.8926 -1.0785 -2.8538
 5063SOL     OW26650   0.122   2.192   9.007 -0.0976  0.1705 -0.3129
 5063SOL    HW126651   0.032   2.190   8.974  0.0708  1.7497 -0.8969
 5063SOL    HW226652   0.113   2.188   9.102  0.9889 -2.1319 -0.3232
 5064SOL     OW26653   3.332   4.626   5.095  0.9054 -0.2126  0.0624
 5064SOL    HW126654   3.315   4.714   5.062  1.3529  0.7680  2.4441
 5064SOL    HW226655   3.242   4.596   5.111  1.0870 -2.2117 -2.5236
 5065SOL     OW26656   0.761   2.234   9.884 -0.3181 -0.1954 -0.3932
 5065SOL    HW126657   0.748   2.239   9.979 -0.0637  0.8046 -0.4122
 5065SOL    HW226658   0.742   2.142   9.865  1.7793 -0.5114 -0.9033
 5066SOL     OW26659   2.057   0.472   6.057 -0.1655 -0.4721  0.1723
 5066SOL    HW126660   2.098   0.559   6.064 -1.3130  0.0801  0.0472
 5066SOL    HW226661   2.021   0.479   5.969  0.2312 -0.6113 -0.0004
 5067SOL     OW26662   2.333   4.108   5.405  0.1846 -0.1283 -0.3037
 5067SOL    HW126663   2.309   4.200   5.412 -0.7535 -0.3349 -0.6893
 5067SOL    HW226664   2.289   4.061   5.475 -1.8984  1.7744 -0.2983
 5068SOL     OW26665   2.741   3.810   4.251  0.8408 -0.6049  0.3650
 5068SOL    HW126666   2.758   3.716   4.264  0.5593 -0.6738  0.2306
 5068SOL    HW226667   2.701   3.840   4.333  1.4635  0.5017  0.2611
 5069SOL     OW26668   1.819   4.151   3.413  0.2656 -0.2124  0.0563
 5069SOL    HW126669   1.818   4.222   3.349  1.1467  0.4826  0.7998
 5069SOL    HW226670   1.899   4.177   3.460  2.0485  0.9232 -3.6313
 5070SOL     OW26671   3.730   4.206   4.455  0.5811  0.0498  0.2826
 5070SOL    HW126672   3.693   4.270   4.517  0.1225  0.4304 -0.3802
 5070SOL    HW226673   3.749   4.134   4.515  0.9886  0.4157  0.5950
 5071SOL     OW26674   0.490   1.031   9.492 -0.1110  0.1195  0.2637
 5071SOL    HW126675   0.490   1.117   9.534 -1.6819  0.1399  0.2336
 5071SOL    HW226676   0.398   1.031   9.466  0.1670 -0.0548 -0.7036
 5072SOL     OW26677   2.240   3.773  10.660 -0.6650  0.8782  0.0691
 5072SOL    HW126678   2.311   3.836  10.652 -1.3537  1.7175  0.5384
 5072SOL    HW226679   2.179   3.819  10.718  1.6304  0.1240  3.1214
 5073SOL     OW26680   0.072   2.078  13.197 -0.3555  0.3332  0.3470
 5073SOL    HW126681   0.013   2.076  13.121  0.7011  0.3009 -0.4767
 5073SOL    HW226682   0.154   2.058  13.151  0.2874  0.1205  1.5717
 5074SOL     OW26683   1.072   1.014  11.666  0.1838 -0.5694 -0.2324
 5074SOL    HW126684   1.034   1.019  11.753 -0.1686  1.2947 -0.5043
 5074SOL    HW226685   1.052   1.105  11.644  0.7302 -0.5281 -0.5597
 5075SOL     OW26686   3.443   2.509  17.654  0.6234 -0.2959  0.2636
 5075SOL    HW126687   3.509   2.563  17.609  1.1826 -0.0723  1.3593
 5075SOL    HW226688   3.366   2.564  17.666  0.0850 -1.5890  2.5855
 5076SOL     OW26689   1.031   3.568   5.860  0.0957  0.0217 -0.1668
 5076SOL    HW126690   1.006   3.640   5.802 -1.4904  0.0374  0.5280
 5076SOL    HW226691   0.970   3.582   5.933 -0.9739 -2.4266 -0.5685
 5077SOL     OW26692   3.410   1.900  13.815  0.4656  0.0901  0.4747
 5077SOL    HW126693   3.400   1.979  13.761  0.0180 -0.4644 -0.2534
 5077SOL    HW226694   3.415   1.939  13.902 -0.1276  0.8331  0.1763
 5078SOL     OW26695   0.696   0.674   7.033 -0.2909  0.0375  0.2377
 5078SOL    HW126696   0.626   0.737   7.016  2.5291  2.4323 -2.4379
 5078SOL    HW226697   0.690   0.612   6.961  0.4526 -1.1881  1.2350
 5079SOL     OW26698   0.731   3.925   2.018 -0.2007  0.0964  0.1949
 5079SOL    HW126699   0.708   3.895   1.930  2.2883 -0.0121 -0.4100
 5079SOL    HW226700   0.658   3.983   2.040 -0.2954  0.2895 -0.6356
 5080SOL     OW26701   0.360   2.551   4.889  0.4604  0.4928  0.2521
 5080SOL    HW126702   0.345   2.626   4.946  1.7793 -2.1095  4.0109
 5080SOL    HW226703   0.282   2.554   4.834  0.2956  0.8777  0.5038
 5081SOL     OW26704   1.027   2.596  16.606  0.0724  0.3034  0.0568
 5081SOL    HW126705   1.085   2.647  16.550 -1.0770  0.6546 -0.8161
 5081SOL    HW226706   1.019   2.515  16.554 -3.6994  1.1979 -0.8003
 5082SOL     OW26707   2.466   2.265   6.676 -0.2413 -0.5339 -0.1933
 5082SOL    HW126708   2.412   2.344   6.681 -0.3674 -0.4615 -2.6399
 5082SOL    HW226709   2.400   2.201   6.648  1.4319 -2.0637 -0.6842
 5083SOL     OW26710   1.392   1.565   1.581  0.4153  0.6497 -0.5398
 5083SOL    HW126711   1.458   1.619   1.625  0.4722  1.1350 -1.2276
 5083SOL    HW226712   1.319   1.626   1.590 -0.3961 -0.1628 -1.7075
 5084SOL     OW26713   2.103   4.275   6.901 -0.7421  0.3536 -0.3350
 5084SOL    HW126714   2.130   4.209   6.966 -2.3043 -0.2029 -0.2595
 5084SOL    HW226715   2.017   4.300   6.934 -0.2071 -0.2103  1.5321
 5085SOL     OW26716   2.148   0.298   6.866 -0.9152  0.4436  0.1764
 5085SOL    HW126717   2.238   0.267   6.879 -0.5339  1.2792 -0.4495
 5085SOL    HW226718   2.102   0.241   6.927 -0.0043  0.3700  0.7873
 5086SOL     OW26719   2.406   4.234   6.329  0.4999  0.1257  0.3125
 5086SOL    HW126720   2.324   4.280   6.346 -0.5122 -1.0025 -1.5325
 5086SOL    HW226721   2.448   4.316   6.303  0.7573 -0.1138 -0.0431
 5087SOL     OW26722   0.853   1.339   8.476  0.0174 -0.1413 -0.3453
 5087SOL    HW126723   0.864   1.248   8.503  0.0248  0.0470  0.2841
 5087SOL    HW226724   0.760   1.363   8.483 -0.1247 -0.9583  0.5395
 5088SOL     OW26725   3.394   1.090  13.833  0.0284  0.3044 -0.1750
 5088SOL    HW126726   3.330   1.038  13.785  0.1319 -0.1562  0.1846
 5088SOL    HW226727   3.432   1.154  13.773  1.6733 -1.0067 -0.5516
 5089SOL     OW26728   2.621   1.202   8.551  0.4699 -0.6057  0.5065
 5089SOL    HW126729   2.655   1.115   8.532  0.1181 -0.3329 -1.3866
 5089SOL    HW226730   2.629   1.197   8.647  1.6569 -1.4208  0.3631
 5090SOL     OW26731   2.077   3.534   2.459  0.7259  0.3065  0.1668
 5090SOL    HW126732   2.026   3.565   2.384 -1.1137  0.1735  1.3784
 5090SOL    HW226733   2.098   3.620   2.496  2.0258 -0.4757  1.2127
 5091SOL     OW26734   0.134   3.232  11.116 -0.4240 -0.2468 -0.5371
 5091SOL    HW126735   0.091   3.234  11.201 -0.2820  0.5068 -0.4916
 5091SOL    HW226736   0.102   3.308  11.067 -2.2815 -1.0713 -0.5977
 5092SOL     OW26737   2.949   1.830  13.128 -0.0029 -0.4040  0.4212
 5092SOL    HW126738   2.972   1.840  13.220  0.6768  1.0205  0.0982
 5092SOL    HW226739   2.965   1.914  13.086 -3.7641 -0.8276 -1.8842
 5093SOL     OW26740   1.171   3.045   6.305 -0.1603  0.0579 -0.2978
 5093SOL    HW126741   1.204   2.985   6.238  0.7497  0.6697 -0.4023
 5093SOL    HW226742   1.086   3.058   6.262 -0.8355  1.4208  1.4410
 5094SOL     OW26743   3.396   0.801  13.451  0.6975  0.4296  0.0933
 5094SOL    HW126744   3.324   0.739  13.434  1.0641  0.5359 -1.7886
 5094SOL    HW226745   3.423   0.797  13.360 -0.8534  1.2488 -0.4097
 5095SOL     OW26746   2.240   1.900  17.659 -0.4860 -0.0481  0.2555
 5095SOL    HW126747   2.283   1.913   0.063  1.1516 -0.0765 -0.5852
 5095SOL    HW226748   2.267   1.975  17.606  1.0552  0.1012  1.2594
 5096SOL     OW26749   2.990   0.339  15.791 -0.1550  0.2658 -0.3366
 5096SOL    HW126750   3.028   0.354  15.704  0.4594 -2.1174 -0.4754
 5096SOL    HW226751   2.985   0.427  15.827 -0.0858  0.6790 -1.3252
 5097SOL     OW26752   4.541   0.119   6.611 -0.1450 -0.3435  0.2487
 5097SOL    HW126753   4.578   0.041   6.570  0.5867  0.4026 -0.5138
 5097SOL    HW226754   4.447   0.100   6.614  0.1025 -1.5154  0.2536
 5098SOL     OW26755   1.291   4.526   6.480  0.1095  0.6796 -0.2000
 5098SOL    HW126756   1.339   4.478   6.413 -0.9511 -0.4672 -0.1589
 5098SOL    HW226757   1.247   4.452   6.522 -0.1124  1.3842  0.8111
 5099SOL     OW26758   3.503   1.219  17.192  0.1510 -0.2317  0.4395
 5099SOL    HW126759   3.521   1.242  17.283  0.3267  2.2175 -0.2317
 5099SOL    HW226760   3.551   1.282  17.139  0.7986  0.1217  1.4613
 5100SOL     OW26761   1.478   0.549   8.008  0.5119  0.0083 -0.2479
 5100SOL    HW126762   1.573   0.556   8.019  0.2847  0.1378  1.7710
 5100SOL    HW226763   1.465   0.642   8.027  0.2555 -0.2815  1.0428
 5101SOL     OW26764   3.490   1.739  16.047  0.1098  0.1587  0.8070
 5101SOL    HW126765   3.511   1.747  16.140  1.4229 -0.0652  0.5292
 5101SOL    HW226766   3.570   1.724  15.998 -0.5425 -0.5199 -0.0542
 5102SOL     OW26767   1.394   3.841  10.592  0.1076  0.2738 -0.7784
 5102SOL    HW126768   1.437   3.760  10.621 -0.3403  0.8150  1.4293
 5102SOL    HW226769   1.470   3.898  10.597  0.1061  0.1591  0.5308
 5103SOL     OW26770   0.908   3.096   6.206 -0.5471 -0.3446 -0.0177
 5103SOL    HW126771   0.906   3.104   6.111  0.3922  2.4093  0.2037
 5103SOL    HW226772   0.837   3.034   6.223  1.1458 -2.4268 -0.4586
 5104SOL     OW26773   1.758   3.676   5.756  0.9159 -0.2624 -0.0580
 5104SOL    HW126774   1.770   3.757   5.705 -0.6083  0.0799  0.1332
 5104SOL    HW226775   1.752   3.719   5.841  2.0786  1.2184 -0.7118
 5105SOL     OW26776   1.186   4.421   2.854 -0.0751 -0.3550  0.0551
 5105SOL    HW126777   1.245   4.494   2.872 -2.2236  2.1220 -3.1489
 5105SOL    HW226778   1.220   4.394   2.769  0.3486 -0.0672  0.1369
 5106SOL     OW26779   4.180   4.272  14.037  0.3500 -0.3949  0.0691
 5106SOL    HW126780   4.240   4.289  13.964  0.5909 -1.1150  0.0913
 5106SOL    HW226781   4.095   4.284  13.994  0.7080 -1.9888 -1.1015
 5107SOL     OW26782   0.784   0.757   5.539  0.4803 -0.3802 -0.2901
 5107SOL    HW126783   0.873   0.762   5.574  0.3495  1.5089 -0.2164
 5107SOL    HW226784   0.735   0.697   5.595 -0.6863  1.0819  0.2674
 5108SOL     OW26785   1.424   2.196  15.775 -0.6626 -0.4116 -0.0466
 5108SOL    HW126786   1.410   2.171  15.684 -0.6676 -0.2439 -0.0915
 5108SOL    HW226787   1.503   2.143  15.786  1.7652  3.4302  1.0573
 5109SOL     OW26788   3.376   4.453   0.541 -0.0301  0.2365  0.0425
 5109SOL    HW126789   3.328   4.512   0.600 -0.1450  1.2063 -1.0298
 5109SOL    HW226790   3.325   4.374   0.560  0.4154  0.4427  2.1761
 5110SOL     OW26791   0.033   3.659   7.778 -0.6352  0.1687  0.4544
 5110SOL    HW126792   4.710   3.667   7.863  1.0702  1.2806  1.1927
 5110SOL    HW226793   0.015   3.749   7.750 -1.6783 -0.0136  0.5553
 5111SOL     OW26794   1.980   0.248   1.946 -0.1717  0.1587  0.8667
 5111SOL    HW126795   1.943   0.291   1.869  1.6177  1.9038  0.9666
 5111SOL    HW226796   2.057   0.305   1.959  0.1192 -0.2910  1.1103
 5112SOL     OW26797   2.498   3.817  13.862  0.3415  0.2427 -0.0052
 5112SOL    HW126798   2.451   3.901  13.855  1.8303  0.8310 -2.9688
 5112SOL    HW226799   2.423   3.758  13.862 -0.0294  0.7041  2.5974
 5113SOL     OW26800   1.566   3.054   6.674 -0.4258  0.0178 -0.1220
 5113SOL    HW126801   1.532   3.102   6.599  0.6961 -0.1280 -0.7312
 5113SOL    HW226802   1.654   3.025   6.647 -0.2626  2.3986 -2.0894
 5114SOL     OW26803   0.833   1.176   3.206 -0.4293 -0.2880  0.1461
 5114SOL    HW126804   0.889   1.115   3.255 -0.3285  0.3140  0.7797
 5114SOL    HW226805   0.903   1.230   3.168 -0.8134 -0.3903 -0.6987
 5115SOL     OW26806   0.897   1.890   6.215  0.2745  0.2759  0.4427
 5115SOL    HW126807   0.917   1.880   6.122  0.0382 -0.5110  0.4731
 5115SOL    HW226808   0.976   1.875   6.267  1.9099  2.2237 -1.5072
 5116SOL     OW26809   2.213   0.052   2.747 -0.1200 -0.0627  0.5071
 5116SOL    HW126810   2.211   4.701   2.683  0.5076 -0.0193  0.4424
 5116SOL    HW226811   2.121   0.049   2.773 -0.3481 -0.8299 -0.4203
 5117SOL     OW26812   3.538   2.240  15.630  1.0588  0.6094 -0.4255
 5117SOL    HW126813   3.504   2.292  15.702 -1.9668 -3.7591  1.3002
 5117SOL    HW226814   3.481   2.163  15.629 -0.2679  1.5840  0.9433
 5118SOL     OW26815   0.390   1.017   4.091 -0.0908  0.3656 -0.0415
 5118SOL    HW126816   0.448   1.091   4.070 -0.5326  0.2769 -1.5632
 5118SOL    HW226817   0.322   1.030   4.025  0.2506 -2.0346 -0.8495
 5119SOL     OW26818   0.743   4.522   7.466 -0.0709 -0.2660 -0.2796
 5119SOL    HW126819   0.659   4.553   7.501  0.6054  1.4264 -0.1442
 5119SOL    HW226820   0.804   4.575   7.518  0.2802 -0.9430  0.0020
 5120SOL     OW26821   2.208   1.269   7.792 -0.4627  0.0763 -1.0745
 5120SOL    HW126822   2.254   1.233   7.716  1.7295  1.3166 -0.3295
 5120SOL    HW226823   2.146   1.329   7.750  0.5197  0.2386 -2.2882
 5121SOL     OW26824   3.443   0.765   7.599  0.1626 -0.2807 -0.1590
 5121SOL    HW126825   3.512   0.734   7.657  0.3311  1.8750  0.8048
 5121SOL    HW226826   3.455   0.708   7.523  0.3452 -1.4330  0.7337
 5122SOL     OW26827   0.206   3.358   5.120 -0.4326  0.6152  0.0512
 5122SOL    HW126828   0.241   3.396   5.039  0.4226  1.2436  0.7075
 5122SOL    HW226829   0.113   3.357   5.098 -0.2118  0.4783 -0.8567
 5123SOL     OW26830   2.815   0.248   0.745  0.5407  0.0598 -0.1037
 5123SOL    HW126831   2.737   0.239   0.799  1.1652 -2.0141  0.4574
 5123SOL    HW226832   2.769   0.273   0.665 -1.7650 -1.8750  0.6046
 5124SOL     OW26833   0.889   0.473   6.156  0.5781 -0.1542  0.4331
 5124SOL    HW126834   0.809   0.422   6.157  1.4764 -1.5543  0.4687
 5124SOL    HW226835   0.886   0.495   6.062 -1.5003 -0.6744  0.3920
 5125SOL     OW26836   3.952   1.773  13.203 -0.1764  0.3149  0.4198
 5125SOL    HW126837   3.889   1.837  13.237 -0.1798 -0.5042  1.9880
 5125SOL    HW226838   3.913   1.758  13.117 -0.7991 -1.4765  0.9982
 5126SOL     OW26839   4.678   1.393   6.732 -0.1244 -0.2205  0.7085
 5126SOL    HW126840   0.051   1.368   6.732 -0.6611 -2.1699 -1.2604
 5126SOL    HW226841   4.677   1.484   6.703  0.8617 -0.5146 -0.2701
 5127SOL     OW26842   3.538   1.209   4.221 -0.6442 -0.0346 -0.3735
 5127SOL    HW126843   3.461   1.260   4.247  0.8451  2.5637 -1.0568
 5127SOL    HW226844   3.493   1.148   4.163 -3.0152  0.9665  0.4036
 5128SOL     OW26845   2.543   2.148   3.426  0.1836  0.3443 -0.4686
 5128SOL    HW126846   2.560   2.239   3.451 -1.0914  0.3471  0.3687
 5128SOL    HW226847   2.636   2.126   3.436 -0.8630 -3.8653 -0.0068
 5129SOL     OW26848   2.925   1.413   4.275 -0.2144 -0.0531  0.0832
 5129SOL    HW126849   2.959   1.483   4.219 -0.9690 -1.0706 -1.6677
 5129SOL    HW226850   2.842   1.456   4.297  0.8607  1.4258  1.2884
 5130SOL     OW26851   4.473   4.091   6.228  0.0902 -0.0054 -0.2308
 5130SOL    HW126852   4.459   4.052   6.314 -0.0050  1.9612  0.6538
 5130SOL    HW226853   4.423   4.172   6.239  0.7242  0.8143 -3.5411
 5131SOL     OW26854   0.772   0.992   4.144  0.1588 -0.3530 -0.0128
 5131SOL    HW126855   0.824   0.912   4.141 -0.8136 -1.1003  3.3268
 5131SOL    HW226856   0.749   0.996   4.236  0.6024 -1.1502  0.1340
 5132SOL     OW26857   3.601   2.287   0.548  0.2950  0.5915  0.1530
 5132SOL    HW126858   3.559   2.362   0.589 -3.6896 -0.3041 -2.2037
 5132SOL    HW226859   3.533   2.221   0.536 -0.4558  1.4250 -0.1998
 5133SOL     OW26860   1.506   0.621   4.625 -0.2774 -0.2899  0.4543
 5133SOL    HW126861   1.449   0.545   4.611 -1.3776  0.3450  1.4553
 5133SOL    HW226862   1.504   0.667   4.541 -0.1711  0.7017  0.9937
 5134SOL     OW26863   2.696   2.101   6.670  0.1753 -0.6030 -0.2974
 5134SOL    HW126864   2.624   2.038   6.671 -0.2989 -0.0437  0.0978
 5134SOL    HW226865   2.647   2.168   6.623 -1.4504 -1.1733  0.6096
 5135SOL     OW26866   1.098   1.483   9.007 -0.4216  0.4370 -0.0327
 5135SOL    HW126867   1.143   1.401   9.028 -0.3219  0.3106 -0.7501
 5135SOL    HW226868   1.028   1.487   9.072  0.3814  2.6240  0.6954
 5136SOL     OW26869   0.562   3.026   3.259 -0.5802  0.1991 -0.2624
 5136SOL    HW126870   0.580   3.026   3.353 -0.3135  0.5808 -0.3126
 5136SOL    HW226871   0.646   3.064   3.232 -0.2458  0.3710  1.0326
 5137SOL     OW26872   3.283   4.033   4.618  0.3810 -0.1957  0.5223
 5137SOL    HW126873   3.325   4.094   4.558  0.3301 -1.1741 -0.5077
 5137SOL    HW226874   3.332   4.042   4.700  1.7426 -1.1876 -0.2014
 5138SOL     OW26875   1.964   1.461   4.946 -0.2034 -0.2916  0.4730
 5138SOL    HW126876   1.980   1.461   5.041  2.5747 -0.9958  0.0096
 5138SOL    HW226877   1.926   1.374   4.935  2.1284 -1.4531  1.5257
 5139SOL     OW26878   1.120   1.483   9.865 -0.2892  0.2199 -0.6024
 5139SOL    HW126879   1.071   1.557   9.829  1.0824  2.5049  2.1660
 5139SOL    HW226880   1.107   1.419   9.796 -0.4054  2.2050 -2.4179
 5140SOL     OW26881   2.390   2.231   5.754  0.4138 -0.3591 -0.1466
 5140SOL    HW126882   2.400   2.160   5.690 -0.0747 -1.0657  0.5573
 5140SOL    HW226883   2.350   2.302   5.705  0.8035 -0.1568 -0.1753
 5141SOL     OW26884   3.568   3.723  16.818  0.1951 -0.4757  0.3362
 5141SOL    HW126885   3.557   3.780  16.894 -2.3288 -0.4558 -0.0698
 5141SOL    HW226886   3.507   3.652  16.836 -0.8303  0.3006 -0.0919
 5142SOL     OW26887   0.803   2.993  11.177  0.0328  0.4227  0.6976
 5142SOL    HW126888   0.806   2.898  11.162  0.5153  0.4981  0.3567
 5142SOL    HW226889   0.743   3.033  11.115  1.8705  1.1355 -0.6072
 5143SOL     OW26890   4.132   2.754   7.772  0.6079 -0.0672  0.4547
 5143SOL    HW126891   4.088   2.838   7.770  2.5642  0.8831 -2.9721
 5143SOL    HW226892   4.193   2.758   7.698 -0.8977  0.1154 -0.7689
 5144SOL     OW26893   0.141   1.033  12.294 -0.4815  0.2536 -0.3824
 5144SOL    HW126894   0.227   1.007  12.326 -0.2694  0.0055 -1.1537
 5144SOL    HW226895   0.161   1.013  12.203 -1.6364 -0.1945 -0.5281
 5145SOL     OW26896   4.399   4.146   8.426  0.0308 -0.0628 -0.0935
 5145SOL    HW126897   4.307   4.138   8.453 -0.2674  1.5250 -0.6409
 5145SOL    HW226898   4.395   4.149   8.330  0.9547 -1.7518 -0.1812
 5146SOL     OW26899   4.664   2.485  15.828 -0.2025 -0.1288  0.1396
 5146SOL    HW126900   4.718   2.514  15.755  0.3359 -0.1996  0.5064
 5146SOL    HW226901   4.686   2.392  15.833 -0.2842 -0.0148  2.8308
 5147SOL     OW26902   1.428   0.578  11.994  0.0190  0.6664  0.1024
 5147SOL    HW126903   1.473   0.539  12.069 -0.0116  1.0139  0.3036
 5147SOL    HW226904   1.498   0.556  11.933 -1.6425 -0.3224 -1.4349
 5148SOL     OW26905   2.582   1.093   5.153 -0.2642  0.5866  0.5692
 5148SOL    HW126906   2.530   1.069   5.076  0.9330  2.7852 -0.9031
 5148SOL    HW226907   2.671   1.061   5.137  0.0602  2.4343 -1.2291
 5149SOL     OW26908   2.487   0.692   5.409  0.3760  0.6855 -0.3743
 5149SOL    HW126909   2.436   0.767   5.377  0.6589  0.8097 -0.5365
 5149SOL    HW226910   2.569   0.716   5.365  1.2484  0.5389  1.2029
 5150SOL     OW26911   1.010   0.060   9.873 -0.1193  0.3523 -0.1761
 5150SOL    HW126912   0.970   4.710   9.821 -2.4707  0.9408  0.8610
 5150SOL    HW226913   0.954   0.132   9.844  1.6602  1.2670 -1.3316
 5151SOL     OW26914   0.376   2.142   6.954  0.5111 -0.0068  0.0223
 5151SOL    HW126915   0.322   2.088   6.896  2.7909 -0.6746 -1.4696
 5151SOL    HW226916   0.315   2.213   6.974  0.9996  0.9025 -1.7798
 5152SOL     OW26917   1.779   0.596   8.020 -0.2595  0.6791 -0.6076
 5152SOL    HW126918   1.806   0.684   7.992 -1.0675  0.9029 -0.6641
 5152SOL    HW226919   1.862   0.550   8.005 -0.5032  0.0647 -0.0537
 5153SOL     OW26920   0.044   2.432   6.145 -0.1065  0.2845 -0.1884
 5153SOL    HW126921   0.013   2.407   6.232 -1.6953  0.9034 -0.5753
 5153SOL    HW226922   0.126   2.383   6.138  0.3044  1.0081 -0.4703
 5154SOL     OW26923   0.272   1.262  11.000 -0.1607 -0.2327  0.3657
 5154SOL    HW126924   0.207   1.218  10.946 -1.2294  1.1917  0.4986
 5154SOL    HW226925   0.317   1.310  10.931  3.1928 -0.2116  2.5547
 5155SOL     OW26926   0.299   2.039   3.707  1.0050  0.9248 -0.5675
 5155SOL    HW126927   0.216   2.044   3.754  0.3162 -1.1185 -1.5812
 5155SOL    HW226928   0.296   2.121   3.657 -0.0204  0.9692 -0.4231
 5156SOL     OW26929   2.080   4.190  11.587 -0.1442  0.0441  0.1409
 5156SOL    HW126930   2.108   4.136  11.661  0.1371 -1.5595 -1.1364
 5156SOL    HW226931   2.025   4.136  11.531  1.5507 -1.4072 -0.1413
 5157SOL     OW26932   0.829   2.318   5.779 -0.3993 -0.4512 -0.4348
 5157SOL    HW126933   0.817   2.225   5.760  1.5288 -0.7630 -0.1657
 5157SOL    HW226934   0.745   2.329   5.823  0.0184 -0.7313  0.4236
 5158SOL     OW26935   4.645   2.856   6.622 -0.0915  0.1220  0.5142
 5158SOL    HW126936   4.641   2.892   6.710  0.1928 -0.2800  0.6903
 5158SOL    HW226937   4.718   2.911   6.593  0.3599 -1.0440 -0.5940
 5159SOL     OW26938   0.510   0.718   8.430  0.0158  0.4990 -0.7070
 5159SOL    HW126939   0.514   0.716   8.335 -2.3901 -0.7006 -0.7854
 5159SOL    HW226940   0.465   0.638   8.456  0.3921 -0.1595 -2.0995
 5160SOL     OW26941   0.944   0.700   0.544  0.7085 -0.3575  0.1698
 5160SOL    HW126942   0.907   0.777   0.502 -1.5154 -2.5765 -1.9780
 5160SOL    HW226943   0.867   0.645   0.560  0.2441  0.2314 -0.0672
 5161SOL     OW26944   4.102   1.878   9.902 -0.2332  0.5236  0.1459
 5161SOL    HW126945   4.062   1.829   9.973  0.5093  0.8515  0.7875
 5161SOL    HW226946   4.165   1.819   9.861  0.6840  1.5410  0.0757
 5162SOL     OW26947   0.654   4.466   8.322 -0.4058 -0.1869  0.3616
 5162SOL    HW126948   0.568   4.474   8.364 -1.3047  0.1213 -1.5237
 5162SOL    HW226949   0.709   4.422   8.387 -2.6119 -1.6514  1.2412
 5163SOL     OW26950   1.713   1.726   7.978 -0.0115  0.5959  0.0147
 5163SOL    HW126951   1.618   1.740   7.978 -0.2495 -0.9396  2.2359
 5163SOL    HW226952   1.724   1.634   8.004 -2.1416  0.2831 -0.1937
 5164SOL     OW26953   1.662   3.955   6.894 -0.6459  0.3268  0.3498
 5164SOL    HW126954   1.669   4.002   6.977 -1.1463  0.4068  0.3465
 5164SOL    HW226955   1.631   3.870   6.927 -0.0875 -0.0227 -0.0192
 5165SOL     OW26956   4.382   0.187  16.434  0.2184  0.1417  0.3238
 5165SOL    HW126957   4.417   0.183  16.523 -0.3165  0.8768  0.5590
 5165SOL    HW226958   4.288   0.175  16.447 -0.0849  1.1392 -1.0104
 5166SOL     OW26959   3.673   3.002   4.723  0.2127 -0.6702 -0.0022
 5166SOL    HW126960   3.718   3.056   4.788  0.6391 -2.9029  1.5928
 5166SOL    HW226961   3.580   3.026   4.728  0.0320 -1.4591  0.5497
 5167SOL     OW26962   0.529   0.057   9.390  0.1016 -0.2536 -0.4835
 5167SOL    HW126963   0.522   0.107   9.472  1.1624  0.8649 -1.0807
 5167SOL    HW226964   0.442   0.070   9.353  0.6905  0.7158 -1.5414
 5168SOL     OW26965   3.528   4.324   0.225  0.1920 -0.4883 -0.0531
 5168SOL    HW126966   3.457   4.362   0.174 -1.0374  0.1624  2.1526
 5168SOL    HW226967   3.477   4.276   0.291 -1.0358 -0.3680 -0.9151
 5169SOL     OW26968   3.822   2.444   1.317 -0.2330  0.1173 -0.8033
 5169SOL    HW126969   3.744   2.388   1.315  0.8610 -1.3680 -1.4033
 5169SOL    HW226970   3.812   2.502   1.241 -1.3889 -0.1057 -0.8308
 5170SOL     OW26971   0.466   3.838   2.750  0.3282  0.5492  0.0939
 5170SOL    HW126972   0.474   3.823   2.656 -0.4332 -2.0596  0.4239
 5170SOL    HW226973   0.521   3.766   2.782  0.2093  0.6211  0.4632
 5171SOL     OW26974   0.154   3.716   5.834  0.5595  0.3730 -0.2395
 5171SOL    HW126975   0.115   3.698   5.749 -0.5697  0.4819  0.2588
 5171SOL    HW226976   0.098   3.781   5.876 -0.0738 -0.5620  0.3758
 5172SOL     OW26977   2.568   2.832   3.553  0.3016 -0.1627  0.4753
 5172SOL    HW126978   2.643   2.807   3.500 -0.5768 -0.6838 -0.5071
 5172SOL    HW226979   2.562   2.756   3.611 -0.1823 -0.0400  0.5843
 5173SOL     OW26980   1.248   2.592   3.550  0.7287  0.4829  0.4707
 5173SOL    HW126981   1.219   2.505   3.578 -1.9788  1.0678 -0.5236
 5173SOL    HW226982   1.179   2.616   3.489  0.9032 -1.6586 -0.5732
 5174SOL     OW26983   0.768   0.635   2.805 -0.3593  0.1973  0.1083
 5174SOL    HW126984   0.770   0.653   2.711  2.6946  0.1420  0.1585
 5174SOL    HW226985   0.695   0.574   2.801 -0.0500 -0.1009 -0.8333
 5175SOL     OW26986   1.192   3.765   2.016  0.0153 -0.4867  0.3584
 5175SOL    HW126987   1.219   3.853   2.042  1.4736 -0.6739 -0.5239
 5175SOL    HW226988   1.098   3.766   2.000  0.2152 -1.4503 -0.8570
 5176SOL     OW26989   3.892   1.490  16.740 -0.1070 -0.5197 -0.3434
 5176SOL    HW126990   3.916   1.581  16.756  0.8968 -0.5694 -1.5870
 5176SOL    HW226991   3.803   1.488  16.775  0.3204 -2.6283  0.6545
 5177SOL     OW26992   4.468   3.296   7.009 -0.5279  0.4308 -0.0561
 5177SOL    HW126993   4.503   3.384   7.020 -1.4951  0.8734 -0.4803
 5177SOL    HW226994   4.399   3.296   7.075  0.4595 -0.3769  0.9681
 5178SOL     OW26995   3.863   4.280   4.016  0.6030 -0.6060  0.2340
 5178SOL    HW126996   3.811   4.227   4.077  0.8047 -3.1142 -1.7481
 5178SOL    HW226997   3.809   4.359   4.019  0.8235 -0.2588 -4.3462
 5179SOL     OW26998   0.156   4.157   6.015 -0.1517  0.2117  0.2414
 5179SOL    HW126999   0.130   4.066   6.033  1.8992 -0.4836 -0.3100
 5179SOL    HW227000   0.069   4.187   6.041 -0.1697  0.1154  0.2947
 5180SOL     OW27001   4.368   2.997   7.917 -0.7098 -0.4753  0.1607
 5180SOL    HW127002   4.439   3.060   7.907 -0.7488 -0.5081 -0.3035
 5180SOL    HW227003   4.293   3.052   7.893  0.6559 -0.1407 -3.2551
 5181SOL     OW27004   1.287   0.817   3.944  0.3723  0.6077  0.0415
 5181SOL    HW127005   1.211   0.857   3.903 -1.1508 -2.3475  0.0040
 5181SOL    HW227006   1.337   0.798   3.864 -1.5218 -1.9152 -0.5502
 5182SOL     OW27007   3.975   1.598   3.658 -0.3621  0.4897 -0.5051
 5182SOL    HW127008   4.030   1.675   3.646 -1.1361  1.3311  1.4476
 5182SOL    HW227009   4.042   1.530   3.663  0.7506  1.6797  0.5888
 5183SOL     OW27010   3.010   3.796   7.613 -0.0122 -0.0343  0.3797
 5183SOL    HW127011   3.009   3.758   7.702 -1.9125 -1.2140 -0.1370
 5183SOL    HW227012   2.965   3.732   7.558 -1.5690  0.0467  1.5425
 5184SOL     OW27013   3.269   3.746  11.945  0.1228  0.1055  0.6751
 5184SOL    HW127014   3.265   3.694  11.865  1.0297 -0.8987  1.2962
 5184SOL    HW227015   3.226   3.691  12.010 -0.3832  1.5051  1.5418
 5185SOL     OW27016   2.425   0.303   3.337  0.7233  0.2715 -0.7265
 5185SOL    HW127017   2.353   0.345   3.291  0.9396  1.5092  0.0819
 5185SOL    HW227018   2.369   0.238   3.379  1.2879  0.5691  0.4760
 5186SOL     OW27019   2.231   3.570  17.281 -0.6278  0.6265 -0.3724
 5186SOL    HW127020   2.269   3.600  17.199  0.7218 -1.9899 -0.6770
 5186SOL    HW227021   2.304   3.564  17.343 -0.7919 -0.2270 -0.2663
 5187SOL     OW27022   0.750   2.785   8.546 -1.0259 -0.2004  0.4439
 5187SOL    HW127023   0.676   2.729   8.570 -1.1812 -0.5662 -0.8790
 5187SOL    HW227024   0.821   2.757   8.603 -0.1894 -2.3616 -1.6543
 5188SOL     OW27025   1.165   0.426   7.261 -0.6321  0.0122 -0.7318
 5188SOL    HW127026   1.200   0.341   7.285  1.0461  0.7624 -0.5571
 5188SOL    HW227027   1.077   0.393   7.240  0.4923 -2.2275 -1.8159
 5189SOL     OW27028   4.084   3.904  12.732  0.8012  0.3650  0.6166
 5189SOL    HW127029   4.088   3.932  12.824 -1.6983 -1.1333  1.1817
 5189SOL    HW227030   4.163   3.852  12.719  0.7433 -0.1742  2.4004
 5190SOL     OW27031   1.122   2.338   5.859 -0.1899 -0.1480  0.4566
 5190SOL    HW127032   1.172   2.259   5.837 -0.0058 -0.1330  0.8189
 5190SOL    HW227033   1.061   2.335   5.786 -1.4239  1.7694  1.4206
 5191SOL     OW27034   2.463   1.035   8.210 -0.4142 -0.2217 -0.1254
 5191SOL    HW127035   2.409   1.078   8.276 -0.6026 -0.9832  0.2106
 5191SOL    HW227036   2.413   1.072   8.137 -0.8944 -1.0139 -0.1975
 5192SOL     OW27037   2.851   3.307   4.842  0.0121 -0.0598 -0.3185
 5192SOL    HW127038   2.793   3.232   4.852  1.0755 -0.5473  2.1007
 5192SOL    HW227039   2.859   3.327   4.935  1.4996  0.5725 -0.5780
 5193SOL     OW27040   3.517   4.082  12.760 -0.3147 -0.4266  0.0022
 5193SOL    HW127041   3.611   4.080  12.774 -0.2110  1.9330 -0.4156
 5193SOL    HW227042   3.511   4.062  12.666 -0.8066  2.0924 -0.4930
 5194SOL     OW27043   1.797   0.800   5.063 -0.3804 -0.2235 -0.4256
 5194SOL    HW127044   1.727   0.841   5.012 -1.4033 -0.5107  0.7269
 5194SOL    HW227045   1.810   0.872   5.124  3.3733 -0.0636 -1.4243
 5195SOL     OW27046   3.934   2.098   8.245  0.5364 -0.2151  0.3436
 5195SOL    HW127047   3.891   2.179   8.218  0.9012 -1.0800 -2.8398
 5195SOL    HW227048   3.994   2.141   8.306  1.5050 -2.8746  1.2725
 5196SOL     OW27049   0.986   2.178   9.228 -0.5476  0.9120 -0.3498
 5196SOL    HW127050   1.009   2.086   9.239 -0.9501  0.7280 -1.0217
 5196SOL    HW227051   1.034   2.209   9.151  1.8044  0.3277  0.9156
 5197SOL     OW27052   3.488   2.221   7.662  0.4130  0.3873 -0.4040
 5197SOL    HW127053   3.496   2.162   7.737 -0.7150 -0.0277 -0.6044
 5197SOL    HW227054   3.396   2.248   7.661  0.1814 -0.3628  0.1056
 5198SOL     OW27055   3.542   2.607   6.010  0.8245  0.2599  0.1883
 5198SOL    HW127056   3.610   2.604   6.078  2.0276 -0.4695 -1.0270
 5198SOL    HW227057   3.585   2.587   5.927 -1.3834  0.4345 -0.9971
 5199SOL     OW27058   2.427   2.410   5.999  0.4101 -0.3473  0.8986
 5199SOL    HW127059   2.517   2.379   6.006  0.6225 -0.1399 -0.9719
 5199SOL    HW227060   2.389   2.357   5.928 -0.3678  0.8302  0.4253
 5200SOL     OW27061   4.040   3.804   6.786 -0.3103 -0.1355  0.0656
 5200SOL    HW127062   4.028   3.805   6.881 -1.5177  1.6576 -0.1020
 5200SOL    HW227063   4.033   3.710   6.768  0.4969 -0.5581  1.9825
 5201SOL     OW27064   3.574   0.662  15.021  0.0805  0.1832 -0.0827
 5201SOL    HW127065   3.620   0.641  15.103  1.7286  0.7092 -0.8674
 5201SOL    HW227066   3.605   0.751  15.005  1.8784 -0.2067  1.1791
 5202SOL     OW27067   2.218   1.702   3.353 -0.1727  0.4389  0.2311
 5202SOL    HW127068   2.173   1.625   3.390  2.0301 -1.7378 -1.6828
 5202SOL    HW227069   2.306   1.677   3.380  0.5575  0.3268 -2.2964
 5203SOL     OW27070   4.170   2.353   2.101  0.4273 -0.3826 -0.1773
 5203SOL    HW127071   4.087   2.391   2.129  0.1585 -1.9532  1.1801
 5203SOL    HW227072   4.138   2.327   2.014 -2.4591 -1.8812  1.3180
 5204SOL     OW27073   0.776   3.545   6.302  0.8766  0.4008  0.0767
 5204SOL    HW127074   0.821   3.595   6.370 -1.9608  2.3853  0.5177
 5204SOL    HW227075   0.811   3.457   6.318  1.5119  0.1704 -2.6722
 5205SOL     OW27076   3.473   0.559   5.763  0.2492 -0.1501  0.8488
 5205SOL    HW127077   3.563   0.527   5.750  1.1821  2.6523  0.5377
 5205SOL    HW227078   3.467   0.621   5.691 -1.4064 -0.4736  0.7063
 5206SOL     OW27079   1.277   4.198   9.169 -0.3615  1.0671  0.2363
 5206SOL    HW127080   1.274   4.236   9.256  2.2459 -0.0187  0.8072
 5206SOL    HW227081   1.371   4.184   9.153 -0.5790  1.5633 -1.4996
 5207SOL     OW27082   4.206   0.935   6.091 -0.5634 -0.6494  0.4645
 5207SOL    HW127083   4.118   0.924   6.129 -1.1451  0.2835 -0.6292
 5207SOL    HW227084   4.234   0.843   6.091 -0.3439 -0.5861  2.8098
 5208SOL     OW27085   2.193   2.715  15.463  0.0971 -0.2744 -0.1758
 5208SOL    HW127086   2.114   2.663  15.449 -0.5015  0.6762 -0.3145
 5208SOL    HW227087   2.212   2.751  15.376 -0.3088  1.3595  0.4078
 5209SOL     OW27088   1.597   2.001   5.592  0.1724  0.1649 -0.3785
 5209SOL    HW127089   1.556   2.036   5.514 -2.6062 -2.7249 -0.2120
 5209SOL    HW227090   1.663   2.069   5.609 -0.3470  0.3169  1.0814
 5210SOL     OW27091   4.686   3.901   7.674 -0.7018 -0.4607  0.0384
 5210SOL    HW127092   0.024   3.963   7.628 -0.3422  0.1205  1.2822
 5210SOL    HW227093   4.621   3.884   7.605  1.6690 -1.4250 -1.9759
 5211SOL     OW27094   0.228   0.137   5.227  0.2846  0.0970  0.0236
 5211SOL    HW127095   0.195   0.050   5.203  0.4811  0.7687 -2.6286
 5211SOL    HW227096   0.146   0.180   5.202 -1.4536 -3.1874 -0.0394
 5212SOL     OW27097   1.807   0.498   3.752  0.1770  0.0138 -0.3727
 5212SOL    HW127098   1.749   0.561   3.794 -0.1586 -0.3252 -0.3223
 5212SOL    HW227099   1.744   0.431   3.724  2.1696 -1.8816 -0.3475
 5213SOL     OW27100   3.248   0.239   6.697  0.1370  0.7582  0.0210
 5213SOL    HW127101   3.330   0.261   6.654  1.6191 -5.2015 -0.2259
 5213SOL    HW227102   3.213   0.319   6.735 -2.4621 -0.0419 -0.7099
 5214SOL     OW27103   4.010   4.044  15.713 -0.9784 -0.4739  0.1335
 5214SOL    HW127104   4.073   4.017  15.646  0.8299  2.5664  0.6328
 5214SOL    HW227105   3.963   4.120  15.680  0.4610  0.4750  0.2692
 5215SOL     OW27106   3.947   2.145   2.737 -0.0607 -0.0323  1.1550
 5215SOL    HW127107   3.995   2.228   2.739  2.2503 -1.3262 -0.5400
 5215SOL    HW227108   3.982   2.104   2.658 -0.1303  1.3464  0.4209
 5216SOL     OW27109   1.812   4.200  15.260  0.4775  0.4044  0.1307
 5216SOL    HW127110   1.826   4.110  15.290 -1.3108  0.2038  0.3897
 5216SOL    HW227111   1.840   4.242  15.341  0.2571  1.0710 -0.1375
 5217SOL     OW27112   0.921   2.147   4.953 -0.1397  0.2524 -0.4417
 5217SOL    HW127113   0.875   2.221   4.913 -1.1929  0.2387  0.7212
 5217SOL    HW227114   0.917   2.085   4.880 -0.0790 -0.0074 -0.2255
 5218SOL     OW27115   0.881   2.149   6.814 -0.1733 -0.1944 -0.1150
 5218SOL    HW127116   0.856   2.237   6.788 -2.3315 -0.6935  0.2884
 5218SOL    HW227117   0.885   2.105   6.729 -1.0925 -1.5411  0.5298
 5219SOL     OW27118   3.835   2.296   3.768 -0.1270  0.2752  0.1676
 5219SOL    HW127119   3.822   2.262   3.680 -0.8278 -0.7345  0.6734
 5219SOL    HW227120   3.815   2.388   3.750 -0.1273  0.4926  1.2838
 5220SOL     OW27121   0.053   3.569   5.605 -0.1126 -0.3409 -0.6046
 5220SOL    HW127122   4.708   3.498   5.604  1.7630 -2.0307  1.2846
 5220SOL    HW227123   0.110   3.554   5.529  1.1783  0.2075  0.2592
 5221SOL     OW27124   4.428   3.937  17.504  0.6226 -0.1254 -0.1413
 5221SOL    HW127125   4.419   3.904  17.594 -1.7070 -0.1436 -0.3837
 5221SOL    HW227126   4.476   4.015  17.531  0.6892 -0.3103  0.2838
 5222SOL     OW27127   1.505   1.492  10.670 -0.0095 -0.0444  0.2810
 5222SOL    HW127128   1.427   1.459  10.625 -1.4053 -0.5285  3.0065
 5222SOL    HW227129   1.555   1.531  10.599 -0.9591  0.3716 -0.1568
 5223SOL     OW27130   0.335   0.503   5.413 -0.1984 -0.2291  0.0329
 5223SOL    HW127131   0.394   0.541   5.348 -2.0078  1.1187 -0.8022
 5223SOL    HW227132   0.383   0.547   5.483 -0.3246 -0.1224  0.0501
 5224SOL     OW27133   0.271   0.360  11.401 -0.4505  0.1937  0.2173
 5224SOL    HW127134   0.260   0.305  11.323  2.2832  0.4886 -0.3631
 5224SOL    HW227135   0.252   0.446  11.364  1.7976  0.2379 -0.8292
 5225SOL     OW27136   4.658   3.132   8.782 -0.1734 -0.0922  0.6253
 5225SOL    HW127137   4.614   3.072   8.843 -2.3746  0.2071 -0.6415
 5225SOL    HW227138   4.616   3.212   8.814  0.6656  0.3759  0.5386
 5226SOL     OW27139   2.203   2.385   5.594  0.2473 -0.2671 -0.8348
 5226SOL    HW127140   2.187   2.433   5.675 -1.4984 -1.2062 -0.6279
 5226SOL    HW227141   2.205   2.458   5.531 -1.6751  0.0910 -0.4743
 5227SOL     OW27142   3.332   0.723  10.783  0.2500  0.4541 -0.3000
 5227SOL    HW127143   3.409   0.751  10.832 -0.2226  0.4603  0.4342
 5227SOL    HW227144   3.272   0.797  10.796  0.6273  0.5888  0.6743
 5228SOL     OW27145   1.149   2.356   8.061  0.2683  0.6185  0.0220
 5228SOL    HW127146   1.095   2.409   8.119 -1.9039  0.4046 -1.8165
 5228SOL    HW227147   1.128   2.266   8.087  1.5357  0.5186  0.7080
 5229SOL     OW27148   4.398   3.194  15.117  0.1954  0.2912 -0.0555
 5229SOL    HW127149   4.481   3.178  15.162  0.8676  2.0435 -0.6938
 5229SOL    HW227150   4.405   3.160  15.027 -2.2053  1.4196 -0.6549
 5230SOL     OW27151   3.051   1.425   5.096 -0.3805  0.7063 -0.2964
 5230SOL    HW127152   2.968   1.465   5.122 -0.8802 -1.2002  1.0885
 5230SOL    HW227153   3.115   1.484   5.135  0.4608 -0.7535  0.5342
 5231SOL     OW27154   1.261   0.956   2.547  0.2374 -0.6839 -0.2218
 5231SOL    HW127155   1.347   0.949   2.506 -0.2825  1.7917 -1.7689
 5231SOL    HW227156   1.254   1.047   2.576  0.1390 -1.1080  1.1073
 5232SOL     OW27157   3.484   1.170   2.604  0.0394 -0.2640 -0.1365
 5232SOL    HW127158   3.400   1.188   2.645  0.9787  1.3675  1.1013
 5232SOL    HW227159   3.464   1.086   2.564  2.8473 -0.9093 -0.2022
 5233SOL     OW27160   2.992   2.423   3.943 -0.3409  0.1682 -0.1675
 5233SOL    HW127161   3.064   2.371   3.908  0.6084  0.1679  1.7652
 5233SOL    HW227162   3.031   2.510   3.940 -0.0192 -0.0392 -1.9605
 5234SOL     OW27163   2.372   4.335  17.049  0.2379  0.0229 -0.0852
 5234SOL    HW127164   2.375   4.341  16.954  1.6259 -1.4434 -0.1273
 5234SOL    HW227165   2.393   4.245  17.071  1.4108  0.1377 -0.7777
 5235SOL     OW27166   0.766   1.948  12.519 -0.1967 -0.3536 -0.2259
 5235SOL    HW127167   0.821   1.925  12.444 -1.0022  0.4511 -1.0658
 5235SOL    HW227168   0.778   2.043  12.524 -1.7107 -0.2240  0.8290
 5236SOL     OW27169   2.754   3.957  12.089 -0.1314  0.1481  0.5307
 5236SOL    HW127170   2.837   3.924  12.124 -0.3403  0.2521  1.1245
 5236SOL    HW227171   2.698   3.878  12.092  0.0121 -0.0397 -2.1318
 5237SOL     OW27172   3.494   1.849  15.571  0.0187 -0.6082 -0.4173
 5237SOL    HW127173   3.427   1.780  15.573 -0.4794 -0.0961  0.5128
 5237SOL    HW227174   3.514   1.874  15.661  3.2831  1.0910 -1.6081
 5238SOL     OW27175   1.784   4.027   3.014 -0.5436  0.0443 -0.6282
 5238SOL    HW127176   1.840   3.987   3.081 -0.4921  0.4227 -0.4463
 5238SOL    HW227177   1.700   4.020   3.059  0.3015  0.3392  0.9904
 5239SOL     OW27178   2.590   3.080   7.602  0.4798 -0.5061 -0.8257
 5239SOL    HW127179   2.545   3.014   7.655 -0.4919  0.5590 -0.3292
 5239SOL    HW227180   2.587   3.049   7.512 -0.7904 -2.1779 -0.2086
 5240SOL     OW27181   1.493   3.735   7.512  0.5642  0.2319 -0.2480
 5240SOL    HW127182   1.457   3.789   7.582 -1.1024 -2.4796  0.9972
 5240SOL    HW227183   1.415   3.695   7.473 -0.0471 -0.9112  2.1170
 5241SOL     OW27184   1.911   3.516   4.284 -0.0499  0.1664  0.3221
 5241SOL    HW127185   1.856   3.479   4.215 -0.1089 -0.2359  0.5897
 5241SOL    HW227186   1.997   3.482   4.259  1.0034  2.1107  1.3127
 5242SOL     OW27187   1.873   2.079   6.542 -0.1117  0.6647  0.0582
 5242SOL    HW127188   1.796   2.054   6.593 -0.1201  1.7144  0.5694
 5242SOL    HW227189   1.858   2.170   6.515  0.0270  0.4914 -0.5973
 5243SOL     OW27190   0.422   0.496  12.689  0.4037  0.1055 -0.6700
 5243SOL    HW127191   0.358   0.448  12.742  0.9211  1.1294  0.9014
 5243SOL    HW227192   0.392   0.484  12.599  1.7743  2.0710 -1.3846
 5244SOL     OW27193   2.957   4.218   6.311 -0.1407 -0.5403 -0.3066
 5244SOL    HW127194   2.875   4.247   6.352  0.4272 -0.5661  0.8536
 5244SOL    HW227195   3.025   4.231   6.377 -0.2090  0.2001 -0.3755
 5245SOL     OW27196   2.052   0.501   8.053  0.3999 -0.2703  0.0979
 5245SOL    HW127197   2.018   0.481   8.140  0.7313  0.3458  0.3710
 5245SOL    HW227198   2.145   0.488   8.070  0.8402 -0.4968 -2.4412
 5246SOL     OW27199   1.551   3.527   7.133 -0.0207  0.1699 -0.4738
 5246SOL    HW127200   1.618   3.465   7.105 -0.8840 -0.5584 -0.9342
 5246SOL    HW227201   1.523   3.481   7.212 -1.4263 -0.6252 -1.4417
 5247SOL     OW27202   2.179   0.558   4.741 -0.2243 -0.4266 -0.0694
 5247SOL    HW127203   2.261   0.526   4.704 -0.1600  1.1219 -1.2610
 5247SOL    HW227204   2.206   0.627   4.802  1.9084 -0.7145 -0.6742
 5248SOL     OW27205   2.552   0.559   5.010  0.4878 -0.1348 -0.4053
 5248SOL    HW127206   2.468   0.517   5.029 -0.2464  0.6480 -1.9708
 5248SOL    HW227207   2.578   0.586   5.098  0.5351 -1.3666 -0.0355
 5249SOL     OW27208   4.336   2.539   2.895  0.5597 -0.3062 -0.7458
 5249SOL    HW127209   4.340   2.472   2.827 -0.7265  0.9986 -2.1060
 5249SOL    HW227210   4.305   2.613   2.843 -1.3279  0.0059  0.8308
 5250SOL     OW27211   4.615   2.776   3.125 -0.6755  0.1518 -0.4811
 5250SOL    HW127212   4.565   2.819   3.056  1.7595  2.7005 -0.6876
 5250SOL    HW227213   4.560   2.699   3.129 -0.4477  0.0420  0.5247
 5251SOL     OW27214   3.688   1.649   0.345 -0.0187 -0.1676  0.1175
 5251SOL    HW127215   3.666   1.562   0.312  0.1954  0.0157 -0.5250
 5251SOL    HW227216   3.664   1.705   0.270  0.0091  0.4084  0.5391
 5252SOL     OW27217   3.574   4.064  11.766  0.4442 -0.3426  0.1891
 5252SOL    HW127218   3.543   3.984  11.809 -1.5975 -0.0552 -0.7007
 5252SOL    HW227219   3.664   4.074  11.794  0.1556 -0.9269  1.3195
 5253SOL     OW27220   3.126   4.360   9.582  0.9758  0.2363  0.1036
 5253SOL    HW127221   3.130   4.456   9.587 -1.5713  0.1986  2.9981
 5253SOL    HW227222   3.210   4.343   9.539 -0.0677 -1.5185 -1.2704
 5254SOL     OW27223   1.691   0.761  16.742 -0.0454 -0.0214 -0.1934
 5254SOL    HW127224   1.737   0.748  16.825 -0.4970  1.9771  0.3892
 5254SOL    HW227225   1.602   0.743  16.774  0.5933 -1.9683  0.4767
 5255SOL     OW27226   1.329   0.788   2.779 -0.1695  0.3569  0.3403
 5255SOL    HW127227   1.292   0.811   2.694  1.0912 -0.0063 -0.2995
 5255SOL    HW227228   1.351   0.875   2.811 -0.1868  0.7399 -0.7017
 5256SOL     OW27229   2.899   2.458   6.709  0.4067  0.1296  0.2416
 5256SOL    HW127230   2.832   2.451   6.642  1.1444 -0.5514 -0.4258
 5256SOL    HW227231   2.956   2.525   6.673 -0.0598  1.1707  1.4483
 5257SOL     OW27232   2.480   2.732   6.009 -0.0230  0.2616  0.0902
 5257SOL    HW127233   2.501   2.812   6.056 -1.8652 -0.8120  2.6925
 5257SOL    HW227234   2.413   2.765   5.949 -0.4232 -0.9099 -0.1191
 5258SOL     OW27235   0.439   1.804   5.812  0.0870  0.1238 -0.4276
 5258SOL    HW127236   0.381   1.794   5.737 -0.2143 -1.8757  0.0701
 5258SOL    HW227237   0.457   1.897   5.802  0.8001  0.1416  0.9984
 5259SOL     OW27238   0.060   2.520   2.388  0.3610 -0.5014  0.3075
 5259SOL    HW127239   0.097   2.471   2.461 -1.0636  2.5204  3.0731
 5259SOL    HW227240   0.108   2.604   2.390 -1.3994  0.4903  0.7714
 5260SOL     OW27241   1.315   0.350  16.992 -0.2013  0.5568 -0.3396
 5260SOL    HW127242   1.288   0.432  16.950 -0.7316  0.8005  0.4653
 5260SOL    HW227243   1.320   0.291  16.917 -0.0687  0.0436  0.0745
 5261SOL     OW27244   4.088   1.724   1.806 -0.4319  0.2887  0.1351
 5261SOL    HW127245   4.145   1.693   1.736  0.1622 -0.2342  0.8571
 5261SOL    HW227246   4.130   1.689   1.884  1.3595  0.2292 -0.8780
 5262SOL     OW27247   1.202   2.910   8.349  0.2989  0.0461 -0.0777
 5262SOL    HW127248   1.198   2.964   8.427  1.6396  1.0658 -0.7080
 5262SOL    HW227249   1.110   2.887   8.338 -0.7261  1.9454  4.6778
 5263SOL     OW27250   1.971   2.217  14.349  0.5940 -0.4735 -0.1000
 5263SOL    HW127251   2.028   2.294  14.357  0.2759 -0.4576  1.9995
 5263SOL    HW227252   2.019   2.151  14.399 -3.1714 -2.0154  1.4901
 5264SOL     OW27253   0.812   3.922  11.914  0.1252 -0.2555  0.7141
 5264SOL    HW127254   0.764   3.945  11.993 -0.4889  0.6168  0.0793
 5264SOL    HW227255   0.828   3.828  11.921 -0.1525 -0.2977  0.7664
 5265SOL     OW27256   1.649   2.346   9.229  0.2369  0.3244  0.5247
 5265SOL    HW127257   1.566   2.316   9.191  0.2405 -0.1405  0.8885
 5265SOL    HW227258   1.641   2.440   9.214  0.5357  0.4639  1.2425
 5266SOL     OW27259   4.386   1.071   0.958  0.4716  0.2078 -0.1552
 5266SOL    HW127260   4.411   1.019   0.881 -1.7258 -0.4775 -0.3984
 5266SOL    HW227261   4.292   1.078   0.944 -0.1976 -1.7599  3.5571
 5267SOL     OW27262   0.452   0.917   9.829  0.2443  0.0547 -0.0602
 5267SOL    HW127263   0.526   0.956   9.783  0.7740  0.4914  1.1589
 5267SOL    HW227264   0.476   0.825   9.814 -1.4635 -0.4500  0.3496
 5268SOL     OW27265   1.607   0.060   7.303 -0.0511 -0.6626 -0.2776
 5268SOL    HW127266   1.598   0.106   7.219  0.8367 -0.3205 -0.1848
 5268SOL    HW227267   1.656   0.116   7.364  0.6792 -0.5611 -0.9579
 5269SOL     OW27268   2.740   1.612   9.059 -0.2067  0.2828 -0.5320
 5269SOL    HW127269   2.759   1.652   8.975  2.2766  1.6973  0.7070
 5269SOL    HW227270   2.653   1.647   9.081 -0.8611 -0.9066 -1.2157
 5270SOL     OW27271   0.026   3.250  13.034  0.0564  0.2966  0.0150
 5270SOL    HW127272   4.690   3.219  13.106 -1.4322 -0.9298 -1.6473
 5270SOL    HW227273   0.091   3.182  13.019 -0.3418  0.2354 -1.4418
 5271SOL     OW27274   0.386   4.064   6.728 -0.3466 -0.6165 -0.1535
 5271SOL    HW127275   0.325   4.102   6.791  1.1280  1.5687 -0.0348
 5271SOL    HW227276   0.474   4.095   6.750 -1.1052  0.7286  1.0824
 5272SOL     OW27277   3.826   4.164  17.307 -0.5984  0.7790 -0.6509
 5272SOL    HW127278   3.778   4.196  17.383  0.9996 -0.1038  0.7526
 5272SOL    HW227279   3.911   4.204  17.328 -0.6461  1.9260 -2.6385
 5273SOL     OW27280   2.847   2.774   9.432 -0.3676  0.0871  0.3964
 5273SOL    HW127281   2.817   2.830   9.360 -0.0016 -1.2354 -0.7743
 5273SOL    HW227282   2.798   2.693   9.437  0.7872 -0.4798  2.5502
 5274SOL     OW27283   3.004   4.437   4.966 -0.8153 -0.5633  0.1992
 5274SOL    HW127284   2.962   4.366   4.918 -0.6574  0.1959 -1.0719
 5274SOL    HW227285   3.031   4.506   4.904 -1.6492 -0.4069 -0.0030
 5275SOL     OW27286   4.444   3.293  11.912  0.1504  0.8173  0.1849
 5275SOL    HW127287   4.408   3.299  12.000 -1.8519  0.5914 -0.6227
 5275SOL    HW227288   4.529   3.336  11.915 -0.1629  1.4000  0.5320
 5276SOL     OW27289   3.479   1.146   0.067 -0.0978 -0.5869 -0.2011
 5276SOL    HW127290   3.424   1.194   0.129  2.6164  1.4314  0.6869
 5276SOL    HW227291   3.426   1.067   0.057 -0.0380 -0.7555  0.7459
 5277SOL     OW27292   1.087   0.808   8.780 -0.6506  0.2563  0.2958
 5277SOL    HW127293   1.013   0.752   8.804  0.1216 -0.6083  0.6735
 5277SOL    HW227294   1.045   0.894   8.783 -2.6013 -0.6307 -1.5295
 5278SOL     OW27295   1.834   2.384   2.039 -0.2401  0.6655  0.0304
 5278SOL    HW127296   1.861   2.464   1.995  0.0139  0.8341  0.5051
 5278SOL    HW227297   1.746   2.406   2.069 -0.7833 -0.9510 -0.3628
 5279SOL     OW27298   1.932   2.275   8.657  0.0065 -0.9682 -0.3098
 5279SOL    HW127299   1.953   2.366   8.637 -0.1809 -0.5052  1.5224
 5279SOL    HW227300   2.006   2.233   8.614 -1.2891  0.4520 -3.8801
 5280SOL     OW27301   1.246   2.295   3.554 -0.1097  0.7249 -0.1877
 5280SOL    HW127302   1.233   2.210   3.512 -1.2929  0.7536  0.1149
 5280SOL    HW227303   1.176   2.303   3.620 -0.5269 -5.6273  0.1392
 5281SOL     OW27304   2.467   0.384   0.999  0.4605 -0.2018  0.6518
 5281SOL    HW127305   2.395   0.417   1.052 -1.0968 -1.0756 -0.9372
 5281SOL    HW227306   2.533   0.386   1.069  1.4855  3.3559 -0.4163
 5282SOL     OW27307   1.799   4.098  12.868  0.2679 -0.2196 -0.6901
 5282SOL    HW127308   1.814   4.090  12.773 -2.1480 -1.3107 -0.9720
 5282SOL    HW227309   1.851   4.032  12.913  1.5515  1.1585 -0.1587
 5283SOL     OW27310   1.858   0.281   2.898 -0.0516 -0.4315  0.2125
 5283SOL    HW127311   1.926   0.318   2.841 -0.3371  1.9207  1.4345
 5283SOL    HW227312   1.885   0.322   2.980 -0.1207  0.8221 -0.4074
 5284SOL     OW27313   0.014   1.373   0.857  0.2197 -0.3237 -0.0744
 5284SOL    HW127314   0.093   1.385   0.805 -0.1884 -0.3830 -0.7082
 5284SOL    HW227315   0.017   1.278   0.873  1.4892 -0.2139  0.3731
 5285SOL     OW27316   3.391   3.415   6.075 -0.1366  0.8858 -0.3182
 5285SOL    HW127317   3.322   3.405   6.009 -1.4803 -0.4986  1.3077
 5285SOL    HW227318   3.430   3.328   6.081 -2.1898  0.1624  2.4323
 5286SOL     OW27319   3.526   0.192  10.012  0.3985 -0.1785 -0.5339
 5286SOL    HW127320   3.517   0.120   9.949 -0.1598  0.7093 -1.4626
 5286SOL    HW227321   3.495   0.141  10.087  1.4294  1.6515  1.1201
 5287SOL     OW27322   3.533   3.501   6.574  0.6951 -0.4685 -0.5640
 5287SOL    HW127323   3.504   3.503   6.483  2.5400 -0.7113 -1.1578
 5287SOL    HW227324   3.506   3.589   6.601 -2.2491 -1.0965 -1.4921
 5288SOL     OW27325   3.808   0.910   7.160 -0.3898  0.1161  0.1022
 5288SOL    HW127326   3.772   0.937   7.075  0.3296  2.7793  0.6383
 5288SOL    HW227327   3.777   0.821   7.174 -0.0299  0.0520  0.5057
 5289SOL     OW27328   2.944   4.381   4.097  0.2331  0.2180 -0.3517
 5289SOL    HW127329   2.978   4.338   4.019  0.4341  0.3477 -0.3363
 5289SOL    HW227330   3.027   4.391   4.144 -1.8530 -1.1340  3.5769
 5290SOL     OW27331   4.638   4.139   6.733 -0.2614  0.5166 -0.0407
 5290SOL    HW127332   4.647   4.186   6.649 -2.9296  0.9009 -0.1136
 5290SOL    HW227333   4.703   4.070   6.726  0.9354  1.5813  0.6225
 5291SOL     OW27334   2.604   3.788  14.131 -0.5384  0.0520 -0.1351
 5291SOL    HW127335   2.586   3.804  14.038  0.6587 -1.6842 -0.6728
 5291SOL    HW227336   2.542   3.854  14.164  0.9597  0.3986  2.0033
 5292SOL     OW27337   1.643   4.203  15.003 -0.5261  0.0571  0.0934
 5292SOL    HW127338   1.686   4.190  15.087  1.5717  1.9119 -0.7006
 5292SOL    HW227339   1.717   4.174  14.950 -1.6217 -0.0288 -1.3780
 5293SOL     OW27340   0.266   2.891  14.073  0.2809 -0.3261 -0.3190
 5293SOL    HW127341   0.206   2.873  14.146 -0.3399 -2.0511 -1.2548
 5293SOL    HW227342   0.215   2.884  13.992 -0.9898 -3.6528  0.7694
 5294SOL     OW27343   4.449   3.980   7.205 -0.1942  0.1689  0.0817
 5294SOL    HW127344   4.495   4.053   7.246 -1.1051  0.0854  1.2531
 5294SOL    HW227345   4.361   4.015   7.194 -0.4829 -0.9477 -1.1395
 5295SOL     OW27346   2.174   2.891  17.624  0.3760 -0.1128  0.2422
 5295SOL    HW127347   2.136   2.942  17.552 -1.1924 -1.0304  0.4318
 5295SOL    HW227348   2.266   2.885  17.595  0.8896  0.4317  1.7571
 5296SOL     OW27349   2.029   4.371   1.750 -0.8688 -0.2070  0.1131
 5296SOL    HW127350   2.054   4.463   1.744  1.1282 -0.5397  3.2577
 5296SOL    HW227351   2.013   4.352   1.657  2.0037 -1.1658 -0.1844
 5297SOL     OW27352   3.508   1.385  10.899 -0.1164 -0.4282 -0.4217
 5297SOL    HW127353   3.527   1.477  10.882 -0.8081 -0.0484  0.9062
 5297SOL    HW227354   3.535   1.379  10.991 -1.7120  0.3410  0.0862
 5298SOL     OW27355   2.929   2.790   4.537  0.6012  0.0113  0.4040
 5298SOL    HW127356   2.857   2.764   4.480  2.1908 -0.8170 -1.2038
 5298SOL    HW227357   2.999   2.731   4.512  1.8895  1.3631  0.7931
 5299SOL     OW27358   0.484   1.192  11.725  0.0012  0.3106  0.1652
 5299SOL    HW127359   0.578   1.209  11.730  0.2796 -1.6417  1.7859
 5299SOL    HW227360   0.453   1.281  11.712 -0.0751  0.4276  1.1358
 5300SOL     OW27361   3.804   0.602   8.458 -0.2920 -0.2913  0.1743
 5300SOL    HW127362   3.869   0.641   8.399 -0.0552 -2.5989 -1.0671
 5300SOL    HW227363   3.786   0.683   8.506 -1.1443 -1.1404  1.2953
 5301SOL     OW27364   3.176   4.565  12.455  0.3253  0.2964  0.0282
 5301SOL    HW127365   3.246   4.531  12.400  0.1743  0.0456 -0.0088
 5301SOL    HW227366   3.159   4.638  12.396 -0.6510 -0.8197 -1.0637
 5302SOL     OW27367   3.833   4.105   6.259 -0.3690 -0.0935  0.0825
 5302SOL    HW127368   3.754   4.068   6.220  0.1111  0.1047 -1.0857
 5302SOL    HW227369   3.874   4.144   6.182 -0.6996 -0.1007 -0.0995
 5303SOL     OW27370   3.972   1.440  12.018  0.3477 -0.0295 -0.2901
 5303SOL    HW127371   4.051   1.401  11.981 -0.0933  1.0506 -2.3202
 5303SOL    HW227372   3.908   1.446  11.947 -0.3139 -3.6694  0.0124
 5304SOL     OW27373   1.031   3.928   0.702  0.3242  0.4647  0.1661
 5304SOL    HW127374   1.031   4.008   0.650  2.0135  0.2416 -0.1719
 5304SOL    HW227375   0.976   3.873   0.646  1.6208  0.4437 -1.1060
 5305SOL     OW27376   1.303   2.814   7.449 -0.1592  0.1349 -0.6766
 5305SOL    HW127377   1.268   2.843   7.534  1.5370  0.7861 -0.2008
 5305SOL    HW227378   1.245   2.740   7.432  0.5758 -0.4862 -0.4522
 5306SOL     OW27379   0.691   4.115   6.307 -0.0227 -0.1721 -0.2205
 5306SOL    HW127380   0.705   4.039   6.364  1.6023  0.0773 -0.3028
 5306SOL    HW227381   0.717   4.190   6.360  0.1768 -0.5293  0.1874
 5307SOL     OW27382   2.368   1.886   5.718 -0.5820  0.2633 -0.0087
 5307SOL    HW127383   2.277   1.860   5.730 -0.4320 -0.8440 -1.2025
 5307SOL    HW227384   2.363   1.955   5.651  0.2104  0.2151 -0.1262
 5308SOL     OW27385   0.359   1.890  14.657 -0.1497 -0.4702  0.4590
 5308SOL    HW127386   0.288   1.916  14.598 -0.3663  0.0160  0.9337
 5308SOL    HW227387   0.364   1.795  14.644  0.6921 -0.4381  0.5833
 5309SOL     OW27388   2.208   3.372   3.925 -0.1598  0.5246 -0.7697
 5309SOL    HW127389   2.244   3.284   3.911 -0.5309  0.2996 -0.3171
 5309SOL    HW227390   2.141   3.354   3.991  1.7231  3.1062  1.7858
 5310SOL     OW27391   0.572   4.511  12.012 -0.1798 -0.0444 -0.6669
 5310SOL    HW127392   0.592   4.417  12.018 -0.2767  0.0340  1.0400
 5310SOL    HW227393   0.653   4.542  11.972  0.8280 -2.3467 -0.4577
 5311SOL     OW27394   2.473   1.661   5.315 -0.4750 -0.4646  0.8340
 5311SOL    HW127395   2.475   1.756   5.303  0.0097 -0.4649  0.9278
 5311SOL    HW227396   2.385   1.639   5.283 -0.3674 -2.1062  1.6598
 5312SOL     OW27397   2.140   1.138  15.997  0.2296 -0.3407  0.5970
 5312SOL    HW127398   2.117   1.071  16.061 -2.7752 -0.3225 -0.4886
 5312SOL    HW227399   2.057   1.160  15.955  1.1805  0.1836 -1.0399
 5313SOL     OW27400   4.557   1.118   8.953 -0.4047  0.0796  0.0421
 5313SOL    HW127401   4.482   1.058   8.955  0.4169 -0.9646 -0.6812
 5313SOL    HW227402   4.543   1.155   9.040 -2.0446 -1.5064  0.4565
 5314SOL     OW27403   2.783   0.965   2.320 -0.6602 -0.3678  0.0768
 5314SOL    HW127404   2.714   1.032   2.320 -0.8137 -0.5403 -2.1488
 5314SOL    HW227405   2.810   0.969   2.229  0.8455  0.3222  0.5455
 5315SOL     OW27406   0.419   1.528  12.876  0.1864  0.5788 -0.0705
 5315SOL    HW127407   0.445   1.436  12.882  0.2963  0.6039 -0.1838
 5315SOL    HW227408   0.393   1.528  12.784  1.2811  2.0453 -0.3641
 5316SOL     OW27409   4.094   3.305   4.936 -0.0890  0.2067 -0.5121
 5316SOL    HW127410   4.175   3.256   4.924 -1.4389 -2.6983  2.3511
 5316SOL    HW227411   4.120   3.376   4.877 -0.1717 -0.4986 -1.3988
 5317SOL     OW27412   1.870   2.279   4.581  0.0493  0.7281  0.2342
 5317SOL    HW127413   1.919   2.349   4.539 -1.3944  2.7235  1.9127
 5317SOL    HW227414   1.943   2.220   4.600 -1.0931 -0.5826  0.5865
 5318SOL     OW27415   2.782   0.881   7.733  0.2119  0.4704  0.2345
 5318SOL    HW127416   2.790   0.963   7.782  1.7565  0.2254  0.4087
 5318SOL    HW227417   2.866   0.888   7.689  1.2369  2.5162  2.4896
 5319SOL     OW27418   2.571   2.905   5.130  0.2236  0.2898  0.0967
 5319SOL    HW127419   2.594   2.895   5.038  0.0141  0.3687  0.0360
 5319SOL    HW227420   2.483   2.940   5.117  0.0166 -1.2306 -2.4902
 5320SOL     OW27421   0.511   4.668  16.676  0.1340  0.3235 -0.8514
 5320SOL    HW127422   0.546   0.018  16.731  1.3391 -0.7461 -0.2824
 5320SOL    HW227423   0.420   4.698  16.672  0.4946  1.3328 -1.5286
 5321SOL     OW27424   0.822   0.988   9.087  0.2632  0.7253  0.0972
 5321SOL    HW127425   0.859   1.054   9.145  1.3729 -1.9490  2.4086
 5321SOL    HW227426   0.731   1.010   9.106  0.0965  1.4691 -1.5983
 5322SOL     OW27427   4.398   3.041  14.915 -0.4386 -0.2178 -0.6901
 5322SOL    HW127428   4.401   2.975  14.984 -0.9697  0.6135  0.1371
 5322SOL    HW227429   4.379   2.991  14.836 -0.1413  0.9386 -1.4865
 5323SOL     OW27430   1.654   4.380   3.748  0.1210  0.5302  0.2096
 5323SOL    HW127431   1.730   4.439   3.752 -0.5624  1.4540 -0.3243
 5323SOL    HW227432   1.700   4.302   3.718 -1.3413 -1.0367  2.0784
 5324SOL     OW27433   4.223   2.949  17.488 -0.6739 -0.4674 -0.4362
 5324SOL    HW127434   4.298   2.936  17.430 -1.0890 -0.7690 -0.9109
 5324SOL    HW227435   4.216   3.043  17.502  2.1752 -0.2084 -0.8053
 5325SOL     OW27436   0.546   4.269  17.229  0.9822  0.0530  0.8105
 5325SOL    HW127437   0.568   4.354  17.268  1.5075  1.0675 -1.6975
 5325SOL    HW227438   0.606   4.262  17.155 -0.0165 -0.4311  0.0616
 5326SOL     OW27439   3.223   4.486  17.428  0.2441  0.1382  0.8632
 5326SOL    HW127440   3.230   4.463  17.335  0.5770 -0.9026  1.1422
 5326SOL    HW227441   3.268   4.415  17.473 -0.8966 -0.5175  0.9640
 5327SOL     OW27442   3.628   0.279   1.601 -0.1192  0.0970  0.1509
 5327SOL    HW127443   3.569   0.298   1.528  0.7341 -0.0311 -0.5595
 5327SOL    HW227444   3.599   0.343   1.667 -0.3739 -0.4236  0.5485
 5328SOL     OW27445   0.055   0.117  14.623 -0.7033 -0.1645 -0.0561
 5328SOL    HW127446   0.135   0.168  14.624 -0.5298 -0.4293 -0.3186
 5328SOL    HW227447   0.082   0.025  14.624 -2.2858 -0.6218  2.4676
 5329SOL     OW27448   4.020   0.857   5.408 -0.8704 -0.1340 -0.2836
 5329SOL    HW127449   4.096   0.858   5.466 -1.1771 -0.2942  0.1185
 5329SOL    HW227450   3.953   0.901   5.459 -2.9231 -0.6574 -2.5197
 5330SOL     OW27451   3.987   1.876  13.606 -0.4846  0.2553 -0.5554
 5330SOL    HW127452   4.058   1.938  13.624  0.7423 -1.3372  0.0356
 5330SOL    HW227453   3.925   1.938  13.568 -1.0440 -0.2454 -0.4570
 5331SOL     OW27454   2.073   2.939   4.152  0.1981  0.7003 -0.0491
 5331SOL    HW127455   2.067   2.865   4.212 -1.6036  2.1587  1.5545
 5331SOL    HW227456   2.069   2.890   4.069 -0.4602  0.9397 -0.1621
 5332SOL     OW27457   1.070   3.732   5.401  0.3319 -0.2313 -0.5240
 5332SOL    HW127458   1.130   3.758   5.332 -1.1286 -0.0784 -1.7238
 5332SOL    HW227459   0.984   3.739   5.360 -0.1115  1.4585  0.7007
 5333SOL     OW27460   0.366   1.379   8.811  0.5111  0.2431  0.0454
 5333SOL    HW127461   0.378   1.445   8.743  1.8639  0.7706  0.8075
 5333SOL    HW227462   0.287   1.331   8.785  0.9980 -0.5560  0.0159
 5334SOL     OW27463   0.195   2.623   1.118  0.8327 -0.0546 -0.3158
 5334SOL    HW127464   0.171   2.532   1.101 -1.3636  0.8304 -1.8663
 5334SOL    HW227465   0.187   2.626   1.214  2.8633  0.4449 -0.1573
 5335SOL     OW27466   3.662   4.571   0.406 -0.3075 -0.0711 -0.1947
 5335SOL    HW127467   3.670   4.480   0.434 -4.4819  0.1273  1.7334
 5335SOL    HW227468   3.567   4.584   0.416 -0.3920 -0.5705 -0.3272
 5336SOL     OW27469   1.921   2.234  12.418 -0.3130 -0.4513 -0.2115
 5336SOL    HW127470   1.924   2.230  12.323 -1.1759  0.1309 -0.2690
 5336SOL    HW227471   1.833   2.268  12.434  0.5863  0.3037  3.0762
 5337SOL     OW27472   0.509   4.188   6.100 -0.2479 -0.7194 -0.2378
 5337SOL    HW127473   0.482   4.103   6.065 -0.1741  0.7193 -3.7436
 5337SOL    HW227474   0.540   4.163   6.187 -2.5062 -1.4115  0.3803
 5338SOL     OW27475   3.887   3.140   4.923  0.1254  0.0086  0.0297
 5338SOL    HW127476   3.911   3.056   4.963  1.7049  0.9357  0.9858
 5338SOL    HW227477   3.972   3.183   4.931 -0.2668  0.9079 -0.6615
 5339SOL     OW27478   2.715   4.359   8.103 -0.3229 -0.2340 -0.1661
 5339SOL    HW127479   2.689   4.358   8.195 -0.8553 -0.5549 -0.3145
 5339SOL    HW227480   2.784   4.424   8.102 -0.2642 -0.2814  1.0582
 5340SOL     OW27481   2.690   1.915   5.689  0.2257  0.1621  0.2894
 5340SOL    HW127482   2.615   1.908   5.747 -0.3096  2.2834 -0.1547
 5340SOL    HW227483   2.736   1.970   5.752 -2.2582  1.4565  0.9782
 5341SOL     OW27484   1.564   4.632   3.682 -0.2468 -0.1990 -0.2428
 5341SOL    HW127485   1.594   4.541   3.686 -0.6151 -0.2890  0.5692
 5341SOL    HW227486   1.517   4.623   3.599 -0.7303 -0.8849  0.1072
 5342SOL     OW27487   1.089   2.663  16.132  0.1395 -0.6211 -0.1056
 5342SOL    HW127488   1.013   2.616  16.097  0.3066 -2.6398  2.2324
 5342SOL    HW227489   1.163   2.635  16.078  1.4097  0.1416  1.2267
 5343SOL     OW27490   1.117   3.024   7.089 -0.6360  0.5797  0.0578
 5343SOL    HW127491   1.173   3.026   7.166 -1.1057  0.2771  0.4080
 5343SOL    HW227492   1.151   3.097   7.038 -0.4063  0.5050  0.1070
 5344SOL     OW27493   3.238   4.393   7.008 -0.2139  0.4424 -0.4541
 5344SOL    HW127494   3.199   4.395   7.095 -2.0220 -2.2156 -1.2150
 5344SOL    HW227495   3.326   4.424   7.030 -0.5801 -0.3090  2.0075
 5345SOL     OW27496   3.950   1.062   0.602 -0.3519  0.6794  0.2077
 5345SOL    HW127497   3.862   1.097   0.592  0.2432  2.0001 -0.5080
 5345SOL    HW227498   3.935   0.975   0.566 -2.0958  1.0205  0.1117
 5346SOL     OW27499   4.400   4.635   1.882  0.6173 -0.4915 -0.5671
 5346SOL    HW127500   4.442   4.574   1.941  1.0793  2.0271  1.7174
 5346SOL    HW227501   4.327   4.659   1.939 -1.3280 -2.5360 -2.2076
 5347SOL     OW27502   3.771   0.559   5.714 -0.2897  0.6575 -0.0698
 5347SOL    HW127503   3.787   0.644   5.755  0.0629  0.8262 -0.5498
 5347SOL    HW227504   3.842   0.508   5.752 -1.0769 -0.9506 -0.7401
 5348SOL     OW27505   4.092   1.584  13.711  0.4261 -0.3946  0.2574
 5348SOL    HW127506   4.022   1.649  13.711  0.3804 -0.4418  0.3911
 5348SOL    HW227507   4.169   1.634  13.685  0.2551 -0.0460  0.4363
 5349SOL     OW27508   0.871   2.484   7.390 -0.0416 -0.7053 -0.4058
 5349SOL    HW127509   0.804   2.513   7.452  0.4778 -2.5211  1.0452
 5349SOL    HW227510   0.884   2.390   7.402 -1.2893 -1.0151 -1.5735
 5350SOL     OW27511   1.884   1.659   2.520  0.1111 -0.1456  0.3043
 5350SOL    HW127512   1.803   1.702   2.491  0.7633  2.0716  1.7637
 5350SOL    HW227513   1.957   1.682   2.462  0.6604 -0.1732  0.9890
 5351SOL     OW27514   2.516   4.421   7.920 -0.4137 -0.5237 -0.1777
 5351SOL    HW127515   2.569   4.435   7.841 -1.1068 -0.2398 -0.6048
 5351SOL    HW227516   2.585   4.392   7.979  0.9313  1.1565 -0.9303
 5352SOL     OW27517   0.179   1.220   8.714  0.4408  1.0244  0.4284
 5352SOL    HW127518   0.147   1.142   8.758  1.9565 -0.4838 -1.1681
 5352SOL    HW227519   0.115   1.252   8.652 -1.6994  0.1528  2.2002
 5353SOL     OW27520   1.977   1.832   8.071 -0.5939 -0.0989 -0.3124
 5353SOL    HW127521   1.975   1.778   8.149  0.1252 -0.2602 -0.4087
 5353SOL    HW227522   1.883   1.824   8.053 -0.7283 -1.9877  1.2521
 5354SOL     OW27523   2.373   1.859   0.235  0.1607 -0.1292  1.2346
 5354SOL    HW127524   2.388   1.827   0.324 -3.3024 -2.2276  1.0793
 5354SOL    HW227525   2.427   1.938   0.235 -0.9069  0.6133  0.1059
 5355SOL     OW27526   2.114   2.053   7.504  0.3875  0.4470  0.1918
 5355SOL    HW127527   2.105   2.132   7.451 -1.5846 -0.8421 -1.4164
 5355SOL    HW227528   2.191   2.077   7.555  1.0410  1.9756 -1.5078
 5356SOL     OW27529   1.794   1.871  13.246  0.1139 -0.0149  0.3061
 5356SOL    HW127530   1.779   1.777  13.242 -0.0974  0.0160  0.3991
 5356SOL    HW227531   1.834   1.887  13.331 -0.7442  0.2698  0.6456
 5357SOL     OW27532   1.978   2.494   6.500  0.5693 -0.2372 -0.5552
 5357SOL    HW127533   1.968   2.458   6.411 -2.4067 -1.5125  0.2994
 5357SOL    HW227534   2.009   2.422   6.554 -0.8576 -0.7566 -0.4208
 5358SOL     OW27535   3.159   2.354   7.482 -0.1768  0.5914 -0.0927
 5358SOL    HW127536   3.196   2.323   7.565 -0.4417 -0.7046 -0.4564
 5358SOL    HW227537   3.137   2.269   7.443 -0.4868 -0.1137  1.6276
 5359SOL     OW27538   0.521   1.374   4.473  0.0865  0.0798  0.2553
 5359SOL    HW127539   0.499   1.285   4.444 -2.6688  0.3649  1.4272
 5359SOL    HW227540   0.431   1.407   4.463  0.4921  1.3657  0.8780
 5360SOL     OW27541   0.806   1.888   2.899 -0.3646 -0.2344  0.2656
 5360SOL    HW127542   0.740   1.893   2.830  0.2027  0.6890 -0.2026
 5360SOL    HW227543   0.796   1.974   2.939 -0.3365 -0.5057  0.8605
 5361SOL     OW27544   0.560   3.782   7.101 -0.1977 -0.3235 -0.9459
 5361SOL    HW127545   0.489   3.837   7.069  0.6277  1.8740  1.0391
 5361SOL    HW227546   0.642   3.823   7.072  0.3441 -1.4925 -1.0942
 5362SOL     OW27547   2.246   3.988   9.926  0.2366 -0.5147  0.0221
 5362SOL    HW127548   2.308   3.932   9.972  1.6321  2.9382  2.2790
 5362SOL    HW227549   2.301   4.029   9.859  0.4892 -1.2262 -0.2139
 5363SOL     OW27550   1.306   1.407   6.407 -0.0765 -0.7375 -0.0623
 5363SOL    HW127551   1.366   1.342   6.370  0.7613 -0.2587  0.4494
 5363SOL    HW227552   1.226   1.360   6.383  0.1650 -0.4552 -1.4042
 5364SOL     OW27553   0.717   1.142   3.927 -0.0568 -0.2618  0.3446
 5364SOL    HW127554   0.742   1.092   4.005  2.4179 -1.7794 -1.4144
 5364SOL    HW227555   0.660   1.207   3.967  2.5443  2.3443 -0.1809
 5365SOL     OW27556   3.104   3.757   3.407  0.4588  0.3578  0.0074
 5365SOL    HW127557   3.164   3.685   3.428  2.3748  1.9336 -0.0286
 5365SOL    HW227558   3.165   3.816   3.362  0.7904 -1.3105 -1.7002
 5366SOL     OW27559   1.417   2.160   5.284 -0.5053  0.1126  0.4347
 5366SOL    HW127560   1.501   2.185   5.246 -0.3779 -1.9816 -0.6947
 5366SOL    HW227561   1.356   2.200   5.222 -1.4755 -1.1145  0.5999
 5367SOL     OW27562   1.968   1.619   8.290 -0.2739  0.1001 -0.3254
 5367SOL    HW127563   2.025   1.548   8.263 -1.2469 -0.0856 -1.9156
 5367SOL    HW227564   1.925   1.589   8.371 -1.3373  0.0290 -0.9143
 5368SOL     OW27565   0.203   0.207  12.485 -0.3129 -0.0966 -0.3851
 5368SOL    HW127566   0.287   0.240  12.516 -0.4447  1.8619 -2.0935
 5368SOL    HW227567   0.213   0.196  12.390  3.5013 -1.3689  0.1770
 5369SOL     OW27568   0.431   1.423   8.155  0.0030  0.1848 -0.1403
 5369SOL    HW127569   0.455   1.340   8.195 -1.7926  0.3367  1.2478
 5369SOL    HW227570   0.336   1.425   8.167  0.1516 -1.8804  1.3658
 5370SOL     OW27571   1.730   2.909   8.022 -0.1268 -0.0159  0.4836
 5370SOL    HW127572   1.824   2.928   8.019 -0.4448  1.2721 -1.3666
 5370SOL    HW227573   1.707   2.882   7.933 -0.2833 -2.0136  1.1354
 5371SOL     OW27574   3.871   3.954  16.715 -0.1018  0.0686 -1.0827
 5371SOL    HW127575   3.811   3.974  16.786  0.3140  3.4323 -1.6601
 5371SOL    HW227576   3.945   3.919  16.765  0.1375  1.8556 -0.1878
 5372SOL     OW27577   3.665   3.863   3.663  0.1809  0.1137  0.0730
 5372SOL    HW127578   3.670   3.772   3.690  1.6843 -0.1096 -0.9576
 5372SOL    HW227579   3.756   3.893   3.674  0.9312 -2.4398  0.7406
 5373SOL     OW27580   0.362   0.439   3.278  0.3606  0.1838  0.2550
 5373SOL    HW127581   0.453   0.449   3.306  0.1179  0.3102  0.9876
 5373SOL    HW227582   0.330   0.372   3.338  1.8110  1.0903  2.0302
 5374SOL     OW27583   1.568   0.181   5.839 -0.4146  0.0456  0.4634
 5374SOL    HW127584   1.520   0.210   5.916 -0.0613 -0.4930  0.8842
 5374SOL    HW227585   1.535   0.230   5.764 -3.2363 -0.2308  1.5223
 5375SOL     OW27586   0.425   1.738   9.843 -0.0914  0.5914  0.2746
 5375SOL    HW127587   0.420   1.824   9.884  2.5581  1.0972 -0.4287
 5375SOL    HW227588   0.348   1.752   9.789 -0.8961  2.7722  1.9934
 5376SOL     OW27589   0.869   2.610  10.162  0.2015 -0.1815 -0.2646
 5376SOL    HW127590   0.839   2.698  10.139  0.8925  0.0556 -0.2675
 5376SOL    HW227591   0.932   2.625  10.232 -2.1395  1.2968  1.5015
 5377SOL     OW27592   1.939   0.898   3.087 -0.2069 -0.0280 -0.1254
 5377SOL    HW127593   1.896   0.909   3.002 -0.1813  1.3475  0.0483
 5377SOL    HW227594   2.024   0.857   3.069  0.0733  1.2492 -1.7766
 5378SOL     OW27595   0.026   4.444   7.594 -0.4564 -0.1471  0.1292
 5378SOL    HW127596   0.088   4.404   7.533 -0.8862 -0.9691  0.2366
 5378SOL    HW227597   4.660   4.420   7.561 -0.8149 -2.1240  2.5529
 5379SOL     OW27598   2.247   3.638   6.813 -0.3062  0.6449  0.0890
 5379SOL    HW127599   2.159   3.667   6.790 -1.4856 -4.0129 -1.2058
 5379SOL    HW227600   2.241   3.553   6.771 -0.8380 -0.7292  2.9815
 5380SOL     OW27601   3.257   1.284  10.937 -0.1181  0.0750  0.3727
 5380SOL    HW127602   3.273   1.196  10.904 -1.3894  0.4372 -1.2156
 5380SOL    HW227603   3.346   1.318  10.935 -0.3287  0.2955 -4.2993
 5381SOL     OW27604   1.462   4.416   6.892  0.0857  0.5592 -0.1223
 5381SOL    HW127605   1.369   4.438   6.895  0.3781  2.1943 -2.7658
 5381SOL    HW227606   1.487   4.413   6.984  2.3333 -3.8874 -0.8671
 5382SOL     OW27607   3.553   1.844  14.908  0.0592 -0.1151 -0.1545
 5382SOL    HW127608   3.606   1.841  14.828  2.3584 -2.4282  1.4275
 5382SOL    HW227609   3.476   1.894  14.881 -0.4269 -0.0682  1.3425
 5383SOL     OW27610   0.456   1.832  10.809 -0.7862 -0.6392  0.0278
 5383SOL    HW127611   0.513   1.789  10.746  0.2525  0.4050  0.2474
 5383SOL    HW227612   0.517   1.880  10.865 -0.2695 -0.6196 -0.5619
 5384SOL     OW27613   2.843   1.374   8.339  0.1432 -0.3833 -0.0398
 5384SOL    HW127614   2.812   1.454   8.297 -1.1790 -0.8207  0.0956
 5384SOL    HW227615   2.771   1.345   8.395 -0.0528 -1.5376 -0.8800
 5385SOL     OW27616   4.058   0.554   0.917 -0.1740 -0.3795  0.1866
 5385SOL    HW127617   4.110   0.497   0.975  2.0976  0.6190 -0.8764
 5385SOL    HW227618   3.973   0.563   0.960  0.4928  0.0925  1.4071
 5386SOL     OW27619   0.030   3.309  11.372  0.0930 -0.0086  0.5969
 5386SOL    HW127620   0.027   3.255  11.451 -0.6681 -0.4424  0.2728
 5386SOL    HW227621   0.072   3.383  11.416 -0.2981  0.3629  0.3416
 5387SOL     OW27622   1.259   4.640   6.177  0.2336  0.0309 -0.4337
 5387SOL    HW127623   1.342   4.680   6.152  0.1873 -0.6628 -1.7363
 5387SOL    HW227624   1.245   4.675   6.264 -0.1234  0.4811 -0.6748
 5388SOL     OW27625   1.339   0.279   7.005 -0.4371  0.5257 -0.2277
 5388SOL    HW127626   1.283   0.279   6.927  0.6645 -0.0625 -1.0238
 5388SOL    HW227627   1.296   0.349   7.053  4.7889  2.3680  1.7439
 5389SOL     OW27628   4.647   2.318  10.627 -0.1855 -0.3481  0.2193
 5389SOL    HW127629   4.697   2.257  10.573 -1.4907 -1.1233 -0.1134
 5389SOL    HW227630   4.623   2.382  10.560  1.8959 -1.4788 -1.6216
 5390SOL     OW27631   2.898   4.642   8.622 -0.5717 -0.3331 -0.4643
 5390SOL    HW127632   2.939   4.564   8.658  0.1208  0.4946  0.5360
 5390SOL    HW227633   2.809   4.613   8.607 -0.6706 -0.5444  0.5436
 5391SOL     OW27634   1.892   1.062   7.726  0.0538 -0.2853 -0.7939
 5391SOL    HW127635   1.976   1.106   7.712 -0.5464  1.3279  0.6871
 5391SOL    HW227636   1.911   1.028   7.814  0.7696  1.1571 -0.4032
 5392SOL     OW27637   0.873   2.273   2.296 -0.0419  0.3409  0.4591
 5392SOL    HW127638   0.799   2.329   2.273 -0.5985 -0.1104  1.1426
 5392SOL    HW227639   0.829   2.206   2.348  0.6521  0.4698  1.1980
 5393SOL     OW27640   2.777   2.101  13.371  0.0054  0.7182  0.1706
 5393SOL    HW127641   2.855   2.145  13.336 -0.0231 -0.8745 -1.9090
 5393SOL    HW227642   2.706   2.153  13.336 -1.2400  1.2784  3.5645
 5394SOL     OW27643   0.858   1.755   7.864  0.0459 -0.3944  0.0340
 5394SOL    HW127644   0.811   1.753   7.948  0.0616  1.3285  0.0784
 5394SOL    HW227645   0.828   1.672   7.826  1.8596 -1.6110  1.2501
 5395SOL     OW27646   2.389   3.147   6.482  0.4471 -0.4725 -0.5827
 5395SOL    HW127647   2.395   3.067   6.430 -2.3495 -1.2003  0.1869
 5395SOL    HW227648   2.382   3.104   6.568  2.3022 -0.1115 -0.2423
 5396SOL     OW27649   0.353   3.062   7.534 -0.1538 -0.1315 -0.2285
 5396SOL    HW127650   0.344   3.102   7.621  0.3878 -0.8843  0.1724
 5396SOL    HW227651   0.404   2.986   7.562  0.8179  1.0285  1.1289
 5397SOL     OW27652   0.533   0.218   4.805 -0.0113  0.1587  0.2938
 5397SOL    HW127653   0.527   0.123   4.811 -1.0699  0.2300  0.2677
 5397SOL    HW227654   0.491   0.244   4.887 -0.5223 -1.4590  0.5325
 5398SOL     OW27655   3.612   1.560   5.241  0.7668  0.0430  0.6045
 5398SOL    HW127656   3.619   1.596   5.152 -0.3972 -0.5214  0.2793
 5398SOL    HW227657   3.517   1.543   5.239  0.9339 -0.6405 -1.7890
 5399SOL     OW27658   2.883   1.984   5.033 -0.3136 -0.0453  0.2033
 5399SOL    HW127659   2.869   2.077   5.048 -0.5378  0.2966 -2.1681
 5399SOL    HW227660   2.833   1.947   5.106  0.5188  1.1683  1.3893
 5400SOL     OW27661   3.429   0.654   3.069  0.5612 -0.0152 -0.0771
 5400SOL    HW127662   3.463   0.647   2.980  0.1602  0.2421 -0.2547
 5400SOL    HW227663   3.440   0.749   3.079  0.3657 -0.0347  0.3283
 5401SOL     OW27664   1.060   1.059  15.961  0.1295 -0.1498 -0.1280
 5401SOL    HW127665   0.972   1.023  15.947 -0.2370  1.3640 -1.6543
 5401SOL    HW227666   1.109   0.984  15.994  0.0550  0.6458  1.7828
 5402SOL     OW27667   0.298   4.486   7.907  0.0311 -0.5331 -0.2805
 5402SOL    HW127668   0.254   4.550   7.850 -1.6625 -1.6042 -0.1636
 5402SOL    HW227669   0.354   4.542   7.961 -0.0719 -2.3136  1.6584
 5403SOL     OW27670   0.558   0.633  14.162 -0.7722  0.3793 -0.0748
 5403SOL    HW127671   0.492   0.581  14.208 -2.2945  1.8641 -0.5860
 5403SOL    HW227672   0.496   0.668  14.097 -1.8686 -0.4155  0.5507
 5404SOL     OW27673   4.146   1.973  16.911  0.0374 -0.5340 -0.0829
 5404SOL    HW127674   4.059   2.008  16.930  1.6259  2.8138  0.9595
 5404SOL    HW227675   4.209   2.032  16.953  0.0557 -2.6503  2.8682
 5405SOL     OW27676   0.872   1.968  13.483  0.0786  0.1565  0.2099
 5405SOL    HW127677   0.851   1.933  13.396  0.5998 -0.0762  0.1788
 5405SOL    HW227678   0.937   1.905  13.516 -0.3473 -1.0423 -1.2185
 5406SOL     OW27679   3.138   1.041  13.444 -0.3413 -0.1441  0.1435
 5406SOL    HW127680   3.105   0.959  13.407  0.2044  0.0737 -0.8602
 5406SOL    HW227681   3.221   1.064  13.400 -0.2165 -0.4684  0.2112
 5407SOL     OW27682   3.862   3.642   2.538  0.8496 -0.2219 -0.0448
 5407SOL    HW127683   3.875   3.621   2.445  2.0552  3.7685 -0.7868
 5407SOL    HW227684   3.766   3.637   2.535  0.8688 -1.5980  2.0574
 5408SOL     OW27685   1.284   1.664  13.972 -0.3693 -0.4279  0.2827
 5408SOL    HW127686   1.190   1.683  13.966 -0.0832  1.4667  1.7048
 5408SOL    HW227687   1.280   1.592  13.909  0.4804 -0.5479  0.3780
 5409SOL     OW27688   4.295   2.487   6.704  0.4326  0.5966  0.3496
 5409SOL    HW127689   4.279   2.543   6.628 -2.6433  0.4304  0.8542
 5409SOL    HW227690   4.363   2.542   6.742  0.3748  1.6270 -1.0338
 5410SOL     OW27691   2.832   3.961   2.738  0.2917  0.0002  0.5048
 5410SOL    HW127692   2.830   4.017   2.661  1.4004 -0.2708  0.2775
 5410SOL    HW227693   2.926   3.941   2.744 -0.2501 -2.8145 -0.3138
 5411SOL     OW27694   1.553   1.749   4.158  0.2495  0.2020 -0.2113
 5411SOL    HW127695   1.550   1.758   4.253  0.9989  1.3278 -0.2970
 5411SOL    HW227696   1.623   1.684   4.149 -1.9506 -2.1661 -0.3985
 5412SOL     OW27697   2.259   3.254   5.192 -0.2344 -0.2241  0.6040
 5412SOL    HW127698   2.333   3.314   5.200  0.0044 -0.6884  1.8037
 5412SOL    HW227699   2.230   3.255   5.283  1.1848 -3.1294  1.0681
 5413SOL     OW27700   1.652   0.899   2.754 -0.7267 -0.1950 -0.2635
 5413SOL    HW127701   1.742   0.930   2.765 -1.0911  0.0850  1.9453
 5413SOL    HW227702   1.646   0.899   2.659 -0.1206 -0.9151 -0.2990
 5414SOL     OW27703   0.187   2.219   9.374 -0.2402 -0.0137  0.3377
 5414SOL    HW127704   0.199   2.311   9.349 -0.7665 -0.0960 -0.2260
 5414SOL    HW227705   0.266   2.204   9.425 -0.2972  1.0689  0.7500
 5415SOL     OW27706   3.301   0.362   5.887  0.2820 -0.1669 -0.5624
 5415SOL    HW127707   3.347   0.391   5.965  0.7227 -0.7425 -0.6097
 5415SOL    HW227708   3.355   0.409   5.824 -1.8794  0.4298 -1.9673
 5416SOL     OW27709   2.546   0.856  15.830 -0.5714  0.2897 -0.1145
 5416SOL    HW127710   2.520   0.908  15.754  0.2420  1.1254  0.1892
 5416SOL    HW227711   2.592   0.923  15.879 -2.7910  0.6722  1.3957
 5417SOL     OW27712   1.622   2.006   6.993 -0.1258  0.7994 -0.2110
 5417SOL    HW127713   1.638   1.918   7.027  0.1707  1.7709  2.1294
 5417SOL    HW227714   1.597   2.052   7.073 -1.6088 -1.0114  0.3649
 5418SOL     OW27715   1.375   2.711  11.739 -0.5587 -0.1234 -0.0773
 5418SOL    HW127716   1.464   2.679  11.728 -0.5705  0.4558 -1.9597
 5418SOL    HW227717   1.351   2.645  11.804 -2.0639 -0.0830 -0.5911
 5419SOL     OW27718   2.069   2.208  12.939  0.0611  0.8430  0.3430
 5419SOL    HW127719   2.056   2.266  13.014  0.3413  0.4686  0.6848
 5419SOL    HW227720   2.053   2.122  12.977 -2.1031  0.7793 -0.7138
 5420SOL     OW27721   4.071   4.153  11.150 -0.0092 -0.6256  0.4125
 5420SOL    HW127722   4.126   4.229  11.135 -2.0434  1.1742  2.0059
 5420SOL    HW227723   4.049   4.121  11.063  2.1541  1.8346 -1.0358
 5421SOL     OW27724   2.692   3.691  17.431  0.2303 -0.0417  0.4876
 5421SOL    HW127725   2.632   3.755  17.393  1.3334 -0.4521 -1.9204
 5421SOL    HW227726   2.629   3.626  17.463 -1.1473  1.6231  1.1620
 5422SOL     OW27727   4.275   1.026  15.736  0.6612 -0.5158  0.2982
 5422SOL    HW127728   4.330   0.948  15.744 -2.5107 -2.8798 -1.2760
 5422SOL    HW227729   4.301   1.085  15.807 -0.5716  0.9132 -0.4300
 5423SOL     OW27730   3.850   1.771   0.547 -0.5445 -0.0293 -0.0092
 5423SOL    HW127731   3.838   1.864   0.530  0.2334  0.1410  0.3721
 5423SOL    HW227732   3.778   1.724   0.505 -0.5254  1.1163 -1.3196
 5424SOL     OW27733   4.088   3.881   3.194 -0.6035  0.2359  0.1851
 5424SOL    HW127734   4.002   3.877   3.152 -1.0945  1.6534  1.0488
 5424SOL    HW227735   4.084   3.814   3.262 -0.2440 -0.9896 -0.9934
 5425SOL     OW27736   4.122   4.518   7.259 -0.1625 -0.1205  0.3260
 5425SOL    HW127737   4.037   4.477   7.243  0.6850 -1.7233 -0.0784
 5425SOL    HW227738   4.169   4.490   7.180 -1.2518  1.5039 -0.8876
 5426SOL     OW27739   2.191   0.715   6.072  0.5268 -0.1828 -0.0103
 5426SOL    HW127740   2.135   0.782   6.111 -0.8705 -0.7841 -1.0027
 5426SOL    HW227741   2.278   0.748   6.094  0.1574  2.2542 -2.2805
 5427SOL     OW27742   4.362   2.176   4.007  0.2977 -0.0705 -0.3820
 5427SOL    HW127743   4.454   2.199   4.020  0.5216 -0.6920 -0.8821
 5427SOL    HW227744   4.359   2.083   4.032 -0.1930 -0.1935 -0.9118
 5428SOL     OW27745   2.620   4.548   5.481 -0.0142 -0.5126 -0.4779
 5428SOL    HW127746   2.690   4.611   5.500 -0.1582 -0.3299 -0.5552
 5428SOL    HW227747   2.614   4.498   5.562 -1.0449 -1.3120 -1.0487
 5429SOL     OW27748   0.187   1.302   9.906 -0.0373  0.1631  0.6296
 5429SOL    HW127749   0.097   1.332   9.890 -0.1733 -1.2522 -1.2066
 5429SOL    HW227750   0.217   1.381   9.952  1.3323  0.6285 -1.0965
 5430SOL     OW27751   3.319   4.291  12.765  0.0916  0.3628 -0.0390
 5430SOL    HW127752   3.275   4.266  12.847  0.5134 -0.8921 -0.1927
 5430SOL    HW227753   3.388   4.226  12.780  0.2127  0.6179  0.5259
 5431SOL     OW27754   4.187   0.347  13.896 -0.4702  0.1899  0.1272
 5431SOL    HW127755   4.221   0.283  13.960  2.0525  0.6451 -0.7449
 5431SOL    HW227756   4.258   0.409  13.879 -0.8734  0.9261  1.1247
 5432SOL     OW27757   1.945   3.072   6.052  0.4951  0.3163 -0.3365
 5432SOL    HW127758   1.920   3.040   5.965  1.2441 -1.0912 -0.0322
 5432SOL    HW227759   1.923   3.165   6.046 -0.1740  0.1178 -0.8960
 5433SOL     OW27760   2.277   2.237   3.106  0.0454 -0.4366  0.6178
 5433SOL    HW127761   2.255   2.275   3.191 -2.5796  1.0744 -0.7260
 5433SOL    HW227762   2.307   2.151   3.136  2.8233  0.5724  0.7502
 5434SOL     OW27763   3.084   1.730   7.871  0.0866  0.3884  0.1168
 5434SOL    HW127764   3.002   1.727   7.823 -1.5583 -0.6012  2.9841
 5434SOL    HW227765   3.123   1.645   7.849 -0.9871 -0.4009  1.2625
 5435SOL     OW27766   4.031   4.112  13.537 -0.2010 -0.1671  0.6808
 5435SOL    HW127767   3.939   4.129  13.559  0.3263  0.6527  2.1939
 5435SOL    HW227768   4.064   4.096  13.625  1.5564  0.3040  0.0972
 5436SOL     OW27769   3.858   4.467   7.175  0.4307 -0.2992  0.1412
 5436SOL    HW127770   3.911   4.401   7.130  0.6463  0.3864 -0.6050
 5436SOL    HW227771   3.789   4.471   7.108  0.6974  2.5935  0.0518
 5437SOL     OW27772   0.417   3.227  12.800 -0.3762  0.3990  0.4245
 5437SOL    HW127773   0.369   3.196  12.877  1.2651  1.3047  1.8292
 5437SOL    HW227774   0.470   3.294  12.843 -0.7437  2.0602 -1.7765
 5438SOL     OW27775   0.311   2.112   9.722 -0.2097 -0.7029  0.3588
 5438SOL    HW127776   0.336   2.112   9.815 -0.8992 -1.7020  0.5410
 5438SOL    HW227777   0.271   2.026   9.709 -1.6261  0.3557 -2.2424
 5439SOL     OW27778   3.632   3.284  14.593 -0.1990 -0.3642 -0.5463
 5439SOL    HW127779   3.697   3.345  14.628 -0.8246 -0.4587  0.7776
 5439SOL    HW227780   3.622   3.306  14.501 -2.1035 -1.7686 -0.6660
 5440SOL     OW27781   3.163   3.042   2.157  0.4748  0.0331 -0.0435
 5440SOL    HW127782   3.191   3.006   2.241  1.8110  2.2866  0.4660
 5440SOL    HW227783   3.243   3.035   2.105  0.2727  0.7099 -0.4432
 5441SOL     OW27784   4.164   1.718   6.789 -0.3270 -0.3440 -0.3673
 5441SOL    HW127785   4.111   1.661   6.733 -0.6198 -1.1814  0.7530
 5441SOL    HW227786   4.125   1.703   6.876 -1.5396  0.1956 -0.8063
 5442SOL     OW27787   4.533   3.988   5.211  0.3363  0.4662 -0.0274
 5442SOL    HW127788   4.574   4.034   5.138  0.0796 -0.2536 -0.6253
 5442SOL    HW227789   4.609   3.938   5.242 -1.0651 -0.7607  1.4345
 5443SOL     OW27790   2.750   2.757   5.264 -0.0897  0.4368  0.3059
 5443SOL    HW127791   2.661   2.776   5.235 -0.4474 -1.5261  0.1706
 5443SOL    HW227792   2.789   2.844   5.249  2.9813 -0.9652  0.1437
 5444SOL     OW27793   3.295   0.612  16.826  0.0191 -0.0544  0.5348
 5444SOL    HW127794   3.319   0.679  16.762  2.3044 -2.1256 -0.7690
 5444SOL    HW227795   3.211   0.646  16.859 -0.3934  0.7474 -1.3359
 5445SOL     OW27796   3.934   2.324   1.580 -0.4754 -0.6460  0.3186
 5445SOL    HW127797   4.019   2.361   1.601 -0.6528  0.6529 -1.2800
 5445SOL    HW227798   3.920   2.344   1.488 -0.7372 -3.0206 -0.1709
 5446SOL     OW27799   0.993   0.020   4.575  0.5248 -0.0252 -0.4102
 5446SOL    HW127800   1.074   4.695   4.600 -1.2937 -1.2567  3.1420
 5446SOL    HW227801   0.941   4.710   4.649 -0.5027  0.1096 -1.0708
 5447SOL     OW27802   4.229   2.595   4.412  0.2309 -0.1457  0.4695
 5447SOL    HW127803   4.302   2.534   4.413 -1.5533 -2.3127 -0.6981
 5447SOL    HW227804   4.268   2.673   4.374  0.9935 -0.9411 -0.3844
 5448SOL     OW27805   2.010   2.317  13.417 -0.1502 -0.3976  0.3455
 5448SOL    HW127806   1.967   2.232  13.431 -1.6902  0.2643 -0.4120
 5448SOL    HW227807   2.037   2.348  13.503  0.2374 -0.2234  0.1637
 5449SOL     OW27808   1.212   1.717   9.061 -0.2584  0.3042  0.0994
 5449SOL    HW127809   1.155   1.653   9.017  1.8568 -2.6334  1.6595
 5449SOL    HW227810   1.250   1.669   9.134  1.0621  1.5194  0.2006
 5450SOL     OW27811   0.498   4.589   7.564  0.2110 -0.3198 -0.0691
 5450SOL    HW127812   0.425   4.589   7.502  1.2351  0.9868 -1.2805
 5450SOL    HW227813   0.474   4.514   7.618  0.1768 -0.5987 -0.4713
 5451SOL     OW27814   2.975   1.371   3.808  0.5608 -0.1137  0.3056
 5451SOL    HW127815   2.972   1.429   3.732  0.0781 -0.8187 -0.2308
 5451SOL    HW227816   3.023   1.299   3.767 -0.5303 -0.5981 -0.1421
 5452SOL     OW27817   2.876   4.202  12.173 -0.1235 -0.6062  0.4008
 5452SOL    HW127818   2.858   4.143  12.100  2.4096  1.5569 -1.9734
 5452SOL    HW227819   2.898   4.152  12.252  0.3426 -0.7703  0.1715
 5453SOL     OW27820   4.382   2.768   8.069 -0.2757 -0.3002  0.1534
 5453SOL    HW127821   4.304   2.727   8.033  0.7228  0.0699 -2.4431
 5453SOL    HW227822   4.376   2.842   8.009 -1.7389  1.1213  2.0666
 5454SOL     OW27823   1.200   1.336   0.084 -0.0298  0.1545  0.7310
 5454SOL    HW127824   1.178   1.289   0.003  0.9292  2.0389 -0.6215
 5454SOL    HW227825   1.214   1.425   0.052  1.1517  0.7234  2.8806
 5455SOL     OW27826   0.882   2.675   8.778 -0.3428  0.1741  0.2884
 5455SOL    HW127827   0.969   2.716   8.781  0.4386 -1.4504 -0.3628
 5455SOL    HW227828   0.901   2.586   8.806  0.7924  0.2314 -0.3138
 5456SOL     OW27829   0.011   1.867   1.488  0.2724  0.0888 -0.2666
 5456SOL    HW127830   0.107   1.867   1.491  0.2511  3.0977  0.4420
 5456SOL    HW227831   0.007   1.850   1.393  1.2733 -0.5108 -0.1946
 5457SOL     OW27832   4.506   2.900   1.959 -0.0784 -0.4565 -0.3018
 5457SOL    HW127833   4.555   2.818   1.955  1.0077  0.1940 -0.2564
 5457SOL    HW227834   4.423   2.878   1.915  0.2218 -0.7012 -0.7466
 5458SOL     OW27835   0.323   2.631  16.669 -0.0763 -0.4619 -0.4433
 5458SOL    HW127836   0.373   2.642  16.588 -1.5284 -2.3190 -1.6080
 5458SOL    HW227837   0.246   2.601  16.620  0.7518 -1.8555 -0.8836
 5459SOL     OW27838   3.540   1.271  14.103  0.2241  0.5514  0.2174
 5459SOL    HW127839   3.601   1.234  14.038  0.4032 -0.7168  1.1128
 5459SOL    HW227840   3.502   1.194  14.146 -2.2782  1.1376 -0.9172
 5460SOL     OW27841   2.646   1.166   7.231 -0.6127  0.0573  1.0885
 5460SOL    HW127842   2.729   1.131   7.200 -0.1067  1.1771  1.1912
 5460SOL    HW227843   2.614   1.194   7.146 -1.1693  0.1225  1.3173
 5461SOL     OW27844   0.164   4.600   5.136 -0.3081 -0.2278 -0.2236
 5461SOL    HW127845   0.219   4.527   5.164 -0.8121 -1.8872 -3.6000
 5461SOL    HW227846   0.184   4.603   5.043 -2.5691 -2.0760 -0.7632
 5462SOL     OW27847   2.682   1.131  14.454 -0.1788  0.1590  0.2412
 5462SOL    HW127848   2.774   1.117  14.479  1.0205  1.9348 -3.1544
 5462SOL    HW227849   2.664   1.042  14.425 -1.7033  1.0555 -1.6133
 5463SOL     OW27850   0.809   1.356   2.807  0.2854  0.0964 -0.4544
 5463SOL    HW127851   0.889   1.304   2.808 -0.0983 -0.5238 -1.9884
 5463SOL    HW227852   0.753   1.310   2.870  1.2989  0.2310  0.5488
 5464SOL     OW27853   4.201   0.172   9.377 -0.1172 -0.1816  0.0524
 5464SOL    HW127854   4.165   0.127   9.453 -0.7567  2.4542  1.2791
 5464SOL    HW227855   4.196   0.259   9.416 -1.6728 -0.0650 -0.4239
 5465SOL     OW27856   2.690   1.297   6.388 -0.0228 -0.0618  0.2378
 5465SOL    HW127857   2.771   1.334   6.423  0.1767 -1.1071  0.8790
 5465SOL    HW227858   2.719   1.267   6.301 -0.4700  0.6435 -0.1517
 5466SOL     OW27859   3.841   0.757   9.797  0.3251 -0.0512  0.1022
 5466SOL    HW127860   3.875   0.813   9.727 -0.1530  1.5976  1.2026
 5466SOL    HW227861   3.911   0.742   9.860  1.7711  0.0687 -1.4769
 5467SOL     OW27862   2.881   2.113   3.015 -0.2971 -0.1585 -0.0096
 5467SOL    HW127863   2.848   2.093   2.927 -1.8642 -0.4077  0.6439
 5467SOL    HW227864   2.888   2.208   3.010  0.9669 -0.1893  1.2641
 5468SOL     OW27865   1.619   3.577   5.303 -0.0808  0.5008 -0.5858
 5468SOL    HW127866   1.585   3.524   5.375  1.3581 -0.1124 -0.3524
 5468SOL    HW227867   1.702   3.531   5.287  0.7394  1.5217  0.7651
 5469SOL     OW27868   3.239   4.022   0.972  0.1411  0.6885 -0.7483
 5469SOL    HW127869   3.155   4.028   1.016  0.3988 -0.1512 -0.1340
 5469SOL    HW227870   3.270   4.096   1.024  2.5867 -0.2924 -0.8001
 5470SOL     OW27871   2.354   2.189  17.529  0.1069  0.0217  0.1433
 5470SOL    HW127872   2.315   2.210  17.444  0.5807 -0.7182 -0.2602
 5470SOL    HW227873   2.341   2.265  17.586  0.4967 -1.0550  1.6733
 5471SOL     OW27874   3.216   3.313   8.372  0.6890 -0.0653  0.2772
 5471SOL    HW127875   3.177   3.369   8.305 -1.1438  0.2612  1.6344
 5471SOL    HW227876   3.275   3.376   8.414  2.0160 -0.9765 -0.2185
 5472SOL     OW27877   1.465   0.734  16.186  0.0556  0.5471 -0.8151
 5472SOL    HW127878   1.517   0.663  16.223  0.1801  0.4252 -1.2200
 5472SOL    HW227879   1.442   0.693  16.103 -1.8886  0.9702 -0.4732
 5473SOL     OW27880   3.736   2.910   2.934 -0.0180 -0.3891  0.2017
 5473SOL    HW127881   3.796   2.860   2.988  1.1476 -2.0265 -2.6026
 5473SOL    HW227882   3.651   2.874   2.960  0.3508 -0.8167  0.7981
 5474SOL     OW27883   0.023   1.114   4.862 -0.1426 -0.3775  0.2338
 5474SOL    HW127884   4.654   1.088   4.837 -0.3550 -1.5334  2.1172
 5474SOL    HW227885   0.075   1.094   4.785  0.4474 -0.1025  0.5554
 5475SOL     OW27886   3.205   4.014  16.254 -0.0942 -0.1674 -0.2730
 5475SOL    HW127887   3.226   4.104  16.227 -1.9451 -0.6489 -3.2347
 5475SOL    HW227888   3.243   4.004  16.341 -3.1797  0.8401  1.2116
 5476SOL     OW27889   3.113   1.709  11.931  0.2748  0.1354 -0.4444
 5476SOL    HW127890   3.206   1.732  11.935  0.0250  0.8485  1.2839
 5476SOL    HW227891   3.090   1.680  12.019  1.2018  0.0984 -0.2169
 5477SOL     OW27892   2.452   0.811   2.320  0.2456 -0.3936  0.1893
 5477SOL    HW127893   2.456   0.762   2.238 -0.5020 -2.3016  1.2895
 5477SOL    HW227894   2.358   0.796   2.337  0.3509  0.1900  1.2670
 5478SOL     OW27895   2.748   3.549  16.318 -0.0001  0.1534 -0.1557
 5478SOL    HW127896   2.682   3.612  16.346  0.1532  2.2264 -4.5912
 5478SOL    HW227897   2.781   3.581  16.234 -1.1196 -0.8125 -0.9620
 5479SOL     OW27898   3.034   2.108   8.687 -0.4079 -0.3793 -0.2866
 5479SOL    HW127899   2.941   2.088   8.698 -0.4168 -0.1553  0.0663
 5479SOL    HW227900   3.026   2.200   8.712 -0.2656 -0.1696 -1.0194
 5480SOL     OW27901   1.569   4.449   7.612  0.5762  0.8716  0.1204
 5480SOL    HW127902   1.658   4.430   7.643  0.7422  0.8276 -0.3828
 5480SOL    HW227903   1.576   4.450   7.517 -2.0259  2.7199 -0.0574
 5481SOL     OW27904   4.543   1.600   3.909  0.4478 -0.4177 -0.4190
 5481SOL    HW127905   4.597   1.562   3.840 -0.1946  1.0762 -1.7528
 5481SOL    HW227906   4.484   1.658   3.860  0.1853 -2.3879 -2.4241
 5482SOL     OW27907   1.284   4.151   2.912 -0.0640 -1.0914  0.1107
 5482SOL    HW127908   1.275   4.219   2.845 -0.6599 -0.4289  0.8766
 5482SOL    HW227909   1.366   4.183   2.948 -0.3948  1.1945 -1.1582
 5483SOL     OW27910   2.109   4.381  10.420  0.1137 -0.2139 -0.1070
 5483SOL    HW127911   2.189   4.396  10.471  1.1770  1.2390 -2.1943
 5483SOL    HW227912   2.112   4.461  10.368  1.1524 -0.6207 -0.6892
 5484SOL     OW27913   3.772   2.125   5.307 -0.3052  0.0907 -0.0472
 5484SOL    HW127914   3.867   2.126   5.298 -0.2724 -0.2827  0.2235
 5484SOL    HW227915   3.759   2.052   5.369 -0.5578  1.5186  1.5843
 5485SOL     OW27916   4.510   2.267   5.763 -0.7323  0.6553 -0.6549
 5485SOL    HW127917   4.580   2.240   5.705  0.4918 -0.5733  1.3868
 5485SOL    HW227918   4.514   2.203   5.835  1.9027 -0.5994 -1.9419
 5486SOL     OW27919   1.873   0.896   3.690 -0.0118  0.3865 -0.3365
 5486SOL    HW127920   1.878   0.984   3.653 -0.2772  0.9750  1.0658
 5486SOL    HW227921   1.880   0.839   3.613  0.5500  1.1941 -0.8896
 5487SOL     OW27922   1.772   2.121  15.202  0.2247 -0.2198  0.0608
 5487SOL    HW127923   1.799   2.037  15.165  0.3597 -0.5028  0.7925
 5487SOL    HW227924   1.704   2.083  15.259 -1.3410  1.7702 -0.5051
 5488SOL     OW27925   2.525   2.099   5.540 -0.0703 -0.1024 -0.6124
 5488SOL    HW127926   2.596   2.040   5.565  0.4859  1.6426  1.8750
 5488SOL    HW227927   2.520   2.101   5.444  1.4110 -0.5020 -0.7044
 5489SOL     OW27928   1.183   2.368  15.896  0.5198 -0.3948  0.0156
 5489SOL    HW127929   1.176   2.283  15.854 -2.6064 -0.5735  0.8221
 5489SOL    HW227930   1.090   2.393  15.904  1.1185  1.8820 -0.2207
 5490SOL     OW27931   2.210   2.938  15.296 -0.0483 -0.2049  0.5551
 5490SOL    HW127932   2.120   2.967  15.278 -0.3096 -1.5966 -0.4159
 5490SOL    HW227933   2.240   2.912  15.208 -1.4782 -0.3172  0.0912
 5491SOL     OW27934   3.480   1.975   1.647  0.1207  0.2445 -0.1539
 5491SOL    HW127935   3.399   1.987   1.597 -0.1928 -1.7466 -0.1132
 5491SOL    HW227936   3.542   2.020   1.590 -0.4268  1.4597  0.2131
 5492SOL     OW27937   3.450   4.613   2.390 -0.2126  0.0702  0.2711
 5492SOL    HW127938   3.441   4.604   2.485  0.2125 -0.3550  0.2744
 5492SOL    HW227939   3.538   4.574   2.382 -1.2678 -1.7891 -2.3394
 5493SOL     OW27940   1.088   0.614   6.936 -0.2033  0.1471  0.1278
 5493SOL    HW127941   1.054   0.575   6.855  0.3770  1.0114 -0.5409
 5493SOL    HW227942   1.007   0.662   6.954  0.4392  0.1037  3.0675
 5494SOL     OW27943   0.969   2.640   9.670 -0.4285  0.0566  0.0761
 5494SOL    HW127944   1.043   2.686   9.709 -0.0253 -0.3012 -0.2688
 5494SOL    HW227945   0.960   2.562   9.725  1.4466  0.0232  0.3513
 5495SOL     OW27946   0.279   0.853   5.305  1.0183 -0.3542 -0.6069
 5495SOL    HW127947   0.255   0.835   5.396  3.8822 -1.6113 -0.0966
 5495SOL    HW227948   0.196   0.847   5.258 -0.0141  1.1973  1.0121
 5496SOL     OW27949   3.346   0.761  12.630  0.6555  0.2372 -0.2464
 5496SOL    HW127950   3.263   0.748  12.583  0.7852  2.1570 -1.0067
 5496SOL    HW227951   3.380   0.842  12.592  1.1059 -0.9394 -2.3605
 5497SOL     OW27952   0.700   0.055   8.873  0.5402  0.0058  0.5840
 5497SOL    HW127953   0.625   4.715   8.882  1.9855 -1.6998  1.4458
 5497SOL    HW227954   0.701   0.083   8.965 -3.3561  1.2907  0.2299
 5498SOL     OW27955   4.580   3.712   7.975  0.2392 -0.4316  0.2334
 5498SOL    HW127956   4.608   3.740   8.062 -1.5918 -0.4744  0.8272
 5498SOL    HW227957   4.507   3.770   7.952  1.8226  1.8797  0.9662
 5499SOL     OW27958   3.195   1.140   1.503  0.6587  0.2672 -0.4076
 5499SOL    HW127959   3.213   1.150   1.596  2.3813 -1.1313 -0.6068
 5499SOL    HW227960   3.118   1.194   1.486  1.2752  0.6651 -1.9954
 5500SOL     OW27961   4.629   2.690   1.655 -0.0576  0.8079 -0.3333
 5500SOL    HW127962   4.545   2.661   1.689  0.9010 -0.6172  0.8319
 5500SOL    HW227963   4.612   2.784   1.650 -1.6191  0.5340  0.0235
 5501SOL     OW27964   4.028   1.890   3.908  0.2699 -0.2360  0.3576
 5501SOL    HW127965   4.053   1.977   3.939 -1.0632 -0.2342  1.4469
 5501SOL    HW227966   3.938   1.908   3.880 -0.7011 -0.3078  3.3722
 5502SOL     OW27967   1.801   3.325   9.189 -0.0946  0.1648 -0.0253
 5502SOL    HW127968   1.803   3.230   9.189  1.9794  0.2074  4.3656
 5502SOL    HW227969   1.895   3.341   9.179  0.0016 -1.0631 -1.0084
 5503SOL     OW27970   1.623   2.274   4.450  0.4834 -0.3530  0.0874
 5503SOL    HW127971   1.653   2.235   4.367  2.4693 -0.6552  0.9619
 5503SOL    HW227972   1.708   2.275   4.494  1.2844 -0.0142 -1.4424
 5504SOL     OW27973   3.035   2.589   8.486 -0.3558  0.4726 -0.4720
 5504SOL    HW127974   3.047   2.658   8.552  3.6779 -0.9257  0.2557
 5504SOL    HW227975   3.102   2.529   8.516  2.2676  2.5715 -2.1360
 5505SOL     OW27976   3.591   0.948  16.089 -0.0602  0.2667 -0.3688
 5505SOL    HW127977   3.664   0.935  16.150 -0.6993  3.0146  0.9764
 5505SOL    HW227978   3.562   0.857  16.087 -0.1687  0.3087 -0.6279
 5506SOL     OW27979   4.218   4.029  16.412  0.1925 -0.0369  0.1085
 5506SOL    HW127980   4.188   3.948  16.372 -0.9408  1.2153 -1.5373
 5506SOL    HW227981   4.224   3.992  16.501 -0.2380  0.3690  0.3057
 5507SOL     OW27982   1.596   2.357   0.526 -0.2576  0.1619  0.2232
 5507SOL    HW127983   1.668   2.328   0.469 -0.2059 -0.2268  0.4932
 5507SOL    HW227984   1.514   2.329   0.484  0.1278 -2.2470  1.1101
 5508SOL     OW27985   1.541   3.496   9.083  0.4824 -0.6933  0.8100
 5508SOL    HW127986   1.600   3.434   9.040  1.1534 -0.2734  1.1247
 5508SOL    HW227987   1.579   3.523   9.166 -0.1974  1.1409  0.5267
 5509SOL     OW27988   4.378   1.274   4.568 -0.2272  0.3721  0.1249
 5509SOL    HW127989   4.374   1.303   4.476  1.8136  0.4787  0.0648
 5509SOL    HW227990   4.404   1.356   4.610 -1.3641  1.7219 -1.7859
 5510SOL     OW27991   0.849   0.915   0.424 -0.2691 -0.2734  0.0354
 5510SOL    HW127992   0.801   0.926   0.506  0.9939 -0.8882  0.8591
 5510SOL    HW227993   0.779   0.940   0.364  3.0336 -1.5757 -4.3379
 5511SOL     OW27994   1.344   3.522   2.349  0.5039 -0.2341 -0.2279
 5511SOL    HW127995   1.311   3.454   2.291 -1.4996  0.3058  0.3008
 5511SOL    HW227996   1.262   3.563   2.374  0.6871  0.0810 -0.1423
 5512SOL     OW27997   0.544   4.669   4.531 -0.1846 -0.1141 -0.1006
 5512SOL    HW127998   0.580   0.036   4.547 -0.3343  0.3428 -2.2541
 5512SOL    HW227999   0.570   4.655   4.440 -2.1312 -1.4023 -0.4706
 5513SOL     OW28000   4.257   3.331   6.367  0.1953  0.5728 -0.4322
 5513SOL    HW128001   4.335   3.321   6.420 -1.2571 -1.9716  1.1966
 5513SOL    HW228002   4.302   3.333   6.283  0.4558  2.1243 -0.2585
 5514SOL     OW28003   0.949   3.785   9.203  0.1470 -0.4101  0.1526
 5514SOL    HW128004   0.891   3.847   9.159 -0.3341 -0.8944  0.1045
 5514SOL    HW228005   1.031   3.799   9.156 -1.6442  2.3866 -2.0877
 5515SOL     OW28006   1.290   3.633   5.503 -0.1117 -0.2827 -0.5365
 5515SOL    HW128007   1.290   3.561   5.440 -1.9138 -0.2667 -0.5759
 5515SOL    HW228008   1.228   3.690   5.456  1.0373  1.8012  0.4609
 5516SOL     OW28009   2.716   1.084   8.139  0.1979  0.4357  0.5460
 5516SOL    HW128010   2.695   0.994   8.165  0.8085 -0.2131 -1.1636
 5516SOL    HW228011   2.636   1.120   8.176 -0.2495 -1.0541  1.0350
 5517SOL     OW28012   0.018   3.587  13.913 -0.0700 -0.0774 -0.2244
 5517SOL    HW128013   0.071   3.649  13.862 -1.2992  0.7414 -0.4990
 5517SOL    HW228014   0.035   3.629  13.997  0.3515 -0.6317 -0.0309
 5518SOL     OW28015   3.540   0.555  12.452  0.2365 -0.0475 -0.1095
 5518SOL    HW128016   3.592   0.475  12.453  0.9823  0.4544  0.9492
 5518SOL    HW228017   3.499   0.538  12.537 -0.1836  1.4907 -0.0019
 5519SOL     OW28018   0.754   2.343   9.222  0.0934  0.0710 -0.3326
 5519SOL    HW128019   0.836   2.295   9.235 -1.2526 -2.0499  0.2975
 5519SOL    HW228020   0.795   2.423   9.189  1.2497 -0.9613 -1.4062
 5520SOL     OW28021   1.034   1.391   3.433 -0.7568 -0.4964 -0.2252
 5520SOL    HW128022   1.042   1.299   3.408  1.6855  0.5801 -3.3882
 5520SOL    HW228023   1.124   1.403   3.463 -0.0766 -2.6280 -1.4291
 5521SOL     OW28024   2.759   4.118   4.748  0.1835  0.1305 -0.1109
 5521SOL    HW128025   2.821   4.071   4.691 -0.1404  1.0125 -1.1899
 5521SOL    HW228026   2.808   4.199   4.734  2.1840 -0.9879  0.3887
 5522SOL     OW28027   1.084   1.946   7.923 -0.0955  0.0623 -0.2318
 5522SOL    HW128028   1.011   1.887   7.939  0.5126 -1.0145 -1.4452
 5522SOL    HW228029   1.127   1.893   7.857 -0.9980  0.3030 -1.0119
 5523SOL     OW28030   2.051   3.115   4.461  0.0687 -0.0958 -0.2067
 5523SOL    HW128031   2.055   3.117   4.556  1.3016 -0.4290 -0.2488
 5523SOL    HW228032   2.059   3.020   4.446 -0.1293 -0.4068  1.7281
 5524SOL     OW28033   2.130   1.750   2.410  1.0313  0.1722  0.3389
 5524SOL    HW128034   2.132   1.846   2.413 -2.0842  0.3645 -3.2458
 5524SOL    HW228035   2.224   1.737   2.424  1.6217  1.7836 -1.9271
 5525SOL     OW28036   2.937   0.030   4.060 -0.1585 -0.1052 -0.7766
 5525SOL    HW128037   2.872   4.692   4.100 -0.8841  1.3298  0.1299
 5525SOL    HW228038   2.993   0.064   4.130 -0.5384 -2.8772  0.8477
 5526SOL     OW28039   1.998   2.727   5.263  0.0141 -0.4979  0.2168
 5526SOL    HW128040   1.932   2.672   5.221 -0.4704  1.1732 -1.1868
 5526SOL    HW228041   2.073   2.692   5.215  0.2325  2.6788 -1.6985
 5527SOL     OW28042   0.029   3.304  15.291 -0.3463  0.3099  0.3420
 5527SOL    HW128043   0.091   3.266  15.230 -0.3520  0.2954  0.3450
 5527SOL    HW228044   4.714   3.227  15.337  1.5736 -1.3070 -0.9427
 5528SOL     OW28045   1.093   3.130   5.450 -1.2207  0.1671 -0.3408
 5528SOL    HW128046   1.118   3.201   5.508 -0.1779  0.8303 -1.6114
 5528SOL    HW228047   1.177   3.088   5.430  0.4426  3.8408 -0.9178
 5529SOL     OW28048   1.539   1.142   4.343 -0.5622  0.1202 -0.2038
 5529SOL    HW128049   1.510   1.232   4.329  0.6304  0.5461  0.0618
 5529SOL    HW228050   1.499   1.099   4.268 -0.8643  0.4740 -0.2460
 5530SOL     OW28051   2.014   2.164  10.915  0.1580  0.0748 -0.1804
 5530SOL    HW128052   2.055   2.087  10.876 -2.9194 -0.8908 -1.4737
 5530SOL    HW228053   2.005   2.226  10.842 -3.4229 -0.6100 -0.3396
 5531SOL     OW28054   0.123   0.720   3.454 -0.3199  0.1606  0.0102
 5531SOL    HW128055   0.044   0.694   3.502  0.5110 -0.9315  0.7707
 5531SOL    HW228056   0.195   0.671   3.492 -0.8251 -0.4306  0.2083
 5532SOL     OW28057   1.068   3.101   0.807  0.2346 -0.1048 -0.2948
 5532SOL    HW128058   1.067   3.086   0.901 -0.6391 -1.3876 -0.5098
 5532SOL    HW228059   1.107   3.018   0.779 -0.2484  0.1185 -1.6393
 5533SOL     OW28060   3.019   2.466   5.305  0.2821 -0.4701  0.0976
 5533SOL    HW128061   3.087   2.522   5.344 -0.5286  0.4796  0.1612
 5533SOL    HW228062   3.003   2.413   5.383  1.0339 -1.0079 -0.1181
 5534SOL     OW28063   4.216   4.663   2.505 -0.1958  0.1212  0.1711
 5534SOL    HW128064   4.145   0.004   2.522  0.1782  0.8293 -0.7705
 5534SOL    HW228065   4.198   4.587   2.561  1.0060 -0.7746 -0.6479
 5535SOL     OW28066   2.037   3.799   0.660 -0.1553  0.0015 -0.6818
 5535SOL    HW128067   1.946   3.790   0.689 -0.1758  0.5137 -0.5936
 5535SOL    HW228068   2.005   3.826   0.574 -0.5254  0.5189 -0.3824
 5536SOL     OW28069   4.329   0.647   6.517  0.4693  1.3289  0.2631
 5536SOL    HW128070   4.309   0.578   6.581 -0.4485 -0.7826 -2.3052
 5536SOL    HW228071   4.414   0.677   6.551  2.5438 -3.0725 -0.9613
 5537SOL     OW28072   3.653   3.244   6.757  0.0856  0.2891  0.1297
 5537SOL    HW128073   3.635   3.309   6.689 -0.0159 -0.0895 -0.2058
 5537SOL    HW228074   3.562   3.238   6.786 -0.3909  1.2213 -1.1871
 5538SOL     OW28075   3.725   0.659   6.357  0.5125  0.0771 -0.0574
 5538SOL    HW128076   3.740   0.740   6.309  2.3769  0.2432  0.8120
 5538SOL    HW228077   3.817   0.637   6.376  0.7695 -0.0699 -1.4682
 5539SOL     OW28078   4.684   2.601   0.453 -0.3877 -0.4634 -0.2691
 5539SOL    HW128079   0.051   2.560   0.449 -1.1774 -2.2945  1.3584
 5539SOL    HW228080   4.707   2.694   0.452 -0.7322 -0.3849 -1.1396
 5540SOL     OW28081   2.496   0.481  11.868  0.2540  0.1757  0.3072
 5540SOL    HW128082   2.505   0.389  11.845 -0.3448  0.0364  0.6364
 5540SOL    HW228083   2.404   0.494  11.893  0.2261  1.1243 -0.2677
 5541SOL     OW28084   3.953   4.643   2.253 -0.6679  0.4126 -0.5959
 5541SOL    HW128085   3.860   4.623   2.241 -0.7328  0.5948 -0.4057
 5541SOL    HW228086   3.944   4.662   2.346 -1.3320 -1.9936 -0.1783
 5542SOL     OW28087   0.626   1.596   6.361  0.0258 -0.3582 -0.3492
 5542SOL    HW128088   0.599   1.683   6.390 -1.5751 -0.6824 -0.8496
 5542SOL    HW228089   0.716   1.587   6.391  1.0423  2.1271 -2.6433
 5543SOL     OW28090   3.099   1.990   6.297 -0.6458 -0.0768  0.3529
 5543SOL    HW128091   3.184   2.027   6.322 -0.8215  1.7083 -1.7087
 5543SOL    HW228092   3.103   1.980   6.202 -0.3115 -1.5624  0.5291
 5544SOL     OW28093   0.141   4.549  16.642  0.0888 -0.1931  0.9365
 5544SOL    HW128094   0.095   4.505  16.714 -2.6046 -0.4291 -0.9037
 5544SOL    HW228095   0.189   4.618  16.687  2.7530 -0.9922 -0.7290
 5545SOL     OW28096   0.029   2.325   1.839 -0.4149 -0.2742  0.7719
 5545SOL    HW128097   4.710   2.237   1.829 -0.3821 -0.1058 -0.6945
 5545SOL    HW228098   4.692   2.352   1.912 -1.4658 -0.6894  0.1098
 5546SOL     OW28099   3.182   2.758  12.772 -0.9484 -0.4310 -0.1608
 5546SOL    HW128100   3.210   2.773  12.681  1.7049  1.2543  0.9398
 5546SOL    HW228101   3.165   2.847  12.803  0.7130 -0.3726  0.5844
 5547SOL     OW28102   2.734   1.503   4.930 -0.2713  0.5565 -0.2646
 5547SOL    HW128103   2.746   1.434   4.995 -2.1660  1.5953  1.1657
 5547SOL    HW228104   2.643   1.527   4.947 -0.4048  2.1971 -3.2305
 5548SOL     OW28105   0.706   1.499   3.979  0.2934  0.1425 -0.3275
 5548SOL    HW128106   0.653   1.500   3.899  0.1213  1.8264 -0.1967
 5548SOL    HW228107   0.666   1.427   4.027 -1.7892  0.3882 -1.6636
 5549SOL     OW28108   4.652   0.733   4.615  0.1332 -0.3140  0.1870
 5549SOL    HW128109   0.021   0.744   4.650  0.3176  0.4527 -0.5263
 5549SOL    HW228110   4.615   0.765   4.698  0.6462  1.6952 -0.3527
 5550SOL     OW28111   0.905   4.295   4.852  0.0533  0.0690  0.5469
 5550SOL    HW128112   0.837   4.294   4.784 -0.0861  0.9898  0.6698
 5550SOL    HW228113   0.987   4.261   4.818 -1.0839 -3.4922  1.4123
 5551SOL     OW28114   4.691   2.251   0.320  0.3817  0.1894  0.1018
 5551SOL    HW128115   4.618   2.313   0.322  0.8493  0.7702 -0.5912
 5551SOL    HW228116   4.648   2.188   0.262 -0.5482  2.5696 -1.8331
 5552SOL     OW28117   3.593   0.689   1.104  0.3441  0.1395 -0.2623
 5552SOL    HW128118   3.617   0.779   1.128 -1.0526  0.2751  0.6233
 5552SOL    HW228119   3.598   0.697   1.009  1.8201  0.9337 -0.1292
 5553SOL     OW28120   0.958   4.594   2.811 -0.2670  0.0760  0.0544
 5553SOL    HW128121   1.013   4.527   2.852 -2.2220 -0.4318  1.8421
 5553SOL    HW228122   0.965   4.563   2.721  1.2122 -0.9847  0.5363
 5554SOL     OW28123   0.381   1.784   3.915 -0.3864 -0.6161 -0.6294
 5554SOL    HW128124   0.364   1.832   3.833  2.9529  0.1609 -0.8724
 5554SOL    HW228125   0.310   1.720   3.911  1.6819 -2.9336 -0.3902
 5555SOL     OW28126   1.910   3.709  13.243  0.2349  0.0240 -0.3123
 5555SOL    HW128127   1.956   3.792  13.230  0.5700 -0.4421 -2.1599
 5555SOL    HW228128   1.975   3.640  13.233  1.3070  1.1644 -1.1742
 5556SOL     OW28129   0.744   1.227   9.735  0.5731  0.0989  0.5227
 5556SOL    HW128130   0.836   1.222   9.758  1.0417  0.2247 -1.2899
 5556SOL    HW228131   0.741   1.292   9.665 -0.7037  0.7373  1.1789
 5557SOL     OW28132   0.613   0.537   3.650 -0.0622  0.2216 -0.2132
 5557SOL    HW128133   0.532   0.546   3.700  0.2222  0.6486  0.1794
 5557SOL    HW228134   0.676   0.512   3.718  0.4829  3.0757  0.3687
 5558SOL     OW28135   1.791   2.215   5.569 -0.2127 -0.1361  0.6735
 5558SOL    HW128136   1.766   2.282   5.632 -1.2348  0.0470  0.0772
 5558SOL    HW228137   1.799   2.268   5.490  0.2053  0.1425  0.9013
 5559SOL     OW28138   0.704   3.547   0.609 -0.1385 -0.0525  0.9024
 5559SOL    HW128139   0.716   3.636   0.642  2.2304 -0.1256  0.2781
 5559SOL    HW228140   0.621   3.564   0.565  1.5057  1.7758 -1.4813
 5560SOL     OW28141   4.650   3.331   5.592  0.2002 -0.2480  0.0883
 5560SOL    HW128142   4.564   3.328   5.632  0.0129 -3.6372 -0.5908
 5560SOL    HW228143   4.682   3.249   5.629  1.3016 -0.9035 -2.3450
 5561SOL     OW28144   2.046   1.350   0.359  0.0813  0.2285  0.5146
 5561SOL    HW128145   2.119   1.297   0.326  0.1026 -0.1216  1.1369
 5561SOL    HW228146   2.078   1.394   0.438  1.5663  0.1632 -0.0411
 5562SOL     OW28147   4.648   0.775   3.632 -0.3846 -0.3970  0.3039
 5562SOL    HW128148   4.628   0.681   3.631  1.9508 -0.8901  0.5549
 5562SOL    HW228149   4.572   0.813   3.588  0.1738 -0.4817 -0.7372
 5563SOL     OW28150   1.670   1.910  16.111  0.3200  0.1357 -0.2966
 5563SOL    HW128151   1.691   1.989  16.160  1.7570  0.1840 -0.9851
 5563SOL    HW228152   1.754   1.901  16.066  0.3988  2.7596 -0.6404
 5564SOL     OW28153   1.150   1.788   6.292  0.4011  0.3694 -0.0600
 5564SOL    HW128154   1.209   1.753   6.360 -1.5746 -2.8850 -0.0046
 5564SOL    HW228155   1.173   1.733   6.217 -1.2972 -3.0837  1.9464
 5565SOL     OW28156   2.072   3.220   4.972 -0.5706 -0.0305 -0.0164
 5565SOL    HW128157   2.136   3.202   5.041  1.1953  0.3126 -1.5668
 5565SOL    HW228158   2.071   3.315   4.985 -0.4824 -0.2100  1.2783
 5566SOL     OW28159   3.935   3.681  11.745  0.6326 -0.0411  0.2106
 5566SOL    HW128160   3.956   3.591  11.771  1.1283 -0.7244 -2.6439
 5566SOL    HW228161   3.840   3.686  11.731  0.6232 -0.5689  0.1078
 5567SOL     OW28162   0.161   1.197   6.138 -0.1605  0.4120 -0.5616
 5567SOL    HW128163   0.100   1.228   6.205 -0.6230 -0.2938 -0.6615
 5567SOL    HW228164   0.231   1.148   6.180  0.3794  1.2709 -0.4604
 5568SOL     OW28165   1.324   3.553   1.930  0.0884  0.4329  0.4689
 5568SOL    HW128166   1.281   3.473   1.960  0.9473  0.2684  1.2458
 5568SOL    HW228167   1.269   3.625   1.960  0.0914  0.3147  0.7541
 5569SOL     OW28168   4.677   2.526  11.203 -0.6911 -0.3326  0.2900
 5569SOL    HW128169   4.606   2.570  11.157  0.2259 -1.8253 -2.5267
 5569SOL    HW228170   0.003   2.597  11.248 -0.8031 -0.5172  0.6995
 5570SOL     OW28171   2.580   4.134   2.406  0.2135 -0.7141 -0.2120
 5570SOL    HW128172   2.610   4.055   2.362  0.5328  0.4287 -2.0735
 5570SOL    HW228173   2.508   4.158   2.348 -1.6618 -1.0804  1.9802
 5571SOL     OW28174   2.045   3.063   8.334  0.2937 -0.0783 -0.6627
 5571SOL    HW128175   2.104   3.012   8.278  0.1317  0.9907 -1.8141
 5571SOL    HW228176   2.078   3.045   8.422  0.5720  0.3531 -0.6784
 5572SOL     OW28177   3.338   0.585  13.978  0.0797  0.2591 -0.1312
 5572SOL    HW128178   3.279   0.635  14.034 -0.6817  0.6942 -1.3254
 5572SOL    HW228179   3.272   0.523  13.945 -1.0192  1.3224  0.0622
 5573SOL     OW28180   1.498   2.503   4.377  0.0908  0.1139 -0.4809
 5573SOL    HW128181   1.557   2.430   4.397 -0.2006  0.2977  1.0592
 5573SOL    HW228182   1.513   2.512   4.283 -0.7656 -0.6943 -0.7043
 5574SOL     OW28183   2.498   1.705   6.639 -0.5868  0.5166 -0.4343
 5574SOL    HW128184   2.517   1.750   6.722 -0.1748 -0.5551  0.0476
 5574SOL    HW228185   2.538   1.761   6.572  0.5314  0.4428  0.1707
 5575SOL     OW28186   1.337   2.767   4.628  0.2940  0.6211  0.5335
 5575SOL    HW128187   1.331   2.855   4.592  0.2269 -0.3854 -1.8922
 5575SOL    HW228188   1.245   2.744   4.619  1.3107 -3.8712  1.4904
 5576SOL     OW28189   1.305   4.336   6.673 -0.5936  0.1694 -0.2174
 5576SOL    HW128190   1.339   4.249   6.694  0.1849  0.3279 -0.8205
 5576SOL    HW228191   1.363   4.394   6.722  0.0766  0.2936 -1.1648
 5577SOL     OW28192   3.395   2.739   8.765  0.1224  0.3334 -0.1928
 5577SOL    HW128193   3.336   2.673   8.800  1.3572 -0.3548  0.5629
 5577SOL    HW228194   3.448   2.768   8.840  1.5293 -0.6719 -0.8014
 5578SOL     OW28195   2.442   3.382   5.676  0.0208 -0.7813 -0.0285
 5578SOL    HW128196   2.424   3.460   5.623  0.5908 -1.2921 -0.9761
 5578SOL    HW228197   2.536   3.394   5.684  0.2214 -2.2212 -0.1549
 5579SOL     OW28198   4.485   3.746   4.258  0.0825 -0.3755  0.3900
 5579SOL    HW128199   4.500   3.689   4.183 -0.8217  0.5068 -0.4678
 5579SOL    HW228200   4.572   3.779   4.280 -1.2323  3.7789 -0.7124
 5580SOL     OW28201   3.312   4.360   8.971  0.4971  0.1908  0.0192
 5580SOL    HW128202   3.221   4.330   8.969  0.1050  1.2833  1.3230
 5580SOL    HW228203   3.300   4.446   9.011  3.2785  0.5340  0.1446
 5581SOL     OW28204   4.631   1.605   3.611  0.5198  0.2161  0.3493
 5581SOL    HW128205   4.670   1.571   3.531 -0.2289  3.3738 -1.3935
 5581SOL    HW228206   4.558   1.546   3.627  1.5243 -0.9863  0.4473
 5582SOL     OW28207   0.373   3.858   4.779  0.5903  0.1487 -0.0698
 5582SOL    HW128208   0.348   3.881   4.869 -1.2538  0.4803 -0.6532
 5582SOL    HW228209   0.381   3.946   4.743 -1.6352  0.1186 -0.6663
 5583SOL     OW28210   3.460   4.393   1.741  0.7017  0.6905  0.0133
 5583SOL    HW128211   3.526   4.449   1.781  2.6824 -1.0507 -0.8313
 5583SOL    HW228212   3.502   4.360   1.662  0.2604  2.3499 -0.9030
 5584SOL     OW28213   3.062   4.669  14.080  0.0834  0.2272  0.1734
 5584SOL    HW128214   3.048   4.577  14.058  1.5330  0.3591 -1.2906
 5584SOL    HW228215   3.155   4.667  14.103 -0.1132  2.0354  1.0846
 5585SOL     OW28216   2.660   4.522   8.565 -0.1844 -0.3905  0.2849
 5585SOL    HW128217   2.668   4.432   8.535 -2.8116 -1.0851  1.6233
 5585SOL    HW228218   2.606   4.509   8.643 -1.1047  2.1338  0.0746
 5586SOL     OW28219   3.710   0.164   9.633 -0.4292 -0.5340  0.5838
 5586SOL    HW128220   3.780   0.212   9.677 -0.5519 -0.7387  1.0014
 5586SOL    HW228221   3.718   0.193   9.542  0.0212 -3.3512 -0.2607
 5587SOL     OW28222   0.434   1.730   2.131  0.9763  0.0338 -0.3931
 5587SOL    HW128223   0.463   1.704   2.218 -3.7686  0.4348  1.3552
 5587SOL    HW228224   0.372   1.658   2.121  1.8406 -0.7139 -0.3039
 5588SOL     OW28225   2.642   3.694   3.634  0.3294  0.0321  0.1622
 5588SOL    HW128226   2.698   3.741   3.572  1.6792 -1.0859  0.5326
 5588SOL    HW228227   2.570   3.674   3.575  1.8005 -3.9902 -0.2673
 5589SOL     OW28228   0.234   0.685   2.894 -0.2600  0.1740 -0.1887
 5589SOL    HW128229   0.275   0.658   2.976 -0.7281  1.0366  0.3301
 5589SOL    HW228230   0.156   0.730   2.926 -0.0994  0.1876  0.1814
 5590SOL     OW28231   2.026   0.101  17.396 -0.9004  0.1378 -0.1954
 5590SOL    HW128232   2.112   0.141  17.411 -0.2947 -1.8614  1.5405
 5590SOL    HW228233   1.961   0.171  17.409  0.1379  0.9144  0.7896
 5591SOL     OW28234   3.166   2.395   8.681 -0.0179  0.3218 -0.0399
 5591SOL    HW128235   3.222   2.353   8.748  0.0543  0.4776 -0.0032
 5591SOL    HW228236   3.083   2.398   8.727  0.6380  1.4309  1.0758
 5592SOL     OW28237   0.991   1.168   6.289 -0.0835  0.1703 -0.2400
 5592SOL    HW128238   0.947   1.112   6.353 -0.1266  1.1550  0.6032
 5592SOL    HW228239   1.072   1.118   6.278  0.2137  0.8313 -1.0914
 5593SOL     OW28240   0.935   1.241   8.084 -0.3816 -0.5048  0.5799
 5593SOL    HW128241   0.994   1.255   8.159 -1.0699 -1.3633  1.2758
 5593SOL    HW228242   0.850   1.241   8.128 -1.0892  0.1368 -0.7946
 5594SOL     OW28243   4.346   2.979   2.486  0.0459 -0.3769 -0.4885
 5594SOL    HW128244   4.311   3.063   2.458  2.6346  1.5591  2.0621
 5594SOL    HW228245   4.415   2.967   2.420 -0.5196 -2.5389 -0.6809
 5595SOL     OW28246   0.529   3.332  11.472  0.3284 -0.4112  0.5213
 5595SOL    HW128247   0.570   3.272  11.534  2.2384 -1.7067 -1.9623
 5595SOL    HW228248   0.467   3.272  11.431  1.5211 -0.9940 -0.4379
 5596SOL     OW28249   3.747   1.124   7.003 -0.0112 -0.0189 -0.3557
 5596SOL    HW128250   3.731   1.171   7.085 -0.9890 -0.4389 -0.3056
 5596SOL    HW228251   3.841   1.120   6.984  0.9055  0.6104  3.9899
 5597SOL     OW28252   4.577   2.452   5.529  0.1153  0.4518  0.6620
 5597SOL    HW128253   4.668   2.469   5.553  0.0439  0.0471  1.2121
 5597SOL    HW228254   4.576   2.356   5.530  0.8704  0.4617  2.3717
 5598SOL     OW28255   4.642   3.867   0.220 -0.2378 -0.5697  0.0569
 5598SOL    HW128256   4.657   3.817   0.300 -0.1407  1.5200  1.3415
 5598SOL    HW228257   4.716   3.928   0.217 -0.9717  0.2363 -1.7050
 5599SOL     OW28258   2.854   3.752   6.711  0.1613  0.3521 -0.7988
 5599SOL    HW128259   2.830   3.770   6.802  0.7829  2.1336 -0.9757
 5599SOL    HW228260   2.897   3.837   6.699 -1.7200  1.3388 -0.5887
 5600SOL     OW28261   0.952   3.448   5.342  0.3180 -0.1440 -0.0805
 5600SOL    HW128262   0.887   3.442   5.412 -1.2498 -0.4362 -1.5607
 5600SOL    HW228263   0.928   3.527   5.293 -0.3382 -0.9562 -1.0754
 5601SOL     OW28264   2.286   0.109   3.454 -0.0559  0.0361 -0.7373
 5601SOL    HW128265   2.205   0.145   3.491 -1.3625 -0.1331 -3.4579
 5601SOL    HW228266   2.256   0.033   3.404  1.4887  0.2844 -2.0469
 5602SOL     OW28267   0.965   0.990   2.841 -0.0273 -0.1814 -0.2876
 5602SOL    HW128268   0.945   0.954   2.755 -0.5931 -0.7159  0.0660
 5602SOL    HW228269   0.892   0.953   2.892  1.7593  0.0023  2.4088
 5603SOL     OW28270   1.818   2.663  17.506  0.0337 -0.3624  0.0722
 5603SOL    HW128271   1.828   2.569  17.487  0.0342 -0.6210  1.3233
 5603SOL    HW228272   1.899   2.664  17.557 -1.1338  0.0954  1.9217
 5604SOL     OW28273   3.075   1.319   5.431  0.7071 -0.4350  0.4726
 5604SOL    HW128274   3.016   1.273   5.371 -1.2849 -1.2761  3.0950
 5604SOL    HW228275   3.013   1.326   5.504 -1.5901  0.0940 -1.5240
 5605SOL     OW28276   4.157   1.044   0.776  0.5746 -0.2862  0.0118
 5605SOL    HW128277   4.078   1.073   0.730  0.3209 -1.4290 -0.2691
 5605SOL    HW228278   4.117   0.989   0.843 -0.9676  0.9748  0.1381
 5606SOL     OW28279   0.205   2.346  17.357 -0.1546  0.2989 -0.1569
 5606SOL    HW128280   0.297   2.356  17.383  0.1351 -0.9433 -0.6757
 5606SOL    HW228281   0.166   2.416  17.409  0.8988  0.6999  0.1007
 5607SOL     OW28282   0.434   2.207   9.499  0.3230 -0.3634 -0.2569
 5607SOL    HW128283   0.387   2.211   9.583  2.3427 -0.3909  0.8755
 5607SOL    HW228284   0.505   2.149   9.526  0.9872  1.5973  2.3245
 5608SOL     OW28285   1.046   3.139   2.976 -0.0651 -0.4792  0.4688
 5608SOL    HW128286   0.992   3.071   3.017  0.3273 -2.0725 -1.6535
 5608SOL    HW228287   0.991   3.217   2.979  0.2464 -0.3375  2.5913
 5609SOL     OW28288   1.913   3.054   9.170  0.3300  0.1533  0.1600
 5609SOL    HW128289   1.881   2.982   9.224 -0.1926 -0.5992 -1.1668
 5609SOL    HW228290   1.937   3.009   9.089  2.0497  1.8551 -0.2751
 5610SOL     OW28291   1.834   3.445   1.889  0.4276  0.6711  0.2568
 5610SOL    HW128292   1.798   3.511   1.949  0.7875  0.3441  0.8340
 5610SOL    HW228293   1.765   3.378   1.885  0.4344  0.5368  2.4229
 5611SOL     OW28294   1.527   2.979   4.940  0.8763 -0.0915 -0.3484
 5611SOL    HW128295   1.591   3.034   4.985  0.3171  2.4008 -2.5526
 5611SOL    HW228296   1.563   2.996   4.852 -0.3515 -1.9662 -1.2195
 5612SOL     OW28297   0.141   4.357   6.645 -0.5512 -0.5496 -0.0308
 5612SOL    HW128298   0.232   4.368   6.617 -1.2781 -1.1711 -2.7100
 5612SOL    HW228299   0.158   4.305   6.724 -1.0770 -0.4630  0.1374
 5613SOL     OW28300   3.264   2.977   4.496 -0.1592 -0.1539  0.4439
 5613SOL    HW128301   3.183   3.023   4.522 -1.2006 -1.3131 -0.7334
 5613SOL    HW228302   3.297   2.951   4.581  2.5264  1.6955 -0.0463
 5614SOL     OW28303   2.130   1.410   3.247  0.1577  0.1071  0.4045
 5614SOL    HW128304   2.220   1.387   3.225  0.1730  0.8008 -0.2559
 5614SOL    HW228305   2.135   1.409   3.342 -2.8843  0.4537  0.5675
 5615SOL     OW28306   2.135   0.497  17.080 -0.2672 -0.1104  0.2900
 5615SOL    HW128307   2.111   0.499  17.173 -2.6176  0.0061 -0.3146
 5615SOL    HW228308   2.062   0.484  17.020 -1.6020  0.0653  1.8740
 5616SOL     OW28309   2.106   3.461   5.465 -0.1380 -1.3337  0.1692
 5616SOL    HW128310   2.145   3.517   5.532  0.1504  0.3204 -1.3858
 5616SOL    HW228311   2.155   3.380   5.478  0.5747 -0.7744  0.9377
 5617SOL     OW28312   4.241   4.345   1.973 -0.0043 -0.1448  0.2518
 5617SOL    HW128313   4.157   4.303   1.952  0.7250 -0.4457 -2.0552
 5617SOL    HW228314   4.241   4.332   2.067 -0.2443  0.5424  0.3524
 5618SOL     OW28315   3.524   0.826   2.154 -0.1094 -0.1168  0.2259
 5618SOL    HW128316   3.457   0.802   2.218 -0.0682 -1.2820 -0.1682
 5618SOL    HW228317   3.537   0.920   2.159  0.6934 -0.1190 -1.9742
 5619SOL     OW28318   0.847   0.908  15.945 -0.0384  0.1139  0.4822
 5619SOL    HW128319   0.761   0.948  15.960 -0.2732 -0.4421  0.6198
 5619SOL    HW228320   0.837   0.862  15.861  2.8102  0.0826  0.1752
 5620SOL     OW28321   2.720   1.966  12.402 -0.1682 -0.1059  0.6855
 5620SOL    HW128322   2.759   2.009  12.478 -0.8738 -1.2441  1.6845
 5620SOL    HW228323   2.730   1.874  12.424  1.3451 -0.0629  0.1535
 5621SOL     OW28324   1.873   2.183  12.755 -0.0325 -0.3955  0.7730
 5621SOL    HW128325   1.949   2.187  12.813  0.8784  2.0118 -0.6043
 5621SOL    HW228326   1.891   2.250  12.690 -0.5384 -0.3415  0.6881
 5622SOL     OW28327   0.220   4.404   2.913 -0.2338  0.4397 -0.7656
 5622SOL    HW128328   0.170   4.456   2.851 -0.4771  0.4389 -0.5690
 5622SOL    HW228329   0.306   4.412   2.872  0.2094 -1.1637 -0.1250
 5623SOL     OW28330   1.479   1.011  16.101  0.6087  0.1369  0.5823
 5623SOL    HW128331   1.467   0.918  16.123 -1.6483 -0.4289 -3.2118
 5623SOL    HW228332   1.399   1.049  16.136 -1.5704 -3.1817 -0.8007
 5624SOL     OW28333   0.313   1.515   9.990  0.4529 -0.5097 -0.1478
 5624SOL    HW128334   0.274   1.601   9.973 -0.9732 -1.3185 -0.9716
 5624SOL    HW228335   0.404   1.540  10.003 -0.3518  2.1067  0.6115
 5625SOL     OW28336   3.161   0.713  16.454  0.1556 -0.2941  0.6516
 5625SOL    HW128337   3.184   0.772  16.525  0.0757  2.1407 -1.3366
 5625SOL    HW228338   3.127   0.634  16.496 -0.7447 -0.2703 -0.0298
 5626SOL     OW28339   0.986   2.378  10.094 -0.2641 -0.3224  0.2783
 5626SOL    HW128340   1.021   2.344  10.177 -0.4179  0.0440  0.4952
 5626SOL    HW228341   0.929   2.451  10.121  0.2905  0.2685 -0.1659
 5627SOL     OW28342   4.593   0.374   8.861  0.3346 -0.0296  0.1565
 5627SOL    HW128343   4.678   0.339   8.889  1.5710 -0.3104 -3.9385
 5627SOL    HW228344   4.610   0.468   8.873 -1.4473  0.3050  0.1125
 5628SOL     OW28345   4.253   0.118   8.612  0.2374 -0.2161  0.3309
 5628SOL    HW128346   4.328   0.062   8.628  0.7409  0.1364 -0.7685
 5628SOL    HW228347   4.297   0.201   8.626  0.3601 -0.0813 -0.8161
 5629SOL     OW28348   2.811   0.111   1.880 -0.3108  0.5444 -0.3713
 5629SOL    HW128349   2.879   0.044   1.888 -0.6558  0.3235  0.6115
 5629SOL    HW228350   2.854   0.165   1.813 -0.8194  1.9966  0.4860
 5630SOL     OW28351   3.041   2.590   8.156  0.2544 -0.3174  0.0951
 5630SOL    HW128352   3.003   2.578   8.244 -0.2701 -1.3510 -0.2751
 5630SOL    HW228353   3.009   2.679   8.150 -0.2621 -0.3303  2.4277
 5631SOL     OW28354   3.858   4.107   6.911  0.3377 -0.1512 -0.2953
 5631SOL    HW128355   3.766   4.096   6.935  0.2891  0.5153 -0.1828
 5631SOL    HW228356   3.861   4.055   6.831  0.1432  0.1968 -0.5307
 5632SOL     OW28357   0.749   0.362   7.087  0.2242 -0.3843  0.0113
 5632SOL    HW128358   0.785   0.433   7.140  1.8799 -0.8367 -0.5001
 5632SOL    HW228359   0.784   0.371   6.999 -1.7308 -1.5574 -0.8798
 5633SOL     OW28360   3.228   3.728  16.149  0.3430 -0.3002  0.4740
 5633SOL    HW128361   3.220   3.743  16.055 -0.3713  0.0627  0.5927
 5633SOL    HW228362   3.162   3.786  16.186  0.2461  1.7556 -2.8964
 5634SOL     OW28363   0.948   2.838   8.347  0.1503  0.4734  0.3483
 5634SOL    HW128364   0.883   2.844   8.417 -0.2536 -0.4855  0.0583
 5634SOL    HW228365   0.902   2.832   8.264  0.3461 -0.4887  0.3121
 5635SOL     OW28366   3.548   0.300  12.834 -0.2966 -0.6623 -0.2920
 5635SOL    HW128367   3.480   0.365  12.813 -0.7563 -0.8941  0.4524
 5635SOL    HW228368   3.586   0.287  12.747  2.6121  0.7462  0.7580
 5636SOL     OW28369   4.678   1.600   7.285 -0.4065 -0.8745 -0.4283
 5636SOL    HW128370   4.633   1.679   7.256  2.2381  0.3046 -1.3494
 5636SOL    HW228371   4.692   1.560   7.199 -0.3236  1.2911 -1.4286
 5637SOL     OW28372   4.127   3.739   9.221 -0.0629 -0.3340  0.2018
 5637SOL    HW128373   4.132   3.651   9.259 -0.4093 -0.7235 -0.6313
 5637SOL    HW228374   4.037   3.744   9.187 -0.0411 -3.1145 -0.2566
 5638SOL     OW28375   0.817   1.328   1.716 -0.4334  0.0976  0.1732
 5638SOL    HW128376   0.745   1.352   1.658 -1.1846  0.8994  1.4733
 5638SOL    HW228377   0.813   1.405   1.771 -3.0770 -0.6799  1.0779
 5639SOL     OW28378   3.691   0.824  17.106 -0.1915  0.3967 -0.5137
 5639SOL    HW128379   3.653   0.885  17.169 -0.3881  0.6870 -0.9134
 5639SOL    HW228380   3.714   0.750  17.163 -0.0333  1.1847  0.4403
 5640SOL     OW28381   2.884   0.477   0.483 -0.2861 -0.1427 -0.0346
 5640SOL    HW128382   2.825   0.408   0.512  1.8915 -1.8084  0.4287
 5640SOL    HW228383   2.827   0.513   0.415  0.1700 -0.7098 -0.7125
 5641SOL     OW28384   2.879   4.015   6.971  0.2422  0.1675  0.2422
 5641SOL    HW128385   2.962   3.986   6.933  0.1148 -0.1414  0.1994
 5641SOL    HW228386   2.844   3.927   6.981  0.8750 -0.2001 -0.7865
 5642SOL     OW28387   4.295   4.026   2.128 -0.1618  0.2584 -0.0961
 5642SOL    HW128388   4.240   4.063   2.197 -1.6279  0.4393 -1.3647
 5642SOL    HW228389   4.290   3.931   2.139  1.0797  0.0379 -1.4399
 5643SOL     OW28390   2.968   1.012   5.969  0.1874  0.1655  0.1430
 5643SOL    HW128391   3.017   0.936   5.936 -3.7778 -2.3034  0.0054
 5643SOL    HW228392   2.958   1.066   5.891  0.4425  0.6975  0.4796
 5644SOL     OW28393   3.524   3.519   2.846  0.5302  0.5427  0.1265
 5644SOL    HW128394   3.613   3.486   2.859  0.0022 -1.5996 -1.6824
 5644SOL    HW228395   3.495   3.479   2.764 -2.8877  1.1761  1.0206
 5645SOL     OW28396   3.297   3.381   2.208 -0.1090  0.2497  0.4053
 5645SOL    HW128397   3.312   3.293   2.242 -0.3458  0.3733  0.8195
 5645SOL    HW228398   3.383   3.421   2.225 -0.3829  1.0241 -0.0129
 5646SOL     OW28399   2.733   1.882   0.399 -0.2391  0.0769 -0.6161
 5646SOL    HW128400   2.820   1.857   0.369 -0.6203 -1.3232 -0.5434
 5646SOL    HW228401   2.701   1.901   0.311  1.7581  2.8895 -0.7195
 5647SOL     OW28402   0.804   4.497   2.339 -0.2384  0.3621 -0.1312
 5647SOL    HW128403   0.779   4.586   2.317  0.5172  0.3526 -0.9952
 5647SOL    HW228404   0.716   4.460   2.348  0.6582 -1.2408  2.4128
 5648SOL     OW28405   1.403   4.706   2.197 -0.5565 -0.1513  0.1438
 5648SOL    HW128406   1.403   4.662   2.282 -1.2965  0.5694  0.5174
 5648SOL    HW228407   1.353   4.641   2.148  1.1778 -0.4321 -1.2431
 5649SOL     OW28408   4.037   1.269   5.645  0.7454  0.4627 -0.1351
 5649SOL    HW128409   4.020   1.247   5.553  1.9101 -0.9179 -0.0179
 5649SOL    HW228410   3.949   1.303   5.657  0.0244 -0.6920 -2.0111
 5650SOL     OW28411   3.441   1.452   1.887  0.2740  0.2038  0.3648
 5650SOL    HW128412   3.410   1.533   1.926  1.4827  0.8995 -0.1001
 5650SOL    HW228413   3.393   1.449   1.804 -2.1256 -4.9362  1.9949
 5651SOL     OW28414   4.117   3.201  15.044  0.5238 -0.5270  0.1385
 5651SOL    HW128415   4.198   3.216  15.092 -1.0844  3.1026  1.7460
 5651SOL    HW228416   4.129   3.140  14.971 -2.0684 -0.2636 -0.5221
 5652SOL     OW28417   0.348   3.564   6.612  0.2276  0.0759  0.4481
 5652SOL    HW128418   0.433   3.563   6.569 -0.8663 -1.6548 -1.6891
 5652SOL    HW228419   0.357   3.626   6.684 -1.7654 -0.3028  1.0112
 5653SOL     OW28420   1.775   3.748   3.686 -0.0580  0.0928 -0.0586
 5653SOL    HW128421   1.685   3.724   3.661  0.4473  0.5922 -2.3925
 5653SOL    HW228422   1.791   3.812   3.616  0.6993  1.1616  1.0960
 5654SOL     OW28423   2.013   1.232   3.864 -0.4475  0.7981 -0.6951
 5654SOL    HW128424   2.081   1.211   3.800  0.2203 -0.6601  0.4876
 5654SOL    HW228425   1.966   1.299   3.814  0.9608  1.8581 -0.5862
 5655SOL     OW28426   2.388   0.925   5.691 -0.0157 -0.0134  0.5488
 5655SOL    HW128427   2.360   0.910   5.601  0.3963 -1.9847  0.7506
 5655SOL    HW228428   2.355   0.844   5.729  0.7362 -0.2585  0.6725
 5656SOL     OW28429   1.536   4.560   1.870  0.0765 -0.1463  0.3330
 5656SOL    HW128430   1.499   4.506   1.940  1.4092  0.2455  1.3509
 5656SOL    HW228431   1.581   4.623   1.927  1.9048 -0.7623 -0.4302
 5657SOL     OW28432   0.105   4.167  10.568 -0.2202 -0.2826  0.1931
 5657SOL    HW128433   0.072   4.183  10.656  0.1118  0.1512  0.2428
 5657SOL    HW228434   0.186   4.120  10.585  0.5846  0.5391 -1.3490
 5658SOL     OW28435   1.339   1.854   2.915 -0.0037  0.4178  0.4668
 5658SOL    HW128436   1.246   1.835   2.901 -0.1748  0.9376  0.9089
 5658SOL    HW228437   1.368   1.788   2.978  0.5572 -0.5854 -0.8207
 5659SOL     OW28438   4.075   0.927  12.736 -0.0890 -0.0129 -0.5068
 5659SOL    HW128439   4.047   0.870  12.808  1.5959  0.3971  0.4664
 5659SOL    HW228440   4.052   1.009  12.779 -0.0173  0.7655 -1.9656
 5660SOL     OW28441   3.877   2.205   2.419  0.2019 -0.3228  0.2538
 5660SOL    HW128442   3.892   2.127   2.366  1.2240  0.6988 -0.9365
 5660SOL    HW228443   3.956   2.259   2.416 -0.5638  0.8251  0.4704
 5661SOL     OW28444   3.683   2.374  11.487 -0.2240 -0.1788 -0.2581
 5661SOL    HW128445   3.732   2.297  11.459  0.5580 -0.2925  1.4132
 5661SOL    HW228446   3.619   2.383  11.416 -0.6686 -0.8239  0.0541
 5662SOL     OW28447   0.544   1.829   3.446  0.2253  0.0377  0.4409
 5662SOL    HW128448   0.464   1.791   3.482 -0.1711  0.6958  0.2589
 5662SOL    HW228449   0.606   1.779   3.500  0.6748  1.2199  1.0282
 5663SOL     OW28450   2.734   4.206  11.310 -0.0469 -0.1681  0.3059
 5663SOL    HW128451   2.777   4.121  11.322  0.0647 -0.4010 -1.7308
 5663SOL    HW228452   2.811   4.260  11.330 -0.1003  0.7928 -2.0708
 5664SOL     OW28453   1.386   0.860   8.732 -0.1556 -0.0153 -0.0003
 5664SOL    HW128454   1.338   0.942   8.721 -0.5528 -0.4738 -1.6860
 5664SOL    HW228455   1.476   0.890   8.744 -0.1366  0.4560 -1.3683
 5665SOL     OW28456   1.081   2.371  11.464  0.3977 -0.4101  0.4788
 5665SOL    HW128457   1.074   2.462  11.492 -3.1333 -0.1505 -1.2494
 5665SOL    HW228458   1.172   2.361  11.435  0.0773  0.6566 -0.8860
 5666SOL     OW28459   3.080   2.773   6.270 -0.4610  0.1966 -0.1864
 5666SOL    HW128460   3.101   2.830   6.344  0.7207 -0.6209  0.1053
 5666SOL    HW228461   3.161   2.741   6.231 -0.1064  0.7821  0.0701
 5667SOL     OW28462   1.475   0.346   7.331  0.2931  0.5826 -0.3001
 5667SOL    HW128463   1.529   0.424   7.319  0.8622  0.1532 -0.5144
 5667SOL    HW228464   1.480   0.337   7.426 -1.5126  2.6918  0.0078
 5668SOL     OW28465   0.777   4.369  17.038  0.1024 -0.1035  0.1645
 5668SOL    HW128466   0.816   4.377  17.126 -3.0737 -0.9121  1.6466
 5668SOL    HW228467   0.855   4.369  16.984 -1.3470 -0.0938 -1.9067
 5669SOL     OW28468   4.060   0.824   4.521 -0.4451  0.5351  0.0294
 5669SOL    HW128469   4.117   0.783   4.586  1.3596  2.5026 -0.3023
 5669SOL    HW228470   4.005   0.745   4.520  1.1993 -0.6171 -0.8992
 5670SOL     OW28471   4.520   3.561   9.967 -0.5174  0.1247 -0.5476
 5670SOL    HW128472   4.599   3.507   9.965  0.2500  1.2217  0.6616
 5670SOL    HW228473   4.529   3.595  10.056  2.3492  0.5420 -1.0097
 5671SOL     OW28474   3.394   3.777   5.213 -0.1029 -0.2495 -0.3277
 5671SOL    HW128475   3.348   3.748   5.292 -0.1834 -1.5762 -0.8614
 5671SOL    HW228476   3.459   3.707   5.207  1.3845  1.0659  0.3110
 5672SOL     OW28477   3.560   2.952   5.727  0.0166 -0.0079  0.0553
 5672SOL    HW128478   3.559   2.973   5.634 -0.4198 -0.0125  0.0592
 5672SOL    HW228479   3.650   2.921   5.733 -0.2109 -0.7373 -0.3453
 5673SOL     OW28480   3.536   1.582   4.056 -0.2717  0.0129  0.1179
 5673SOL    HW128481   3.515   1.640   4.129  0.3139 -0.0604  0.3483
 5673SOL    HW228482   3.619   1.551   4.094 -0.2013  1.0661  0.8167
 5674SOL     OW28483   3.840   0.619  17.255  0.3414 -0.0961 -0.1865
 5674SOL    HW128484   3.932   0.630  17.280  0.2191  0.2538  0.1126
 5674SOL    HW228485   3.822   0.525  17.249 -2.4033  0.4045  0.4825
 5675SOL     OW28486   0.947   4.656   5.137 -0.0911 -0.0014 -0.2463
 5675SOL    HW128487   0.874   4.686   5.083  0.1392  0.1298 -0.4826
 5675SOL    HW228488   0.995   0.019   5.139 -1.4857  0.8217 -0.7766
 5676SOL     OW28489   4.427   2.768   5.734 -0.4711 -0.2477 -0.4826
 5676SOL    HW128490   4.450   2.684   5.773 -0.0101  0.7686  1.4513
 5676SOL    HW228491   4.448   2.829   5.805 -0.8383  1.9277 -2.2221
 5677SOL     OW28492   2.016   2.398  15.891  0.0379 -0.3613  0.0993
 5677SOL    HW128493   2.102   2.406  15.851  0.5872 -1.4156  1.0629
 5677SOL    HW228494   2.034   2.394  15.985 -1.4915  0.7439  0.4333
 5678SOL     OW28495   3.660   1.954   3.369 -0.3528  0.0953 -0.6180
 5678SOL    HW128496   3.735   1.936   3.313  0.4989 -1.1793  0.9413
 5678SOL    HW228497   3.705   1.961   3.453  2.0376 -1.0521 -1.8217
 5679SOL     OW28498   3.378   2.113   0.528  0.3456 -0.5273  0.3290
 5679SOL    HW128499   3.321   2.155   0.593 -1.5651 -3.2082  0.3669
 5679SOL    HW228500   3.312   2.101   0.460 -0.3321 -2.0800  1.2606
 5680SOL     OW28501   2.680   1.337   7.700  0.0538  0.2270 -0.2270
 5680SOL    HW128502   2.749   1.394   7.668  1.7535 -2.3616 -1.1680
 5680SOL    HW228503   2.689   1.265   7.638  1.2305  1.1364 -1.1032
 5681SOL     OW28504   2.509   0.094   3.915 -0.7591 -0.3232 -0.0697
 5681SOL    HW128505   2.525   0.024   3.977  1.4283 -0.1783 -0.4924
 5681SOL    HW228506   2.446   0.154   3.956 -0.6767 -1.3993  1.5990
 5682SOL     OW28507   3.874   3.839   3.964  0.4892 -0.1008  0.1437
 5682SOL    HW128508   3.879   3.889   3.882 -1.3099  1.3630  0.9359
 5682SOL    HW228509   3.931   3.766   3.941 -0.0985 -0.8047  0.9562
 5683SOL     OW28510   2.477   0.914  12.091 -0.1582  0.0148  0.1029
 5683SOL    HW128511   2.539   0.977  12.127 -0.3151 -0.5777  1.3959
 5683SOL    HW228512   2.496   0.830  12.132 -0.3593  0.4038  0.9832
 5684SOL     OW28513   2.987   4.294   2.754 -0.0353 -0.1574 -0.1479
 5684SOL    HW128514   2.925   4.239   2.705  0.1388 -1.3683  1.0219
 5684SOL    HW228515   2.989   4.256   2.841 -1.0830  0.0576 -0.0222
 5685SOL     OW28516   3.018   3.569   6.054  0.3234  0.6519  0.1403
 5685SOL    HW128517   2.987   3.482   6.079  1.6026  0.6492  1.7193
 5685SOL    HW228518   2.987   3.614   6.132  0.8366 -1.7905  1.7392
 5686SOL     OW28519   3.580   0.805   8.883  0.3333  0.6600 -0.1816
 5686SOL    HW128520   3.538   0.737   8.937 -1.5242 -1.0783 -3.7714
 5686SOL    HW228521   3.508   0.852   8.841 -0.8032  1.3354  2.5358
 5687SOL     OW28522   0.303   0.394   3.003 -0.3031  0.1185  0.3791
 5687SOL    HW128523   0.329   0.303   2.985 -0.6494  0.6833 -2.9188
 5687SOL    HW228524   0.320   0.404   3.097 -2.4640 -0.1712  0.7980
 5688SOL     OW28525   1.955   0.940   4.257 -0.1988 -0.5466 -0.6253
 5688SOL    HW128526   2.019   0.869   4.264 -0.2443 -0.8505 -3.1686
 5688SOL    HW228527   1.961   0.961   4.164 -2.1756 -2.9830 -1.3029
 5689SOL     OW28528   0.198   2.879  15.256  0.2467 -0.2044  0.3663
 5689SOL    HW128529   0.242   2.914  15.334  2.3268  1.8761 -1.7492
 5689SOL    HW228530   0.263   2.815  15.226 -0.0579  0.0558 -0.8581
 5690SOL     OW28531   2.466   0.448  17.065 -0.3791 -0.1838 -0.8465
 5690SOL    HW128532   2.512   0.527  17.092 -1.6284 -0.2961  1.6071
 5690SOL    HW228533   2.414   0.470  16.988  1.0843  2.6268 -1.0246
 5691SOL     OW28534   2.795   0.721   7.084  0.1263 -0.4398 -0.1507
 5691SOL    HW128535   2.739   0.657   7.128 -1.3105  0.1325 -1.1771
 5691SOL    HW228536   2.769   0.797   7.136  1.7445 -0.6943  1.0685
 5692SOL     OW28537   2.304   3.492   2.947 -0.4613 -0.4041  0.7951
 5692SOL    HW128538   2.257   3.428   2.894 -0.8583  0.9858 -0.5459
 5692SOL    HW228539   2.341   3.539   2.873 -1.7826 -0.1020  0.3301
 5693SOL     OW28540   3.912   2.729   8.982 -0.3705 -0.0391 -0.5429
 5693SOL    HW128541   3.855   2.756   9.055  0.8520 -1.4230  0.9262
 5693SOL    HW228542   3.919   2.801   8.919 -2.3085  3.3195  3.0550
 5694SOL     OW28543   3.095   2.050   8.197  0.6919  0.9258 -0.4698
 5694SOL    HW128544   3.164   2.063   8.133  0.3850  0.4305 -0.9037
 5694SOL    HW228545   3.133   2.104   8.267 -1.7781  2.3565 -0.2312
 5695SOL     OW28546   0.717   2.639   5.867  0.1364  0.0207 -0.2571
 5695SOL    HW128547   0.772   2.618   5.792 -0.8055  1.0410 -1.2301
 5695SOL    HW228548   0.763   2.596   5.939  2.3255  1.4930 -0.8022
 5696SOL     OW28549   1.923   1.693   4.818  0.3118  0.0115 -0.4295
 5696SOL    HW128550   1.947   1.607   4.851  2.6917  0.4190 -1.0671
 5696SOL    HW228551   1.837   1.674   4.782  0.9280  0.1768 -2.0061
 5697SOL     OW28552   2.048   2.161   9.773 -0.0792 -0.3287  0.0013
 5697SOL    HW128553   2.051   2.228   9.705  3.0593 -1.4246 -0.9274
 5697SOL    HW228554   2.129   2.114   9.752  1.5476  2.5389 -0.0492
 5698SOL     OW28555   0.185   1.081  12.021 -0.2512  0.5564 -0.6808
 5698SOL    HW128556   0.252   1.053  11.958  0.6821  0.5023  0.3470
 5698SOL    HW228557   0.113   1.041  11.971 -0.7934  0.0281  0.5400
 5699SOL     OW28558   4.062   1.448   8.280  0.6560 -0.4000  0.1516
 5699SOL    HW128559   4.039   1.490   8.197 -1.5748 -2.4565 -0.2660
 5699SOL    HW228560   3.982   1.469   8.329  0.9118  0.6686  0.1160
 5700SOL     OW28561   1.801   1.843  12.154  0.3314  0.3834 -0.2809
 5700SOL    HW128562   1.772   1.935  12.155  0.2550  0.3684 -0.9072
 5700SOL    HW228563   1.809   1.828  12.248 -0.0243 -0.6450 -0.4204
 5701SOL     OW28564   0.688   2.360  12.708 -0.4889  0.4593  0.0497
 5701SOL    HW128565   0.754   2.313  12.658  0.8520  1.0581  1.2716
 5701SOL    HW228566   0.603   2.345  12.666  0.2800 -1.4115 -0.8573
 5702SOL     OW28567   0.448   2.371  16.806 -0.1389 -0.1176 -0.4941
 5702SOL    HW128568   0.410   2.437  16.748 -0.4654 -0.5373 -0.7570
 5702SOL    HW228569   0.461   2.416  16.890 -1.0776 -1.8738  0.5928
 5703SOL     OW28570   1.326   3.764   1.617 -0.0855  0.3284 -0.5897
 5703SOL    HW128571   1.360   3.828   1.679 -0.5174  0.7110 -0.7465
 5703SOL    HW228572   1.371   3.798   1.539 -0.6479  0.7557 -0.7303
 5704SOL     OW28573   2.254   1.623   6.040 -0.2182 -0.0476  0.3568
 5704SOL    HW128574   2.283   1.608   6.130 -0.7643 -1.2530  0.3333
 5704SOL    HW228575   2.246   1.719   6.038 -2.1227 -0.1930  1.5255
 5705SOL     OW28576   1.050   0.317   6.552 -0.2779 -0.1958  0.1535
 5705SOL    HW128577   1.019   0.238   6.508  1.3848 -0.1465 -1.1369
 5705SOL    HW228578   1.115   0.341   6.486  0.3831  0.9941  1.2328
 5706SOL     OW28579   2.344   2.775   7.515 -0.3499  0.5781 -0.3104
 5706SOL    HW128580   2.321   2.856   7.469 -0.3786  0.2239 -0.9210
 5706SOL    HW228581   2.303   2.714   7.453  1.7724 -0.6845 -0.4674
 5707SOL     OW28582   3.209   2.106  11.446 -0.3864 -0.1422 -0.0276
 5707SOL    HW128583   3.305   2.103  11.442 -0.4285 -0.7332 -0.6811
 5707SOL    HW228584   3.198   2.191  11.488  0.2100 -1.9339  3.6997
 5708SOL     OW28585   1.295   1.486  15.339 -0.4907 -0.6433  0.0314
 5708SOL    HW128586   1.229   1.423  15.369  0.2911 -1.7939 -0.6657
 5708SOL    HW228587   1.296   1.534  15.422 -2.5083 -0.6970  0.0988
 5709SOL     OW28588   0.860   1.620   5.078  0.6609  0.3593  0.2471
 5709SOL    HW128589   0.815   1.542   5.111 -0.3740 -0.2163 -2.5354
 5709SOL    HW228590   0.790   1.685   5.083 -0.7618 -1.0026 -1.8886
 5710SOL     OW28591   3.831   0.839   5.002 -0.2220  0.6128  0.3531
 5710SOL    HW128592   3.737   0.830   5.017 -0.2763 -1.9525 -1.4024
 5710SOL    HW228593   3.860   0.790   5.079  2.3427  0.0079 -0.9805
 5711SOL     OW28594   0.806   1.862  16.829  0.0534 -0.3915 -0.2998
 5711SOL    HW128595   0.725   1.897  16.793 -0.2978 -0.8295  0.0637
 5711SOL    HW228596   0.789   1.857  16.923 -0.3603  2.2234 -0.2365
 5712SOL     OW28597   0.711   2.319   6.121  0.1273 -0.3129 -0.6845
 5712SOL    HW128598   0.654   2.272   6.059 -0.2018 -0.5378 -0.2087
 5712SOL    HW228599   0.671   2.290   6.203  1.0075 -1.1084 -0.5361
 5713SOL     OW28600   0.428   0.659  17.603  0.0567 -0.4336 -0.5418
 5713SOL    HW128601   0.382   0.575  17.609 -1.7553  0.6035  0.1700
 5713SOL    HW228602   0.349   0.711  17.615 -0.2480 -0.7369 -1.2033
 5714SOL     OW28603   3.640   1.010   8.530  0.6149 -0.0056 -0.7113
 5714SOL    HW128604   3.558   1.023   8.482  0.2612 -0.5641 -0.2573
 5714SOL    HW228605   3.620   0.921   8.557  0.3131  1.0932  2.6203
 5715SOL     OW28606   2.892   2.017   2.599 -0.3036  0.1590 -0.2194
 5715SOL    HW128607   2.912   1.927   2.575 -0.1108  0.3935 -0.9494
 5715SOL    HW228608   2.850   2.049   2.519  1.3648 -1.8008 -1.8965
 5716SOL     OW28609   2.611   2.573   3.780  0.4197 -0.2310 -0.2609
 5716SOL    HW128610   2.643   2.483   3.794 -1.6604 -0.8510  0.5362
 5716SOL    HW228611   2.673   2.632   3.823  0.6070  0.4079 -1.4260
 5717SOL     OW28612   4.581   3.797   8.244 -0.1301 -0.0152  0.7978
 5717SOL    HW128613   4.592   3.871   8.304 -1.3348  0.8249 -0.0315
 5717SOL    HW228614   4.490   3.770   8.254 -0.6000  0.9641 -0.8697
 5718SOL     OW28615   2.408   3.571   5.495 -0.3894  0.4678  0.3130
 5718SOL    HW128616   2.375   3.595   5.408 -0.7879  1.2914  0.6945
 5718SOL    HW228617   2.455   3.647   5.528  0.2451  0.4238 -0.4801
 5719SOL     OW28618   1.340   2.989   2.545  0.6662 -0.1646  0.4200
 5719SOL    HW128619   1.296   2.972   2.461 -0.3328  1.1561  0.6719
 5719SOL    HW228620   1.264   3.003   2.601  0.7185  1.2553  0.1219
 5720SOL     OW28621   1.831   3.714   2.556 -0.0646  0.5314 -0.0764
 5720SOL    HW128622   1.860   3.644   2.615  1.0371  0.3530 -0.8410
 5720SOL    HW228623   1.745   3.676   2.539 -0.2509  0.5281  0.8291
 5721SOL     OW28624   2.352   1.361  12.959 -0.0302  0.0119 -0.8038
 5721SOL    HW128625   2.327   1.432  13.018  0.0232  0.9110 -1.8616
 5721SOL    HW228626   2.338   1.396  12.870 -0.2403  0.2604 -0.6730
 5722SOL     OW28627   1.989   2.553   8.262  0.2221  0.0720  0.0817
 5722SOL    HW128628   2.067   2.603   8.238  0.1022  0.1045 -0.2345
 5722SOL    HW228629   1.947   2.532   8.179 -0.8633  1.5033  0.2852
 5723SOL     OW28630   2.176   4.140   5.632  0.1589  0.2147  0.2380
 5723SOL    HW128631   2.086   4.164   5.611 -0.5983 -2.0660  0.9596
 5723SOL    HW228632   2.196   4.197   5.706 -0.9788  2.3157 -1.0847
 5724SOL     OW28633   1.756   4.564  12.517 -0.0816 -0.4204  0.0055
 5724SOL    HW128634   1.791   4.476  12.502 -0.0787 -0.2522 -0.9829
 5724SOL    HW228635   1.685   4.556  12.580  2.2837  0.0605  2.7140
 5725SOL     OW28636   4.295   2.690  12.450 -0.0307  0.4034  0.1509
 5725SOL    HW128637   4.222   2.744  12.480  0.2442 -0.3061  2.1036
 5725SOL    HW228638   4.312   2.629  12.522 -0.3789  0.5523  0.3552
 5726SOL     OW28639   0.178   2.316   6.995  0.0545  0.8071  0.0600
 5726SOL    HW128640   0.146   2.389   7.049  1.3366  2.1014 -0.9265
 5726SOL    HW228641   0.101   2.309   6.939  0.9838 -0.4179 -1.0322
 5727SOL     OW28642   4.261   4.049   9.322  0.2758  1.0935 -0.0947
 5727SOL    HW128643   4.189   4.111   9.313 -0.8852 -0.3500 -0.6012
 5727SOL    HW228644   4.213   3.970   9.347 -0.2255  0.6293 -2.5607
 5728SOL     OW28645   4.364   2.451   3.720  0.5252  0.3953  0.5610
 5728SOL    HW128646   4.299   2.515   3.692 -0.1158 -0.3441  0.3698
 5728SOL    HW228647   4.337   2.378   3.665 -1.5732  0.3928  1.6010
 5729SOL     OW28648   3.607   2.804   4.003 -0.9163 -0.1633  0.4057
 5729SOL    HW128649   3.672   2.741   3.970  1.5466  2.5823 -0.0397
 5729SOL    HW228650   3.541   2.747   4.042 -1.4873 -0.8322 -1.5582
 5730SOL     OW28651   0.484   2.731   5.274  0.2267  0.2326 -0.0840
 5730SOL    HW128652   0.533   2.786   5.335 -0.4903  0.1793  0.5376
 5730SOL    HW228653   0.462   2.657   5.330 -0.1759  1.3484  1.2340
 5731SOL     OW28654   1.430   0.946   7.399 -0.5720 -0.0816 -0.1182
 5731SOL    HW128655   1.498   0.879   7.393  1.8609  2.0683  3.3265
 5731SOL    HW228656   1.366   0.884   7.435  0.0551  0.2119  1.4963
 5732SOL     OW28657   0.321   4.417  17.192 -0.0894  0.0508  0.5732
 5732SOL    HW128658   0.413   4.401  17.215 -0.0257 -1.5394 -0.8416
 5732SOL    HW228659   0.285   4.368  17.266  1.9450 -1.5936  0.4772
 5733SOL     OW28660   2.162   4.481   8.572  0.2519 -0.4925  0.5655
 5733SOL    HW128661   2.094   4.526   8.522  0.9164  0.3585  0.4252
 5733SOL    HW228662   2.127   4.400   8.608  0.6039 -1.1046 -0.4734
 5734SOL     OW28663   2.529   2.697   7.954 -0.3762  0.0891 -0.4406
 5734SOL    HW128664   2.568   2.616   7.988  4.1948  1.2899 -2.8598
 5734SOL    HW228665   2.521   2.677   7.861 -0.6592  0.1734 -0.4309
 5735SOL     OW28666   2.328   0.039   8.426  0.4875  0.2128 -0.4105
 5735SOL    HW128667   2.421   0.050   8.410  0.2091 -2.9745 -4.2770
 5735SOL    HW228668   2.322   4.693   8.496  0.2913 -0.8157 -1.3838
 5736SOL     OW28669   2.736   0.713  14.555 -0.4752  0.6656  0.0638
 5736SOL    HW128670   2.708   0.772  14.485  1.4773  0.5547 -0.7901
 5736SOL    HW228671   2.651   0.719  14.599 -0.3794 -2.5250  0.7245
 5737SOL     OW28672   1.240   3.217   6.943  0.3816  0.0756 -0.3637
 5737SOL    HW128673   1.262   3.301   6.981 -0.2400  0.1741 -0.2200
 5737SOL    HW228674   1.296   3.218   6.865  1.7540  0.3148  0.6319
 5738SOL     OW28675   3.136   2.896   4.040  0.7045 -0.4215  0.0664
 5738SOL    HW128676   3.061   2.939   4.081  0.2578 -1.9066  0.7930
 5738SOL    HW228677   3.173   2.861   4.121  1.4469  1.6809  0.6583
 5739SOL     OW28678   3.678   1.941   5.016 -0.1060 -0.5541 -0.2353
 5739SOL    HW128679   3.663   1.848   5.031 -1.3030 -0.5998 -1.6017
 5739SOL    HW228680   3.639   1.985   5.092 -0.1495  0.8012 -1.0332
 5740SOL     OW28681   1.763   4.103   4.209  0.1725  0.3664 -0.3551
 5740SOL    HW128682   1.734   4.025   4.162 -0.3883  0.2114  0.2538
 5740SOL    HW228683   1.836   4.068   4.259 -0.7257  0.0410  0.7260
 5741SOL     OW28684   1.433   0.223   5.201  0.1133  0.3568  0.6103
 5741SOL    HW128685   1.525   0.223   5.224  0.1934  0.4362  0.2907
 5741SOL    HW228686   1.406   0.154   5.261  1.9895 -0.3264  0.6612
 5742SOL     OW28687   3.544   3.530   9.315  0.1917 -0.7569  0.1539
 5742SOL    HW128688   3.547   3.447   9.268  0.2404 -0.5698 -0.1713
 5742SOL    HW228689   3.546   3.596   9.246  1.6093 -1.3665 -0.3855
 5743SOL     OW28690   0.214   1.362  17.300 -0.3581  0.0849 -0.3529
 5743SOL    HW128691   0.206   1.451  17.265  2.0926  0.0314 -1.0760
 5743SOL    HW228692   0.188   1.374  17.391 -0.3676 -1.5613 -0.1553
 5744SOL     OW28693   0.525   2.876   5.045 -0.9383  0.3868 -0.6991
 5744SOL    HW128694   0.516   2.822   5.124  4.3085  1.1859  0.4422
 5744SOL    HW228695   0.604   2.926   5.064 -1.6686  0.0515  3.3155
 5745SOL     OW28696   1.575   1.174   8.896 -0.2443  0.2758  0.0260
 5745SOL    HW128697   1.587   1.080   8.882  0.9525  0.3897  0.2502
 5745SOL    HW228698   1.580   1.174   8.992 -1.7327 -0.6383  0.1038
 5746SOL     OW28699   3.194   1.038   0.923 -0.4014 -0.0423 -0.3436
 5746SOL    HW128700   3.216   0.960   0.974 -0.6179  0.3071  0.2959
 5746SOL    HW228701   3.184   0.995   0.839  0.3238  0.0082 -0.4483
 5747SOL     OW28702   0.496   4.471   2.452 -0.0527 -0.3546  0.5499
 5747SOL    HW128703   0.506   4.391   2.401 -1.0776  0.3694 -0.8078
 5747SOL    HW228704   0.426   4.507   2.398  1.2692  1.0895 -0.2376
 5748SOL     OW28705   3.709   2.987   7.726 -0.0885  0.2406  0.3402
 5748SOL    HW128706   3.664   2.917   7.772  0.5522 -0.6662 -0.4040
 5748SOL    HW228707   3.749   3.046   7.790  2.3304  0.2433 -1.1823
 5749SOL     OW28708   3.555   3.769   2.446  0.1892 -0.0876 -0.3002
 5749SOL    HW128709   3.543   3.785   2.352 -1.1517  2.4532  0.2872
 5749SOL    HW228710   3.492   3.701   2.467 -0.7016  0.6020 -0.7101
 5750SOL     OW28711   2.697   1.276  16.827 -0.0674  0.4024 -0.9822
 5750SOL    HW128712   2.631   1.212  16.801  1.7149 -2.2518  0.9833
 5750SOL    HW228713   2.698   1.252  16.919  0.4005 -0.7369 -1.2856
 5751SOL     OW28714   3.931   1.221   3.282  0.0216 -0.6213 -0.2904
 5751SOL    HW128715   3.890   1.159   3.343 -0.0692  0.7471  1.0324
 5751SOL    HW228716   3.878   1.204   3.204  0.1625  1.7088 -0.8953
 5752SOL     OW28717   0.833   0.730   7.992 -0.4039  0.2852  0.2130
 5752SOL    HW128718   0.828   0.649   8.042  0.1964  1.3714  2.0362
 5752SOL    HW228719   0.925   0.727   7.967  0.0366 -0.3728  1.9612
 5753SOL     OW28720   2.478   4.415  17.291 -0.0812 -0.2981 -0.1348
 5753SOL    HW128721   2.471   4.373  17.206  0.4009 -1.0443  0.1935
 5753SOL    HW228722   2.452   4.504  17.268  0.4188  0.4840  2.2643
 5754SOL     OW28723   3.249   3.771   4.594 -0.5217 -0.3300  0.1061
 5754SOL    HW128724   3.327   3.726   4.627 -1.2987 -0.6757  1.4665
 5754SOL    HW228725   3.273   3.863   4.601 -0.8367 -0.2220 -0.2442
 5755SOL     OW28726   3.230   3.559  12.112  0.5109 -0.0802 -0.1206
 5755SOL    HW128727   3.213   3.555  12.206  0.1535  0.3162 -0.1687
 5755SOL    HW228728   3.326   3.562  12.113  0.4797  0.9366  0.7978
 5756SOL     OW28729   1.358   0.322   3.586 -0.5315 -0.1435 -0.2625
 5756SOL    HW128730   1.285   0.366   3.543 -0.0523  1.5815  0.7066
 5756SOL    HW228731   1.309   0.292   3.662  1.6029 -2.1081  0.3584
 5757SOL     OW28732   0.289   1.451   4.044  0.3713  0.0023 -0.1773
 5757SOL    HW128733   0.277   1.543   4.021  0.6815 -0.2344 -1.2934
 5757SOL    HW228734   0.257   1.438   4.133  0.0420  0.2191 -0.2618
 5758SOL     OW28735   4.302   1.335   4.282  0.2159 -0.3630 -0.0121
 5758SOL    HW128736   4.220   1.350   4.235  1.4725  2.4019 -1.3497
 5758SOL    HW228737   4.351   1.358   4.203  0.5990  1.6045  0.7953
 5759SOL     OW28738   3.818   4.133   8.334 -0.1873 -0.4848 -0.1133
 5759SOL    HW128739   3.809   4.210   8.390 -0.3496 -1.1792  0.8379
 5759SOL    HW228740   3.809   4.167   8.246 -1.3034  1.2762  0.6827
 5760SOL     OW28741   2.296   3.851  16.236  0.2536  0.5233 -0.3553
 5760SOL    HW128742   2.323   3.826  16.148  0.9085  0.0626 -0.0236
 5760SOL    HW228743   2.222   3.791  16.249  0.2853  1.0489  2.3341
 5761SOL     OW28744   0.652   4.500   0.535 -0.1315  0.2876  0.4448
 5761SOL    HW128745   0.686   4.508   0.624 -1.3641  0.6089  0.8836
 5761SOL    HW228746   0.718   4.450   0.487 -2.5436 -1.9960 -0.4865
 5762SOL     OW28747   2.036   2.187   5.216 -0.1986  0.1704  0.1962
 5762SOL    HW128748   2.015   2.260   5.273  2.8052  0.9714  0.2671
 5762SOL    HW228749   1.971   2.196   5.146  0.9651  1.7476 -0.6615
 5763SOL     OW28750   2.926   2.299   2.692 -0.6190  0.0699  0.0026
 5763SOL    HW128751   2.939   2.207   2.668  1.4166 -0.1962  2.1087
 5763SOL    HW228752   2.831   2.304   2.706 -0.1423  1.4225  2.5977
 5764SOL     OW28753   2.233   2.502   6.154  0.0402 -0.3882 -0.3362
 5764SOL    HW128754   2.317   2.491   6.109 -0.9667 -1.3355 -1.9422
 5764SOL    HW228755   2.217   2.592   6.126 -2.6681 -0.7440  0.1321
 5765SOL     OW28756   1.845   1.562   5.974 -0.7457  0.0326  0.7421
 5765SOL    HW128757   1.853   1.634   6.036  2.2817 -0.7608  1.2545
 5765SOL    HW228758   1.918   1.574   5.913 -0.5561 -0.7647  0.8166
 5766SOL     OW28759   4.665   2.717   8.046  0.1565 -0.0163  0.4808
 5766SOL    HW128760   4.685   2.810   8.040  2.3074 -0.5537 -0.6572
 5766SOL    HW228761   4.572   2.721   8.066 -0.5153  0.7818 -2.7904
 5767SOL     OW28762   0.291   2.753   3.280 -0.0769 -0.0252 -0.0192
 5767SOL    HW128763   0.244   2.684   3.233  0.8180 -0.7095  0.0798
 5767SOL    HW228764   0.357   2.772   3.213  0.9234 -0.2458  0.9114
 5768SOL     OW28765   0.756   1.470   2.053 -0.5182 -0.0815  0.0360
 5768SOL    HW128766   0.847   1.449   2.033  0.2844  2.5950  0.8630
 5768SOL    HW228767   0.712   1.385   2.043  0.6697 -0.6150 -0.5775
 5769SOL     OW28768   1.523   1.123  12.792  0.2280  0.2168 -0.4954
 5769SOL    HW128769   1.469   1.139  12.714  1.1269 -2.7178 -1.7339
 5769SOL    HW228770   1.503   1.205  12.838  1.3464  1.8718 -2.9115
 5770SOL     OW28771   4.027   3.806   3.485 -0.3239 -0.5913  0.0087
 5770SOL    HW128772   4.090   3.858   3.535  2.1509 -1.4409 -2.2625
 5770SOL    HW228773   3.989   3.738   3.542  2.8051 -0.4769  2.2135
 5771SOL     OW28774   4.415   4.443   3.376 -0.1692  0.3490 -0.2417
 5771SOL    HW128775   4.393   4.454   3.284 -0.1178  0.0281 -0.2925
 5771SOL    HW228776   4.510   4.432   3.370 -0.2291 -0.0657 -0.4259
 5772SOL     OW28777   4.054   1.105   5.010 -0.2550  0.1744  0.5695
 5772SOL    HW128778   3.979   1.051   5.034  0.4689 -0.2044  2.0142
 5772SOL    HW228779   4.126   1.045   4.993 -0.8041 -0.7854  1.5961
 5773SOL     OW28780   2.977   3.362   6.691 -0.1141  0.3257  0.3754
 5773SOL    HW128781   2.884   3.383   6.702 -0.0771 -0.3919  2.0422
 5773SOL    HW228782   2.972   3.267   6.690 -1.1828  0.3866  0.4299
 5774SOL     OW28783   1.350   4.107  16.922  0.3964 -0.3766  0.2634
 5774SOL    HW128784   1.288   4.168  16.964  1.9059  2.2063 -1.2386
 5774SOL    HW228785   1.438   4.137  16.946 -0.4314  1.4803  1.0120
 5775SOL     OW28786   3.691   0.486   3.574  0.0087  0.3798 -0.2708
 5775SOL    HW128787   3.611   0.515   3.616 -0.3656 -0.7046 -0.2367
 5775SOL    HW228788   3.756   0.485   3.644 -1.6491  0.6134  1.2376
 5776SOL     OW28789   2.861   1.549   2.760 -0.1284  0.0908 -0.1210
 5776SOL    HW128790   2.941   1.543   2.812  0.3057  0.0566 -0.7892
 5776SOL    HW228791   2.886   1.523   2.671 -0.1015 -3.0812  0.7966
 5777SOL     OW28792   1.618   2.239   7.208  0.6228 -0.3550 -0.0782
 5777SOL    HW128793   1.607   2.294   7.131  2.5169  1.0298  0.6418
 5777SOL    HW228794   1.533   2.246   7.252  1.1876 -0.8861  1.0873
 5778SOL     OW28795   3.355   4.393   4.440 -0.2053  0.1431 -0.4765
 5778SOL    HW128796   3.388   4.305   4.421  0.0434 -0.0106  0.6650
 5778SOL    HW228797   3.435   4.439   4.467 -1.3505  1.1200  1.2063
 5779SOL     OW28798   2.484   0.396  10.781  0.0560  0.2051 -0.3470
 5779SOL    HW128799   2.480   0.386  10.876 -0.6000  0.5665 -0.3410
 5779SOL    HW228800   2.392   0.379  10.762  0.1482 -1.3648  0.6026
 5780SOL     OW28801   1.068   2.263   0.524 -0.0670  0.3820 -0.3531
 5780SOL    HW128802   1.109   2.303   0.600  1.4840  0.4522 -1.2326
 5780SOL    HW228803   1.144   2.221   0.484 -0.5109  0.1007 -0.9194
 5781SOL     OW28804   4.358   0.996   4.481  0.0032 -0.0236 -0.0055
 5781SOL    HW128805   4.292   0.980   4.549  1.6615 -1.3092  1.3235
 5781SOL    HW228806   4.379   1.087   4.506  1.4646  0.1241 -1.7639
 5782SOL     OW28807   3.823   4.640   9.662  0.7522  0.4105  0.3373
 5782SOL    HW128808   3.878   4.690   9.722 -0.4213  0.9463  0.9570
 5782SOL    HW228809   3.792   4.717   9.613  0.5933  0.4512  0.5020
 5783SOL     OW28810   2.204   3.847   3.051 -0.0362 -0.3854 -0.0190
 5783SOL    HW128811   2.246   3.932   3.046 -1.4798  0.3266 -0.1039
 5783SOL    HW228812   2.212   3.821   2.960  1.8623 -1.1967  0.3827
 5784SOL     OW28813   0.615   4.523   4.299  0.9167 -0.5070 -0.0752
 5784SOL    HW128814   0.697   4.543   4.344  0.1810  1.8257  0.2186
 5784SOL    HW228815   0.642   4.463   4.230  2.3456  0.4039 -0.3113
 5785SOL     OW28816   0.517   3.262  17.158 -0.2337  0.2448  0.2656
 5785SOL    HW128817   0.500   3.356  17.161  0.0690  0.3368 -0.9037
 5785SOL    HW228818   0.521   3.235  17.067  1.3890 -0.2205  0.4606
 5786SOL     OW28819   1.207   1.858   5.609  0.5487  0.3676  0.7567
 5786SOL    HW128820   1.223   1.902   5.693  2.9758 -0.1837  0.6016
 5786SOL    HW228821   1.152   1.786   5.638 -0.1644 -0.8920 -3.7970
 5787SOL     OW28822   1.151   0.590   0.388 -0.2085  0.1062  0.3654
 5787SOL    HW128823   1.151   0.644   0.309 -1.0750  0.2893  0.4891
 5787SOL    HW228824   1.075   0.625   0.434  0.8467  0.6179  1.7291
 5788SOL     OW28825   0.029   1.757  10.770 -0.2977  0.0264 -0.3306
 5788SOL    HW128826   0.104   1.776  10.714 -0.3086  0.0617 -0.3337
 5788SOL    HW228827   4.681   1.810  10.726  1.2875  2.5406  0.2576
 5789SOL     OW28828   2.172   2.189   6.875 -0.2549 -0.0293 -0.3608
 5789SOL    HW128829   2.098   2.207   6.933  1.7683 -0.6740  2.4160
 5789SOL    HW228830   2.168   2.093   6.874  3.3052 -0.1792 -0.3926
 5790SOL     OW28831   1.004   1.268  11.602 -0.5065  0.1444  0.5790
 5790SOL    HW128832   1.072   1.329  11.630  0.3674  0.3398 -1.9967
 5790SOL    HW228833   0.963   1.327  11.539  2.0625  0.2395 -1.0265
 5791SOL     OW28834   4.568   0.193   6.252 -0.8234  0.4048  0.7152
 5791SOL    HW128835   4.519   0.156   6.179  0.3107  0.1930  0.0498
 5791SOL    HW228836   4.606   0.118   6.298 -2.2747 -0.1625  0.9616
 5792SOL     OW28837   2.526   4.692   6.907 -0.5282  0.0747 -0.3223
 5792SOL    HW128838   2.576   4.639   6.968 -0.1209  0.2535 -0.4953
 5792SOL    HW228839   2.469   4.625   6.870 -0.3326 -0.4538  0.3423
 5793SOL     OW28840   0.337   4.369  16.567  0.1695 -0.0439 -0.0939
 5793SOL    HW128841   0.284   4.446  16.586 -2.0012 -1.3680 -0.6960
 5793SOL    HW228842   0.412   4.413  16.528 -0.9286  0.6558 -1.4255
 5794SOL     OW28843   1.898   1.545  16.647  0.5061  0.4576  0.0872
 5794SOL    HW128844   1.934   1.578  16.565 -0.6454  1.9042  0.1676
 5794SOL    HW228845   1.814   1.507  16.619  1.2246 -0.1998 -1.2031
 5795SOL     OW28846   0.552   2.123   2.741 -0.4174  0.2911 -0.1083
 5795SOL    HW128847   0.517   2.073   2.815  1.9960 -0.0852  0.7867
 5795SOL    HW228848   0.583   2.205   2.778  2.9187 -0.6935 -0.7203
 5796SOL     OW28849   0.476   3.335  11.806  0.2410  0.9686  0.0428
 5796SOL    HW128850   0.521   3.318  11.889  0.1095 -0.9941 -0.2831
 5796SOL    HW228851   0.512   3.271  11.744 -1.5516 -1.7153  1.7476
 5797SOL     OW28852   3.919   0.776  10.853 -0.0517 -0.8189  0.0882
 5797SOL    HW128853   3.993   0.725  10.822 -0.0579  0.6921 -2.4398
 5797SOL    HW228854   3.862   0.775  10.776  2.3425  4.3282 -1.7770
 5798SOL     OW28855   4.160   1.975   7.184 -0.5150 -0.8072 -0.5235
 5798SOL    HW128856   4.227   2.025   7.139 -2.0873  0.5360 -1.3793
 5798SOL    HW228857   4.141   2.039   7.252  0.3603 -1.4170  0.3022
 5799SOL     OW28858   3.328   0.007  10.112 -0.3208 -0.1301  0.3014
 5799SOL    HW128859   3.280   0.065  10.172 -2.2674  1.2630 -2.6201
 5799SOL    HW228860   3.332   4.641  10.156  0.7585 -0.3709 -0.2584
 5800SOL     OW28861   1.959   0.304   0.047  0.4412 -0.8031  0.3748
 5800SOL    HW128862   1.993   0.380  17.680  1.2832 -1.6501 -0.3914
 5800SOL    HW228863   1.871   0.335   0.066  0.7736  1.2615 -1.4610
 5801SOL     OW28864   1.659   2.987   0.743  0.2006  0.3219  0.3925
 5801SOL    HW128865   1.597   2.918   0.762 -0.6789  1.0299  0.0871
 5801SOL    HW228866   1.685   3.018   0.830  0.0720  2.7727 -0.4221
 5802SOL     OW28867   2.182   2.653  15.133 -0.3262  0.6526 -0.0403
 5802SOL    HW128868   2.130   2.652  15.213  1.2749 -3.1012  0.9346
 5802SOL    HW228869   2.141   2.580  15.086  2.1371  0.0299 -1.2001
 5803SOL     OW28870   4.135   0.753   9.138  0.1015 -0.3121 -0.2567
 5803SOL    HW128871   4.156   0.664   9.169  2.3438  0.1341 -0.4753
 5803SOL    HW228872   4.041   0.737   9.139 -0.2107  1.5378 -0.0173
 5804SOL     OW28873   1.535   1.094   9.156 -0.5705  0.4132 -0.3854
 5804SOL    HW128874   1.467   1.151   9.191 -0.8438 -0.5524  0.6765
 5804SOL    HW228875   1.595   1.090   9.231 -0.5755  1.9551 -0.3107
 5805SOL     OW28876   3.838   1.427   5.257  0.0363 -0.0109 -0.1751
 5805SOL    HW128877   3.797   1.363   5.197  2.9355 -2.1674  0.1523
 5805SOL    HW228878   3.770   1.494   5.250  1.5588  1.2281 -3.3144
 5806SOL     OW28879   0.698   3.192  13.967  0.5654  0.0553 -0.1468
 5806SOL    HW128880   0.687   3.228  14.055 -2.4870  1.3900 -1.0768
 5806SOL    HW228881   0.658   3.106  13.974 -0.5395  0.7351  1.9975
 5807SOL     OW28882   1.143   0.632   3.331  0.1159 -0.0275 -0.2745
 5807SOL    HW128883   1.212   0.596   3.275  1.1223  0.0026  0.9391
 5807SOL    HW228884   1.161   0.726   3.327  0.1890 -0.1116 -1.9771
 5808SOL     OW28885   0.324   2.635  12.251  0.4129 -0.1001 -0.1093
 5808SOL    HW128886   0.250   2.653  12.310 -0.1824 -2.9814 -0.0041
 5808SOL    HW228887   0.292   2.684  12.175  0.9029  0.4403  0.0252
 5809SOL     OW28888   1.528   4.640   5.627 -0.7372  0.3221 -0.0684
 5809SOL    HW128889   1.612   4.677   5.655 -0.8471  0.5911 -0.0901
 5809SOL    HW228890   1.470   4.672   5.696  0.7627  0.2852  1.2075
 5810SOL     OW28891   3.219   1.445   8.207  0.2605 -0.1026  0.0261
 5810SOL    HW128892   3.302   1.406   8.181  0.1798 -0.1912 -0.1002
 5810SOL    HW228893   3.171   1.411   8.131  0.5585  0.2866 -0.3381
 5811SOL     OW28894   4.586   2.833   5.516 -0.3894  0.3683 -0.6182
 5811SOL    HW128895   4.669   2.870   5.544 -1.3856 -0.9408  4.0413
 5811SOL    HW228896   4.538   2.823   5.598  3.2360 -0.3299  1.4092
 5812SOL     OW28897   0.659   0.101  15.326  0.6791 -0.5253  0.0479
 5812SOL    HW128898   0.662   0.006  15.314  0.3669 -0.3297 -1.5814
 5812SOL    HW228899   0.645   0.125  15.234 -3.1655  1.8859  1.2316
 5813SOL     OW28900   1.170   4.128  15.858  0.2219  0.0256 -0.2000
 5813SOL    HW128901   1.197   4.220  15.862  0.7404 -0.1793  0.9488
 5813SOL    HW228902   1.193   4.108  15.767  3.4468 -0.1393  0.6473
 5814SOL     OW28903   2.983   4.710   4.521  0.4754  0.8163 -0.2227
 5814SOL    HW128904   2.907   4.663   4.555  1.4683  1.0338  2.3784
 5814SOL    HW228905   2.969   4.693   4.428 -1.0982 -1.0789  0.3695
 5815SOL     OW28906   3.731   0.336   9.209 -0.1354 -0.3585 -0.1903
 5815SOL    HW128907   3.673   0.404   9.175 -1.5789 -1.2848  0.4302
 5815SOL    HW228908   3.803   0.362   9.151  1.2774  0.4193  1.9129
 5816SOL     OW28909   3.137   0.810  11.031 -0.1042  0.7375 -0.3139
 5816SOL    HW128910   3.124   0.803  11.125  0.3634  0.6681 -0.2549
 5816SOL    HW228911   3.044   0.814  11.010 -0.3493  1.0057  0.8107
 5817SOL     OW28912   4.490   1.131   4.197  0.4300  0.3200 -0.3830
 5817SOL    HW128913   4.455   1.135   4.285 -0.0294 -0.3577 -0.5363
 5817SOL    HW228914   4.423   1.102   4.135 -0.0877 -1.5779  1.0751
 5818SOL     OW28915   3.784   2.561   4.198  0.0930  0.1481  0.1700
 5818SOL    HW128916   3.721   2.622   4.237 -0.9084 -1.2272  0.7150
 5818SOL    HW228917   3.728   2.486   4.177  2.2008 -1.4997  0.4574
 5819SOL     OW28918   1.192   0.633  13.270 -0.0183  0.1071 -0.3409
 5819SOL    HW128919   1.184   0.550  13.317 -0.4075  0.8878  0.9662
 5819SOL    HW228920   1.105   0.646  13.232 -1.1944 -0.5806  2.1627
 5820SOL     OW28921   3.691   2.002  16.072 -0.1905 -0.4259 -0.2679
 5820SOL    HW128922   3.606   2.035  16.101  0.0004 -0.6060  0.4985
 5820SOL    HW228923   3.687   2.033  15.981 -0.3054 -2.8872 -1.1186
 5821SOL     OW28924   1.329   0.891  11.648 -0.5750 -0.1312 -0.7532
 5821SOL    HW128925   1.238   0.920  11.640  0.6459  3.1760 -2.5586
 5821SOL    HW228926   1.368   0.925  11.567 -1.2845  1.2251 -0.5329
 5822SOL     OW28927   2.786   1.726  12.513  0.3665  0.0273  0.6515
 5822SOL    HW128928   2.818   1.797  12.569 -0.3496 -1.4865  2.9730
 5822SOL    HW228929   2.869   1.682  12.501  0.3989 -0.6031  3.0714
 5823SOL     OW28930   1.147   0.916   7.731 -0.1741  0.4073  0.3063
 5823SOL    HW128931   1.240   0.895   7.722 -0.5133 -0.9673 -0.0613
 5823SOL    HW228932   1.145   1.003   7.771  2.6107  0.9110 -0.6302
 5824SOL     OW28933   2.363   0.253   2.213 -0.1277  0.4203  0.1025
 5824SOL    HW128934   2.289   0.201   2.246  0.5543 -0.9286 -0.5117
 5824SOL    HW228935   2.352   0.343   2.242 -1.4200 -0.2723  1.7866
 5825SOL     OW28936   0.234   4.040   8.803 -0.1110 -0.1222  0.4755
 5825SOL    HW128937   0.226   3.990   8.884  1.3273  0.0968  0.7581
 5825SOL    HW228938   0.329   4.052   8.808 -0.0004  0.5502 -3.1181
 5826SOL     OW28939   2.955   3.531   2.970  0.0589  0.9833  0.5761
 5826SOL    HW128940   2.912   3.472   2.908 -2.1212  2.0327  1.1103
 5826SOL    HW228941   3.038   3.539   2.924  0.3037  0.8759  0.9972
 5827SOL     OW28942   3.264   3.848   1.499 -0.2383 -0.0048  0.2032
 5827SOL    HW128943   3.353   3.831   1.527  0.3267  1.0520 -0.9552
 5827SOL    HW228944   3.211   3.798   1.561  2.4028 -2.5239  0.3883
 5828SOL     OW28945   2.679   3.481   6.979  0.5895 -0.1274 -0.5736
 5828SOL    HW128946   2.701   3.428   7.057  0.2300 -0.5900 -0.7870
 5828SOL    HW228947   2.619   3.428   6.927 -1.4931  0.3852  1.3167
 5829SOL     OW28948   3.505   1.927  16.501 -0.5942 -0.1022 -0.1580
 5829SOL    HW128949   3.429   1.884  16.539  0.0712 -0.2166  1.0491
 5829SOL    HW228950   3.473   1.938  16.412 -0.7481 -0.4374 -0.1421
 5830SOL     OW28951   0.478   2.817   3.103  0.2496 -0.1661  0.2809
 5830SOL    HW128952   0.484   2.825   3.007 -0.3101 -0.4839  0.2182
 5830SOL    HW228953   0.491   2.907   3.132 -0.2864  0.3506 -1.0912
 5831SOL     OW28954   1.864   3.409   3.739  0.0165 -0.1616  0.1859
 5831SOL    HW128955   1.881   3.454   3.656 -0.4253 -0.9936 -0.3544
 5831SOL    HW228956   1.925   3.336   3.727  0.8850  0.7227 -0.8188
 5832SOL     OW28957   1.537   3.370  16.692 -0.1464 -0.0642 -0.2425
 5832SOL    HW128958   1.581   3.342  16.612 -0.2625 -1.2022  0.0952
 5832SOL    HW228959   1.456   3.396  16.646  0.9226  2.5088 -0.7113
 5833SOL     OW28960   2.494   4.375  11.503 -0.8094 -0.4834  0.2802
 5833SOL    HW128961   2.498   4.363  11.408 -3.5687 -0.4649  0.1639
 5833SOL    HW228962   2.553   4.308  11.537  1.4289  1.5198  0.4262
 5834SOL     OW28963   4.637   0.771  13.991 -0.0825  0.0269  0.4999
 5834SOL    HW128964   4.655   0.840  14.056 -0.9221  1.2480 -0.5724
 5834SOL    HW228965   4.587   0.711  14.045  0.6046  0.9063  2.1382
 5835SOL     OW28966   1.002   4.376   0.535  0.1698  0.0193  0.2987
 5835SOL    HW128967   0.953   4.414   0.609 -0.5430 -0.5449  0.1127
 5835SOL    HW228968   1.036   4.309   0.595  1.7271 -0.1883 -0.8186
 5836SOL     OW28969   3.739   3.209   3.455  0.1726  0.5514 -0.0567
 5836SOL    HW128970   3.649   3.230   3.432 -0.3636 -2.1873 -0.5651
 5836SOL    HW228971   3.741   3.114   3.466 -0.0026  0.6043  0.3879
 5837SOL     OW28972   0.881   3.533  14.564  0.2021 -0.0687 -0.3046
 5837SOL    HW128973   0.949   3.597  14.585  0.1301  0.0079 -0.3070
 5837SOL    HW228974   0.920   3.473  14.500  0.3736 -1.3266  0.9699
 5838SOL     OW28975   1.240   3.562  15.262 -0.0032  0.0584 -0.4142
 5838SOL    HW128976   1.316   3.578  15.206 -0.0570 -1.3308 -0.8971
 5838SOL    HW228977   1.161   3.589  15.215 -0.0501 -0.3421 -0.5655
 5839SOL     OW28978   1.391   0.972   4.150 -0.4188 -0.1793 -0.3441
 5839SOL    HW128979   1.375   0.920   4.071 -1.2139  0.1006 -0.3600
 5839SOL    HW228980   1.307   1.012   4.171  0.9408  0.8666  3.1482
 5840SOL     OW28981   3.616   1.609   6.136 -0.1763  0.2241  0.5559
 5840SOL    HW128982   3.572   1.694   6.133 -1.6906 -0.5481  1.2104
 5840SOL    HW228983   3.561   1.552   6.084 -1.7281  0.6058  1.7631
 5841SOL     OW28984   3.163   2.866   5.632  0.3015  0.1072 -0.8841
 5841SOL    HW128985   3.129   2.871   5.543  0.0926  2.5967 -0.6691
 5841SOL    HW228986   3.216   2.946   5.631  2.8094 -1.5250  0.0023
 5842SOL     OW28987   3.834   2.673   7.519  0.1298 -0.2884 -0.0097
 5842SOL    HW128988   3.847   2.717   7.434  1.0171 -0.0864  0.2340
 5842SOL    HW228989   3.859   2.749   7.571  0.7092 -1.0771  0.8593
 5843SOL     OW28990   3.091   1.225  17.375  0.0344  0.2525  0.4163
 5843SOL    HW128991   3.160   1.185  17.428  2.0942  2.6429 -0.4333
 5843SOL    HW228992   3.008   1.191  17.408 -1.3380  2.1061 -1.0782
 5844SOL     OW28993   4.100   1.655  11.630  0.0559  0.6287  0.2174
 5844SOL    HW128994   4.063   1.571  11.657 -0.6047  0.2437 -1.8994
 5844SOL    HW228995   4.169   1.661  11.696  0.8059  1.8141 -0.6816
 5845SOL     OW28996   2.948   1.732   3.449  0.0581  0.4648 -0.2856
 5845SOL    HW128997   2.903   1.792   3.509 -0.8870 -0.2575 -0.2586
 5845SOL    HW228998   3.010   1.789   3.403 -0.3081  0.8045 -0.3611
 5846SOL     OW28999   1.591   1.816   4.435  0.7494 -0.0377 -0.0941
 5846SOL    HW129000   1.553   1.898   4.467  0.5458 -0.1056 -0.1675
 5846SOL    HW229001   1.581   1.763   4.514  0.0059  1.7112  0.9954
 5847SOL     OW29002   3.452   0.625   4.231 -0.4883  0.2889 -0.3985
 5847SOL    HW129003   3.386   0.604   4.164 -0.9562 -0.2423  0.2385
 5847SOL    HW229004   3.533   0.589   4.195 -1.7500 -1.3127 -1.6121
 5848SOL     OW29005   2.249   1.458   0.952  0.2316 -0.0645  0.1579
 5848SOL    HW129006   2.210   1.387   1.003  1.3588 -1.7598 -1.3039
 5848SOL    HW229007   2.225   1.527   1.014 -0.4227 -0.5259  0.4201
 5849SOL     OW29008   2.429   3.150   2.748  0.7245  0.1925  0.0649
 5849SOL    HW129009   2.363   3.081   2.744 -0.5184  1.4444 -1.0426
 5849SOL    HW229010   2.509   3.110   2.714  1.3882  3.5870 -2.3166
 5850SOL     OW29011   3.449   0.946   5.476 -0.1763  0.3293 -0.5166
 5850SOL    HW129012   3.492   0.982   5.554 -0.2934  0.9549 -0.7383
 5850SOL    HW229013   3.455   0.852   5.493  1.0521  0.3818 -0.7030
 5851SOL     OW29014   2.342   3.379   3.642  0.3983  0.1391 -0.4995
 5851SOL    HW129015   2.314   3.302   3.594 -2.6800  1.0475 -0.1316
 5851SOL    HW229016   2.271   3.409   3.699  0.8780 -0.6168  0.4957
 5852SOL     OW29017   1.888   2.531   0.791 -0.0902 -0.0089 -0.5101
 5852SOL    HW129018   1.849   2.578   0.864  0.6202 -0.2232  0.0001
 5852SOL    HW229019   1.928   2.454   0.832 -1.7590 -1.1385 -0.9726
 5853SOL     OW29020   0.383   1.831   8.692  0.2425 -0.3523 -0.3385
 5853SOL    HW129021   0.337   1.756   8.654  0.6967  0.2672 -2.1043
 5853SOL    HW229022   0.382   1.820   8.787 -0.4593  1.7047 -0.0956
 5854SOL     OW29023   1.470   0.481  12.298 -0.0716  0.0012 -0.5630
 5854SOL    HW129024   1.465   0.414  12.229 -2.2300 -0.8593  0.4232
 5854SOL    HW229025   1.565   0.473  12.310 -0.2893  1.9880  2.3637
 5855SOL     OW29026   4.217   2.035  16.159 -0.2368  0.0103  0.1882
 5855SOL    HW129027   4.144   2.046  16.098 -0.6177 -0.2476  0.6032
 5855SOL    HW229028   4.242   1.943  16.156  0.0716  0.1456 -2.0541
 5856SOL     OW29029   4.050   2.586   3.864 -0.3301  0.2876 -0.4573
 5856SOL    HW129030   4.096   2.565   3.945 -0.7388 -0.4315 -0.4092
 5856SOL    HW229031   4.102   2.549   3.793 -0.4223  2.5060 -1.6770
 5857SOL     OW29032   3.352   3.166   5.363 -0.0532 -0.4124 -0.1799
 5857SOL    HW129033   3.280   3.173   5.425 -1.4093  0.3990 -1.8289
 5857SOL    HW229034   3.319   3.204   5.282 -0.9476  1.3985  1.0622
 5858SOL     OW29035   3.502   3.144   6.114  0.2845 -0.2438 -0.0117
 5858SOL    HW129036   3.584   3.193   6.107 -1.5245  2.2837 -3.4197
 5858SOL    HW229037   3.528   3.066   6.066 -0.6239 -0.3872 -0.2708
 5859SOL     OW29038   4.492   2.540   5.098  0.3144  0.3833  0.2857
 5859SOL    HW129039   4.556   2.570   5.034  0.3959 -0.8517 -0.2101
 5859SOL    HW229040   4.530   2.579   5.177  0.8467 -0.0723  0.2511
 5860SOL     OW29041   4.159   1.981   1.699  0.2251 -0.1993 -0.3858
 5860SOL    HW129042   4.135   1.889   1.708 -0.2329  0.0220  0.6076
 5860SOL    HW229043   4.208   1.983   1.616  1.3843 -2.2641  0.2496
 5861SOL     OW29044   1.067   2.150  10.665  0.3770 -0.7495  0.0946
 5861SOL    HW129045   1.095   2.062  10.694 -0.0486 -1.1909 -0.8494
 5861SOL    HW229046   0.977   2.123  10.646  0.1226  0.2867 -0.1393
 5862SOL     OW29047   0.839   4.203   8.234  0.6306 -0.1831  0.3352
 5862SOL    HW129048   0.827   4.158   8.150  1.8553  0.2223 -0.0433
 5862SOL    HW229049   0.872   4.288   8.206  0.5158  0.1027  1.0741
 5863SOL     OW29050   3.607   3.170   7.542  0.0259 -0.0671 -0.2595
 5863SOL    HW129051   3.541   3.104   7.518  0.6711 -0.6341 -0.4834
 5863SOL    HW229052   3.664   3.122   7.603  0.7077 -1.1362 -1.7403
 5864SOL     OW29053   0.286   1.697  13.033 -0.1303  0.1479  0.3809
 5864SOL    HW129054   0.326   1.637  12.970  0.1716 -1.5622  2.2326
 5864SOL    HW229055   0.342   1.671  13.106 -0.0498  0.4113  0.4138
 5865SOL     OW29056   3.911   4.063   2.713 -0.4127 -0.6804 -0.3596
 5865SOL    HW129057   3.853   4.134   2.737  2.3234  1.2925  0.3710
 5865SOL    HW229058   3.879   4.038   2.626  0.0494 -2.0711 -0.1339
 5866SOL     OW29059   1.715   4.203   2.812 -0.3766  0.0592 -0.1822
 5866SOL    HW129060   1.748   4.139   2.875 -0.4434 -2.5771 -2.8393
 5866SOL    HW229061   1.667   4.154   2.746 -0.2320  0.3178 -0.4810
 5867SOL     OW29062   0.235   1.847  10.607 -0.0521 -0.4719  0.1086
 5867SOL    HW129063   0.302   1.840  10.675  0.0870  3.4406  0.3456
 5867SOL    HW229064   0.283   1.797  10.540 -0.0313  1.7324 -1.4945
 5868SOL     OW29065   3.314   2.768   0.934  0.6199  0.4090  0.3948
 5868SOL    HW129066   3.297   2.832   0.865 -1.5352 -1.5168 -0.9022
 5868SOL    HW229067   3.373   2.718   0.877 -0.0434  0.5108 -0.3843
 5869SOL     OW29068   2.985   0.833   2.711  0.1333  0.5647 -0.5855
 5869SOL    HW129069   2.942   0.918   2.710 -0.1877  0.4123  0.2128
 5869SOL    HW229070   2.990   0.829   2.806 -0.0493  0.0191 -0.5989
 5870SOL     OW29071   1.047   3.607  13.586  0.3591  0.6152 -0.1532
 5870SOL    HW129072   1.132   3.606  13.632  0.2059  0.6668  0.1294
 5870SOL    HW229073   1.065   3.685  13.534 -1.8024  1.7606  0.8126
 5871SOL     OW29074   3.185   3.637   4.106 -0.2950  0.4711  0.6393
 5871SOL    HW129075   3.133   3.696   4.161  0.6914  0.8733  1.1326
 5871SOL    HW229076   3.233   3.697   4.048 -2.0077  1.3929  0.1795
 5872SOL     OW29077   1.790   0.464   6.779  0.5677  0.7228 -0.3212
 5872SOL    HW129078   1.852   0.418   6.836  0.2834 -1.9944 -2.1872
 5872SOL    HW229079   1.720   0.487   6.839  0.0912 -0.4981 -0.4053
 5873SOL     OW29080   0.025   1.774  12.780 -0.1324  0.4291  0.1577
 5873SOL    HW129081   4.681   1.797  12.712  0.8952 -1.2137 -1.3532
 5873SOL    HW229082   0.094   1.745  12.721  0.2961  0.6528  0.5486
 5874SOL     OW29083   2.361   2.447   3.283  0.2207 -0.2120 -0.0614
 5874SOL    HW129084   2.349   2.376   3.347 -3.2578  1.8648  1.5655
 5874SOL    HW229085   2.290   2.503   3.314  0.1700 -0.3525  0.0767
 5875SOL     OW29086   3.998   1.166   4.457 -0.7953 -0.3617  0.1442
 5875SOL    HW129087   3.985   1.194   4.548 -0.3336 -0.6969  0.3142
 5875SOL    HW229088   3.909   1.177   4.422 -0.6815  1.7169  0.4770
 5876SOL     OW29089   2.421   1.009   3.471 -0.0920 -0.5092  0.2328
 5876SOL    HW129090   2.456   0.920   3.485 -0.3912 -0.5131  0.9435
 5876SOL    HW229091   2.456   1.066   3.539 -2.9477  0.9396  0.4537
 5877SOL     OW29092   1.057   2.515   4.802 -0.2059  0.2608  0.3047
 5877SOL    HW129093   1.141   2.493   4.842  1.3131  0.0003 -3.0641
 5877SOL    HW229094   1.088   2.574   4.733  0.0115  0.3788  0.5034
 5878SOL     OW29095   4.692   1.215   9.238 -0.1512 -0.0484  0.0157
 5878SOL    HW129096   0.041   1.203   9.172  0.0856  0.7127  0.1243
 5878SOL    HW229097   4.712   1.293   9.289 -0.5291  0.2794 -0.3390
 5879SOL     OW29098   2.877   3.013   5.235  0.0259  0.5105 -0.4417
 5879SOL    HW129099   2.960   3.027   5.280 -0.6571  0.2254  0.8798
 5879SOL    HW229100   2.911   2.964   5.159  1.3795  0.9659 -0.1270
 5880SOL     OW29101   4.601   4.701  14.916 -0.5278 -0.4674  0.2694
 5880SOL    HW129102   4.616   4.614  14.880  2.6634 -0.1081  0.6897
 5880SOL    HW229103   4.572   4.658  14.996 -1.5981 -0.2710 -0.0212
 5881SOL     OW29104   1.224   3.886   2.939  0.4135  0.4367 -0.0265
 5881SOL    HW129105   1.215   3.981   2.951 -1.5982  0.3569 -0.8978
 5881SOL    HW229106   1.284   3.879   2.864 -0.5711  1.7782 -0.9555
 5882SOL     OW29107   1.441   1.370   8.740  0.2206 -0.3974  0.4115
 5882SOL    HW129108   1.462   1.453   8.784 -1.5298 -0.0553  0.5976
 5882SOL    HW229109   1.473   1.299   8.796  1.4419 -0.0081  0.2069
 5883SOL     OW29110   3.150   1.188   6.995  0.2668  0.6400  0.5108
 5883SOL    HW129111   3.172   1.280   6.982 -2.1433  1.1449 -0.0653
 5883SOL    HW229112   3.235   1.174   7.036 -0.6893  2.2431  3.0662
 5884SOL     OW29113   1.828   2.885   4.735 -0.0068  0.1770 -0.1551
 5884SOL    HW129114   1.865   2.970   4.715  0.7476 -0.6671 -2.3158
 5884SOL    HW229115   1.733   2.887   4.725 -0.5229 -0.3143  4.6631
 5885SOL     OW29116   4.200   1.321   5.341  0.1298 -0.2516 -0.5643
 5885SOL    HW129117   4.159   1.277   5.415  2.2276 -0.5481  0.4312
 5885SOL    HW229118   4.166   1.410   5.334  0.7018  0.0762  0.7158
 5886SOL     OW29119   0.377   2.769   6.961 -0.1958  0.2708 -0.1021
 5886SOL    HW129120   0.323   2.815   7.025 -0.3503 -1.9859  1.3829
 5886SOL    HW229121   0.436   2.836   6.928 -1.9114  1.6665 -0.3523
 5887SOL     OW29122   2.003   0.615   6.644  0.1221 -0.1790  0.4249
 5887SOL    HW129123   2.076   0.558   6.668  0.3299 -0.4783 -0.9060
 5887SOL    HW229124   1.934   0.556   6.673  0.5093 -1.1668 -0.6247
 5888SOL     OW29125   3.579   1.825   8.184 -0.4738 -0.1972  0.3462
 5888SOL    HW129126   3.644   1.872   8.132 -0.9011  0.8764  0.8084
 5888SOL    HW229127   3.619   1.738   8.190  1.1873  0.6398  1.2316
 5889SOL     OW29128   0.262   1.555   3.121 -0.1546  0.4522  0.2582
 5889SOL    HW129129   0.287   1.619   3.055  0.1198 -0.8671 -0.8979
 5889SOL    HW229130   0.350   1.533   3.150  0.2516  1.8078  0.0317
 5890SOL     OW29131   3.615   2.322   6.029 -0.0730 -0.2124 -0.9853
 5890SOL    HW129132   3.552   2.254   6.055 -0.2309 -0.0770 -1.0169
 5890SOL    HW229133   3.558   2.399   6.027  1.2154  0.7813  1.0725
 5891SOL     OW29134   4.668   2.602   4.891 -0.0788  0.0243  0.5415
 5891SOL    HW129135   4.598   2.558   4.842  1.0532 -1.3731  0.1840
 5891SOL    HW229136   4.659   2.687   4.847  0.6163 -0.9843 -1.5316
 5892SOL     OW29137   4.335   3.552   1.998  0.8537  0.7581  0.6898
 5892SOL    HW129138   4.324   3.575   1.905  3.8203 -2.6290 -0.4827
 5892SOL    HW229139   4.429   3.542   2.008  0.8402  1.1394  1.2096
 5893SOL     OW29140   1.665   0.092  13.857 -0.2891 -0.0766  0.3228
 5893SOL    HW129141   1.660   4.716  13.860 -0.7503 -0.1091 -1.3386
 5893SOL    HW229142   1.628   0.118  13.773  3.0000  1.1325 -0.7243
 5894SOL     OW29143   4.260   0.548   5.884 -0.4883  0.4962 -0.1984
 5894SOL    HW129144   4.269   0.585   5.972 -0.8440  0.5845 -0.1967
 5894SOL    HW229145   4.341   0.580   5.844 -0.3923  0.2615 -0.1878
 5895SOL     OW29146   2.209   3.043   6.992 -0.0971 -0.2494 -0.1598
 5895SOL    HW129147   2.156   3.100   7.048  1.2697  1.0849 -0.2384
 5895SOL    HW229148   2.294   3.074   7.021 -0.5918 -0.1637  1.1863
 5896SOL     OW29149   3.104   3.449   0.688  0.6164 -0.6954  0.3412
 5896SOL    HW129150   3.095   3.521   0.751  1.1990 -2.4506  2.4088
 5896SOL    HW229151   3.173   3.478   0.629 -1.0118  2.2208 -0.1793
 5897SOL     OW29152   3.349   1.611   7.500  0.0463 -0.8552 -0.2976
 5897SOL    HW129153   3.435   1.652   7.514  0.1870 -1.5863  0.9869
 5897SOL    HW229154   3.292   1.677   7.540 -0.8450 -1.2513 -0.9304
 5898SOL     OW29155   2.113   0.946   4.651 -0.5690  0.0079 -0.0453
 5898SOL    HW129156   2.044   0.886   4.678 -0.6460  0.8805  1.6891
 5898SOL    HW229157   2.167   0.956   4.729  0.4042  1.5864 -0.9182
 5899SOL     OW29158   2.819   3.891   1.030  0.3058  0.7869 -0.8587
 5899SOL    HW129159   2.860   3.870   1.114  0.7297  0.2245 -1.2111
 5899SOL    HW229160   2.881   3.961   1.010  1.2441  0.6932  1.7699
 5900SOL     OW29161   3.469   2.864   6.569  0.3807  0.0694 -0.1301
 5900SOL    HW129162   3.477   2.917   6.648 -0.6614 -2.1501  1.4780
 5900SOL    HW229163   3.441   2.783   6.612  0.1362 -0.0529 -0.5166
 5901SOL     OW29164   2.545   1.694   0.452 -0.4170 -0.4976  0.1087
 5901SOL    HW129165   2.613   1.752   0.418 -2.1893  0.6407 -1.5321
 5901SOL    HW229166   2.566   1.691   0.545  0.6160  0.4052 -0.0976
 5902SOL     OW29167   0.018   0.296   5.124  0.7153  0.4576  0.9131
 5902SOL    HW129168   0.007   0.387   5.150 -1.8209  0.1773  0.8313
 5902SOL    HW229169   0.058   0.303   5.037 -0.6879  1.0703  0.3165
 5903SOL     OW29170   2.349   4.364   2.500 -0.1284 -0.1094  0.3350
 5903SOL    HW129171   2.335   4.274   2.474  1.4572  0.0278 -0.9461
 5903SOL    HW229172   2.342   4.345   2.594 -0.5394  2.3306  0.8175
 5904SOL     OW29173   2.464   1.932   8.590  0.4795  0.3489 -0.7764
 5904SOL    HW129174   2.536   1.991   8.568  0.0384  1.8957  1.8779
 5904SOL    HW229175   2.406   1.941   8.515 -1.1699 -0.5745  0.3643
 5905SOL     OW29176   0.505   2.062   0.382 -0.0335  0.3802  0.6774
 5905SOL    HW129177   0.546   2.080   0.297  0.2131 -2.1880  0.2518
 5905SOL    HW229178   0.582   2.046   0.436 -0.8707 -1.2365  1.4031
 5906SOL     OW29179   2.403   2.655  14.986 -0.2284  0.4919 -0.1303
 5906SOL    HW129180   2.318   2.652  15.031 -0.2940  0.8838 -0.2238
 5906SOL    HW229181   2.414   2.750  14.988 -1.9428  0.7222 -2.0451
 5907SOL     OW29182   2.302   0.677   5.808  0.3531  0.0451 -0.4929
 5907SOL    HW129183   2.387   0.653   5.847  0.1871  0.9613  0.4612
 5907SOL    HW229184   2.253   0.676   5.890 -1.0010 -0.5463 -1.3099
 5908SOL     OW29185   3.782   0.597   2.573 -0.5310  0.6074  0.7379
 5908SOL    HW129186   3.758   0.615   2.482  0.1173 -1.6910  0.1233
 5908SOL    HW229187   3.703   0.557   2.608 -0.2575 -0.8057 -0.2777
 5909SOL     OW29188   2.320   0.008  15.126  0.0364  0.3141 -0.7118
 5909SOL    HW129189   2.371   0.046  15.055 -0.3193  1.5578 -0.2925
 5909SOL    HW229190   2.338   4.635  15.109 -2.0229 -0.3933  0.9499
 5910SOL     OW29191   0.779   0.262  11.996  0.0040 -0.1884  0.0938
 5910SOL    HW129192   0.691   0.275  11.960 -0.4663 -0.8224  1.0068
 5910SOL    HW229193   0.826   0.304  11.924 -0.9680 -0.0053 -0.4413
 5911SOL     OW29194   0.446   1.223  11.371  0.3122  0.0455 -0.7138
 5911SOL    HW129195   0.396   1.275  11.435 -0.4797 -2.9336  1.0742
 5911SOL    HW229196   0.457   1.289  11.302 -1.4302  0.0019 -1.0451
 5912SOL     OW29197   0.893   0.706   4.218 -0.1324  0.1021 -0.4461
 5912SOL    HW129198   0.911   0.613   4.206 -0.4597  0.0044 -0.1756
 5912SOL    HW229199   0.921   0.733   4.130  0.7344 -1.1604 -0.5679
 5913SOL     OW29200   1.558   1.618   2.276  0.1657 -0.4220  0.3344
 5913SOL    HW129201   1.540   1.707   2.307  1.1621 -0.9165  2.3384
 5913SOL    HW229202   1.549   1.626   2.181  1.6153 -0.2525  0.2210
 5914SOL     OW29203   1.486   1.247  10.792 -0.1252  0.3173  0.0871
 5914SOL    HW129204   1.442   1.197  10.724 -0.5158  1.0227 -0.1841
 5914SOL    HW229205   1.487   1.334  10.752 -1.4523  0.5621  0.5643
 5915SOL     OW29206   0.331   4.556   3.721  0.5975  0.1937  0.2638
 5915SOL    HW129207   0.374   4.514   3.646 -2.0985  0.3875 -1.3893
 5915SOL    HW229208   0.251   4.522   3.682 -1.4509  1.2895  3.5221
 5916SOL     OW29209   4.063   2.200   4.195  0.2966  0.0437 -0.4003
 5916SOL    HW129210   3.995   2.166   4.137 -1.5337  1.7659  0.7396
 5916SOL    HW229211   4.017   2.186   4.277  0.4505 -1.8320 -0.6352
 5917SOL     OW29212   3.828   1.345  17.302 -0.3018  0.5913 -0.6173
 5917SOL    HW129213   3.763   1.337  17.371 -0.6853 -0.4210 -1.0879
 5917SOL    HW229214   3.900   1.381  17.354 -0.8846 -2.3000  2.1739
 5918SOL     OW29215   3.122   2.701  16.773  0.2641  0.1361  0.0290
 5918SOL    HW129216   3.090   2.743  16.693 -1.7646  2.7306  2.1930
 5918SOL    HW229217   3.216   2.710  16.757  0.1162  0.1204 -0.8796
 5919SOL     OW29218   0.752   1.854   4.270 -0.1324 -0.0598 -0.7887
 5919SOL    HW129219   0.666   1.862   4.227 -1.0837 -0.9888  0.9362
 5919SOL    HW229220   0.736   1.773   4.320  0.4519  0.9206  0.9687
 5920SOL     OW29221   1.067   3.635   7.974  0.0412 -0.0231 -0.2836
 5920SOL    HW129222   1.155   3.601   7.959 -0.3044 -0.4897 -1.2175
 5920SOL    HW229223   1.056   3.626   8.069 -0.9965  1.6442 -0.2416
 5921SOL     OW29224   1.438   3.506   3.960 -0.4299 -0.0543 -0.3478
 5921SOL    HW129225   1.478   3.592   3.969 -0.5522  0.2392 -2.6935
 5921SOL    HW229226   1.505   3.463   3.907 -0.1134  0.8821 -0.7037
 5922SOL     OW29227   3.359   0.219   2.366  0.1342 -0.1378 -0.1407
 5922SOL    HW129228   3.361   0.248   2.457 -1.0529 -1.7272  0.3991
 5922SOL    HW229229   3.275   0.256   2.339  0.5008  1.4513  0.9020
 5923SOL     OW29230   0.867   2.118  14.714 -0.3601  0.1034 -0.3912
 5923SOL    HW129231   0.793   2.061  14.695  0.2968 -0.7755 -0.3229
 5923SOL    HW229232   0.833   2.197  14.672 -1.1376 -1.1155 -2.0253
 5924SOL     OW29233   0.216   1.539   1.060 -0.5421 -0.0240  0.6292
 5924SOL    HW129234   0.254   1.568   1.143  2.7629 -1.2114 -0.4794
 5924SOL    HW229235   0.215   1.444   1.067 -1.6444  0.1978  3.7952
 5925SOL     OW29236   0.995   0.561   6.664 -0.1767  0.0590 -0.0971
 5925SOL    HW129237   1.003   0.478   6.617  2.2448  0.0927  0.2361
 5925SOL    HW229238   1.068   0.611   6.628  0.7148  1.0091  3.0664
 5926SOL     OW29239   4.586   4.417   2.544 -0.0297 -0.1514 -0.0800
 5926SOL    HW129240   4.563   4.457   2.628  0.0645 -0.2064 -0.0275
 5926SOL    HW229241   4.655   4.357   2.573 -1.7804 -1.1667  2.0525
 5927SOL     OW29242   1.939   1.016   7.979  0.2893 -0.3756  0.0495
 5927SOL    HW129243   1.893   1.065   8.047  1.5028 -0.5859  1.0213
 5927SOL    HW229244   1.969   0.944   8.036 -0.2239 -2.4082 -2.2408
 5928SOL     OW29245   2.126   2.713   2.721  0.1853 -0.5582  0.3105
 5928SOL    HW129246   2.140   2.799   2.682 -0.6206 -0.7197 -0.3376
 5928SOL    HW229247   2.126   2.659   2.641  0.0842  1.7825 -1.2802
 5929SOL     OW29248   3.246   0.521  13.368  0.4763  0.0474 -0.0948
 5929SOL    HW129249   3.255   0.528  13.463  1.8018 -0.1651 -0.1968
 5929SOL    HW229250   3.210   0.433  13.364  2.6586 -0.8055 -1.2536
 5930SOL     OW29251   3.908   1.318   9.266  0.0659  0.7598  0.0411
 5930SOL    HW129252   3.943   1.367   9.340 -2.0808 -0.4564  1.8462
 5930SOL    HW229253   3.844   1.267   9.315 -1.0576  0.5967 -1.5936
 5931SOL     OW29254   1.860   1.676   3.582 -0.3325 -0.3080 -0.1850
 5931SOL    HW129255   1.828   1.722   3.660 -0.9045  2.2492 -1.9607
 5931SOL    HW229256   1.915   1.739   3.536 -2.2196  1.3816 -0.1241
 5932SOL     OW29257   3.818   4.245   1.441  0.5250  0.0888 -0.2545
 5932SOL    HW129258   3.821   4.205   1.528  1.1992  1.1486  0.2192
 5932SOL    HW229259   3.865   4.328   1.454 -3.4027  2.2838  0.1620
 5933SOL     OW29260   0.816   0.871  10.985 -0.0987 -0.4909  0.1605
 5933SOL    HW129261   0.783   0.910  10.904  2.3500 -0.0801 -0.6414
 5933SOL    HW229262   0.780   0.937  11.044  1.3424 -1.8372  2.5114
 5934SOL     OW29263   4.469   4.165  10.933  0.5295 -0.6326 -0.0943
 5934SOL    HW129264   4.386   4.122  10.911 -0.6929  0.9844  1.3018
 5934SOL    HW229265   4.467   4.166  11.029 -0.8207  0.0513 -0.1218
 5935SOL     OW29266   3.999   1.979  12.059  0.1922  0.1853  0.0114
 5935SOL    HW129267   3.905   1.976  12.074  0.1512  1.9773  0.2033
 5935SOL    HW229268   4.010   2.073  12.042 -0.3246  0.3690  0.6870
 5936SOL     OW29269   1.102   2.633   7.418  0.0628 -0.2979  0.3512
 5936SOL    HW129270   1.041   2.570   7.382  0.2785 -0.3673  0.1086
 5936SOL    HW229271   1.077   2.617   7.509 -0.6541  0.2519  0.2509
 5937SOL     OW29272   2.053   4.653   3.377 -0.0246  0.1113  0.0357
 5937SOL    HW129273   2.019   4.623   3.293  2.5764 -0.8436 -0.6961
 5937SOL    HW229274   2.035   0.028   3.372 -0.4106 -0.0408 -1.4362
 5938SOL     OW29275   2.647   1.358  15.900  0.2528 -0.3145 -0.1957
 5938SOL    HW129276   2.681   1.387  15.984  1.3217 -0.9014 -0.4240
 5938SOL    HW229277   2.662   1.438  15.850  2.3035 -0.5029  0.1319
 5939SOL     OW29278   3.469   0.277   8.098  0.2312  0.1248  0.5024
 5939SOL    HW129279   3.529   0.277   8.023 -0.1515 -1.1508  0.2119
 5939SOL    HW229280   3.458   0.185   8.119 -0.5617  0.2271  0.5379
 5940SOL     OW29281   2.790   4.681   7.360  0.4504  0.4328  0.1123
 5940SOL    HW129282   2.733   4.604   7.348  0.7073  0.1289  0.8158
 5940SOL    HW229283   2.723   0.030   7.360  1.0090  0.9837 -1.5348
 5941SOL     OW29284   0.315   0.428   5.913  0.4896  0.2038  0.0468
 5941SOL    HW129285   0.254   0.487   5.871  0.8722  2.0254  2.0679
 5941SOL    HW229286   0.337   0.370   5.840  3.5427  2.0710 -0.4983
 5942SOL     OW29287   1.598   2.312   6.578 -0.1526  0.3624 -0.5269
 5942SOL    HW129288   1.568   2.390   6.626  2.2286  0.2354  1.1852
 5942SOL    HW229289   1.647   2.262   6.643 -0.0095  2.3031  0.8586
 5943SOL     OW29290   4.194   0.689   3.732  0.0449 -0.2667  0.3601
 5943SOL    HW129291   4.270   0.669   3.785  0.4980 -1.2452 -0.6683
 5943SOL    HW229292   4.180   0.598   3.707  0.7783 -0.5101  0.8295
 5944SOL     OW29293   0.494   3.260   2.538  0.2614  0.5742 -0.0197
 5944SOL    HW129294   0.406   3.239   2.506  0.7959  0.9287 -1.6909
 5944SOL    HW229295   0.535   3.185   2.496  0.0080  0.7187 -0.5328
 5945SOL     OW29296   1.319   2.276   6.997 -0.5804 -0.3312  0.0616
 5945SOL    HW129297   1.305   2.286   7.091 -0.5482  1.9302 -0.1563
 5945SOL    HW229298   1.412   2.296   6.982  0.1388 -2.4826  1.5880
 5946SOL     OW29299   3.554   2.210  14.452 -0.5453  0.4086 -0.1079
 5946SOL    HW129300   3.551   2.152  14.375 -0.1872  1.2585 -0.7577
 5946SOL    HW229301   3.635   2.258  14.434 -1.8295  1.5341 -3.0124
 5947SOL     OW29302   1.357   2.578   3.302  0.2294 -0.1661  0.0078
 5947SOL    HW129303   1.316   2.540   3.380 -0.1117 -0.1804 -0.1794
 5947SOL    HW229304   1.415   2.508   3.272 -0.8699 -1.7271  1.5695
 5948SOL     OW29305   1.511   4.186  11.852 -0.0026 -0.7869  0.2529
 5948SOL    HW129306   1.443   4.254  11.860  0.9993  0.1670  0.7136
 5948SOL    HW229307   1.475   4.109  11.896 -2.2968 -0.3904 -0.8960
 5949SOL     OW29308   1.269   2.126   5.783  0.3704  0.4706 -0.2815
 5949SOL    HW129309   1.280   2.135   5.689  1.0147 -0.0228 -0.2570
 5949SOL    HW229310   1.359   2.116   5.814  0.6468  0.7232 -1.0270
 5950SOL     OW29311   3.915   3.547   7.892  0.1025 -0.0161 -0.3684
 5950SOL    HW129312   3.990   3.507   7.936 -0.2718  0.7433  0.9705
 5950SOL    HW229313   3.872   3.471   7.853 -0.8529 -0.9445  2.5140
 5951SOL     OW29314   1.318   3.551   7.399 -0.2974  0.5277 -0.2326
 5951SOL    HW129315   1.274   3.509   7.473 -3.4155 -1.2081 -3.1153
 5951SOL    HW229316   1.400   3.501   7.401 -0.8378 -0.3175  1.4858
 5952SOL     OW29317   0.988   3.397  14.315  0.0768  0.4699 -0.3713
 5952SOL    HW129318   0.899   3.406  14.279 -0.1560  1.0596  0.3533
 5952SOL    HW229319   1.029   3.341  14.250  0.5356  0.6489 -0.2313
 5953SOL     OW29320   3.230   2.413  16.294  0.6936 -0.6535 -0.6487
 5953SOL    HW129321   3.244   2.468  16.371 -3.0250  0.8988 -1.0854
 5953SOL    HW229322   3.142   2.433  16.262  1.5934 -0.4713 -3.0228
 5954SOL     OW29323   0.367   0.984   5.636  0.4861 -0.6110 -0.1133
 5954SOL    HW129324   0.355   0.976   5.731  0.4449 -0.5262 -0.1117
 5954SOL    HW229325   0.310   1.057   5.612  0.7258 -0.5426 -0.4684
 5955SOL     OW29326   2.887   3.798  14.891  0.3269  0.2839  0.1347
 5955SOL    HW129327   2.940   3.792  14.971  0.7449 -0.6496 -0.2132
 5955SOL    HW229328   2.859   3.707  14.883 -0.0876  0.1287  3.1793
 5956SOL     OW29329   1.359   1.330   3.562 -0.7427  0.1887 -0.2310
 5956SOL    HW129330   1.454   1.338   3.566 -0.5107 -2.8645  0.9888
 5956SOL    HW229331   1.338   1.309   3.471  0.1285 -0.8094 -0.2029
 5957SOL     OW29332   3.383   4.425   7.962  0.6925 -0.1119  0.2263
 5957SOL    HW129333   3.347   4.510   7.935  2.3228  0.8747  1.1351
 5957SOL    HW229334   3.475   4.452   7.965  0.6213  0.3414 -1.6272
 5958SOL     OW29335   1.026   3.585   2.317  0.0140 -0.0186 -0.0967
 5958SOL    HW129336   1.004   3.603   2.409  0.8222 -0.4334  0.1805
 5958SOL    HW229337   0.952   3.633   2.281 -1.0831 -1.3832  0.3574
 5959SOL     OW29338   4.679   1.205  12.399 -0.2881 -0.1496 -0.4509
 5959SOL    HW129339   0.000   1.136  12.347 -0.5862 -1.9814  1.7688
 5959SOL    HW229340   4.586   1.186  12.388 -0.5319  1.1073 -0.6219
 5960SOL     OW29341   3.498   1.313   5.517  0.0041  0.4106 -0.4167
 5960SOL    HW129342   3.550   1.393   5.519  1.0290 -0.3434  2.4122
 5960SOL    HW229343   3.421   1.336   5.465  0.5465  0.2936 -1.2695
 5961SOL     OW29344   0.181   3.432  14.757  0.1360  0.0173 -0.0183
 5961SOL    HW129345   0.144   3.454  14.842  1.5583 -0.9012  0.8232
 5961SOL    HW229346   0.261   3.383  14.775  0.8838  0.6884 -1.4373
 5962SOL     OW29347   4.025   1.590   3.969  0.1851  0.3353 -0.2385
 5962SOL    HW129348   4.022   1.683   3.993  2.4224  0.0203  1.2794
 5962SOL    HW229349   4.004   1.577   3.876  1.2737  1.8974 -0.7218
 5963SOL     OW29350   0.770   1.959   9.813  0.1748 -0.0979  0.2414
 5963SOL    HW129351   0.804   1.909   9.739  0.2153 -0.1777  0.3135
 5963SOL    HW229352   0.827   1.939   9.887  0.3979 -1.2981 -0.2540
 5964SOL     OW29353   4.275   4.343  11.088  0.1608  0.1859  0.2888
 5964SOL    HW129354   4.338   4.406  11.122 -2.5815  2.2476  1.5412
 5964SOL    HW229355   4.265   4.383  11.001  1.4316  0.1338  0.1177
 5965SOL     OW29356   4.433   4.170  17.153 -0.0671  0.0891 -0.2071
 5965SOL    HW129357   4.466   4.083  17.175 -0.4861  0.4133  1.6897
 5965SOL    HW229358   4.339   4.157  17.160  0.0129 -0.1632  0.3744
 5966SOL     OW29359   2.323   2.911   3.461  0.3466  0.2125  0.1974
 5966SOL    HW129360   2.406   2.864   3.474 -0.3860 -1.2286 -0.3989
 5966SOL    HW229361   2.260   2.847   3.494  0.1472  0.2359 -0.1386
 5967SOL     OW29362   0.129   1.305   9.592  0.1777 -0.3812 -0.2643
 5967SOL    HW129363   0.106   1.360   9.668  1.1582  0.4218 -0.5487
 5967SOL    HW229364   0.097   1.366   9.525 -2.3143  0.9085  2.0580
 5968SOL     OW29365   4.457   1.129   7.184 -0.4516 -0.0247 -0.0510
 5968SOL    HW129366   4.480   1.047   7.139  0.1980  1.7190 -2.9166
 5968SOL    HW229367   4.431   1.102   7.272 -1.4232 -4.2559 -1.6304
 5969SOL     OW29368   2.919   0.593   2.586 -0.3893 -0.1976 -0.1605
 5969SOL    HW129369   2.900   0.630   2.499  0.1512 -0.2417 -0.2978
 5969SOL    HW229370   2.951   0.670   2.631  1.1231  0.3236 -2.0906
 5970SOL     OW29371   3.923   3.751   5.034 -0.7340 -0.2447  0.3438
 5970SOL    HW129372   3.987   3.740   4.964 -0.9237 -1.8665  0.4051
 5970SOL    HW229373   3.980   3.765   5.109 -0.7886 -1.8486  0.6946
 5971SOL     OW29374   0.693   3.998   8.356  0.1119  0.1950 -0.0106
 5971SOL    HW129375   0.727   4.078   8.315 -0.2376  0.1100 -0.4703
 5971SOL    HW229376   0.603   4.020   8.378 -0.3590 -0.4393 -1.2904
 5972SOL     OW29377   1.321   1.772   4.014 -0.4695 -0.4738  0.4515
 5972SOL    HW129378   1.307   1.690   3.967 -1.4968 -1.3314  2.2524
 5972SOL    HW229379   1.410   1.763   4.048 -0.2003 -0.4711 -0.2575
 5973SOL     OW29380   4.270   4.164   0.948 -0.1139  0.1739 -0.0708
 5973SOL    HW129381   4.203   4.212   0.997 -0.0035 -0.7039  0.9336
 5973SOL    HW229382   4.355   4.177   0.990 -0.1173  2.0552 -0.6328
 5974SOL     OW29383   1.435   4.370   3.922  0.4140 -0.0946 -0.3325
 5974SOL    HW129384   1.521   4.370   3.879  1.6302 -1.9459  2.0591
 5974SOL    HW229385   1.381   4.320   3.860  0.0411  1.7048 -1.4635
 5975SOL     OW29386   0.389   0.989   3.275 -0.3149 -0.3096 -0.3905
 5975SOL    HW129387   0.463   0.936   3.249  1.4122  1.0544  1.7213
 5975SOL    HW229388   0.398   1.080   3.245 -1.7588 -0.3677 -1.0119
 5976SOL     OW29389   0.980   4.303   8.680 -0.1379 -0.4558  0.0017
 5976SOL    HW129390   1.024   4.334   8.759 -0.3161  0.9267 -0.4354
 5976SOL    HW229391   1.009   4.373   8.621  0.7051 -0.3746  0.5121
 5977SOL     OW29392   4.368   1.445  13.708  0.5148  0.5880 -0.4857
 5977SOL    HW129393   4.311   1.483  13.775 -0.6579 -2.7161  0.4273
 5977SOL    HW229394   4.344   1.485  13.625  1.5006  1.3577 -0.3918
 5978SOL     OW29395   1.137   4.546  11.340  0.4680 -0.7566 -0.0886
 5978SOL    HW129396   1.204   4.574  11.277  0.3173  0.1710  0.1690
 5978SOL    HW229397   1.186   4.542  11.422 -0.3619  0.3762  0.4611
 5979SOL     OW29398   1.572   3.261   7.943 -0.5592 -0.2159 -0.1294
 5979SOL    HW129399   1.659   3.252   7.981 -0.6542 -0.1755  0.0939
 5979SOL    HW229400   1.516   3.203   7.993  0.3302 -1.5161 -0.6532
 5980SOL     OW29401   2.927   3.466   8.492 -0.0968  0.4549  0.1628
 5980SOL    HW129402   2.977   3.515   8.426  2.3105 -1.4292  0.5630
 5980SOL    HW229403   2.857   3.528   8.509 -1.1870 -0.3355 -1.4417
 5981SOL     OW29404   2.362   1.188   5.698  0.2597  0.0578  0.2184
 5981SOL    HW129405   2.357   1.093   5.710 -3.2232  0.3138  0.7125
 5981SOL    HW229406   2.356   1.195   5.603 -0.3075 -2.7697  0.0477
 5982SOL     OW29407   3.420   4.703   3.787 -0.0537  0.1695  0.1876
 5982SOL    HW129408   3.350   0.036   3.750 -0.0735 -1.3841 -1.9250
 5982SOL    HW229409   3.407   4.618   3.745 -2.7377  0.7841 -0.2125
 5983SOL     OW29410   3.696   3.300   4.038 -0.0804 -0.2126  0.2900
 5983SOL    HW129411   3.763   3.343   3.985  1.2734 -0.3377  1.9041
 5983SOL    HW229412   3.670   3.226   3.984  0.1486 -0.0059 -0.1005
 5984SOL     OW29413   1.439   3.488  14.664  0.2502 -0.5414  0.3136
 5984SOL    HW129414   1.400   3.526  14.742 -3.2850  2.0270 -2.7220
 5984SOL    HW229415   1.368   3.474  14.602  0.3975  1.8271 -0.4147
 5985SOL     OW29416   3.628   3.821   6.285  0.2175 -0.1710 -1.1048
 5985SOL    HW129417   3.656   3.734   6.257 -0.1777 -0.6415 -0.0464
 5985SOL    HW229418   3.650   3.817   6.378 -2.5974  0.1510 -0.4272
 5986SOL     OW29419   2.237   3.035   6.730 -0.4326 -1.0101  0.2920
 5986SOL    HW129420   2.158   3.079   6.698  0.1875 -1.1976 -1.4501
 5986SOL    HW229421   2.231   3.031   6.826 -0.4933  0.6135  0.3545
 5987SOL     OW29422   4.519   4.103  15.856  0.5396 -0.1679 -0.0214
 5987SOL    HW129423   4.468   4.026  15.882 -1.6975  0.0527 -3.7551
 5987SOL    HW229424   4.582   4.100  15.928  1.6633  2.1608 -0.9137
 5988SOL     OW29425   0.121   2.768  12.475 -0.7731  0.3355  1.3237
 5988SOL    HW129426   0.093   2.815  12.553  1.9068  1.5041  1.5932
 5988SOL    HW229427   0.058   2.696  12.472 -0.1329 -0.1994  0.7249
 5989SOL     OW29428   2.119   0.369   6.589  0.0172  0.2305  0.2849
 5989SOL    HW129429   2.128   0.365   6.684 -2.1959 -1.9479  0.3965
 5989SOL    HW229430   2.212   0.359   6.571  0.1658 -0.2181  1.2866
 5990SOL     OW29431   2.385   1.994  15.362  0.1499 -0.3752 -0.6528
 5990SOL    HW129432   2.456   1.970  15.303 -0.5204 -0.5954 -1.3815
 5990SOL    HW229433   2.426   2.058  15.420  2.7989 -1.5281 -1.2544
 5991SOL     OW29434   2.367   2.318   6.285 -0.0921 -0.9794 -0.2873
 5991SOL    HW129435   2.305   2.373   6.238 -1.2543 -3.0406 -1.1785
 5991SOL    HW229436   2.445   2.373   6.286 -1.3622  0.7852  1.7318
 5992SOL     OW29437   0.465   1.015   6.732  0.5626 -0.0532 -0.4561
 5992SOL    HW129438   0.388   1.033   6.678 -1.8404 -2.6395  2.0642
 5992SOL    HW229439   0.475   1.105   6.765 -0.2165 -0.3656  0.6250
 5993SOL     OW29440   3.092   3.903   2.755 -0.1723  0.0665  0.7677
 5993SOL    HW129441   3.113   3.844   2.827  2.2207  1.3627  1.1537
 5993SOL    HW229442   3.165   3.963   2.773  1.3246 -1.1384 -1.3469
 5994SOL     OW29443   4.471   4.305   1.199 -0.1666  0.0016  0.3755
 5994SOL    HW129444   4.434   4.367   1.262 -1.2439  0.0356 -0.2813
 5994SOL    HW229445   4.502   4.370   1.137  2.8420 -1.5421  0.2397
 5995SOL     OW29446   2.333   3.171   6.008 -0.1900 -0.0715  0.0039
 5995SOL    HW129447   2.281   3.185   5.928 -2.6650  1.4419  1.8880
 5995SOL    HW229448   2.378   3.256   6.015  0.7195 -0.4511 -1.1581
 5996SOL     OW29449   4.484   2.665   6.814  0.2283  0.7605  0.1015
 5996SOL    HW129450   4.458   2.749   6.778 -1.2688  0.1729 -0.2036
 5996SOL    HW229451   4.568   2.649   6.770 -0.2319 -0.0262 -0.5052
 5997SOL     OW29452   2.541   1.679  11.445 -0.0521  0.2011 -0.2606
 5997SOL    HW129453   2.569   1.673  11.353  0.0582 -0.0588 -0.2100
 5997SOL    HW229454   2.573   1.595  11.479 -0.0740  0.6923  0.9689
 5998SOL     OW29455   4.560   4.444  15.946 -0.1570  0.0562  0.2175
 5998SOL    HW129456   4.516   4.524  15.974  0.6163 -0.0491  1.7214
 5998SOL    HW229457   4.628   4.465  16.010 -0.4872 -1.0158  0.9188
 5999SOL     OW29458   4.683   4.238   7.026  0.2126  0.0514 -0.7273
 5999SOL    HW129459   4.605   4.285   7.056 -0.0531 -2.1907  2.1114
 5999SOL    HW229460   0.020   4.264   7.099  0.0344  1.4902 -1.1045
 6000SOL     OW29461   0.793   3.720   2.250  0.1643  0.3865 -0.4970
 6000SOL    HW129462   0.750   3.641   2.218 -0.7369  0.2837  0.9242
 6000SOL    HW229463   0.720   3.782   2.253  0.0171  0.1302  1.2502
 6001SOL     OW29464   3.571   3.098  15.773 -0.3613 -0.3516  0.0794
 6001SOL    HW129465   3.581   3.187  15.740 -1.5638  0.7210  2.6475
 6001SOL    HW229466   3.547   3.055  15.690 -0.2480 -0.9401  0.3490
 6002SOL     OW29467   1.436   4.391   3.574 -0.0796  0.1461  0.0356
 6002SOL    HW129468   1.420   4.333   3.649 -0.1416  0.8813  0.5993
 6002SOL    HW229469   1.512   4.351   3.532  0.0178  0.5446 -0.1612
 6003SOL     OW29470   2.078   1.945  14.989 -0.1493  0.1545 -0.2956
 6003SOL    HW129471   1.992   1.911  15.011 -0.5427  0.5616 -1.2188
 6003SOL    HW229472   2.101   1.967  15.080  0.4646  0.4065 -0.5130
 6004SOL     OW29473   3.423   1.971   4.057  0.3636  0.8235  0.3900
 6004SOL    HW129474   3.457   1.942   3.972  1.2473  2.2071  0.2729
 6004SOL    HW229475   3.333   1.942   4.043 -0.3115  2.3142  1.8281
 6005SOL     OW29476   1.772   2.914  11.391 -0.1842  0.1855 -0.2930
 6005SOL    HW129477   1.767   2.949  11.302 -0.7099  0.4664 -0.1525
 6005SOL    HW229478   1.853   2.958  11.415  1.0374 -1.8834 -0.6155
 6006SOL     OW29479   3.423   0.804   6.152  0.0691  0.5808  0.3477
 6006SOL    HW129480   3.384   0.751   6.082  2.1532 -2.1230  1.2397
 6006SOL    HW229481   3.352   0.796   6.217 -0.0567 -0.0366  0.1374
 6007SOL     OW29482   0.918   4.718   7.661 -0.9155 -0.0483  0.3178
 6007SOL    HW129483   0.982   4.718   7.590 -1.4811 -1.0920 -0.1993
 6007SOL    HW229484   0.901   0.093   7.665  0.2635  0.2138 -0.9056
 6008SOL     OW29485   1.823   2.697  10.926 -0.6657  0.3785  0.0261
 6008SOL    HW129486   1.770   2.682  11.005  1.2219  0.1483  1.2581
 6008SOL    HW229487   1.828   2.792  10.917  2.7133  0.0703 -1.3534
 6009SOL     OW29488   0.785   0.482   8.114  0.2867 -0.8571  0.0522
 6009SOL    HW129489   0.743   0.456   8.196  1.2313  0.4123  0.9500
 6009SOL    HW229490   0.875   0.493   8.146  1.2692 -1.0988 -2.6419
 6010SOL     OW29491   3.950   0.803   6.086 -0.7945  0.9448 -0.1036
 6010SOL    HW129492   3.984   0.786   5.999  1.2051 -4.2132  1.7148
 6010SOL    HW229493   3.856   0.814   6.074 -0.7030  1.6102 -0.2073
 6011SOL     OW29494   4.619   4.561   5.335 -0.0816 -0.3268 -0.4850
 6011SOL    HW129495   4.663   4.476   5.344 -1.9187 -1.3018 -0.4940
 6011SOL    HW229496   4.678   4.605   5.275 -0.0688  0.3615  0.0387
 6012SOL     OW29497   1.957   1.050   6.798 -0.3060 -0.2417  0.0749
 6012SOL    HW129498   1.917   0.965   6.780 -1.5557  0.5913 -1.1296
 6012SOL    HW229499   1.871   1.094   6.799 -1.0178 -1.5583 -3.2795
 6013SOL     OW29500   4.286   0.535  13.293 -0.2454  0.6902 -0.3076
 6013SOL    HW129501   4.240   0.508  13.373  0.0466 -2.3061 -1.1686
 6013SOL    HW229502   4.357   0.585  13.334  1.0812  1.0203 -3.0244
 6014SOL     OW29503   4.011   0.622   6.567  0.3862 -0.1135 -0.0122
 6014SOL    HW129504   4.029   0.599   6.476 -1.4441  2.5021 -1.0317
 6014SOL    HW229505   4.043   0.712   6.565  0.1387  0.0080  1.7713
 6015SOL     OW29506   4.099   1.871   4.379  0.1804 -0.2254  0.4731
 6015SOL    HW129507   4.074   1.797   4.324  1.7912 -0.0040 -0.5328
 6015SOL    HW229508   4.019   1.923   4.392 -1.5964 -3.5633  3.0622
 6016SOL     OW29509   0.847   2.297  10.359 -0.1875 -0.2949 -0.4445
 6016SOL    HW129510   0.892   2.341  10.431 -1.4336 -0.9174  0.6992
 6016SOL    HW229511   0.918   2.242  10.326  1.1893  2.2903 -1.7752
 6017SOL     OW29512   1.596   0.524   2.324 -0.5582  0.5333  0.3607
 6017SOL    HW129513   1.627   0.523   2.414 -2.8306 -2.1522  1.1136
 6017SOL    HW229514   1.504   0.544   2.341 -0.3480  1.0672  0.8527
 6018SOL     OW29515   2.006   0.867  14.981  0.0563  0.2570 -0.5487
 6018SOL    HW129516   2.016   0.935  14.914  0.7657  0.3877 -0.3126
 6018SOL    HW229517   2.018   0.923  15.057 -0.9411 -0.1485 -0.0891
 6019SOL     OW29518   4.518   2.109   0.164 -0.3740 -0.0675 -0.1565
 6019SOL    HW129519   4.437   2.060   0.147 -0.6357  1.0110 -1.9663
 6019SOL    HW229520   4.569   2.102   0.084  1.5426  2.4914  0.8641
 6020SOL     OW29521   4.179   2.760   8.708  0.0600  0.5141  0.1998
 6020SOL    HW129522   4.103   2.808   8.741 -0.8793 -0.9063  0.1361
 6020SOL    HW229523   4.238   2.832   8.688  0.6173 -0.0541 -0.2356
 6021SOL     OW29524   1.844   1.763   6.182  0.0430  0.0115 -0.1679
 6021SOL    HW129525   1.895   1.775   6.263 -0.9286 -3.4055  0.9665
 6021SOL    HW229526   1.762   1.721   6.207  0.4324  0.3726  1.7482
 6022SOL     OW29527   3.700   4.271   6.437  0.0030  0.1650 -0.4142
 6022SOL    HW129528   3.759   4.216   6.386  0.7259  0.9144 -0.3868
 6022SOL    HW229529   3.638   4.299   6.369 -0.6541  2.0667  0.9470
 6023SOL     OW29530   4.463   2.525   5.874  1.2222 -0.2832 -0.0993
 6023SOL    HW129531   4.483   2.476   5.795  0.9573 -0.0863 -0.2901
 6023SOL    HW229532   4.443   2.458   5.940  0.3606 -0.7127 -0.8025
 6024SOL     OW29533   3.764   0.388   6.302  0.2683  0.0697 -0.0005
 6024SOL    HW129534   3.714   0.463   6.333 -0.2964 -0.8262  1.2605
 6024SOL    HW229535   3.765   0.399   6.207  3.7568  1.7534  0.2228
 6025SOL     OW29536   3.460   1.158   1.989 -0.1079  0.3599 -0.1409
 6025SOL    HW129537   3.507   1.131   1.910 -0.0224 -0.8113  0.3090
 6025SOL    HW229538   3.431   1.246   1.967 -0.8852 -0.0096 -0.5954
 6026SOL     OW29539   3.528   2.272   5.658  0.0117 -0.1029 -0.5273
 6026SOL    HW129540   3.504   2.196   5.605  0.2951 -0.0091 -0.7946
 6026SOL    HW229541   3.451   2.264   5.714  0.6854  0.2006  0.4468
 6027SOL     OW29542   2.352   1.553   0.341  0.2974  0.2572 -0.0251
 6027SOL    HW129543   2.416   1.595   0.399 -1.9684  3.6618  0.0347
 6027SOL    HW229544   2.369   1.465   0.374 -0.1933 -0.1842 -0.9358
 6028SOL     OW29545   2.827   1.943  12.666 -0.5717  0.1098  0.1150
 6028SOL    HW129546   2.902   1.975  12.717 -0.5836 -0.7380  0.6508
 6028SOL    HW229547   2.762   1.955  12.735 -1.0943 -1.5108 -0.1146
 6029SOL     OW29548   3.173   3.510   4.887 -0.3545  0.0766  0.2247
 6029SOL    HW129549   3.261   3.536   4.860 -0.5503 -0.9862 -1.3905
 6029SOL    HW229550   3.130   3.596   4.889 -1.8816 -0.7254  2.5769
 6030SOL     OW29551   1.211   4.608   4.649 -0.2593  0.4007  0.7830
 6030SOL    HW129552   1.211   4.560   4.732 -0.6905  1.4210  1.3659
 6030SOL    HW229553   1.209   4.531   4.592  0.5315  0.6603  0.3997
 6031SOL     OW29554   2.687   4.580   7.687 -0.1663  0.0510  0.2552
 6031SOL    HW129555   2.624   4.648   7.663 -1.0839  0.0520  2.6493
 6031SOL    HW229556   2.758   4.594   7.624 -0.8326  0.9301 -0.3041
 6032SOL     OW29557   0.601   0.657   5.997 -0.2387  0.2358 -0.3990
 6032SOL    HW129558   0.638   0.709   6.069 -1.4563  0.3538  0.1443
 6032SOL    HW229559   0.620   0.568   6.026  1.0365  0.4513 -0.5710
 6033SOL     OW29560   2.002   3.626   9.305  0.6387 -0.2569 -0.8103
 6033SOL    HW129561   1.936   3.652   9.370  1.1321 -0.5084 -0.2108
 6033SOL    HW229562   1.982   3.671   9.223  1.6123  0.9542 -0.3900
 6034SOL     OW29563   4.069   1.355   7.359 -0.4126 -0.4988 -0.4357
 6034SOL    HW129564   4.110   1.378   7.442 -1.4114 -0.7444  0.1404
 6034SOL    HW229565   3.978   1.383   7.374 -0.2357 -0.5128  0.6637
 6035SOL     OW29566   3.343   1.019   3.265 -0.1022  0.3016 -0.7230
 6035SOL    HW129567   3.421   1.058   3.303 -0.0163 -1.6001  1.0165
 6035SOL    HW229568   3.289   1.013   3.344  0.1405  2.0556 -0.4154
 6036SOL     OW29569   4.278   2.752  11.209  0.1925 -0.1345  0.4554
 6036SOL    HW129570   4.192   2.781  11.180  1.1081  1.3609 -0.7545
 6036SOL    HW229571   4.326   2.784  11.133  0.7597  0.6681  1.1551
 6037SOL     OW29572   4.347   2.349   6.398 -0.0515  0.7382 -0.3498
 6037SOL    HW129573   4.338   2.441   6.424 -0.6146  0.4767  0.3400
 6037SOL    HW229574   4.297   2.345   6.317  1.1752  2.2801 -1.1918
 6038SOL     OW29575   4.240   3.199   2.383  0.1510 -0.2098  0.3405
 6038SOL    HW129576   4.299   3.254   2.332  0.0117 -1.7249 -1.4426
 6038SOL    HW229577   4.196   3.268   2.433  0.1203  0.5324 -0.7130
 6039SOL     OW29578   3.778   2.521   0.455 -0.4600 -0.3793  0.2474
 6039SOL    HW129579   3.730   2.604   0.460  0.5398  0.2938 -1.5511
 6039SOL    HW229580   3.721   2.446   0.473 -0.9828 -0.0700 -0.1059
 6040SOL     OW29581   0.140   3.046   6.586  0.1615 -0.5847 -0.3202
 6040SOL    HW129582   0.083   3.074   6.514 -0.2579 -0.3188  0.1128
 6040SOL    HW229583   0.227   3.071   6.555 -0.3309  1.2396 -0.2618
 6041SOL     OW29584   2.509   4.313  10.242  0.1887 -0.6404 -0.5618
 6041SOL    HW129585   2.536   4.221  10.240 -0.5021 -0.7668 -3.4513
 6041SOL    HW229586   2.421   4.290  10.271 -0.4123  0.0008 -1.8608
 6042SOL     OW29587   2.524   3.325   8.708 -0.3048  0.5217  0.1404
 6042SOL    HW129588   2.520   3.304   8.615  0.2407  0.6848  0.0771
 6042SOL    HW229589   2.475   3.253   8.748  1.5130  0.0238  1.5062
 6043SOL     OW29590   0.276   3.514   8.845  0.4812 -0.9472  0.0280
 6043SOL    HW129591   0.238   3.565   8.917  0.6109 -0.9476  0.0964
 6043SOL    HW229592   0.193   3.482   8.810  1.1765 -1.3324 -1.2595
 6044SOL     OW29593   2.817   2.536   8.350  0.2431  0.1198 -0.0991
 6044SOL    HW129594   2.900   2.539   8.396  0.2976 -1.4332 -0.0786
 6044SOL    HW229595   2.764   2.481   8.409 -1.0781  0.2858 -1.1123
 6045SOL     OW29596   3.740   3.140   8.912  0.1998  0.2828 -0.4011
 6045SOL    HW129597   3.798   3.210   8.941  2.1264 -1.6775  0.4864
 6045SOL    HW229598   3.696   3.109   8.991 -2.3682 -0.1972 -2.0172
 6046SOL     OW29599   2.654   2.157  17.023 -0.1352 -0.0389  0.8558
 6046SOL    HW129600   2.626   2.099  16.953 -2.9575 -1.6760  3.3165
 6046SOL    HW229601   2.746   2.135  17.034  0.1191 -0.0012 -1.2870
 6047SOL     OW29602   0.334   1.961  11.764 -0.2036 -0.0986  0.1053
 6047SOL    HW129603   0.274   2.014  11.816  1.9588 -0.6648  3.2026
 6047SOL    HW229604   0.400   2.022  11.731 -1.9537  0.3232 -2.6399
 6048SOL     OW29605   4.550   2.091   5.312 -0.3070  0.7725 -0.6699
 6048SOL    HW129606   4.523   2.149   5.241 -2.7443 -1.7646 -1.8023
 6048SOL    HW229607   4.470   2.040   5.316 -1.3912  2.4458 -0.8637
 6049SOL     OW29608   0.330   2.701  16.368  0.0861  0.3113  0.4494
 6049SOL    HW129609   0.238   2.722  16.385 -0.2949 -1.2582  0.3910
 6049SOL    HW229610   0.374   2.777  16.332 -0.0440  0.1532 -0.0395
 6050SOL     OW29611   3.763   0.872  16.279  0.3791 -0.0282  0.0085
 6050SOL    HW129612   3.775   0.814  16.354  0.0006  2.7638  2.2147
 6050SOL    HW229613   3.804   0.826  16.206 -0.3587  0.1628 -0.5198
 6051SOL     OW29614   2.435   2.471   9.563  0.1117 -0.1203  0.1324
 6051SOL    HW129615   2.382   2.502   9.489  0.7597  0.6753  0.0001
 6051SOL    HW229616   2.365   2.456   9.627  1.4759 -1.3733  1.2938
 6052SOL     OW29617   0.796   0.807   9.915  0.7475 -0.0034 -0.2548
 6052SOL    HW129618   0.800   0.874   9.848  0.7679  1.4919  1.2402
 6052SOL    HW229619   0.890   0.803   9.932  0.8306  0.0494 -0.7079
 6053SOL     OW29620   2.107   4.629  16.879  0.1051 -0.1662  0.2069
 6053SOL    HW129621   2.118   4.558  16.816 -0.2985  0.4302 -0.5328
 6053SOL    HW229622   2.082   4.574  16.953  0.1265 -1.3008 -0.6212
 6054SOL     OW29623   0.154   0.743  17.613  0.8916 -0.5061 -0.1682
 6054SOL    HW129624   0.105   0.825  17.611 -2.4448 -2.4863  0.4534
 6054SOL    HW229625   0.099   0.682  17.664  1.4002 -1.5741 -0.8905
 6055SOL     OW29626   2.684   1.854   1.117  0.0374 -0.7279  0.4245
 6055SOL    HW129627   2.619   1.890   1.179  0.3478  1.6612 -0.6376
 6055SOL    HW229628   2.691   1.770   1.162  0.0007 -0.9490  0.0120
 6056SOL     OW29629   4.690   1.080   8.029  0.2514 -0.5148 -0.7886
 6056SOL    HW129630   4.644   1.076   7.945 -1.1183 -0.2041 -0.0550
 6056SOL    HW229631   4.682   1.174   8.044 -1.0372 -0.8501  0.5873
 6057SOL     OW29632   1.174   3.293   9.137  0.2605 -0.0861 -0.3473
 6057SOL    HW129633   1.268   3.285   9.123  0.7111  2.4819  1.0980
 6057SOL    HW229634   1.165   3.352   9.212  1.5828 -0.9242  0.4686
 6058SOL     OW29635   0.525   1.878   4.158  0.1234  0.0249  0.2671
 6058SOL    HW129636   0.487   1.815   4.096 -0.9380  0.2247  0.7196
 6058SOL    HW229637   0.446   1.908   4.202 -0.6300  0.3600 -1.3149
 6059SOL     OW29638   0.722   0.593  10.383  0.0961  0.2724 -0.3389
 6059SOL    HW129639   0.656   0.647  10.428 -1.0833 -1.7234  0.3439
 6059SOL    HW229640   0.729   0.642  10.301 -0.1279  1.8832  0.6086
 6060SOL     OW29641   1.663   1.516  14.705  0.5768 -0.4449 -0.1206
 6060SOL    HW129642   1.588   1.470  14.742 -0.2901 -0.9203 -2.4491
 6060SOL    HW229643   1.624   1.565  14.633 -0.8992 -0.6975  0.4972
 6061SOL     OW29644   0.642   0.382   5.758  0.2866 -0.1733 -0.1074
 6061SOL    HW129645   0.721   0.371   5.705 -0.3552 -0.3961 -1.0168
 6061SOL    HW229646   0.579   0.319   5.721 -1.1402  1.0323  0.2930
 6062SOL     OW29647   2.912   1.536   6.864 -1.2960 -0.3373  0.0457
 6062SOL    HW129648   2.872   1.618   6.894  0.4719  0.0092  1.3904
 6062SOL    HW229649   2.868   1.529   6.778 -0.1362  0.3986 -0.6062
 6063SOL     OW29650   3.238   1.081  15.914  0.9349  0.8608 -0.3287
 6063SOL    HW129651   3.238   0.987  15.927  0.6083  1.2810  2.5747
 6063SOL    HW229652   3.218   1.111  16.002 -0.2013  0.3738 -0.4212
 6064SOL     OW29653   1.948   4.318   0.132 -0.5815  0.0346  0.1509
 6064SOL    HW129654   1.871   4.324   0.189 -0.2297 -2.0648  0.8192
 6064SOL    HW229655   2.003   4.391   0.160 -1.9506  1.0655  0.1767
 6065SOL     OW29656   1.125   0.488   5.032 -0.4828  0.3247  0.1376
 6065SOL    HW129657   1.153   0.536   4.954  0.2280 -0.1443  0.1016
 6065SOL    HW229658   1.119   0.400   4.993 -2.7910  0.3678  0.4225
 6066SOL     OW29659   0.557   1.958  17.479 -0.0963 -0.2229 -0.0768
 6066SOL    HW129660   0.534   1.986  17.391 -0.0405 -1.5556 -0.5154
 6066SOL    HW229661   0.622   1.890  17.466  0.0456 -0.5640  2.4074
 6067SOL     OW29662   3.774   1.805   7.810  0.2817  0.3030  0.4017
 6067SOL    HW129663   3.831   1.849   7.746  0.4525 -0.4835  0.0185
 6067SOL    HW229664   3.798   1.853   7.890  0.6006 -1.1485  1.1632
 6068SOL     OW29665   3.228   3.991   5.307 -0.3064  0.1191 -0.3680
 6068SOL    HW129666   3.288   3.916   5.307 -0.4061  0.0393 -0.1649
 6068SOL    HW229667   3.209   4.005   5.400  1.9292 -1.4245  0.3185
 6069SOL     OW29668   1.906   0.238   2.357  0.0223  0.2825  0.0550
 6069SOL    HW129669   1.992   0.198   2.369  0.1251 -0.0406 -1.7210
 6069SOL    HW229670   1.928   0.329   2.377  2.0848 -0.5694  1.6510
 6070SOL     OW29671   4.254   1.380   2.512  0.8192  0.2749  0.6788
 6070SOL    HW129672   4.178   1.426   2.476  0.9952 -0.7257 -0.9494
 6070SOL    HW229673   4.220   1.303   2.557 -2.3914  0.6842 -0.9894
 6071SOL     OW29674   0.080   0.410   3.490  1.1596  0.1916 -0.0800
 6071SOL    HW129675   0.146   0.474   3.517 -0.4551  1.5069  0.7341
 6071SOL    HW229676   0.135   0.335   3.468 -0.1160 -1.0718  0.9890
 6072SOL     OW29677   4.625   2.545  10.458  0.2445 -0.3139 -0.2756
 6072SOL    HW129678   4.571   2.509  10.388  1.0148 -1.4473 -0.2950
 6072SOL    HW229679   4.592   2.633  10.475 -0.0955 -0.3252 -0.8774
 6073SOL     OW29680   1.772   4.205   8.199  0.0786  0.5526 -0.0868
 6073SOL    HW129681   1.732   4.220   8.285  0.4460 -0.2010  0.2265
 6073SOL    HW229682   1.695   4.220   8.145 -0.2190 -1.5540 -0.2656
 6074SOL     OW29683   4.269   2.907   7.058 -0.0014  0.0643  0.1833
 6074SOL    HW129684   4.324   2.972   7.013 -0.3730  0.0972 -0.2206
 6074SOL    HW229685   4.216   2.863   6.992 -2.1046  2.5820  0.1947
 6075SOL     OW29686   4.318   3.377  13.141  0.5250 -0.1820  0.0448
 6075SOL    HW129687   4.355   3.444  13.198  0.1154 -0.6311  0.8347
 6075SOL    HW229688   4.366   3.398  13.060 -1.1018 -1.5194 -1.2775
 6076SOL     OW29689   3.767   3.521  15.895  0.2067  0.0966  0.4794
 6076SOL    HW129690   3.837   3.504  15.957 -0.0743  0.3231  0.8634
 6076SOL    HW229691   3.740   3.610  15.919 -2.9471 -0.6563 -0.1967
 6077SOL     OW29692   0.970   2.191  14.420  0.5847  0.2552 -0.2004
 6077SOL    HW129693   0.955   2.139  14.341  0.1428 -0.8356  0.6024
 6077SOL    HW229694   0.882   2.221  14.445 -0.0823 -0.9509 -1.0957
 6078SOL     OW29695   1.129   2.603   8.595 -0.1570  0.2536  0.5039
 6078SOL    HW129696   1.133   2.606   8.499 -0.8734 -1.3353  0.4213
 6078SOL    HW229697   1.177   2.684   8.614 -2.4524  1.1908  2.2189
 6079SOL     OW29698   0.941   1.875  10.008 -0.1045  0.4216  0.8740
 6079SOL    HW129699   0.949   1.886  10.103  0.8800 -1.5897  1.0301
 6079SOL    HW229700   1.025   1.906   9.976 -0.1596 -2.2292 -1.8412
 6080SOL     OW29701   3.480   2.720   4.503 -0.1370  0.2198  0.8359
 6080SOL    HW129702   3.554   2.716   4.564  2.2108 -0.4490 -2.0225
 6080SOL    HW229703   3.408   2.690   4.557  0.1116  0.3394  1.2341
 6081SOL     OW29704   3.550   1.181   3.340  0.0657 -0.1242  0.2958
 6081SOL    HW129705   3.571   1.238   3.266  0.1752  0.5280  0.8259
 6081SOL    HW229706   3.633   1.188   3.389  0.7371 -0.5982 -0.7769
 6082SOL     OW29707   2.457   2.940  14.080  0.3984 -0.1481 -0.8030
 6082SOL    HW129708   2.449   2.854  14.038 -3.4330 -0.5636  0.7588
 6082SOL    HW229709   2.387   2.935  14.145  0.1954  0.6862 -0.9595
 6083SOL     OW29710   4.522   3.560  12.671 -0.3469 -0.7680  0.0192
 6083SOL    HW129711   4.547   3.557  12.579 -1.5028 -1.4881 -0.2803
 6083SOL    HW229712   4.601   3.537  12.720  0.0052 -1.9355 -1.0999
 6084SOL     OW29713   1.361   3.234   0.831  0.0512  0.2155 -0.5275
 6084SOL    HW129714   1.284   3.270   0.874  0.8923  0.6564  0.6053
 6084SOL    HW229715   1.356   3.142   0.858 -2.6003  0.3906 -0.3982
 6085SOL     OW29716   2.215   1.819   3.645  0.0004 -0.2613  0.5513
 6085SOL    HW129717   2.259   1.735   3.631  2.9325  1.2516  0.8420
 6085SOL    HW229718   2.152   1.790   3.712  0.6071 -0.7000  0.9366
 6086SOL     OW29719   2.568   2.485  17.345  0.1070  0.0491  0.1946
 6086SOL    HW129720   2.655   2.460  17.314 -0.7486 -2.7219  0.0410
 6086SOL    HW229721   2.593   2.516  17.432 -0.1292  1.6138 -0.2960
 6087SOL     OW29722   4.553   4.565   8.057 -0.0430 -0.2193  0.1286
 6087SOL    HW129723   4.543   4.546   8.150  2.5249  0.3038  0.4969
 6087SOL    HW229724   4.620   4.503   8.029  0.7422 -0.1767  1.8969
 6088SOL     OW29725   0.149   3.903  14.618 -0.3281 -0.2166 -0.3319
 6088SOL    HW129726   0.219   3.864  14.565  1.1055  0.3660  1.1268
 6088SOL    HW229727   0.141   3.846  14.695  1.3227  3.1145  2.3178
 6089SOL     OW29728   2.707   3.551   3.229  0.2473 -0.7327  0.1491
 6089SOL    HW129729   2.716   3.536   3.323  1.7550  2.2922  0.5132
 6089SOL    HW229730   2.686   3.470   3.182 -1.9843  0.1222 -0.3270
 6090SOL     OW29731   2.057   4.233   4.974 -0.9145 -0.0414 -0.1893
 6090SOL    HW129732   2.109   4.302   5.016  0.6485 -0.8787 -0.7346
 6090SOL    HW229733   1.971   4.259   5.006 -0.8758 -0.1719  0.0290
 6091SOL     OW29734   3.078   1.970   3.980  0.4920  0.5146  0.3819
 6091SOL    HW129735   3.150   1.922   3.941  1.5391  0.8635  1.9070
 6091SOL    HW229736   3.001   1.920   3.952 -0.6733  0.9612  2.7777
 6092SOL     OW29737   2.393   4.008   2.878  0.4406 -0.3396  0.1114
 6092SOL    HW129738   2.480   4.046   2.874  0.2690 -0.0501 -1.1571
 6092SOL    HW229739   2.362   4.038   2.792 -1.2487  0.7437  1.1012
 6093SOL     OW29740   2.189   3.751   3.396  0.5517  0.7178 -0.6972
 6093SOL    HW129741   2.103   3.791   3.405  0.6830  0.4373  1.7577
 6093SOL    HW229742   2.170   3.674   3.343  0.0483 -1.7706  3.1649
 6094SOL     OW29743   1.614   4.414  14.834  0.3992 -0.0170 -0.4342
 6094SOL    HW129744   1.706   4.432  14.817 -0.0807  1.2142 -1.6454
 6094SOL    HW229745   1.609   4.336  14.890 -3.1938  1.3748  1.1618
 6095SOL     OW29746   0.502   2.325   6.780 -0.2896 -0.6766  0.4512
 6095SOL    HW129747   0.459   2.261   6.837  1.5064 -2.5571 -0.2986
 6095SOL    HW229748   0.592   2.345   6.807  0.5593 -0.6406 -2.4126
 6096SOL     OW29749   2.288   0.685   3.822 -0.4280  0.0840  0.1495
 6096SOL    HW129750   2.345   0.701   3.898  1.1583 -3.0382 -0.3817
 6096SOL    HW229751   2.214   0.644   3.867 -0.8895 -0.1424 -0.8109
 6097SOL     OW29752   0.952   2.310  16.486 -0.2166  0.1242 -0.1965
 6097SOL    HW129753   0.858   2.328  16.485 -0.3132 -0.3061  1.7830
 6097SOL    HW229754   0.960   2.227  16.534 -0.7932  1.6245  2.4494
 6098SOL     OW29755   2.657   2.192   4.809  0.0629  0.0653  0.0974
 6098SOL    HW129756   2.637   2.285   4.822 -0.2649 -0.0932  0.7591
 6098SOL    HW229757   2.752   2.194   4.808  0.0500  1.4275  1.1183
 6099SOL     OW29758   1.231   0.316   2.040 -0.0969  0.0775 -1.0435
 6099SOL    HW129759   1.258   0.316   1.949  1.1559 -0.6691 -0.6713
 6099SOL    HW229760   1.315   0.329   2.085 -0.1948  0.2406 -0.9050
 6100SOL     OW29761   3.980   3.427   2.002  0.0936  0.1133 -0.5343
 6100SOL    HW129762   3.892   3.392   1.997 -0.1564  0.4749  1.1812
 6100SOL    HW229763   3.981   3.467   1.915  1.5378 -0.4140 -0.7673
 6101SOL     OW29764   3.072   0.314   8.980 -0.3842  0.4312  0.1592
 6101SOL    HW129765   3.024   0.365   9.045  0.6874 -0.3957  1.5930
 6101SOL    HW229766   3.077   0.227   9.019 -0.9046 -0.0543 -0.8579
 6102SOL     OW29767   2.552   2.591   2.865  0.0673  0.0387 -0.5480
 6102SOL    HW129768   2.569   2.519   2.926  1.1933  1.1011  0.3801
 6102SOL    HW229769   2.479   2.636   2.908  1.2866  2.0707 -0.6021
 6103SOL     OW29770   4.373   4.641  11.148  0.3694  0.5013 -0.5224
 6103SOL    HW129771   4.324   4.707  11.099  0.5895  2.2523  1.6266
 6103SOL    HW229772   4.433   4.695  11.199  1.1051 -1.8849  1.1570
 6104SOL     OW29773   4.606   3.536  12.425  0.6473  0.0103  0.1687
 6104SOL    HW129774   4.695   3.501  12.417  0.8900  0.6600  0.0672
 6104SOL    HW229775   4.589   3.556  12.333  1.0460  2.3585  0.6122
 6105SOL     OW29776   1.939   2.904   0.150 -0.0254 -0.1521 -0.3798
 6105SOL    HW129777   1.951   2.999   0.140 -0.4928  0.0877  1.4305
 6105SOL    HW229778   1.972   2.872   0.066 -1.6337  1.9349 -1.8019
 6106SOL     OW29779   3.686   4.229  17.660 -0.4333  0.3826  0.0354
 6106SOL    HW129780   3.627   4.173   0.029 -0.7326  0.9461  0.3047
 6106SOL    HW229781   3.767   4.220   0.031 -0.8757  0.2046  0.6944
 6107SOL     OW29782   0.720   4.570   8.580 -0.0405  0.5420 -0.1628
 6107SOL    HW129783   0.716   4.602   8.490 -0.4396 -2.8574 -1.3601
 6107SOL    HW229784   0.807   4.599   8.608  0.1568  0.1510 -0.3791
 6108SOL     OW29785   3.020   2.263   5.988  0.4959  0.0891  0.1907
 6108SOL    HW129786   3.092   2.285   5.928  0.6788 -1.4207 -0.1552
 6108SOL    HW229787   3.038   2.317   6.065  0.2980  2.4821 -1.4448
 6109SOL     OW29788   3.493   3.306  12.086 -0.0443 -0.2870 -0.2290
 6109SOL    HW129789   3.534   3.325  12.001  1.7778 -1.4472  0.4065
 6109SOL    HW229790   3.499   3.396  12.118 -0.4383 -0.7439  1.1321
 6110SOL     OW29791   3.006   1.694   6.570  0.1534  0.6248 -0.1352
 6110SOL    HW129792   3.082   1.668   6.517 -0.5780 -0.6755 -0.5711
 6110SOL    HW229793   3.055   1.706   6.651  1.4886 -0.2612 -0.8063
 6111SOL     OW29794   2.633   1.773   3.608  0.1013 -0.4963 -0.6041
 6111SOL    HW129795   2.691   1.849   3.620 -0.9373  0.3473 -0.9599
 6111SOL    HW229796   2.622   1.766   3.703 -1.8504 -0.9995 -0.8841
 6112SOL     OW29797   2.275   2.988   7.372 -0.8443  0.2206 -0.4178
 6112SOL    HW129798   2.333   3.064   7.363 -2.7252  1.7409  0.3766
 6112SOL    HW229799   2.186   3.023   7.377 -1.4050 -1.0183 -1.7594
 6113SOL     OW29800   2.032   4.705   6.649  0.2164  0.1185 -0.3919
 6113SOL    HW129801   2.122   0.018   6.644  0.4208 -0.3041  0.6245
 6113SOL    HW229802   2.038   4.635   6.584 -0.5986  0.4762 -0.8528
 6114SOL     OW29803   3.172   1.975   6.033 -0.1398  0.5578 -0.5061
 6114SOL    HW129804   3.101   1.998   5.973  0.7049 -3.6026 -3.1158
 6114SOL    HW229805   3.203   1.887   6.011 -0.3911  0.1932  0.6054
 6115SOL     OW29806   3.980   4.339   5.486  0.2272  0.3500 -0.0994
 6115SOL    HW129807   4.002   4.353   5.393  0.0408 -2.6045 -0.5869
 6115SOL    HW229808   4.051   4.277   5.501 -0.7114  0.5582  4.9637
 6116SOL     OW29809   2.577   1.421   5.444 -0.1119 -0.1210  0.9048
 6116SOL    HW129810   2.555   1.471   5.522 -1.8579 -0.6920  0.7772
 6116SOL    HW229811   2.521   1.469   5.383  0.3809  1.7900  1.9545
 6117SOL     OW29812   2.762   0.293   5.179  0.5279  0.0785  0.4091
 6117SOL    HW129813   2.805   0.209   5.164  0.8540  0.4257 -0.6081
 6117SOL    HW229814   2.783   0.335   5.096  1.0821  1.0182  1.0161
 6118SOL     OW29815   2.975   3.569  10.143 -0.1102 -0.1679  0.8455
 6118SOL    HW129816   2.953   3.624  10.218  1.0315 -0.0299  1.0751
 6118SOL    HW229817   2.897   3.563  10.088  0.0821  4.3784  0.0998
 6119SOL     OW29818   0.441   1.134   4.390 -0.2698  0.3830 -0.4428
 6119SOL    HW129819   0.499   1.074   4.343 -0.8683 -0.8421  0.3930
 6119SOL    HW229820   0.356   1.093   4.375  0.2071 -0.8176  0.1410
 6120SOL     OW29821   3.927   4.281  15.443  0.1490 -0.2983 -0.0551
 6120SOL    HW129822   3.946   4.267  15.351  2.0092 -0.9803  0.4521
 6120SOL    HW229823   4.012   4.258  15.478  0.1448  1.5000  1.1716
 6121SOL     OW29824   2.101   0.841  16.970 -0.0149  0.3695  0.2307
 6121SOL    HW129825   2.118   0.933  16.989 -0.1264 -0.0470  2.3199
 6121SOL    HW229826   2.172   0.798  17.016 -1.3344  0.4633  2.3848
 6122SOL     OW29827   1.504   2.567   0.701  0.1622 -0.2338 -0.2488
 6122SOL    HW129828   1.448   2.575   0.624  3.0430 -0.5305 -2.3686
 6122SOL    HW229829   1.559   2.497   0.666 -0.2754 -2.0192  2.6715
 6123SOL     OW29830   0.629   3.775   2.987 -0.0356 -0.1091  0.2970
 6123SOL    HW129831   0.626   3.737   3.075 -2.2091 -2.6561 -0.8574
 6123SOL    HW229832   0.565   3.845   2.996  1.5943  1.4440 -0.2184
 6124SOL     OW29833   1.235   0.143   1.486  0.1655  0.4383 -0.6050
 6124SOL    HW129834   1.257   0.059   1.446  1.1660  0.4130  0.0080
 6124SOL    HW229835   1.315   0.159   1.534 -1.0652 -0.8558  1.8680
 6125SOL     OW29836   1.598   1.265   2.617  0.0866 -0.2538  0.1710
 6125SOL    HW129837   1.526   1.322   2.645  0.4306  0.6435 -0.7538
 6125SOL    HW229838   1.601   1.280   2.522 -1.3125  1.0898  0.3335
 6126SOL     OW29839   1.902   1.957   5.976  0.0664 -0.2973 -0.2378
 6126SOL    HW129840   1.833   1.953   5.909  2.5439 -0.8981 -2.7430
 6126SOL    HW229841   1.870   1.898   6.044  0.4533  2.9356  2.7441
 6127SOL     OW29842   0.066   2.189   6.623 -0.0779 -0.0489  0.2787
 6127SOL    HW129843   4.718   2.159   6.562 -1.1163  0.1371  1.3267
 6127SOL    HW229844   0.001   2.236   6.677  0.0493  1.0882 -0.5669
 6128SOL     OW29845   4.100   2.463   8.226 -0.1148 -0.2518 -0.2618
 6128SOL    HW129846   4.090   2.489   8.134 -1.6168  1.6708  0.4591
 6128SOL    HW229847   4.143   2.544   8.255 -1.5866  0.7899 -0.9769
 6129SOL     OW29848   3.237   3.748   5.428 -0.0641 -0.0949 -0.1908
 6129SOL    HW129849   3.260   3.748   5.521  0.2018 -0.3175 -0.2566
 6129SOL    HW229850   3.144   3.770   5.421 -0.3664 -0.9373  1.0551
 6130SOL     OW29851   3.213   1.523   7.759 -0.3693 -0.0693 -0.6072
 6130SOL    HW129852   3.141   1.478   7.715  0.1156 -2.1645  0.7824
 6130SOL    HW229853   3.258   1.451   7.802 -0.8552 -0.9586 -1.5866
 6131SOL     OW29854   3.360   0.538   6.760 -0.8287 -0.1636  0.1164
 6131SOL    HW129855   3.440   0.513   6.715  0.0891 -0.6692  2.0459
 6131SOL    HW229856   3.353   0.631   6.736 -2.8875 -0.2720  0.2760
 6132SOL     OW29857   1.456   2.115  16.281 -0.5267  0.0419  0.1140
 6132SOL    HW129858   1.419   2.143  16.197  4.1220  1.7276 -1.3395
 6132SOL    HW229859   1.441   2.022  16.270  0.0858 -0.0932  0.4198
 6133SOL     OW29860   3.944   2.720   5.755  0.2158 -1.0563 -0.0992
 6133SOL    HW129861   4.037   2.730   5.777 -0.0560  0.7041  0.2654
 6133SOL    HW229862   3.945   2.631   5.721  0.3951 -0.8032 -0.7519
 6134SOL     OW29863   3.395   3.257   6.867  0.4148  0.5577  0.4596
 6134SOL    HW129864   3.432   3.287   6.951  0.5940  1.0927  0.1890
 6134SOL    HW229865   3.328   3.321   6.846 -0.1067 -0.1167  0.0826
 6135SOL     OW29866   3.560   1.315  14.873  0.6819 -0.0108 -0.4942
 6135SOL    HW129867   3.586   1.233  14.831  0.2061  0.6821 -2.1321
 6135SOL    HW229868   3.641   1.365  14.864  0.4112  0.5365  0.0947
 6136SOL     OW29869   4.017   0.929   4.282  0.1349  0.5093 -0.3647
 6136SOL    HW129870   4.014   1.007   4.336  1.8187  0.2688  0.0707
 6136SOL    HW229871   4.040   0.868   4.352  0.5244  0.0965 -0.8441
 6137SOL     OW29872   0.006   4.141   3.465 -0.0008 -0.3833  0.0024
 6137SOL    HW129873   4.652   4.105   3.415 -0.5238  0.0210  0.4810
 6137SOL    HW229874   0.025   4.213   3.405  0.3694 -0.5421 -0.0738
 6138SOL     OW29875   2.602   2.544  14.865 -0.0655  0.5954  0.2749
 6138SOL    HW129876   2.524   2.577  14.908  0.5974  0.4677  1.5671
 6138SOL    HW229877   2.611   2.611  14.797  0.2023  0.0958 -0.1901
 6139SOL     OW29878   1.619   0.484   4.089  0.1268 -0.4205 -0.1912
 6139SOL    HW129879   1.553   0.549   4.115  0.5181 -0.0626 -0.0993
 6139SOL    HW229880   1.579   0.466   4.004  2.0151  1.0225 -1.3787
 6140SOL     OW29881   2.917   1.684   5.755 -1.0864  0.1007 -0.8769
 6140SOL    HW129882   2.847   1.634   5.798 -0.0865  0.9245  1.6828
 6140SOL    HW229883   2.873   1.703   5.672  1.7108 -1.3568 -2.6815
 6141SOL     OW29884   3.461   0.684  16.069 -0.2295  0.4923 -0.1299
 6141SOL    HW129885   3.521   0.620  16.029 -0.9159 -0.2798  0.0596
 6141SOL    HW229886   3.398   0.698  15.998 -0.8741 -0.9320  0.1486
 6142SOL     OW29887   3.213   0.219   0.248  0.2574 -0.5646  0.0958
 6142SOL    HW129888   3.276   0.272   0.200  0.6667 -1.2228 -0.0963
 6142SOL    HW229889   3.211   0.267   0.331  1.1106  0.6535 -0.6069
 6143SOL     OW29890   2.622   4.495   7.315 -0.5874  0.2356  0.1180
 6143SOL    HW129891   2.568   4.464   7.243 -2.7205 -1.7484  2.5975
 6143SOL    HW229892   2.598   4.430   7.380 -4.3899  2.1092  0.5391
 6144SOL     OW29893   1.719   2.106  16.295  0.1458 -0.4097 -0.0007
 6144SOL    HW129894   1.758   2.193  16.288 -0.6932 -0.0714 -0.3718
 6144SOL    HW229895   1.625   2.121  16.297 -0.0369 -1.2695 -2.1048
 6145SOL     OW29896   2.710   0.267   0.491 -0.1008  0.6746  0.3456
 6145SOL    HW129897   2.616   0.283   0.498 -0.4535 -1.0120 -0.4410
 6145SOL    HW229898   2.735   0.247   0.400 -0.4228  2.3597 -0.1142
 6146SOL     OW29899   2.784   0.600   3.551  0.1817  0.0465  0.9156
 6146SOL    HW129900   2.826   0.613   3.466 -1.0278  1.1719  0.4949
 6146SOL    HW229901   2.693   0.583   3.528 -0.3062  0.7093  2.3428
 6147SOL     OW29902   1.447   3.924   5.069 -0.0598 -0.5348  0.3124
 6147SOL    HW129903   1.415   4.011   5.046 -1.4009 -1.4204 -1.1420
 6147SOL    HW229904   1.504   3.905   4.995 -2.1784  0.6566 -1.6285
 6148SOL     OW29905   1.429   0.746   0.224 -0.5193  0.5904 -0.0439
 6148SOL    HW129906   1.471   0.660   0.228 -0.8555  0.4508  0.5318
 6148SOL    HW229907   1.419   0.758   0.130 -0.4877 -0.6571 -0.2133
 6149SOL     OW29908   2.254   3.148   3.490  0.8742  0.2112 -0.1716
 6149SOL    HW129909   2.272   3.185   3.403  2.1391 -1.7236 -0.7171
 6149SOL    HW229910   2.292   3.060   3.491  1.2175  0.3441 -2.0101
 6150SOL     OW29911   0.906   4.645   4.794  0.0486  0.5741 -0.8082
 6150SOL    HW129912   0.839   4.686   4.849 -0.3055 -1.2997  0.1372
 6150SOL    HW229913   0.907   4.559   4.836 -2.1652  1.8231  1.8285
 6151SOL     OW29914   4.088   3.714   8.121  0.3560 -0.0776  0.3118
 6151SOL    HW129915   4.030   3.788   8.103  0.9282 -0.0265 -1.3377
 6151SOL    HW229916   4.074   3.714   8.215  0.8332 -0.5789  0.3852
 6152SOL     OW29917   4.493   0.653  13.394  0.2889 -0.0094  0.4393
 6152SOL    HW129918   4.551   0.728  13.407  0.9271 -0.5854  0.8956
 6152SOL    HW229919   4.442   0.662  13.475 -0.7221  0.4244 -0.2452
 6153SOL     OW29920   0.468   4.666   4.814  0.1524 -0.2873  0.4601
 6153SOL    HW129921   0.493   4.603   4.747  3.1271  1.9268 -0.5202
 6153SOL    HW229922   0.439   4.615   4.890 -0.6531 -0.5867 -0.0518
 6154SOL     OW29923   2.316   4.040   2.602  0.2389  0.3681  0.1381
 6154SOL    HW129924   2.227   4.061   2.574 -0.1051 -0.7886  0.3597
 6154SOL    HW229925   2.361   4.039   2.518  0.8239 -0.2121  0.4591
 6155SOL     OW29926   0.707   3.241   4.248  0.2208 -0.2314  0.1090
 6155SOL    HW129927   0.799   3.214   4.256  0.4141  0.0288 -1.2000
 6155SOL    HW229928   0.719   3.335   4.231  0.4101 -0.6180 -1.8637
 6156SOL     OW29929   1.142   1.242  10.752 -0.3069 -0.3998 -0.2758
 6156SOL    HW129930   1.081   1.169  10.762 -0.6441 -0.1434 -0.4579
 6156SOL    HW229931   1.213   1.211  10.695 -1.0674 -0.1205 -1.3648
 6157SOL     OW29932   4.434   4.526   9.460  0.6367 -0.8457  0.2136
 6157SOL    HW129933   4.416   4.469   9.534  0.5291 -0.4486  0.4918
 6157SOL    HW229934   4.380   4.482   9.395  0.2950  0.5679 -0.4516
 6158SOL     OW29935   0.247   1.390   5.291  0.3137  0.2356 -0.1396
 6158SOL    HW129936   0.186   1.319   5.312  0.6163 -0.4966 -1.7019
 6158SOL    HW229937   0.309   1.388   5.363 -0.4651  0.8301  0.5463
 6159SOL     OW29938   1.669   3.211   0.213  0.0296 -0.3459  0.8723
 6159SOL    HW129939   1.683   3.196   0.306 -1.4402 -1.2044  0.9535
 6159SOL    HW229940   1.590   3.265   0.216  0.1705 -0.0001 -1.7970
 6160SOL     OW29941   2.262   2.390  10.955 -0.0682 -0.2969  0.4637
 6160SOL    HW129942   2.171   2.383  10.984 -0.6278  1.0011 -0.9985
 6160SOL    HW229943   2.278   2.484  10.959 -0.2497 -0.1335 -2.8561
 6161SOL     OW29944   1.756   3.665   8.390 -0.0517 -0.5919 -0.1588
 6161SOL    HW129945   1.706   3.586   8.411 -1.7664  0.2592 -1.0320
 6161SOL    HW229946   1.840   3.635   8.426 -0.9499 -1.6473  1.0523
 6162SOL     OW29947   0.125   3.253   7.992  0.0573 -0.1197  0.0828
 6162SOL    HW129948   0.184   3.225   8.062  1.3086 -0.4887 -1.1384
 6162SOL    HW229949   0.096   3.341   8.018 -1.2633  0.0375 -1.8809
 6163SOL     OW29950   4.129   3.265  16.449 -0.1233 -0.1293  0.1789
 6163SOL    HW129951   4.142   3.175  16.420 -0.3473 -0.2153  0.3527
 6163SOL    HW229952   4.208   3.301  16.491  0.4553 -0.9931 -0.1812
 6164SOL     OW29953   0.597   2.657   3.315 -0.0173  0.1734  0.0640
 6164SOL    HW129954   0.685   2.693   3.317  0.3708 -0.7872  0.2233
 6164SOL    HW229955   0.546   2.726   3.273 -3.0284 -1.9997  0.0970
 6165SOL     OW29956   3.106   4.003   8.932 -0.3376  0.1619 -0.2164
 6165SOL    HW129957   3.189   4.038   8.898 -1.7414  2.1208 -1.6105
 6165SOL    HW229958   3.069   4.073   8.986  0.3157 -0.1284  0.6153
 6166SOL     OW29959   2.844   3.779   7.917 -0.2426  0.1496 -0.8032
 6166SOL    HW129960   2.834   3.718   7.843  1.5656  0.2212 -1.1088
 6166SOL    HW229961   2.768   3.836   7.909 -0.3789  0.0453 -0.2038
 6167SOL     OW29962   4.413   0.490   4.385 -0.4054  0.4981 -0.1999
 6167SOL    HW129963   4.342   0.469   4.445  1.1003 -0.8163  1.1058
 6167SOL    HW229964   4.417   0.586   4.391 -1.3363  0.5168  0.1061
 6168SOL     OW29965   4.616   2.495   0.689 -0.1636  0.0602  0.2638
 6168SOL    HW129966   4.634   2.528   0.601  1.3049 -0.5241  0.3530
 6168SOL    HW229967   4.677   2.549   0.738  1.7720 -0.3332 -1.6993
 6169SOL     OW29968   0.657   0.980  10.812  0.3156  0.2651  0.4713
 6169SOL    HW129969   0.633   0.933  10.732  1.4774  0.7918 -0.1815
 6169SOL    HW229970   0.617   1.067  10.811 -0.2621  0.0046  1.2493
 6170SOL     OW29971   0.117   1.823   2.189 -0.1418 -0.5881  0.5853
 6170SOL    HW129972   0.144   1.793   2.276  0.0599  0.7786  0.9939
 6170SOL    HW229973   0.067   1.903   2.207 -0.3944 -0.0961 -2.3948
 6171SOL     OW29974   1.900   1.541  13.713 -0.7526 -0.3063 -0.4622
 6171SOL    HW129975   1.833   1.476  13.694 -0.4316 -0.3396 -1.4942
 6171SOL    HW229976   1.934   1.498  13.792 -0.6118  0.5617 -0.0531
 6172SOL     OW29977   0.856   2.694   4.440 -0.2390 -0.5427  0.3097
 6172SOL    HW129978   0.929   2.744   4.405  0.3879 -1.1169  0.8102
 6172SOL    HW229979   0.790   2.713   4.373  1.0160  0.6772 -0.5700
 6173SOL     OW29980   0.539   2.606  12.439 -0.3759 -0.0838  0.2584
 6173SOL    HW129981   0.504   2.528  12.481  2.3773 -2.0054 -1.0397
 6173SOL    HW229982   0.468   2.625  12.377 -1.7255  1.6571  2.3271
 6174SOL     OW29983   3.071   2.996  12.871  0.2398 -0.1250  0.3353
 6174SOL    HW129984   3.021   3.049  12.934  0.8037 -1.3100  1.7729
 6174SOL    HW229985   3.080   3.054  12.796 -1.8243  1.6883  1.4678
 6175SOL     OW29986   0.288   1.858   1.454 -0.2732  0.1294 -0.1334
 6175SOL    HW129987   0.284   1.914   1.377  0.2797 -2.0490 -1.7402
 6175SOL    HW229988   0.380   1.831   1.461 -0.1604  0.5997  0.1769
 6176SOL     OW29989   0.826   0.365   1.822 -0.3543  0.4975 -0.0707
 6176SOL    HW129990   0.877   0.345   1.900 -0.5868  1.7571  0.4056
 6176SOL    HW229991   0.751   0.412   1.859 -2.1128 -1.8914 -0.5913
 6177SOL     OW29992   2.053   0.485   7.743 -0.2604 -0.1535 -0.0050
 6177SOL    HW129993   1.988   0.415   7.744 -0.2897 -0.0857  1.9715
 6177SOL    HW229994   2.053   0.515   7.834  1.7254  0.6143 -0.2600
 6178SOL     OW29995   4.343   1.204   2.734 -1.0383  0.5176 -0.1069
 6178SOL    HW129996   4.388   1.184   2.652  1.1945  0.0858  1.2248
 6178SOL    HW229997   4.353   1.299   2.725  0.6513  0.2780 -0.6233
 6179SOL     OW29998   0.392   2.225   7.452  0.0064  0.5513 -0.4046
 6179SOL    HW129999   0.447   2.176   7.513  2.2522  3.0537 -0.4195
 6179SOL    HW230000   0.416   2.202   7.362  0.0733 -1.1250  0.0488
 6180SOL     OW30001   2.697   4.243   6.431  0.0218  0.2072 -0.0129
 6180SOL    HW130002   2.611   4.212   6.460  1.3354 -3.0700  0.4689
 6180SOL    HW230003   2.703   4.226   6.337 -0.5881 -0.3191  0.0440
 6181SOL     OW30004   2.700   0.896   4.655 -0.3216  0.2676 -0.1568
 6181SOL    HW130005   2.771   0.833   4.647 -0.1851  0.5424 -1.0876
 6181SOL    HW230006   2.674   0.912   4.565  1.8050  2.5233 -0.4001
 6182SOL     OW30007   3.582   0.416   9.492  0.0049 -0.1965  0.4847
 6182SOL    HW130008   3.634   0.478   9.542 -1.0877  1.0045  0.1195
 6182SOL    HW230009   3.622   0.431   9.406 -0.4348  1.9789  0.6611
 6183SOL     OW30010   4.365   0.419   7.142  0.2341  0.4188 -0.9564
 6183SOL    HW130011   4.434   0.459   7.195  2.2022  0.4982 -3.5339
 6183SOL    HW230012   4.405   0.336   7.116 -1.0574 -0.4103 -0.2629
 6184SOL     OW30013   3.687   3.067   7.171 -0.2343  0.6554  0.7885
 6184SOL    HW130014   3.656   2.976   7.180  1.3865  0.0944  0.7586
 6184SOL    HW230015   3.650   3.114   7.246  0.0107  0.9464  0.7255
 6185SOL     OW30016   4.183   0.213  12.568 -0.2424 -0.0551 -0.1746
 6185SOL    HW130017   4.260   0.248  12.613 -0.5140 -1.5807  1.4540
 6185SOL    HW230018   4.114   0.247  12.625  1.9673  3.6614  0.2887
 6186SOL     OW30019   0.420   3.058  11.295  0.8398 -0.3626  0.5047
 6186SOL    HW130020   0.371   3.005  11.233 -1.0308  0.4334  1.3176
 6186SOL    HW230021   0.497   3.091  11.249  0.4479 -0.2448 -0.0602
 6187SOL     OW30022   1.210   3.339   1.107 -0.4698 -0.0394 -0.3172
 6187SOL    HW130023   1.155   3.405   1.149 -1.1109 -1.9894  1.8990
 6187SOL    HW230024   1.252   3.384   1.033 -2.1647  0.5298 -0.9325
 6188SOL     OW30025   1.525   4.696   6.132 -0.2998  0.6346  0.0447
 6188SOL    HW130026   1.535   4.669   6.223  1.0155 -3.3421 -1.2643
 6188SOL    HW230027   1.600   0.035   6.126  0.2355 -0.1026 -0.3944
 6189SOL     OW30028   0.579   2.993  13.713  0.4453  0.4844  0.1034
 6189SOL    HW130029   0.562   3.008  13.806 -0.5323  0.0967 -0.0102
 6189SOL    HW230030   0.668   3.025  13.698  0.7854  0.8819  3.0055
 6190SOL     OW30031   0.653   0.357   2.361 -0.1088  0.0791  0.2970
 6190SOL    HW130032   0.644   0.391   2.272 -0.0277  0.1708  0.3243
 6190SOL    HW230033   0.748   0.350   2.370 -0.0270  1.1715  0.2932
 6191SOL     OW30034   0.180   2.548   3.171 -0.1534  0.0029 -0.2430
 6191SOL    HW130035   0.213   2.458   3.167 -1.6876 -0.5942  0.3804
 6191SOL    HW230036   0.135   2.542   3.087  1.4813  0.3316 -1.1379
 6192SOL     OW30037   0.336   4.170   2.398 -0.3065 -0.2577  0.1363
 6192SOL    HW130038   0.410   4.202   2.345  1.1708  0.4314  2.6213
 6192SOL    HW230039   0.367   4.079   2.405  0.7167 -0.0309 -1.3498
 6193SOL     OW30040   1.593   0.292   1.901 -0.0965  0.0885 -0.5428
 6193SOL    HW130041   1.533   0.282   1.828 -1.2283  0.5654  0.3199
 6193SOL    HW230042   1.674   0.299   1.851  0.0236 -2.1966 -0.6412
 6194SOL     OW30043   3.306   3.401  15.139  0.5599 -0.0438  0.0253
 6194SOL    HW130044   3.300   3.342  15.214  3.5106 -0.9372 -0.4643
 6194SOL    HW230045   3.277   3.485  15.176 -0.0950  0.5593 -1.8472
 6195SOL     OW30046   1.457   4.168   4.945  0.4439 -0.4159 -0.1130
 6195SOL    HW130047   1.461   4.143   4.853  2.7486  0.1206 -0.1464
 6195SOL    HW230048   1.480   4.260   4.949  2.4813 -1.0899  3.2105
 6196SOL     OW30049   1.203   0.726  11.848  0.2875 -0.0106 -0.0613
 6196SOL    HW130050   1.203   0.757  11.939 -1.5629  1.3709 -0.5360
 6196SOL    HW230051   1.236   0.804  11.804  1.9509 -1.3032 -1.0533
 6197SOL     OW30052   3.474   4.577  14.525 -0.2749  0.2574  0.5992
 6197SOL    HW130053   3.487   4.528  14.444  1.4268  0.3965  0.7760
 6197SOL    HW230054   3.385   4.606  14.504 -0.5015 -0.2436  0.8600
 6198SOL     OW30055   2.826   1.514  16.824  0.6239 -0.6762  0.5164
 6198SOL    HW130056   2.799   1.423  16.818 -1.3680 -0.2633  3.5719
 6198SOL    HW230057   2.743   1.547  16.857  1.0096 -0.8303  1.6407
 6199SOL     OW30058   1.595   3.646   3.459  0.6692  0.0500  0.1832
 6199SOL    HW130059   1.661   3.585   3.427  0.9309 -0.1013  1.0270
 6199SOL    HW230060   1.543   3.652   3.379  1.1209  2.8447  0.0929
 6200SOL     OW30061   2.167   4.471   5.069  0.0541  0.1313  0.2806
 6200SOL    HW130062   2.200   4.509   4.988 -0.0635 -0.4234 -0.0228
 6200SOL    HW230063   2.096   4.529   5.099  0.5902  1.5362 -1.1841
 6201SOL     OW30064   1.072   1.674   8.700 -0.2396  0.1010  0.3766
 6201SOL    HW130065   1.107   1.587   8.681 -1.0725 -0.4644  1.4064
 6201SOL    HW230066   1.142   1.728   8.663 -1.9759  2.0087 -0.1349
 6202SOL     OW30067   1.665   0.224   6.771  0.1283 -0.0497 -0.2269
 6202SOL    HW130068   1.582   0.262   6.743  0.1878  1.2647  1.3629
 6202SOL    HW230069   1.723   0.299   6.757  2.6574 -1.9424  0.0052
 6203SOL     OW30070   1.056   2.076  15.847  0.2055  0.3525 -0.3240
 6203SOL    HW130071   1.097   1.991  15.829 -0.1841 -0.1176  1.0464
 6203SOL    HW230072   1.082   2.086  15.939 -1.0633  2.4604 -0.2140
 6204SOL     OW30073   2.534   2.241  12.075  0.0072  0.7228 -0.2739
 6204SOL    HW130074   2.502   2.318  12.122  0.1698  0.8314 -0.3411
 6204SOL    HW230075   2.472   2.247  12.002  0.4993  0.4300 -0.7082
 6205SOL     OW30076   4.282   0.174   3.966 -0.1358  0.6835 -0.7231
 6205SOL    HW130077   4.277   0.222   4.048 -4.1646  0.2774 -0.7353
 6205SOL    HW230078   4.252   0.090   4.002 -1.0141  0.4204 -2.0539
 6206SOL     OW30079   4.339   3.049  17.108  0.5814 -0.0113 -0.2293
 6206SOL    HW130080   4.331   3.008  17.022  0.7186 -1.0328  0.2521
 6206SOL    HW230081   4.339   2.964  17.153  0.0228 -0.0374 -0.2785
 6207SOL     OW30082   2.292   2.644   2.925  0.1147 -0.2135  0.3208
 6207SOL    HW130083   2.220   2.591   2.960 -0.3392  0.7646  0.8667
 6207SOL    HW230084   2.242   2.687   2.856 -0.5766 -2.1617 -0.3756
 6208SOL     OW30085   0.590   2.930   5.394  0.7556  0.5342 -0.5416
 6208SOL    HW130086   0.556   3.015   5.423 -0.7796  0.0336 -0.8269
 6208SOL    HW230087   0.603   2.896   5.482  1.0800 -1.6337 -1.4350
 6209SOL     OW30088   1.991   3.475   5.794 -0.2173 -0.3470  0.4794
 6209SOL    HW130089   2.062   3.539   5.787 -0.9371  0.6163  1.9243
 6209SOL    HW230090   1.916   3.528   5.766  0.7242  1.6898  1.7908
 6210SOL     OW30091   0.918   0.634   5.924  0.2436 -0.2295  0.0165
 6210SOL    HW130092   1.003   0.675   5.940  0.1985  0.8304 -2.3155
 6210SOL    HW230093   0.863   0.712   5.936  0.5834  0.1409 -0.8545
 6211SOL     OW30094   0.421   0.518   1.266 -0.0701 -0.6479 -0.2411
 6211SOL    HW130095   0.516   0.527   1.275 -0.3161  2.7421 -1.3587
 6211SOL    HW230096   0.400   0.567   1.187 -1.2652  0.8170  0.9943
 6212SOL     OW30097   4.406   2.600  15.228 -0.2365 -0.2343 -0.2589
 6212SOL    HW130098   4.460   2.575  15.154  2.5860  0.6570  1.5218
 6212SOL    HW230099   4.442   2.546  15.298  0.4393  0.0640 -0.3800
 6213SOL     OW30100   4.632   3.028  12.418 -0.4013  0.7346  0.6085
 6213SOL    HW130101   4.674   2.950  12.453 -0.9360 -0.5198 -1.5740
 6213SOL    HW230102   4.645   3.099  12.481  0.4521  0.2134  1.0054
 6214SOL     OW30103   1.296   2.942   3.507 -0.3612  0.1070  0.4300
 6214SOL    HW130104   1.321   3.020   3.557 -1.6867  0.6150  0.3153
 6214SOL    HW230105   1.222   2.978   3.457 -0.4582  1.5653  1.6164
 6215SOL     OW30106   4.422   1.874  13.266 -0.1649  0.2248 -0.1717
 6215SOL    HW130107   4.415   1.968  13.284  0.4656  0.1748  0.2975
 6215SOL    HW230108   4.342   1.866  13.213 -0.8678  2.9586  0.4530
 6216SOL     OW30109   1.582   3.780  12.996 -0.1700 -0.1861  0.5765
 6216SOL    HW130110   1.559   3.688  13.006 -3.2243  0.5807  0.3131
 6216SOL    HW230111   1.503   3.831  13.013  0.4554  1.0823 -0.3234
 6217SOL     OW30112   4.442   2.846   2.918  0.3889 -0.0567  0.3368
 6217SOL    HW130113   4.387   2.829   2.841  1.9984 -0.9516 -0.6162
 6217SOL    HW230114   4.515   2.900   2.885  0.6281 -1.1451 -0.9005
 6218SOL     OW30115   0.323   3.616   8.603  0.1689  0.2604 -0.8188
 6218SOL    HW130116   0.247   3.672   8.616 -0.2214 -0.4017 -0.2679
 6218SOL    HW230117   0.347   3.604   8.695 -0.5258  0.1212 -0.6596
 6219SOL     OW30118   0.461   2.178   4.852 -0.8001 -0.4343 -0.2590
 6219SOL    HW130119   0.399   2.180   4.779  0.1749 -1.1018 -1.0961
 6219SOL    HW230120   0.545   2.182   4.807 -0.0268 -1.7697  1.0661
 6220SOL     OW30121   4.647   0.753  15.950 -0.1533 -0.1641  0.1051
 6220SOL    HW130122   4.662   0.808  16.027  2.3932 -2.8736  1.5344
 6220SOL    HW230123   0.013   0.757  15.908 -0.8822  0.0941 -1.3287
 6221SOL     OW30124   4.257   1.228  16.447  0.0191  0.4557  0.0853
 6221SOL    HW130125   4.292   1.316  16.430  3.1481 -0.3651  2.2522
 6221SOL    HW230126   4.187   1.265  16.502 -0.1119  0.0451  0.1972
 6222SOL     OW30127   3.199   0.413   2.470 -0.0689  0.1599  0.5674
 6222SOL    HW130128   3.146   0.383   2.545  0.7439 -0.7730  0.7668
 6222SOL    HW230129   3.135   0.424   2.400  0.4948  0.0551  0.0347
 6223SOL     OW30130   2.785   1.814  15.531  0.0114  0.1960 -0.3630
 6223SOL    HW130131   2.693   1.817  15.507  0.1027  0.5418 -0.6742
 6223SOL    HW230132   2.829   1.815  15.446  1.3801  0.5646  0.3469
 6224SOL     OW30133   2.884   3.234   4.043 -0.0726  0.4510 -0.0098
 6224SOL    HW130134   2.967   3.263   4.005 -0.4689  0.0622 -1.1836
 6224SOL    HW230135   2.848   3.315   4.080 -2.3181 -1.4825  2.0256
 6225SOL     OW30136   2.108   4.199   6.504 -0.3029  0.3640 -0.0699
 6225SOL    HW130137   2.064   4.197   6.419 -2.4570 -1.3876  1.0912
 6225SOL    HW230138   2.176   4.266   6.500 -1.7876  1.8830  0.0997
 6226SOL     OW30139   1.204   4.579   2.483 -0.4456  0.2254 -0.0038
 6226SOL    HW130140   1.147   4.656   2.482  0.6977  1.0525 -1.5021
 6226SOL    HW230141   1.128   4.521   2.475 -0.9504  1.0831 -1.4960
 6227SOL     OW30142   0.612   2.735  12.040 -0.3793 -0.1967  0.0462
 6227SOL    HW130143   0.690   2.681  12.037 -0.8691 -0.7150 -3.9541
 6227SOL    HW230144   0.655   2.820  12.054 -1.2220  0.5560 -1.8408
 6228SOL     OW30145   0.029   3.760   4.961  0.2007 -0.4382  0.4847
 6228SOL    HW130146   4.715   3.843   4.927  0.7166 -0.3122  0.2868
 6228SOL    HW230147   4.664   3.718   4.970  1.0326 -2.0378  0.7437
 6229SOL     OW30148   1.725   4.552   4.045  0.3740 -0.3971  0.0410
 6229SOL    HW130149   1.786   4.497   4.095  1.9572  1.1267 -0.1856
 6229SOL    HW230150   1.753   4.551   3.954  0.8034 -1.1241  0.1744
 6230SOL     OW30151   2.208   2.779   7.092 -0.5581 -0.3668 -0.6208
 6230SOL    HW130152   2.217   2.855   7.034  1.4488 -1.0705 -1.2344
 6230SOL    HW230153   2.300   2.782   7.121  0.1785  0.2143 -3.0186
 6231SOL     OW30154   3.436   2.335   9.946 -0.3750  0.4835  0.8235
 6231SOL    HW130155   3.362   2.282   9.917  1.2292 -1.6126  0.5367
 6231SOL    HW230156   3.477   2.354   9.862  2.0738  2.3244  2.4340
 6232SOL     OW30157   1.660   2.991  13.219 -0.4998  0.1134 -0.2308
 6232SOL    HW130158   1.645   2.998  13.313  3.9197 -2.0381  0.6370
 6232SOL    HW230159   1.704   2.908  13.205 -1.6688 -0.6995  0.9552
 6233SOL     OW30160   1.152   1.734  11.499  0.3259 -0.1309  0.2008
 6233SOL    HW130161   1.173   1.710  11.409 -0.0521  2.3527 -0.5515
 6233SOL    HW230162   1.127   1.647  11.531 -0.2450 -0.1203 -0.2154
 6234SOL     OW30163   1.807   3.094   5.007  0.4722  0.2300  0.8322
 6234SOL    HW130164   1.899   3.113   5.027  0.6681  1.3158 -1.1580
 6234SOL    HW230165   1.770   3.124   5.091  1.9822  1.4997  1.0623
 6235SOL     OW30166   0.465   1.579  13.296 -0.6146 -0.4234 -0.4254
 6235SOL    HW130167   0.382   1.617  13.324 -1.1055 -2.1119  0.3812
 6235SOL    HW230168   0.451   1.485  13.301 -0.6264 -0.4329 -0.6419
 6236SOL     OW30169   0.429   0.254   5.395  0.1131  0.3282 -0.4395
 6236SOL    HW130170   0.398   0.345   5.391 -0.3769  0.2256  1.1782
 6236SOL    HW230171   0.364   0.210   5.341  0.3024  2.5488 -2.5010
 6237SOL     OW30172   4.677   2.870   3.511  0.4136 -0.2941  0.5910
 6237SOL    HW130173   4.675   2.789   3.460  0.5038 -0.3290  0.6431
 6237SOL    HW230174   0.052   2.867   3.524  0.4960  0.9775  0.2962
 6238SOL     OW30175   3.634   2.794  16.788  0.1487 -0.0449 -0.2021
 6238SOL    HW130176   3.680   2.840  16.858 -1.1942  0.5038  0.3206
 6238SOL    HW230177   3.679   2.709  16.788  1.4468  0.6406  0.3223
 6239SOL     OW30178   3.914   1.667   9.378  0.1052 -0.1376  0.1470
 6239SOL    HW130179   3.867   1.747   9.403 -1.0675 -0.1991 -1.8745
 6239SOL    HW230180   3.904   1.619   9.460 -1.4454 -1.3462 -0.7469
 6240SOL     OW30181   3.433   4.338  12.401 -0.0721 -0.1444 -0.5696
 6240SOL    HW130182   3.370   4.375  12.339  1.1770  0.8029 -1.2641
 6240SOL    HW230183   3.500   4.330  12.334  1.6190 -0.8591  1.1952
 6241SOL     OW30184   4.095   4.221   7.875  0.3957  0.4793  0.4421
 6241SOL    HW130185   4.010   4.182   7.853  0.3930  1.7364 -1.8428
 6241SOL    HW230186   4.090   4.293   7.812  0.9479  0.2360  0.1265
 6242SOL     OW30187   2.341   4.573  10.717 -0.0338 -0.2862 -0.1153
 6242SOL    HW130188   2.360   4.486  10.753 -2.5791 -1.3121 -1.2199
 6242SOL    HW230189   2.255   4.594  10.754 -0.6945 -0.8423 -1.2925
 6243SOL     OW30190   0.540   0.122   8.062 -0.0746 -0.3003 -0.2028
 6243SOL    HW130191   0.527   0.166   8.146  0.3452  0.2682 -0.4363
 6243SOL    HW230192   0.480   0.047   8.069  0.8219 -1.0130 -0.0585
 6244SOL     OW30193   2.115   0.158   5.268 -0.6358  0.0467 -0.1180
 6244SOL    HW130194   2.077   0.162   5.356  0.1563  0.0446  0.2273
 6244SOL    HW230195   2.186   0.218   5.294 -1.0315 -0.4125  2.0158
 6245SOL     OW30196   4.208   0.531   7.705  0.0591  0.2266  0.0303
 6245SOL    HW130197   4.167   0.455   7.665  0.2917 -0.3748  0.9278
 6245SOL    HW230198   4.203   0.599   7.638 -1.9382 -1.6213 -1.6837
 6246SOL     OW30199   0.350   4.234  14.605  0.5680 -0.1025 -0.5210
 6246SOL    HW130200   0.343   4.304  14.540 -2.7873 -1.0131 -1.1285
 6246SOL    HW230201   0.431   4.195  14.573  0.5911  0.7010 -1.4586
 6247SOL     OW30202   2.809   1.725  10.039 -0.2470  0.2025 -1.0084
 6247SOL    HW130203   2.723   1.701  10.005 -1.8798 -0.2716  3.5167
 6247SOL    HW230204   2.854   1.642  10.022  1.2358  1.2191 -2.1130
 6248SOL     OW30205   3.493   0.513  13.065 -0.3412 -0.0109 -1.0154
 6248SOL    HW130206   3.473   0.544  13.154 -2.2946  1.2027 -1.8825
 6248SOL    HW230207   3.480   0.419  13.081 -2.7012  0.3211 -1.0233
 6249SOL     OW30208   2.011   2.605  14.807 -0.3606  0.2514 -0.2116
 6249SOL    HW130209   1.916   2.604  14.798 -0.3088  2.0088 -1.0659
 6249SOL    HW230210   2.015   2.552  14.886 -0.2467  0.5094 -0.0437
 6250SOL     OW30211   4.472   0.010   2.596  0.3438 -0.3831  0.1705
 6250SOL    HW130212   4.386   4.704   2.562  0.1411 -1.0111  1.1465
 6250SOL    HW230213   4.481   4.653   2.652  1.9305 -1.0957 -1.0301
 6251SOL     OW30214   2.923   4.497   7.519  0.1336 -0.1171 -0.1273
 6251SOL    HW130215   2.899   4.568   7.460  0.3444  0.5932  0.6414
 6251SOL    HW230216   2.898   4.417   7.473  0.7731 -0.9702  0.9844
 6252SOL     OW30217   0.524   2.602   6.089  0.5847 -0.3316 -0.4771
 6252SOL    HW130218   0.511   2.633   6.000 -0.3293 -0.6671 -0.4641
 6252SOL    HW230219   0.586   2.530   6.077 -0.5938 -1.2870 -0.8689
 6253SOL     OW30220   2.531   1.499   3.100 -0.1241 -0.1938 -0.6321
 6253SOL    HW130221   2.560   1.465   3.016 -0.7557  0.5754 -1.1589
 6253SOL    HW230222   2.481   1.424   3.130  1.1593 -0.1759  1.5429
 6254SOL     OW30223   2.969   1.187   5.214  0.1839 -0.2758  0.7003
 6254SOL    HW130224   2.991   1.260   5.158  0.2076  1.2512  2.7005
 6254SOL    HW230225   3.031   1.116   5.197 -0.2763 -0.9108  1.6383
 6255SOL     OW30226   2.763   0.384  10.463 -0.0852  0.1124 -0.6318
 6255SOL    HW130227   2.836   0.411  10.408 -0.3017  2.9362  0.4471
 6255SOL    HW230228   2.707   0.359  10.389 -0.4059 -0.1043 -0.3163
 6256SOL     OW30229   2.144   0.465   7.491 -0.2100 -0.3414  0.3234
 6256SOL    HW130230   2.122   0.473   7.584  0.8076 -0.8297  0.6050
 6256SOL    HW230231   2.113   0.553   7.469  1.1552 -0.3144 -1.4874
 6257SOL     OW30232   2.418   1.867  16.061 -0.1396  0.0851 -0.1670
 6257SOL    HW130233   2.491   1.867  16.123 -1.5394  0.1360  1.5111
 6257SOL    HW230234   2.402   1.960  16.048  1.6956  0.6741  1.8676
 6258SOL     OW30235   0.712   4.643   7.840  0.1803  0.0743 -0.0007
 6258SOL    HW130236   0.735   4.553   7.866 -0.0090  0.2154  0.6464
 6258SOL    HW230237   0.782   4.656   7.776 -2.0491 -2.0276 -2.8711
 6259SOL     OW30238   0.045   4.609  12.331 -0.1007  0.4527 -0.2094
 6259SOL    HW130239   0.057   4.656  12.413 -0.1170  2.6243 -1.4620
 6259SOL    HW230240   0.137   4.598  12.310 -0.5153 -1.1515 -1.1789
 6260SOL     OW30241   4.609   0.663   4.196  0.4779 -0.2896  0.4145
 6260SOL    HW130242   4.517   0.691   4.202  0.4557 -0.6646  1.6903
 6260SOL    HW230243   4.620   0.656   4.101 -0.1121  1.0641  0.2397
 6261SOL     OW30244   1.816   0.104   3.969  0.0790 -0.2117  0.0830
 6261SOL    HW130245   1.800   0.010   3.960  2.1136 -0.6789  1.1721
 6261SOL    HW230246   1.744   0.142   3.919 -0.6349 -1.6414  0.0423
 6262SOL     OW30247   2.596   0.250   8.150  0.3804  0.3533  0.1511
 6262SOL    HW130248   2.506   0.224   8.169  0.5478 -2.0415 -2.1864
 6262SOL    HW230249   2.640   0.267   8.233 -0.0224  1.2617  0.1788
 6263SOL     OW30250   2.910   2.716   5.527  0.1908  0.0340 -0.4466
 6263SOL    HW130251   3.000   2.686   5.538 -0.1806 -1.1082 -0.4582
 6263SOL    HW230252   2.875   2.667   5.452 -0.3778  0.0451 -0.1955
 6264SOL     OW30253   0.574   0.172  16.806 -0.0678 -0.0297  0.1984
 6264SOL    HW130254   0.524   0.230  16.862 -0.3101 -0.8618  0.8432
 6264SOL    HW230255   0.592   0.224  16.727 -0.1249  0.4411  0.4968
 6265SOL     OW30256   0.741   2.110   4.333 -0.7651  0.4331  0.0577
 6265SOL    HW130257   0.652   2.103   4.367 -1.9449  1.1364 -2.8820
 6265SOL    HW230258   0.761   2.016   4.341 -0.1016  0.4947 -0.9110
 6266SOL     OW30259   3.527   0.045   7.769  0.5034  0.0348  0.1844
 6266SOL    HW130260   3.550   4.712   7.845 -2.0549  0.9148  1.5508
 6266SOL    HW230261   3.568   4.718   7.695 -1.5500 -0.0015 -0.9446
 6267SOL     OW30262   3.813   2.682   7.991  0.2369 -0.6118 -0.1225
 6267SOL    HW130263   3.746   2.726   7.938 -0.6997 -2.2250 -0.2617
 6267SOL    HW230264   3.756   2.621   8.037 -0.8368  1.0910  0.7919
 6268SOL     OW30265   0.044   0.116   8.593  0.7366 -0.9681  0.1852
 6268SOL    HW130266   0.067   0.209   8.595 -2.3610 -0.1878 -1.1559
 6268SOL    HW230267   0.087   0.088   8.512  1.1582 -0.5211  0.2512
 6269SOL     OW30268   1.854   0.317  11.938 -0.0055 -0.4378  0.3468
 6269SOL    HW130269   1.912   0.284  12.007 -1.5675  0.3261  2.0458
 6269SOL    HW230270   1.769   0.290  11.974 -0.2374 -1.4652 -0.9696
 6270SOL     OW30271   0.329   1.858   4.387 -0.1148 -0.1426  0.7046
 6270SOL    HW130272   0.341   1.776   4.437 -0.3313 -0.5835  0.0290
 6270SOL    HW230273   0.238   1.840   4.362  0.7055  0.4606 -2.6366
 6271SOL     OW30274   3.906   2.903   1.974 -0.2357  0.1204  0.6948
 6271SOL    HW130275   3.896   2.839   1.903  0.9577  0.9050 -0.1851
 6271SOL    HW230276   3.933   2.980   1.923  0.4435  0.3713  1.4306
 6272SOL     OW30277   4.482   0.525   2.625 -0.2140 -0.8886  0.0772
 6272SOL    HW130278   4.416   0.595   2.626  0.4335 -0.3043  1.2246
 6272SOL    HW230279   4.447   0.475   2.551  1.0272 -1.1222 -0.3513
 6273SOL     OW30280   3.815   3.144   6.962 -0.3245  0.6267  0.0101
 6273SOL    HW130281   3.764   3.184   6.891 -2.2438 -1.0690  0.4342
 6273SOL    HW230282   3.753   3.125   7.032 -0.6589 -0.5376 -0.5903
 6274SOL     OW30283   3.952   2.703   0.293 -0.0939 -0.0683 -0.2203
 6274SOL    HW130284   3.888   2.685   0.362  0.5633 -0.0768  0.3913
 6274SOL    HW230285   4.005   2.767   0.340  0.4142  0.5879 -1.7194
 6275SOL     OW30286   3.295   1.526   4.759  0.3479 -0.0997  0.9205
 6275SOL    HW130287   3.285   1.606   4.707  2.4849 -0.1262  0.4573
 6275SOL    HW230288   3.371   1.488   4.714  0.9865  2.7372 -0.4102
 6276SOL     OW30289   0.071   4.344   5.415  0.6729 -0.2690 -0.3420
 6276SOL    HW130290   0.031   4.288   5.481 -0.5016  0.9026 -0.0385
 6276SOL    HW230291   0.144   4.376   5.469  0.1622 -2.0097  1.3982
 6277SOL     OW30292   3.247   1.479  16.447 -0.0301 -0.7007  0.5126
 6277SOL    HW130293   3.317   1.449  16.389 -0.0395 -0.7681  0.5370
 6277SOL    HW230294   3.274   1.429  16.525  2.8607  0.8983  0.5461
 6278SOL     OW30295   3.738   2.235  15.446  0.1914 -0.2386  0.0466
 6278SOL    HW130296   3.673   2.254  15.514 -0.3377 -0.9057 -0.2635
 6278SOL    HW230297   3.814   2.261  15.498  0.0372 -0.6186  0.4650
 6279SOL     OW30298   3.472   0.774   2.824  0.1005 -0.4956 -0.1721
 6279SOL    HW130299   3.414   0.740   2.757 -0.7886  2.4146 -0.8669
 6279SOL    HW230300   3.412   0.823   2.880  0.4994  1.7677 -1.7222
 6280SOL     OW30301   0.476   0.190  12.549 -0.0688  1.2302  0.0594
 6280SOL    HW130302   0.542   0.258  12.561  1.3646 -0.4751  1.7766
 6280SOL    HW230303   0.510   0.142  12.474  1.5877  1.1323  0.8853
 6281SOL     OW30304   1.657   0.516   6.176 -0.4628 -0.4633 -0.3592
 6281SOL    HW130305   1.658   0.495   6.270 -1.4838  0.1121 -0.2162
 6281SOL    HW230306   1.687   0.431   6.143  2.2266  0.3567  0.0058
 6282SOL     OW30307   3.558   1.519  14.215  0.1210  0.1475 -0.6389
 6282SOL    HW130308   3.506   1.580  14.163 -1.0195 -0.9384 -0.8021
 6282SOL    HW230309   3.560   1.440  14.161 -0.6590  0.1753 -0.7105
 6283SOL     OW30310   1.087   2.846   8.872 -0.2984  0.0011  0.4181
 6283SOL    HW130311   1.149   2.883   8.810  0.0881  0.5440  1.1360
 6283SOL    HW230312   1.053   2.926   8.913  1.5084  0.6814  0.5593
 6284SOL     OW30313   3.176   0.774   6.978  0.2278 -0.3034  0.0309
 6284SOL    HW130314   3.122   0.829   7.034  0.9532 -1.4687  1.8856
 6284SOL    HW230315   3.226   0.837   6.927  0.7818 -0.0056  0.9298
 6285SOL     OW30316   0.129   2.014   7.128  0.3566 -0.2890 -0.1830
 6285SOL    HW130317   0.036   2.024   7.110  0.7945  2.0605 -1.1722
 6285SOL    HW230318   0.159   2.103   7.110  0.5833 -0.6327 -1.4943
 6286SOL     OW30319   2.977   4.167  16.458 -0.0007  0.8192  0.0610
 6286SOL    HW130320   2.991   4.220  16.537 -1.3801  0.1235  0.7727
 6286SOL    HW230321   2.987   4.076  16.485 -1.9094  0.2923 -1.0074
 6287SOL     OW30322   3.267   3.971   6.051 -0.7430 -0.0121 -0.2060
 6287SOL    HW130323   3.321   3.902   6.013  0.3695  0.2048  0.9571
 6287SOL    HW230324   3.320   4.001   6.126  0.4094 -1.1242 -0.5871
 6288SOL     OW30325   2.002   2.277   2.635 -0.7905  0.7523 -0.2751
 6288SOL    HW130326   2.054   2.352   2.608  0.0279  0.0756 -0.5681
 6288SOL    HW230327   2.066   2.225   2.684  1.5527  3.9968  0.0959
 6289SOL     OW30328   4.109   0.092   3.520 -0.1507 -0.5085 -0.5178
 6289SOL    HW130329   4.108   0.004   3.484 -1.3692 -1.3832  1.6251
 6289SOL    HW230330   4.193   0.115   3.480 -1.1672  0.1334 -2.2706
 6290SOL     OW30331   3.294   3.831   3.899 -0.0369  0.4170  0.3085
 6290SOL    HW130332   3.388   3.837   3.910  0.1080  1.6065 -1.6284
 6290SOL    HW230333   3.257   3.906   3.852 -1.7693 -0.0294  0.9580
 6291SOL     OW30334   3.136   4.391   4.604 -0.3901 -0.5198 -0.1034
 6291SOL    HW130335   3.201   4.441   4.555 -1.5821  0.5006 -0.6551
 6291SOL    HW230336   3.172   4.393   4.692  3.2324  0.4755 -1.5939
 6292SOL     OW30337   1.430   0.056  11.828 -0.3143 -0.2784  0.1147
 6292SOL    HW130338   1.338   0.042  11.851 -1.0075  1.2629 -1.7664
 6292SOL    HW230339   1.447   4.695  11.778 -0.3025  1.0888 -2.0984
 6293SOL     OW30340   3.295   1.213  14.547  0.4970 -0.3018  0.6065
 6293SOL    HW130341   3.307   1.284  14.609  1.4916  0.8975 -0.9371
 6293SOL    HW230342   3.388   1.192  14.538 -0.1287 -2.3302 -1.0724
 6294SOL     OW30343   1.973   3.297   4.080 -0.0915 -0.1351 -0.4837
 6294SOL    HW130344   1.957   3.245   4.158  0.0529 -0.0922 -0.4256
 6294SOL    HW230345   1.946   3.245   4.004  0.9063 -0.8827 -0.3226
 6295SOL     OW30346   2.944   1.503   1.807  0.2343 -0.2420 -0.0704
 6295SOL    HW130347   2.944   1.408   1.801  0.2907 -0.3184  1.1068
 6295SOL    HW230348   2.873   1.527   1.867 -0.2325  0.1824 -0.7891
 6296SOL     OW30349   0.794   2.097  14.185 -0.4222  0.1425  0.2514
 6296SOL    HW130350   0.807   2.058  14.099  1.2285 -0.4022  0.7562
 6296SOL    HW230351   0.734   2.034  14.227 -0.5505  0.5804  0.7208
 6297SOL     OW30352   0.100   0.212  14.922 -0.2728 -0.2668  0.2534
 6297SOL    HW130353   0.066   0.129  14.955  1.4174 -0.7713  0.7573
 6297SOL    HW230354   0.021   0.262  14.903  0.7744  1.6022  0.7756
 6298SOL     OW30355   4.547   4.187   7.342 -0.1909 -0.1016  0.1885
 6298SOL    HW130356   4.626   4.141   7.370  0.0555 -0.0274 -0.3767
 6298SOL    HW230357   4.538   4.255   7.408  0.2648  0.2798 -0.1433
 6299SOL     OW30358   3.840   4.277  13.355 -0.5502 -0.2513 -0.1393
 6299SOL    HW130359   3.809   4.229  13.432 -1.0658 -1.3754 -1.0375
 6299SOL    HW230360   3.765   4.315  13.309  1.4077  1.7643 -1.6556
 6300SOL     OW30361   4.430   1.518   4.121  0.1647  0.2140  0.5948
 6300SOL    HW130362   4.474   1.532   4.038  0.0646  1.8225  0.8071
 6300SOL    HW230363   4.375   1.596   4.133 -2.5575 -1.3908 -1.6878
 6301SOL     OW30364   0.162   0.800   6.353 -0.1163 -0.4329 -1.2257
 6301SOL    HW130365   0.192   0.746   6.279 -0.6856 -0.6120 -1.3246
 6301SOL    HW230366   0.179   0.888   6.320 -0.5169  0.7165  1.6275
 6302SOL     OW30367   2.810   3.732   9.012  0.4006 -0.2723  0.5416
 6302SOL    HW130368   2.767   3.727   8.927 -1.1333 -2.3444  1.4541
 6302SOL    HW230369   2.901   3.724   8.982 -0.1938  1.0733 -1.5881
 6303SOL     OW30370   4.535   4.461  11.921 -0.6175  0.0240  0.0803
 6303SOL    HW130371   4.623   4.443  11.954 -0.4909  0.7524  0.1521
 6303SOL    HW230372   4.529   4.408  11.842 -0.9754 -1.2874  0.9970
 6304SOL     OW30373   2.091   4.184   4.101  0.0436 -0.3009  0.5584
 6304SOL    HW130374   2.030   4.256   4.081  2.2835  1.1568 -1.0480
 6304SOL    HW230375   2.076   4.128   4.024  3.1388  1.6338 -1.4836
 6305SOL     OW30376   3.709   1.793  10.103 -0.0107  0.5438 -0.0051
 6305SOL    HW130377   3.748   1.805  10.017  0.9585  0.7802  0.4675
 6305SOL    HW230378   3.729   1.699  10.109  0.9484  0.7812  0.6759
 6306SOL     OW30379   0.236   3.896   6.230 -0.4636 -0.0848 -0.3096
 6306SOL    HW130380   0.218   3.810   6.194 -0.7723  0.3427 -1.1744
 6306SOL    HW230381   0.218   3.880   6.323 -1.5204 -1.4475 -0.7552
 6307SOL     OW30382   2.437   0.304  10.535  0.2339 -0.5017  0.6442
 6307SOL    HW130383   2.426   0.222  10.583 -3.2551  0.4294  1.4390
 6307SOL    HW230384   2.492   0.355  10.595 -0.8115  1.9398 -0.4641
 6308SOL     OW30385   2.126   3.115  14.774 -0.0839  0.3814  0.0338
 6308SOL    HW130386   2.037   3.132  14.804 -0.3408 -2.2413  0.7737
 6308SOL    HW230387   2.140   3.020  14.776 -0.1394  0.4053  1.3661
 6309SOL     OW30388   2.447   2.512   5.004  0.2572  0.1876  0.0259
 6309SOL    HW130389   2.421   2.558   4.924  1.6465  3.1274  1.2740
 6309SOL    HW230390   2.365   2.468   5.027  0.2912 -0.6175 -1.4205
 6310SOL     OW30391   3.056   3.101   7.404  0.1627 -0.5558 -0.4612
 6310SOL    HW130392   3.055   3.194   7.427 -0.7708 -1.0775  1.6196
 6310SOL    HW230393   3.018   3.056   7.480  1.0670  2.2184  1.6282
 6311SOL     OW30394   3.063   1.801   2.320  0.7477  0.4202 -0.3622
 6311SOL    HW130395   3.000   1.857   2.275 -0.6863  1.0211  2.3889
 6311SOL    HW230396   3.101   1.763   2.241  2.2050 -0.4893  0.7820
 6312SOL     OW30397   0.367   0.965   2.974 -0.0587 -0.2218 -0.3254
 6312SOL    HW130398   0.378   1.036   3.037  0.9936 -1.4692  0.8804
 6312SOL    HW230399   0.312   0.904   3.023 -0.3144  1.3634  1.3623
 6313SOL     OW30400   3.852   2.216   3.477  0.4919  0.3314  0.4515
 6313SOL    HW130401   3.921   2.201   3.412  0.9509 -1.2822  1.3016
 6313SOL    HW230402   3.803   2.289   3.439 -0.8495 -0.6926  0.1900
 6314SOL     OW30403   2.596   0.967   9.511 -0.5569 -0.2550  0.6472
 6314SOL    HW130404   2.593   1.022   9.432 -0.5497  0.7285  1.3254
 6314SOL    HW230405   2.508   0.974   9.546 -1.1168  0.0183 -0.8237
 6315SOL     OW30406   0.496   3.114   8.091 -0.1872 -0.4479 -0.2991
 6315SOL    HW130407   0.526   3.188   8.038  2.2351 -0.6288  0.7761
 6315SOL    HW230408   0.544   3.136   8.171 -0.1680  0.4647 -0.5618
 6316SOL     OW30409   3.586   1.119   5.681 -0.6882 -0.2436  0.8936
 6316SOL    HW130410   3.551   1.176   5.612 -0.8406 -0.4107  0.8361
 6316SOL    HW230411   3.621   1.188   5.738 -0.1198  1.0325 -1.0036
 6317SOL     OW30412   1.263   1.654   6.867  0.0042  0.4254  0.0590
 6317SOL    HW130413   1.351   1.624   6.844 -0.1967 -0.7816  0.8740
 6317SOL    HW230414   1.244   1.578   6.923  1.7832  0.8019  1.1666
 6318SOL     OW30415   1.492   2.048   9.638  0.7641 -0.9315 -0.1620
 6318SOL    HW130416   1.417   2.029   9.581 -0.2331 -0.4208  0.9658
 6318SOL    HW230417   1.543   1.968   9.637  0.8064 -0.8849 -1.2009
 6319SOL     OW30418   3.345   1.210   3.663  0.1102 -0.5554  0.1544
 6319SOL    HW130419   3.375   1.267   3.593  1.6835 -0.6658  0.7230
 6319SOL    HW230420   3.370   1.264   3.738 -2.3260 -1.0322  1.3146
 6320SOL     OW30421   0.090   3.074  11.543  0.3760  0.4775  0.3763
 6320SOL    HW130422   0.168   3.033  11.506 -0.4754 -1.5663  0.8420
 6320SOL    HW230423   0.021   3.014  11.516 -0.7862  2.0912 -0.2083
 6321SOL     OW30424   1.394   3.100  15.841  0.4275  0.2260  0.5441
 6321SOL    HW130425   1.487   3.088  15.862  0.2021 -0.8880  0.8951
 6321SOL    HW230426   1.387   3.180  15.790 -0.8778 -0.5038 -0.4241
 6322SOL     OW30427   2.379   0.998   6.284 -0.3816  0.3984 -0.3036
 6322SOL    HW130428   2.393   1.035   6.197 -0.6236  0.3298 -0.3693
 6322SOL    HW230429   2.346   1.069   6.339  0.8234  0.2080  0.6589
 6323SOL     OW30430   3.005   1.780   8.132 -0.0043 -0.3288 -0.1648
 6323SOL    HW130431   3.052   1.767   8.050 -1.1970 -1.3486 -0.6834
 6323SOL    HW230432   3.032   1.864   8.169  0.2629 -0.8307  0.7819
 6324SOL     OW30433   0.112   1.186   4.466  0.1634 -0.1037  0.6422
 6324SOL    HW130434   0.148   1.153   4.548  0.8563 -2.3445 -0.5733
 6324SOL    HW230435   0.139   1.117   4.406 -1.2449 -0.1875  0.1033
 6325SOL     OW30436   1.574   2.112   3.399  0.1710 -0.6388  0.1967
 6325SOL    HW130437   1.579   2.132   3.492  0.0720  1.4125 -0.2544
 6325SOL    HW230438   1.656   2.068   3.377  0.5259 -0.4006  1.0866
 6326SOL     OW30439   4.260   3.120   4.846  0.1383 -0.5448  0.1360
 6326SOL    HW130440   4.274   3.077   4.930  1.1486  0.2616  0.3669
 6326SOL    HW230441   4.347   3.135   4.809  0.2513 -1.7345 -0.0695
 6327SOL     OW30442   4.586   0.531   9.491 -0.0480  0.0495 -0.2665
 6327SOL    HW130443   4.639   0.504   9.566  2.0067 -1.2353 -2.1788
 6327SOL    HW230444   4.506   0.485   9.515 -1.0759  0.5338 -2.7606
 6328SOL     OW30445   0.431   0.481  12.392 -0.2214  0.1734 -0.3299
 6328SOL    HW130446   0.365   0.528  12.341 -1.4544 -0.5415  0.6151
 6328SOL    HW230447   0.428   0.396  12.346 -0.5995  0.4122 -0.7448
 6329SOL     OW30448   4.218   2.940   2.140  0.3489  0.5757 -0.2261
 6329SOL    HW130449   4.295   2.980   2.180  0.4508  0.3320 -0.1788
 6329SOL    HW230450   4.193   3.009   2.077 -0.5946  1.0001  0.6063
 6330SOL     OW30451   4.035   0.617   9.649 -0.7462  0.0470  0.2488
 6330SOL    HW130452   3.947   0.588   9.670 -1.1532  0.3759 -1.0348
 6330SOL    HW230453   4.013   0.705   9.618  0.0991  0.1740  0.0043
 6331SOL     OW30454   1.556   2.542   6.754  0.1930  0.2921 -0.0146
 6331SOL    HW130455   1.511   2.587   6.683  0.3310 -1.0445 -0.9674
 6331SOL    HW230456   1.488   2.544   6.821  0.9468  0.4184  0.7485
 6332SOL     OW30457   3.820   0.291   2.258  0.4765 -0.0524  0.6148
 6332SOL    HW130458   3.749   0.229   2.243  0.8874 -0.8326  1.8445
 6332SOL    HW230459   3.878   0.276   2.184  1.3508  2.0906  0.8774
 6333SOL     OW30460   4.137   1.176   7.171 -0.4459 -0.3616  0.1778
 6333SOL    HW130461   4.109   1.254   7.218 -1.1985 -0.9327  0.6904
 6333SOL    HW230462   4.233   1.176   7.172 -0.4444  1.6854 -0.2381
 6334SOL     OW30463   0.094   2.062  11.552 -0.2150  0.2472 -0.2964
 6334SOL    HW130464   0.187   2.048  11.572 -0.0755  0.9814 -0.4337
 6334SOL    HW230465   0.085   2.156  11.534 -2.2206  0.3886  1.4304
 6335SOL     OW30466   1.243   3.570   4.362 -0.3197 -0.4284 -0.2028
 6335SOL    HW130467   1.167   3.552   4.307 -0.3729 -0.2358 -0.1947
 6335SOL    HW230468   1.241   3.665   4.376  3.3541 -0.2560 -0.6675
 6336SOL     OW30469   0.611   4.249   6.809 -0.2075  0.1643 -0.3779
 6336SOL    HW130470   0.679   4.210   6.864 -1.4027 -1.7739 -0.2806
 6336SOL    HW230471   0.580   4.319   6.866 -0.7980  1.3975 -2.2207
 6337SOL     OW30472   1.219   4.023   4.686  0.5750 -0.4049 -0.1093
 6337SOL    HW130473   1.211   4.062   4.773  0.0720  0.6396 -0.6171
 6337SOL    HW230474   1.139   3.972   4.683  0.6587 -0.4728 -1.2996
 6338SOL     OW30475   0.951   2.204  16.891  0.1927 -0.0975 -0.1628
 6338SOL    HW130476   0.919   2.282  16.845 -0.3148 -1.3545 -1.9400
 6338SOL    HW230477   0.885   2.189  16.959 -0.4175  1.9298 -0.3024
 6339SOL     OW30478   2.849   4.342   2.294 -0.2565  0.3790  0.1020
 6339SOL    HW130479   2.806   4.261   2.320 -0.7028  1.4591  2.7489
 6339SOL    HW230480   2.765   4.387   2.286 -0.7578 -0.8646 -1.4324
 6340SOL     OW30481   1.941   0.970   7.346 -1.2254  0.3012 -0.8773
 6340SOL    HW130482   1.999   1.046   7.342  0.8905 -1.2417  0.8237
 6340SOL    HW230483   1.878   0.999   7.411 -1.4242  0.3976 -1.1120
 6341SOL     OW30484   1.875   3.208   7.650 -0.1685  0.1224  0.3915
 6341SOL    HW130485   1.845   3.121   7.627 -2.4876  1.1198 -0.3387
 6341SOL    HW230486   1.961   3.216   7.608 -1.7743  0.0720 -2.8415
 6342SOL     OW30487   0.512   0.155   6.774  0.2779  0.2190  0.5688
 6342SOL    HW130488   0.576   0.192   6.713 -0.5455  0.6443 -0.0407
 6342SOL    HW230489   0.491   0.231   6.827 -0.4243  0.8049 -0.5551
 6343SOL     OW30490   4.388   3.874  15.914 -0.5383  0.3059 -0.5601
 6343SOL    HW130491   4.441   3.803  15.876  1.0858  0.7089  0.9440
 6343SOL    HW230492   4.306   3.826  15.907 -0.3905  0.3345 -2.4552
 6344SOL     OW30493   4.709   2.159   8.089  0.1331  0.4857  0.3282
 6344SOL    HW130494   4.719   2.254   8.084 -0.4132  0.4851 -0.7632
 6344SOL    HW230495   0.072   2.135   8.131  0.6784  1.6456 -0.0844
 6345SOL     OW30496   2.897   4.251  12.718 -0.4491 -0.4573 -0.4076
 6345SOL    HW130497   2.930   4.208  12.639  0.7477 -1.8009  0.8087
 6345SOL    HW230498   2.946   4.333  12.722  0.3795 -0.9417 -0.4391
 6346SOL     OW30499   2.447   4.122  15.828 -0.0332 -0.1006  0.0450
 6346SOL    HW130500   2.470   4.197  15.884 -2.8102  0.3191  0.6134
 6346SOL    HW230501   2.526   4.068  15.823  0.2975  0.5357 -1.5150
 6347SOL     OW30502   0.799   1.305   4.275  0.4375 -0.3001 -0.4110
 6347SOL    HW130503   0.859   1.378   4.292 -1.1129  0.4837  1.6399
 6347SOL    HW230504   0.843   1.231   4.317  0.0443  0.3025  1.0402
 6348SOL     OW30505   1.934   2.324  16.591 -0.4579  0.2874 -0.1487
 6348SOL    HW130506   1.928   2.254  16.526  1.0416  0.0245  0.0080
 6348SOL    HW230507   1.904   2.271  16.665  1.3946 -0.3636  0.1268
 6349SOL     OW30508   4.524   3.073  12.133  0.1755  0.3517  0.7872
 6349SOL    HW130509   4.486   3.038  12.214  1.7575 -2.9524  0.1050
 6349SOL    HW230510   4.483   3.159  12.129 -2.3228 -0.8847 -0.0035
 6350SOL     OW30511   2.927   0.752   8.280 -0.0305  0.2663 -0.8253
 6350SOL    HW130512   2.978   0.783   8.205  2.0834 -0.5217  0.2690
 6350SOL    HW230513   2.973   0.676   8.318 -0.0367  1.0505  0.7641
 6351SOL     OW30514   1.286   0.621   5.569  0.2858  0.3859 -0.0425
 6351SOL    HW130515   1.366   0.571   5.550 -0.2881  0.8424 -3.6006
 6351SOL    HW230516   1.245   0.577   5.643  1.0264 -2.9934 -1.6016
 6352SOL     OW30517   1.148   2.801   5.221  0.2464 -0.0165 -0.0057
 6352SOL    HW130518   1.210   2.865   5.186  2.1610 -1.2929  1.1298
 6352SOL    HW230519   1.204   2.728   5.243 -0.9005 -0.9433 -0.1432
 6353SOL     OW30520   3.338   3.882  12.890 -0.5318  0.2373  0.2671
 6353SOL    HW130521   3.360   3.972  12.866 -1.6120  0.3946 -0.1602
 6353SOL    HW230522   3.425   3.850  12.913 -0.0564  1.1605 -0.2489
 6354SOL     OW30523   3.632   4.034   1.195  0.5125  0.2812 -0.7301
 6354SOL    HW130524   3.629   4.028   1.290  0.7625 -1.3462 -0.8306
 6354SOL    HW230525   3.584   3.956   1.166 -1.7438  1.7771 -1.0143
 6355SOL     OW30526   1.156   1.409   5.954 -0.1558 -0.6548 -0.1484
 6355SOL    HW130527   1.082   1.422   6.013  2.1655 -0.3959  2.7132
 6355SOL    HW230528   1.104   1.371   5.883  0.4408 -1.6195 -0.0808
 6356SOL     OW30529   1.270   2.537   9.359 -0.8888 -0.3063  0.2223
 6356SOL    HW130530   1.176   2.515   9.358 -0.7686 -0.8722  1.7816
 6356SOL    HW230531   1.303   2.452   9.387 -0.1038 -0.3326 -0.7698
 6357SOL     OW30532   4.696   0.436  17.510  0.5144 -0.6130 -0.1170
 6357SOL    HW130533   0.002   0.483  17.589 -0.7210  1.2973 -0.8532
 6357SOL    HW230534   4.684   0.510  17.450  0.2379 -1.1879 -0.7620
 6358SOL     OW30535   2.173   0.140   1.675 -0.5586 -0.5044  0.3436
 6358SOL    HW130536   2.237   0.142   1.746  0.0361 -0.2467 -0.2008
 6358SOL    HW230537   2.220   0.101   1.601  0.0346 -0.2820  0.6097
 6359SOL     OW30538   3.709   1.513  17.504 -0.3595 -0.2357  0.6033
 6359SOL    HW130539   3.757   1.569  17.444  0.6758 -0.5125  1.1714
 6359SOL    HW230540   3.776   1.476  17.561 -1.1453 -1.6236  0.6507
 6360SOL     OW30541   3.445   4.506   9.906  0.4606  0.0178 -0.4622
 6360SOL    HW130542   3.515   4.537   9.848 -0.0214  0.6043 -0.7269
 6360SOL    HW230543   3.433   4.586   9.957 -1.0771  0.4315 -1.4992
 6361SOL     OW30544   1.549   3.402   1.461 -0.4348  0.6070  0.0789
 6361SOL    HW130545   1.503   3.458   1.524  0.9456 -0.3075  1.9178
 6361SOL    HW230546   1.489   3.328   1.476  1.4717 -0.5770  1.8485
 6362SOL     OW30547   0.600   1.634   4.849 -0.5790  0.0662 -0.4653
 6362SOL    HW130548   0.576   1.675   4.933  0.4170  1.5907 -0.9205
 6362SOL    HW230549   0.601   1.540   4.865 -2.0348 -0.1042 -1.4394
 6363SOL     OW30550   0.117   2.499   5.059 -0.6344 -0.0769 -0.0839
 6363SOL    HW130551   0.066   2.545   4.993 -1.2872  0.1271  0.5600
 6363SOL    HW230552   0.163   2.576   5.090 -1.2504  0.3327 -0.1843
 6364SOL     OW30553   0.043   0.837   0.246 -0.0928 -0.4927  0.3210
 6364SOL    HW130554   4.689   0.783   0.217 -0.9967 -0.4483  2.5492
 6364SOL    HW230555   0.006   0.925   0.252 -2.6200 -1.4291 -1.7124
 6365SOL     OW30556   3.047   4.507   5.632 -0.1621  0.4982  0.0601
 6365SOL    HW130557   3.119   4.532   5.690 -1.1050 -1.3742  2.0321
 6365SOL    HW230558   3.101   4.450   5.577 -2.3119 -0.8734 -0.6141
 6366SOL     OW30559   2.533   0.258   5.296  0.3882  0.0204 -0.3406
 6366SOL    HW130560   2.505   0.167   5.298 -0.4781  0.2974  0.2568
 6366SOL    HW230561   2.624   0.255   5.266  0.0104 -0.6815 -1.4035
 6367SOL     OW30562   4.366   4.344  16.137 -0.4706 -0.3063 -0.2394
 6367SOL    HW130563   4.450   4.353  16.091 -0.3506 -0.8054 -0.1129
 6367SOL    HW230564   4.332   4.268  16.091  2.7350 -2.4454  0.9448
 6368SOL     OW30565   1.841   0.300   7.818  0.8144  0.1360  0.2566
 6368SOL    HW130566   1.751   0.284   7.847  0.8449 -2.5064 -1.1170
 6368SOL    HW230567   1.885   0.260   7.894 -2.1248 -2.5121  0.5606
 6369SOL     OW30568   0.982   2.693  12.466 -0.0253  0.3916  0.0945
 6369SOL    HW130569   0.925   2.632  12.514  1.1211  1.2269  2.5076
 6369SOL    HW230570   0.930   2.768  12.437 -0.3213  0.0625 -0.2272
 6370SOL     OW30571   0.547   1.665  12.233  0.1466 -0.3027  0.6226
 6370SOL    HW130572   0.545   1.585  12.180 -1.4682  0.8708 -1.0782
 6370SOL    HW230573   0.638   1.659  12.263  0.3366 -0.0400  0.0948
 6371SOL     OW30574   3.814   4.572   9.987 -0.2370  0.2247  0.2500
 6371SOL    HW130575   3.846   4.647   9.937  1.5731  0.0289  1.1050
 6371SOL    HW230576   3.738   4.599  10.037 -0.7363  0.4301 -0.6204
 6372SOL     OW30577   0.171   0.456   9.504  0.0401 -0.3311  0.8420
 6372SOL    HW130578   0.137   0.473   9.416  0.4475 -0.2558  0.6945
 6372SOL    HW230579   0.117   0.391   9.548 -2.0081  0.3266 -0.6870
 6373SOL     OW30580   1.606   2.512   8.901  0.0759 -0.2188  0.6093
 6373SOL    HW130581   1.532   2.469   8.944  0.3164 -2.0646 -0.8551
 6373SOL    HW230582   1.610   2.454   8.825 -0.6006  1.5501 -0.8035
 6374SOL     OW30583   4.309   0.561   7.419  0.4970  0.0541 -0.1418
 6374SOL    HW130584   4.287   0.600   7.335  1.0489  0.6822 -0.0002
 6374SOL    HW230585   4.404   0.572   7.411  0.8601 -2.8251 -0.0640
 6375SOL     OW30586   2.980   1.644   3.068 -0.1933  0.0283  0.0575
 6375SOL    HW130587   3.049   1.706   3.091  2.5875 -2.8521 -0.6028
 6375SOL    HW230588   2.898   1.695   3.063  0.6334  1.4548  0.9758
 6376SOL     OW30589   3.140   2.768  16.472 -0.0565 -0.2512 -0.0566
 6376SOL    HW130590   3.104   2.856  16.467 -0.8296 -0.5599  0.0760
 6376SOL    HW230591   3.068   2.708  16.452 -0.4524  0.3866 -0.5571
 6377SOL     OW30592   0.885   3.583   6.874 -0.0624  0.9213  0.2415
 6377SOL    HW130593   0.912   3.568   6.965 -0.6128  2.2986  0.6385
 6377SOL    HW230594   0.792   3.560   6.875  0.0994  0.3220  2.7443
 6378SOL     OW30595   2.347   1.803   2.141  0.0933 -0.0968  0.0897
 6378SOL    HW130596   2.416   1.858   2.106  0.0472 -0.3310 -0.3645
 6378SOL    HW230597   2.311   1.855   2.213  0.6945 -1.3021  1.2895
 6379SOL     OW30598   4.621   1.342   5.141  0.2366 -0.0078  0.3021
 6379SOL    HW130599   4.667   1.366   5.061 -0.2779 -1.5228 -0.4439
 6379SOL    HW230600   4.689   1.318   5.205  2.5635  1.3678 -1.6640
 6380SOL     OW30601   2.501   2.568  14.592  0.2869  0.2246  0.0582
 6380SOL    HW130602   2.559   2.636  14.558  1.2359 -1.3620 -1.5106
 6380SOL    HW230603   2.416   2.611  14.602 -0.3792 -1.0012 -0.3251
 6381SOL     OW30604   2.454   2.267  11.413  0.2320  0.1961  0.4910
 6381SOL    HW130605   2.405   2.309  11.342 -0.5256  0.5855  1.2470
 6381SOL    HW230606   2.431   2.331  11.480 -1.6325 -1.0468  1.0636
 6382SOL     OW30607   0.605   0.203   4.549 -0.3203 -0.0067  0.1407
 6382SOL    HW130608   0.570   0.231   4.633  0.2771 -1.5108  0.9005
 6382SOL    HW230609   0.574   0.268   4.486 -0.4546 -1.5567 -1.4174
 6383SOL     OW30610   0.618   2.229   8.319  0.1674  0.0539 -0.1611
 6383SOL    HW130611   0.581   2.173   8.252  1.3188 -2.1685  1.0520
 6383SOL    HW230612   0.539   2.261   8.362  0.3086  0.3213 -0.0969
 6384SOL     OW30613   4.381   2.074   0.376 -0.0064  0.3253  0.5585
 6384SOL    HW130614   4.340   1.987   0.372  2.6711 -0.9201 -0.0240
 6384SOL    HW230615   4.438   2.075   0.299  0.5406 -0.6152  0.9471
 6385SOL     OW30616   3.749   1.560   9.165 -0.1411 -0.1718  0.3581
 6385SOL    HW130617   3.710   1.646   9.149  0.7982 -0.1059 -1.6008
 6385SOL    HW230618   3.794   1.583   9.247 -0.0834 -0.4077  0.3929
 6386SOL     OW30619   0.832   4.557  11.005 -0.3019 -0.0956  0.0812
 6386SOL    HW130620   0.898   4.626  10.998 -1.0664  0.5072 -1.1947
 6386SOL    HW230621   0.826   4.524  10.915  0.2829 -0.3139  0.1211
 6387SOL     OW30622   4.623   1.613   5.679  0.3859  0.2363  0.3864
 6387SOL    HW130623   4.633   1.591   5.771 -3.4844  1.8808  1.1876
 6387SOL    HW230624   4.536   1.652   5.681 -1.0272 -3.0650  2.4049
 6388SOL     OW30625   1.456   1.796  15.745  0.0680  0.1996 -0.1416
 6388SOL    HW130626   1.512   1.738  15.693 -1.7442 -2.2494  0.6491
 6388SOL    HW230627   1.517   1.870  15.754  2.0650 -1.8768  3.1779
 6389SOL     OW30628   0.647   2.519   5.165 -0.6262  0.0751 -0.4683
 6389SOL    HW130629   0.588   2.465   5.112 -0.6853 -1.0678  0.7578
 6389SOL    HW230630   0.603   2.603   5.174 -0.8054 -0.0311 -0.3553
 6390SOL     OW30631   1.264   1.950  10.167  0.4909 -0.1323 -0.1374
 6390SOL    HW130632   1.254   1.856  10.154 -2.7153 -0.1479  2.5663
 6390SOL    HW230633   1.302   1.975  10.082 -0.9200 -0.4111 -0.8505
 6391SOL     OW30634   3.650   1.017   7.374  0.1927  0.6880 -0.2057
 6391SOL    HW130635   3.683   1.006   7.463 -1.0000  0.5854  0.2115
 6391SOL    HW230636   3.704   0.955   7.325 -0.5378  0.3085 -0.5233
 6392SOL     OW30637   3.441   3.939   9.763  0.4119  0.7642  0.4101
 6392SOL    HW130638   3.439   4.030   9.794 -1.2068  1.5507 -2.0290
 6392SOL    HW230639   3.501   3.896   9.824  0.4104  0.3959  0.1484
 6393SOL     OW30640   2.525   2.997   6.133  0.3474 -0.6697  0.1964
 6393SOL    HW130641   2.593   3.049   6.089 -0.5187 -1.6752 -2.3559
 6393SOL    HW230642   2.452   3.051   6.103 -0.4523 -1.6727  0.3585
 6394SOL     OW30643   0.464   2.588   3.714  0.4775 -0.0566  0.1377
 6394SOL    HW130644   0.507   2.521   3.768  0.4566  0.1641  0.4241
 6394SOL    HW230645   0.444   2.539   3.634  0.5160  0.6296 -0.2905
 6395SOL     OW30646   0.990   0.978  16.889  0.3708 -0.1805 -0.5686
 6395SOL    HW130647   0.931   0.904  16.900 -0.0219 -0.1439 -2.5185
 6395SOL    HW230648   0.924   1.047  16.881  1.3033  0.5796 -1.7167
 6396SOL     OW30649   3.728   3.524   2.103  0.0205 -0.2380  0.0772
 6396SOL    HW130650   3.655   3.522   2.165  0.3922  3.2622  0.6592
 6396SOL    HW230651   3.734   3.435   2.069  2.0938  0.1172 -0.4813
 6397SOL     OW30652   4.288   1.617   1.295  0.1475 -0.2854 -0.5101
 6397SOL    HW130653   4.378   1.589   1.308  1.2768  3.2451 -0.7286
 6397SOL    HW230654   4.294   1.612   1.199 -0.0825  0.4533 -0.5642
 6398SOL     OW30655   0.150   2.637   8.318  0.1708  0.3703  0.7723
 6398SOL    HW130656   0.163   2.552   8.361  0.8645 -0.3682 -0.8918
 6398SOL    HW230657   0.055   2.646   8.308  0.3783  0.2213 -1.3730
 6399SOL     OW30658   1.054   2.978   1.801 -0.0413 -0.9519 -0.8352
 6399SOL    HW130659   1.105   2.944   1.874  1.2754 -1.1918 -1.8710
 6399SOL    HW230660   1.109   3.051   1.773 -0.5491 -0.4536 -0.5427
 6400SOL     OW30661   0.803   3.536   7.405 -0.2103  0.4619  0.4611
 6400SOL    HW130662   0.885   3.486   7.400 -0.0640  0.6990  0.4730
 6400SOL    HW230663   0.851   3.619   7.396 -0.3238  0.5522  0.7021
 6401SOL     OW30664   2.619   4.313   1.368  0.1876 -0.3401 -0.1765
 6401SOL    HW130665   2.630   4.399   1.329 -0.6529  0.6455  1.7643
 6401SOL    HW230666   2.710   4.285   1.377  0.0373  0.0323  2.7334
 6402SOL     OW30667   1.217   3.924   8.131  0.0536  0.2591 -0.1955
 6402SOL    HW130668   1.255   3.900   8.046 -0.8295  1.1193 -0.8418
 6402SOL    HW230669   1.271   3.871   8.190 -1.9371  0.2974  1.6263
 6403SOL     OW30670   2.451   4.508   4.676  0.2250 -0.0359 -0.3231
 6403SOL    HW130671   2.372   4.507   4.731  1.5281 -0.2343  1.5341
 6403SOL    HW230672   2.472   4.416   4.657  1.3977  0.5830 -1.9545
 6404SOL     OW30673   0.784   0.095   6.568 -0.3121 -0.3562  0.0052
 6404SOL    HW130674   0.843   0.083   6.494  0.0688 -1.1551  0.4458
 6404SOL    HW230675   0.722   0.022   6.570  1.9627 -2.2284  2.1353
 6405SOL     OW30676   1.264   0.180  14.468 -0.2629  0.3176 -0.3964
 6405SOL    HW130677   1.291   0.093  14.496 -0.8567 -0.3968 -2.0203
 6405SOL    HW230678   1.192   0.166  14.406  0.8857 -2.0966 -1.1617
 6406SOL     OW30679   1.969   1.778  10.453  0.2473  0.3087  0.6991
 6406SOL    HW130680   2.062   1.765  10.475  0.6447  2.5331  0.3702
 6406SOL    HW230681   1.978   1.867  10.419 -2.8765  0.7499  1.0886
 6407SOL     OW30682   2.557   3.970   1.742 -0.1519 -0.1240  0.2029
 6407SOL    HW130683   2.535   4.035   1.808 -1.0463  0.4750 -0.6885
 6407SOL    HW230684   2.504   3.894   1.769  1.6610 -1.3411  0.3684
 6408SOL     OW30685   1.194   0.377   1.190 -0.1034 -0.2050 -0.0188
 6408SOL    HW130686   1.181   0.395   1.283  0.8703  0.2806  0.0248
 6408SOL    HW230687   1.270   0.430   1.164  0.1282 -0.6767 -0.2976
 6409SOL     OW30688   4.541   3.434   5.333  0.6206  0.1485  0.0327
 6409SOL    HW130689   4.589   3.409   5.412 -1.4323  2.1146  1.8867
 6409SOL    HW230690   4.468   3.372   5.333 -1.0257  2.0906  1.9448
 6410SOL     OW30691   4.613   0.561   5.178  0.0297  0.2280  0.4117
 6410SOL    HW130692   4.540   0.527   5.127  1.3002 -2.3177  0.2679
 6410SOL    HW230693   4.573   0.569   5.264 -3.3417  0.5173 -1.2083
 6411SOL     OW30694   1.686   2.397  16.308 -0.3048  0.0768  0.3143
 6411SOL    HW130695   1.592   2.386  16.295 -0.2951 -0.9648  1.0456
 6411SOL    HW230696   1.707   2.484  16.276 -0.7301  0.0439 -0.0409
 6412SOL     OW30697   1.820   3.900   5.586 -0.1454 -0.3702 -0.2270
 6412SOL    HW130698   1.802   3.931   5.497 -1.3598 -0.6108 -0.0719
 6412SOL    HW230699   1.915   3.894   5.588 -0.2654 -1.8834  1.6423
 6413SOL     OW30700   0.100   0.164  12.188 -0.4783 -0.2236  0.3000
 6413SOL    HW130701   0.158   0.145  12.114  0.2589 -0.1366  0.8521
 6413SOL    HW230702   0.013   0.142  12.155 -0.5259  0.3862  0.0052
 6414SOL     OW30703   0.858   3.346   2.894 -0.1298 -0.0058 -0.3541
 6414SOL    HW130704   0.819   3.433   2.882 -0.0735  0.1927  0.9649
 6414SOL    HW230705   0.798   3.307   2.829 -0.2226  1.4083 -1.1115
 6415SOL     OW30706   2.473   0.214   4.878  0.5711 -0.1878 -0.1971
 6415SOL    HW130707   2.499   0.297   4.920  0.4350 -1.2597  2.0116
 6415SOL    HW230708   2.392   0.203   4.927  0.8344  0.2153  0.3372
 6416SOL     OW30709   4.506   2.339   6.129 -0.4898  0.5064 -0.6970
 6416SOL    HW130710   4.593   2.377   6.119 -0.1386  0.4428  2.1163
 6416SOL    HW230711   4.513   2.323   6.223 -2.1321 -1.7507 -0.9474
 6417SOL     OW30712   4.009   2.938   8.815 -0.4215 -0.0160 -0.2624
 6417SOL    HW130713   3.992   3.024   8.775  1.3754  0.8628  0.8780
 6417SOL    HW230714   4.068   2.950   8.889  0.5925 -2.7349 -0.6375
 6418SOL     OW30715   3.034   4.299   8.732 -0.3580 -0.0082  0.3160
 6418SOL    HW130716   2.984   4.222   8.762 -0.2827 -1.2752 -2.8552
 6418SOL    HW230717   3.026   4.309   8.637  0.2387  2.3193  0.5323
 6419SOL     OW30718   2.564   3.193  15.587 -0.0353  0.3952 -0.4261
 6419SOL    HW130719   2.623   3.117  15.585  0.8206  1.1329 -2.6929
 6419SOL    HW230720   2.492   3.163  15.532 -1.1922 -0.4552  1.5193
 6420SOL     OW30721   1.613   2.481   2.178  0.1157  0.1091  0.2020
 6420SOL    HW130722   1.526   2.469   2.217 -0.4448  0.9282 -0.7868
 6420SOL    HW230723   1.630   2.575   2.190  0.8309  0.0036  0.0202
 6421SOL     OW30724   0.838   4.365   0.293  0.6317 -0.4140  1.0759
 6421SOL    HW130725   0.900   4.323   0.353  0.6279 -0.1559  1.2586
 6421SOL    HW230726   0.795   4.284   0.265  0.1343  0.3889 -0.4877
 6422SOL     OW30727   4.658   2.263   4.117  0.4890  0.0101  0.0290
 6422SOL    HW130728   4.636   2.347   4.078  2.8163  1.1622  1.2324
 6422SOL    HW230729   0.034   2.267   4.123  0.3582  2.4419  0.2147
 6423SOL     OW30730   0.890   1.644   6.449  0.0959 -0.3219 -0.0265
 6423SOL    HW130731   0.934   1.688   6.376  0.8386 -0.0117  0.6107
 6423SOL    HW230732   0.951   1.625   6.520  2.2203 -0.2978 -1.8452
 6424SOL     OW30733   3.158   0.253   8.324 -0.0897 -0.0468  0.0805
 6424SOL    HW130734   3.186   0.164   8.303  1.4223 -0.2833  3.1018
 6424SOL    HW230735   3.226   0.280   8.385  1.2655 -0.8814 -1.0338
 6425SOL     OW30736   3.104   4.316   3.642 -0.2218  0.4930  0.9977
 6425SOL    HW130737   3.040   4.290   3.575 -0.3818 -0.6047  1.5650
 6425SOL    HW230738   3.066   4.401   3.662  0.4141  1.4619 -1.9272
 6426SOL     OW30739   1.837   0.873   4.490  0.5141  0.0035  0.2578
 6426SOL    HW130740   1.754   0.837   4.459  0.6180 -2.1287  2.4436
 6426SOL    HW230741   1.879   0.889   4.406  0.3180  0.4345  0.2442
 6427SOL     OW30742   1.463   0.402   6.751 -0.1470  0.2498  0.2956
 6427SOL    HW130743   1.435   0.462   6.682 -2.8202 -1.2292  0.1074
 6427SOL    HW230744   1.384   0.350   6.763 -0.2441  0.1446 -0.7813
 6428SOL     OW30745   1.354   4.674   5.883  0.3634 -0.2681 -0.1432
 6428SOL    HW130746   1.385   0.037   5.920 -0.5746  0.7755 -1.6768
 6428SOL    HW230747   1.294   4.712   5.819 -1.7449  0.2959  2.1849
 6429SOL     OW30748   2.686   1.838  17.464  0.0131 -0.0294  0.4028
 6429SOL    HW130749   2.669   1.751  17.429 -0.5947 -0.3932  1.6071
 6429SOL    HW230750   2.690   1.894  17.387  0.2106 -0.7937 -0.1407
 6430SOL     OW30751   4.449   2.633  11.444 -0.0992 -0.1929  0.4668
 6430SOL    HW130752   4.514   2.702  11.446  0.7124 -1.0522  3.0446
 6430SOL    HW230753   4.380   2.675  11.393  2.1608  2.5378 -0.3257
 6431SOL     OW30754   2.018   2.119  16.430 -0.3837 -0.2101  0.3488
 6431SOL    HW130755   1.970   2.041  16.404  1.6685 -0.7896 -1.6958
 6431SOL    HW230756   2.065   2.079  16.504 -0.5933 -0.5254  0.3126
 6432SOL     OW30757   3.902   1.414   4.952  0.0279 -0.1239 -0.4914
 6432SOL    HW130758   3.992   1.443   4.942  0.2934 -1.0352 -0.7566
 6432SOL    HW230759   3.910   1.334   5.005 -2.7013 -0.2611 -0.2559
 6433SOL     OW30760   0.405   3.607   4.671  0.2223 -0.3710 -0.1900
 6433SOL    HW130761   0.453   3.595   4.589 -0.7768 -1.1784 -0.6484
 6433SOL    HW230762   0.413   3.700   4.689  2.6677 -0.4035 -1.1082
 6434SOL     OW30763   2.233   0.536  11.971  0.6501  0.0636  0.1564
 6434SOL    HW130764   2.144   0.565  11.991 -0.3000 -1.4942 -1.8599
 6434SOL    HW230765   2.229   0.447  12.007 -1.4450 -0.1912 -0.7254
 6435SOL     OW30766   2.399   3.743   5.107 -0.2664  0.0171  0.2980
 6435SOL    HW130767   2.473   3.801   5.090 -1.6052  1.5714 -0.1992
 6435SOL    HW230768   2.442   3.665   5.071  1.3897  1.3142 -0.5451
 6436SOL     OW30769   0.708   4.505  13.400  0.2656  0.1463  0.8790
 6436SOL    HW130770   0.783   4.506  13.460  0.6168 -0.9114  0.4680
 6436SOL    HW230771   0.631   4.533  13.448  0.5576  2.8199 -0.2143
 6437SOL     OW30772   1.492   3.947   7.701  0.3255 -0.0662  0.2956
 6437SOL    HW130773   1.460   4.020   7.648  0.2493 -0.7627 -0.6215
 6437SOL    HW230774   1.583   3.974   7.703  0.4843 -0.4687 -1.6463
 6438SOL     OW30775   1.307   0.910   9.486  0.2451  0.0155  0.6881
 6438SOL    HW130776   1.260   0.896   9.404 -1.2152  1.2605  1.3031
 6438SOL    HW230777   1.387   0.859   9.475  0.2793  0.0524  0.7640
 6439SOL     OW30778   3.948   0.833   3.835 -0.1023 -0.7203 -0.3208
 6439SOL    HW130779   4.042   0.822   3.825 -0.1640 -0.5479 -1.0925
 6439SOL    HW230780   3.935   0.786   3.918  0.0085 -0.5442 -0.2044
 6440SOL     OW30781   4.623   4.058   3.943  0.0690  0.3145 -0.8741
 6440SOL    HW130782   4.684   4.098   4.006 -0.8764  0.7128 -0.2012
 6440SOL    HW230783   4.624   3.967   3.974  0.0632  0.0722 -1.6061
 6441SOL     OW30784   3.337   2.710   6.173 -0.0225 -0.2532 -0.3753
 6441SOL    HW130785   3.356   2.804   6.164 -0.0872 -0.2791 -0.7759
 6441SOL    HW230786   3.397   2.667   6.112 -0.8567  1.6869 -2.5796
 6442SOL     OW30787   4.169   1.188   9.402 -0.0968 -0.0300 -0.1544
 6442SOL    HW130788   4.104   1.250   9.434 -0.4200 -0.8651  0.7927
 6442SOL    HW230789   4.209   1.179   9.489 -0.0655  1.2849 -0.0334
 6443SOL     OW30790   2.648   0.509   2.547  0.0479 -0.4594  0.3109
 6443SOL    HW130791   2.646   0.470   2.460  0.2540 -2.4000  1.1776
 6443SOL    HW230792   2.736   0.546   2.557  0.9176 -3.0118  2.1210
 6444SOL     OW30793   2.774   3.483  11.049  0.0974 -0.6617 -0.2518
 6444SOL    HW130794   2.819   3.404  11.077 -1.3142 -0.7052  1.9051
 6444SOL    HW230795   2.759   3.521  11.136  0.0960 -0.3471 -0.3887
 6445SOL     OW30796   0.177   3.290   2.968 -0.2113  0.1219 -0.1106
 6445SOL    HW130797   0.257   3.342   2.973  1.1471 -1.7644 -2.1932
 6445SOL    HW230798   0.134   3.322   3.048  4.4803  2.8371  1.3093
 6446SOL     OW30799   3.990   1.748   8.499  0.0393 -0.3232  0.2603
 6446SOL    HW130800   3.906   1.789   8.518 -0.7263 -1.2482 -1.1081
 6446SOL    HW230801   3.961   1.657   8.493 -1.0186  0.1251 -1.5036
 6447SOL     OW30802   3.876   3.401   4.678 -0.0224 -0.3606  0.8881
 6447SOL    HW130803   3.868   3.340   4.604 -3.2397  1.5908 -0.3432
 6447SOL    HW230804   3.965   3.400   4.714 -0.5468  2.6399  2.2695
 6448SOL     OW30805   0.021   4.488   7.296 -0.4152 -0.0609 -0.0179
 6448SOL    HW130806   0.054   4.559   7.351 -0.3819 -0.3117  0.2858
 6448SOL    HW230807   4.647   4.511   7.290 -0.1394  0.5702 -1.7412
 6449SOL     OW30808   1.320   2.600   9.935  0.2324 -0.2961  0.8794
 6449SOL    HW130809   1.407   2.641   9.929  0.1423 -0.4467 -1.2720
 6449SOL    HW230810   1.263   2.670   9.906  3.6935  1.3956 -1.7738
 6450SOL     OW30811   4.433   0.567  14.672  0.6042  0.6103  0.2219
 6450SOL    HW130812   4.424   0.608  14.585 -2.3383 -2.6123 -0.9744
 6450SOL    HW230813   4.341   0.543  14.684  1.7353 -2.7943  1.8894
 6451SOL     OW30814   3.453   1.070  11.105  0.2604 -0.2830 -0.0347
 6451SOL    HW130815   3.377   1.094  11.159  0.8750  1.9031 -0.1147
 6451SOL    HW230816   3.407   1.028  11.033 -0.7339  1.7897 -0.6144
 6452SOL     OW30817   4.483   0.882  12.292 -0.1920  0.0443 -0.5253
 6452SOL    HW130818   4.431   0.803  12.276 -1.3594  0.4019  1.4470
 6452SOL    HW230819   4.422   0.953  12.269 -1.7254 -1.0726  0.0712
 6453SOL     OW30820   0.611   1.911   8.865 -0.4344 -0.4139  0.1563
 6453SOL    HW130821   0.611   1.936   8.773 -1.2944 -2.6645 -0.4835
 6453SOL    HW230822   0.581   1.820   8.859  1.4045 -1.0125 -0.0111
 6454SOL     OW30823   1.224   4.475   4.292 -0.1171 -0.0658 -0.1266
 6454SOL    HW130824   1.317   4.487   4.308 -0.7894  2.0668  2.3554
 6454SOL    HW230825   1.226   4.398   4.236  2.0989  0.1601 -0.3365
 6455SOL     OW30826   1.444   4.371   2.053  0.5475 -0.3474  0.3805
 6455SOL    HW130827   1.359   4.414   2.064  0.1776 -1.3503  1.3769
 6455SOL    HW230828   1.469   4.348   2.142  3.7834  0.0508 -0.4303
 6456SOL     OW30829   1.872   1.107   9.095 -0.0879  0.0153 -0.4777
 6456SOL    HW130830   1.827   1.105   9.179 -1.9707  0.2343 -1.4724
 6456SOL    HW230831   1.963   1.124   9.121 -0.7884  2.5935  0.1953
 6457SOL     OW30832   4.346   2.351   3.256 -0.0934 -0.2162  0.1732
 6457SOL    HW130833   4.437   2.353   3.286 -0.0203 -0.2307 -0.0488
 6457SOL    HW230834   4.315   2.277   3.308 -1.1142 -0.7675 -1.2095
 6458SOL     OW30835   1.412   4.693   9.572 -0.4707  0.5082  0.0966
 6458SOL    HW130836   1.365   4.655   9.646 -1.4645 -1.5915 -1.5839
 6458SOL    HW230837   1.369   4.650   9.498 -0.7694  0.6892  0.1688
 6459SOL     OW30838   3.553   1.761  11.965 -0.4571  0.3045 -0.3908
 6459SOL    HW130839   3.624   1.706  11.999 -1.8338 -0.9535  0.4250
 6459SOL    HW230840   3.526   1.714  11.886 -1.1192 -1.5821  0.9434
 6460SOL     OW30841   3.967   4.373   5.188 -0.1446 -0.3749 -0.0741
 6460SOL    HW130842   3.924   4.458   5.200 -0.5226 -0.8628  2.1116
 6460SOL    HW230843   3.909   4.333   5.123  1.1959 -0.5753 -1.1231
 6461SOL     OW30844   1.716   3.608   3.930  0.2435 -0.2173 -0.6380
 6461SOL    HW130845   1.755   3.525   3.902  2.1360  0.8877 -1.2322
 6461SOL    HW230846   1.747   3.668   3.862  1.8850  0.8394  1.0336
 6462SOL     OW30847   2.078   1.953   1.103 -0.5701 -0.6715 -0.0012
 6462SOL    HW130848   2.062   1.867   1.062 -0.1928 -0.6514 -0.1844
 6462SOL    HW230849   1.992   1.994   1.094 -1.1439 -1.6475  1.1027
 6463SOL     OW30850   1.660   0.933   5.639 -0.0092  0.0104  0.3732
 6463SOL    HW130851   1.577   0.969   5.607  1.3151  2.1873 -0.6250
 6463SOL    HW230852   1.653   0.951   5.733  0.3195  2.9153 -0.1483
 6464SOL     OW30853   4.184   3.437   4.699 -0.5980  0.1291 -0.6304
 6464SOL    HW130854   4.132   3.512   4.671  0.2839  1.5092  1.4334
 6464SOL    HW230855   4.265   3.473   4.734  0.1892 -1.6510 -0.6141
 6465SOL     OW30856   0.048   3.071  10.782 -0.6262  0.1374 -0.2662
 6465SOL    HW130857   0.081   3.073  10.693 -1.7183  0.4890 -0.6649
 6465SOL    HW230858   0.120   3.033  10.832 -0.4686  0.0212 -0.5814
 6466SOL     OW30859   2.687   4.085  11.017 -0.4847 -0.7791  0.6184
 6466SOL    HW130860   2.772   4.057  11.052  0.7936 -0.4727 -2.1735
 6466SOL    HW230861   2.711   4.174  10.991 -0.3422 -0.8493  0.5037
 6467SOL     OW30862   0.792   4.342  10.112  0.1403  0.5338 -0.9185
 6467SOL    HW130863   0.741   4.407  10.063 -0.9351  2.9687  3.4588
 6467SOL    HW230864   0.806   4.268  10.053  1.0537  0.2472 -0.3357
 6468SOL     OW30865   2.900   3.708   6.251 -0.2105  0.0429 -0.2282
 6468SOL    HW130866   2.855   3.787   6.283 -0.0451 -0.3540  0.9784
 6468SOL    HW230867   2.905   3.657   6.332  1.9855  1.4828  0.5559
 6469SOL     OW30868   4.407   0.509   8.375 -0.0549  0.2910  0.8444
 6469SOL    HW130869   4.453   0.528   8.456  1.5233 -0.0550  0.0179
 6469SOL    HW230870   4.382   0.417   8.386 -0.9293  0.7359  2.6635
 6470SOL     OW30871   2.086   1.486   6.425 -0.7006  0.6796 -0.3807
 6470SOL    HW130872   2.088   1.424   6.352 -2.0082  0.5183 -0.2913
 6470SOL    HW230873   1.998   1.466   6.459 -1.0711  0.2348 -1.6207
 6471SOL     OW30874   3.413   1.221   7.164  0.5950  0.3890  0.6814
 6471SOL    HW130875   3.398   1.164   7.241  0.6527 -0.8849 -0.2479
 6471SOL    HW230876   3.485   1.276   7.194 -0.3307  1.9499  0.0472
 6472SOL     OW30877   2.784   3.583   4.372  0.2509  0.2456  0.0838
 6472SOL    HW130878   2.737   3.592   4.455  0.6624  1.2810  0.2027
 6472SOL    HW230879   2.867   3.559   4.412 -0.1556 -0.9976  0.1944
 6473SOL     OW30880   1.248   1.762   4.334 -0.1176  0.2693 -0.4221
 6473SOL    HW130881   1.304   1.839   4.322 -3.0369  2.4113 -0.2155
 6473SOL    HW230882   1.165   1.808   4.347 -0.2858 -0.1215 -0.1163
 6474SOL     OW30883   4.488   1.231  15.124  0.2300 -0.1646  0.3345
 6474SOL    HW130884   4.519   1.172  15.056  0.7808  0.9415 -0.3815
 6474SOL    HW230885   4.494   1.315  15.077 -1.1583  0.4112  1.1904
 6475SOL     OW30886   3.775   4.553   5.176 -0.0257 -0.2500 -0.6992
 6475SOL    HW130887   3.703   4.521   5.121  0.2607 -1.0034 -0.6197
 6475SOL    HW230888   3.779   4.645   5.150 -1.9256 -0.9809 -3.5819
 6476SOL     OW30889   1.515   1.754   2.020 -0.8871  0.1392 -0.3525
 6476SOL    HW130890   1.470   1.822   1.970 -0.3855  0.6612 -0.0919
 6476SOL    HW230891   1.545   1.807   2.094 -1.0945 -0.3221  0.0644
 6477SOL     OW30892   4.514   3.074  14.558  0.0495 -0.3256  0.7793
 6477SOL    HW130893   4.590   3.126  14.585  0.7577  0.5647 -2.8716
 6477SOL    HW230894   4.470   3.046  14.638  1.7584  2.5346  2.7621
 6478SOL     OW30895   2.798   4.555   2.086 -0.5833 -0.0614  0.2672
 6478SOL    HW130896   2.721   4.612   2.078 -0.7852 -0.3115  0.4368
 6478SOL    HW230897   2.818   4.541   1.994 -0.5250 -1.7593  0.5401
 6479SOL     OW30898   3.523   3.550   4.493  0.3857  0.1120  0.6000
 6479SOL    HW130899   3.451   3.584   4.440  1.1181 -0.1639 -0.5557
 6479SOL    HW230900   3.505   3.457   4.487  0.2593  0.2020 -0.4385
 6480SOL     OW30901   0.490   3.761   2.482  0.1379 -0.4458  0.1510
 6480SOL    HW130902   0.409   3.728   2.443 -1.1499  1.3672  1.3043
 6480SOL    HW230903   0.527   3.821   2.417  0.4023 -0.0857  0.6397
 6481SOL     OW30904   0.485   4.265   4.425  0.0471  0.8950 -0.6107
 6481SOL    HW130905   0.578   4.267   4.404  0.3926  0.1154  0.9104
 6481SOL    HW230906   0.451   4.261   4.335  0.0320 -0.7207 -0.5273
 6482SOL     OW30907   4.597   4.249   5.886 -0.5118  0.1171  0.8352
 6482SOL    HW130908   4.540   4.179   5.917 -0.3150 -0.2204  0.4442
 6482SOL    HW230909   4.580   4.240   5.792 -1.9236  1.3335  0.9880
 6483SOL     OW30910   2.081   1.609   4.565 -0.5894  0.1112 -0.1795
 6483SOL    HW130911   2.037   1.694   4.554  0.4922  0.8174  0.9563
 6483SOL    HW230912   2.013   1.552   4.530 -0.2700  1.1204 -2.4285
 6484SOL     OW30913   2.956   3.539   6.446  0.0353 -0.3643  0.1064
 6484SOL    HW130914   2.973   3.452   6.480  0.1739 -1.2140 -2.1237
 6484SOL    HW230915   2.958   3.599   6.521  0.4352  1.8178 -1.6441
 6485SOL     OW30916   2.314   2.206   7.978 -0.1832 -0.1044 -0.3338
 6485SOL    HW130917   2.380   2.140   7.959  0.9623  0.5233  1.5156
 6485SOL    HW230918   2.264   2.154   8.041  1.0016 -1.0004 -0.1243
 6486SOL     OW30919   2.125   1.247  15.066 -0.7396 -0.0898  0.1653
 6486SOL    HW130920   2.032   1.271  15.069 -1.1256 -1.4286 -0.7146
 6486SOL    HW230921   2.111   1.166  15.117 -2.2992 -0.2107 -0.4615
 6487SOL     OW30922   2.653   2.482   4.720 -0.2423  0.6698  0.4629
 6487SOL    HW130923   2.706   2.473   4.640 -2.1878  1.2952 -0.9093
 6487SOL    HW230924   2.697   2.557   4.759 -2.4283  1.2485  1.8057
 6488SOL     OW30925   2.396   0.393   6.534 -0.1298 -0.4751 -0.1937
 6488SOL    HW130926   2.411   0.433   6.620  2.9388 -0.4245 -0.7411
 6488SOL    HW230927   2.466   0.328   6.535  1.2641  1.0036 -3.1542
 6489SOL     OW30928   1.867   2.006   0.529 -0.1465 -0.6207  1.1022
 6489SOL    HW130929   1.799   2.061   0.490  0.3447  0.2557  1.4965
 6489SOL    HW230930   1.895   1.958   0.451 -1.1302 -0.8423  0.8779
 6490SOL     OW30931   3.972   2.202   5.568 -0.2185  0.2628 -0.0690
 6490SOL    HW130932   4.054   2.174   5.608  0.7089  1.8669 -0.8443
 6490SOL    HW230933   3.995   2.184   5.477  1.7934 -0.7371  0.6374
 6491SOL     OW30934   1.349   3.988  15.276 -0.1130 -0.2474  0.1848
 6491SOL    HW130935   1.306   4.073  15.262  3.1185  1.4845  0.7802
 6491SOL    HW230936   1.322   3.955  15.362 -2.1775  2.2248  0.4917
 6492SOL     OW30937   3.093   3.694   5.818  0.6292  0.4102  0.3767
 6492SOL    HW130938   3.081   3.647   5.901 -0.5396 -0.2990 -0.1912
 6492SOL    HW230939   3.020   3.756   5.815 -0.9898 -1.3504  2.8901
 6493SOL     OW30940   1.071   1.061  12.900 -0.1148  0.1060  0.5094
 6493SOL    HW130941   1.160   1.059  12.935 -0.3021  1.3790  1.0799
 6493SOL    HW230942   1.017   1.091  12.973  1.1745 -0.2903  1.5963
 6494SOL     OW30943   4.013   4.407   6.564  0.4205  0.2177 -0.3736
 6494SOL    HW130944   4.087   4.430   6.620  1.3078  0.8808 -1.7972
 6494SOL    HW230945   4.019   4.313   6.548  1.2534 -0.1526  2.1910
 6495SOL     OW30946   1.285   1.724   9.523 -0.1814 -0.3964  0.3622
 6495SOL    HW130947   1.329   1.707   9.606  1.3390  1.4927 -0.0620
 6495SOL    HW230948   1.199   1.684   9.535  0.6620 -2.4843 -0.5533
 6496SOL     OW30949   3.188   2.848  13.461 -0.5273  0.0432  0.6919
 6496SOL    HW130950   3.247   2.884  13.527  0.5592  0.0309 -0.2759
 6496SOL    HW230951   3.124   2.919  13.459  0.3148  0.8219  1.4561
 6497SOL     OW30952   0.914   0.676   5.001  0.1218 -0.4283  0.5796
 6497SOL    HW130953   0.982   0.609   5.001 -0.2018 -0.7775 -1.5050
 6497SOL    HW230954   0.964   0.757   5.012  0.8403 -0.6026 -1.2932
 6498SOL     OW30955   1.456   0.298   6.350  0.1750 -0.9941  0.1246
 6498SOL    HW130956   1.536   0.321   6.396  0.6194 -2.5315  0.1126
 6498SOL    HW230957   1.397   0.370   6.374  2.5982  1.2927 -0.8389
 6499SOL     OW30958   2.699   3.432   1.709 -0.4413 -0.3558 -0.0382
 6499SOL    HW130959   2.731   3.489   1.779 -2.5782 -0.2582  0.8803
 6499SOL    HW230960   2.745   3.350   1.725 -1.3701 -1.0027 -0.6668
 6500SOL     OW30961   4.515   1.670   3.092  0.0496  0.0082  0.0851
 6500SOL    HW130962   4.423   1.684   3.072  0.2307 -2.3137 -2.3337
 6500SOL    HW230963   4.509   1.636   3.181  0.5245  2.6671  1.1597
 6501SOL     OW30964   1.829   3.287  15.648 -0.2491  0.1631 -0.4693
 6501SOL    HW130965   1.790   3.270  15.562 -2.0436  0.5247  0.2829
 6501SOL    HW230966   1.921   3.264  15.634 -0.5403 -2.4871  1.9878
 6502SOL     OW30967   2.651   4.107  12.582 -0.2448 -0.2533 -0.0106
 6502SOL    HW130968   2.670   4.194  12.549 -0.9232  0.2804  0.9931
 6502SOL    HW230969   2.729   4.087  12.634 -0.5906  1.5014  1.1712
 6503SOL     OW30970   0.063   3.817   8.651  0.0598 -0.4116  0.1259
 6503SOL    HW130971   0.134   3.864   8.695  0.2215 -1.0714  0.5733
 6503SOL    HW230972   0.005   3.805   8.725 -2.9353 -0.3157 -2.1906
 6504SOL     OW30973   3.111   3.256   4.894 -0.5253  0.0492  0.1061
 6504SOL    HW130974   3.016   3.264   4.885 -0.4703 -0.6566 -1.1114
 6504SOL    HW230975   3.128   3.350   4.895 -1.3457  0.1824  1.4828
 6505SOL     OW30976   0.764   4.260   5.337  0.1453 -0.0276 -0.1465
 6505SOL    HW130977   0.701   4.192   5.360  1.5973 -1.5931 -0.8120
 6505SOL    HW230978   0.724   4.331   5.386  1.1711  1.1111 -0.9467
 6506SOL     OW30979   1.691   0.758   3.816 -0.4454  0.2626  0.0894
 6506SOL    HW130980   1.765   0.807   3.780 -1.0365  0.8850 -0.2796
 6506SOL    HW230981   1.704   0.771   3.910  0.8310 -1.5448  0.1646
 6507SOL     OW30982   4.586   2.134   8.934  0.5580  0.4104 -0.2944
 6507SOL    HW130983   4.502   2.144   8.889  0.4790  2.2124  0.2424
 6507SOL    HW230984   4.622   2.059   8.887 -1.4428 -1.1460  0.6551
 6508SOL     OW30985   3.847   0.480   5.442 -0.5338 -0.3147 -0.1106
 6508SOL    HW130986   3.940   0.457   5.446 -0.1446  1.4536  1.4720
 6508SOL    HW230987   3.840   0.535   5.520  1.7796  0.3593 -0.3689
 6509SOL     OW30988   3.745   1.640   3.085 -0.5816  0.2351  0.3366
 6509SOL    HW130989   3.667   1.674   3.040 -0.7760  0.6155  0.9561
 6509SOL    HW230990   3.760   1.566   3.026  0.1711  0.7251 -0.0751
 6510SOL     OW30991   1.423   2.960   2.991 -0.1069 -0.8601 -0.6212
 6510SOL    HW130992   1.443   2.885   3.047 -1.0457 -1.3646 -0.9587
 6510SOL    HW230993   1.505   2.989   2.951 -0.8305  1.3456 -0.4977
 6511SOL     OW30994   4.365   2.349   4.275  0.5903  0.2172 -0.2746
 6511SOL    HW130995   4.446   2.392   4.304 -0.2368  0.4108  1.7732
 6511SOL    HW230996   4.360   2.273   4.333  0.7055 -0.0756 -0.6559
 6512SOL     OW30997   2.674   0.312  17.199 -0.0293 -0.1784  0.2315
 6512SOL    HW130998   2.691   0.246  17.132  1.4617 -1.6178  2.0341
 6512SOL    HW230999   2.603   0.350  17.148  1.2979 -1.2194 -2.3756
 6513SOL     OW31000   3.473   1.409   2.374  0.4089  0.4149  0.1454
 6513SOL    HW131001   3.410   1.476   2.401  0.8144 -0.0506  2.2795
 6513SOL    HW231002   3.528   1.455   2.311  0.6198  1.1025  0.8234
 6514SOL     OW31003   1.867   0.785   7.581 -0.5328  0.2563 -1.1205
 6514SOL    HW131004   1.900   0.862   7.628  0.2528 -0.8773  0.1628
 6514SOL    HW231005   1.950   0.742   7.559 -0.3702  0.6423 -1.2674
 6515SOL     OW31006   2.870   0.542  14.798 -0.5152 -0.0702  0.4175
 6515SOL    HW131007   2.918   0.609  14.848 -2.9501  1.5448  0.5854
 6515SOL    HW231008   2.825   0.488  14.863 -0.6636 -0.6031 -0.1364
 6516SOL     OW31009   3.054   0.316  12.739  0.2898 -0.1900  0.1305
 6516SOL    HW131010   3.107   0.246  12.700 -0.2580 -0.7043  0.3018
 6516SOL    HW231011   3.026   0.263  12.814  0.6773 -3.0892 -1.7600
 6517SOL     OW31012   3.716   0.167   6.452  0.1534  0.2174  0.1119
 6517SOL    HW131013   3.797   0.147   6.500  0.5175  1.8786  0.1889
 6517SOL    HW231014   3.742   0.239   6.394  0.4227  1.2696  1.5598
 6518SOL     OW31015   1.012   2.808   6.982 -0.1065  0.1558 -0.3037
 6518SOL    HW131016   0.919   2.820   6.962 -0.5233  0.7050  1.9725
 6518SOL    HW231017   1.027   2.887   7.033 -1.8430  1.5605 -1.9843
 6519SOL     OW31018   0.859   0.777  15.721 -0.4510  0.6504 -0.4704
 6519SOL    HW131019   0.828   0.853  15.671  0.0786  1.0218 -0.2382
 6519SOL    HW231020   0.818   0.703  15.676 -1.7357  1.1845 -0.1788
 6520SOL     OW31021   3.659   4.136  15.494 -0.0580  0.1586  0.4995
 6520SOL    HW131022   3.593   4.097  15.437  0.6399  1.1995 -1.0191
 6520SOL    HW231023   3.709   4.183  15.428  1.1029 -2.1783 -0.2697
 6521SOL     OW31024   1.676   0.464   2.583 -0.0697 -0.1401  0.0617
 6521SOL    HW131025   1.760   0.507   2.598  0.0501  0.0744 -1.1813
 6521SOL    HW231026   1.657   0.441   2.674 -1.1837 -1.7645 -0.5679
 6522SOL     OW31027   4.099   4.194   8.769 -0.1383  0.5878 -0.1541
 6522SOL    HW131028   4.180   4.229   8.808  1.3003 -1.4799 -1.2853
 6522SOL    HW231029   4.034   4.261   8.791 -1.3851 -1.1014  1.3414
 6523SOL     OW31030   4.182   1.774   3.736  0.0842  0.4215 -0.1428
 6523SOL    HW131031   4.116   1.807   3.798 -1.7912 -2.8153 -0.4045
 6523SOL    HW231032   4.259   1.805   3.783  1.5948 -0.2510 -2.1816
 6524SOL     OW31033   2.089   4.044   2.031 -0.3618  0.7057 -0.0710
 6524SOL    HW131034   2.020   3.980   2.022 -2.1205  1.8300  5.3175
 6524SOL    HW231035   2.038   4.107   2.083  0.1572  0.1170  1.1440
 6525SOL     OW31036   0.117   2.961   6.161 -0.2057  0.0077  0.0654
 6525SOL    HW131037   0.177   3.018   6.114 -1.4910  0.6230 -0.8267
 6525SOL    HW231038   0.178   2.887   6.170  0.3629  0.4338 -0.2728
 6526SOL     OW31039   0.781   0.422   3.843  0.3306  0.0374 -0.1408
 6526SOL    HW131040   0.801   0.334   3.811  0.0295 -0.1315  0.1369
 6526SOL    HW231041   0.869   0.459   3.841  0.9452 -1.5194 -2.1047
 6527SOL     OW31042   1.338   0.570  17.212  0.2316  0.5670  0.2678
 6527SOL    HW131043   1.310   0.507  17.144  0.7091 -0.5672  1.1290
 6527SOL    HW231044   1.280   0.647  17.211 -1.3421 -0.6130 -0.3112
 6528SOL     OW31045   3.677   0.806   6.054  0.2176 -0.0848 -0.3149
 6528SOL    HW131046   3.602   0.792   6.112  0.4988  1.0315  0.3158
 6528SOL    HW231047   3.640   0.824   5.967  0.9781  0.3207 -0.5520
 6529SOL     OW31048   4.411   1.566  14.454  0.2758 -0.1262  0.4075
 6529SOL    HW131049   4.436   1.474  14.455  0.7737 -0.0023 -1.3482
 6529SOL    HW231050   4.480   1.605  14.400 -0.1268  0.7983  0.5614
 6530SOL     OW31051   3.322   3.105  12.180 -0.2198  0.2924  0.2822
 6530SOL    HW131052   3.369   3.092  12.262 -0.6386  0.1755  0.4997
 6530SOL    HW231053   3.367   3.177  12.135 -1.4134  0.8124 -0.0693
 6531SOL     OW31054   4.692   3.874   5.959 -0.6024 -0.2720 -0.1980
 6531SOL    HW131055   4.664   3.845   6.046 -2.4589 -0.0774 -0.7397
 6531SOL    HW231056   4.620   3.935   5.945  0.4311  0.4002 -2.6055
 6532SOL     OW31057   4.396   0.512   3.876 -0.6833 -0.3362 -0.5642
 6532SOL    HW131058   4.487   0.540   3.878 -0.8538  0.2473 -1.0645
 6532SOL    HW231059   4.404   0.428   3.830 -1.4594 -1.1617  0.7791
 6533SOL     OW31060   1.134   2.283   2.359  0.0958  0.1303 -0.2334
 6533SOL    HW131061   1.043   2.311   2.370 -0.2389 -1.1925  0.4129
 6533SOL    HW231062   1.134   2.253   2.268 -0.5182 -0.4606 -0.0395
 6534SOL     OW31063   4.125   3.105   8.479  0.0468 -0.2778  0.2903
 6534SOL    HW131064   4.161   3.185   8.439  1.3011 -0.7968  0.3975
 6534SOL    HW231065   4.129   3.138   8.569  0.6263  0.3861  0.0267
 6535SOL     OW31066   1.541   2.617   9.221  0.0106  0.3566  0.8688
 6535SOL    HW131067   1.476   2.552   9.249  0.0034 -0.6702 -1.5001
 6535SOL    HW231068   1.480   2.685   9.192 -2.2688 -2.0890 -0.1368
 6536SOL     OW31069   0.282   3.218   8.213  0.5115  0.0000 -0.4783
 6536SOL    HW131070   0.350   3.170   8.167  0.6086  0.6524 -1.0173
 6536SOL    HW231071   0.322   3.302   8.235  0.4423 -0.1841  0.3645
 6537SOL     OW31072   0.082   4.066   2.967  0.0125  0.3050 -0.0865
 6537SOL    HW131073   0.060   3.989   3.020 -1.6064  0.5212 -0.4508
 6537SOL    HW231074   0.011   4.064   2.903 -0.1395 -0.7803  0.1102
 6538SOL     OW31075   0.394   2.627   1.682 -0.4708 -0.0627 -1.3077
 6538SOL    HW131076   0.305   2.633   1.717  0.1457  0.3265  0.1943
 6538SOL    HW231077   0.417   2.566   1.752 -0.7436  1.5449  0.1808
 6539SOL     OW31078   0.459   0.065  16.192 -0.4707 -0.0060 -0.7137
 6539SOL    HW131079   0.452   0.061  16.097  1.5967  0.9126 -0.8925
 6539SOL    HW231080   0.425   4.705  16.232 -1.1795  0.3861 -0.5240
 6540SOL     OW31081   0.187   3.870   8.388  0.5620 -0.5595 -0.1874
 6540SOL    HW131082   0.138   3.800   8.345  4.3667 -2.4227 -1.4895
 6540SOL    HW231083   0.126   3.894   8.459  0.4933  1.6517 -0.9933
 6541SOL     OW31084   2.317   0.025  16.749  0.1327  0.2268 -0.1723
 6541SOL    HW131085   2.249   4.689  16.788 -0.5142 -0.6284 -2.5499
 6541SOL    HW231086   2.392   0.011  16.807  0.1495  0.8357 -0.0448
 6542SOL     OW31087   4.495   1.533   3.329 -0.5296  0.5593  0.7056
 6542SOL    HW131088   4.440   1.576   3.395  0.5469 -0.2618  2.1311
 6542SOL    HW231089   4.457   1.447   3.341  0.5145  0.2978  2.1343
 6543SOL     OW31090   4.414   3.323  12.436  0.1330 -0.4428 -0.3424
 6543SOL    HW131091   4.451   3.409  12.413 -0.3463  0.5008  2.3615
 6543SOL    HW231092   4.464   3.290  12.511  0.7031  0.5160 -0.2940
 6544SOL     OW31093   3.749   3.675   6.555  0.0619 -0.3105 -0.3179
 6544SOL    HW131094   3.685   3.604   6.546 -1.2921  0.7778  0.8107
 6544SOL    HW231095   3.809   3.636   6.619  0.3451  0.1425 -0.3146
 6545SOL     OW31096   2.446   2.197   9.335 -0.1365  0.2532  0.6395
 6545SOL    HW131097   2.522   2.204   9.393  0.1064  0.6912  0.2660
 6545SOL    HW231098   2.371   2.217   9.392  0.5681  1.4308  1.1574
 6546SOL     OW31099   0.786   2.061   5.672  0.2832  0.5023 -0.6865
 6546SOL    HW131100   0.821   1.975   5.693 -0.2313  0.4862  0.1097
 6546SOL    HW231101   0.827   2.081   5.588  0.0130  0.5173 -0.8175
 6547SOL     OW31102   3.232   3.103  16.529  0.6338 -0.1187  0.0391
 6547SOL    HW131103   3.177   3.096  16.451  1.2424 -0.6394 -0.3388
 6547SOL    HW231104   3.168   3.130  16.596 -0.0015 -0.0365 -0.5988
 6548SOL     OW31105   4.226   2.792   5.552  1.1638 -0.3567  0.3244
 6548SOL    HW131106   4.274   2.777   5.633  0.5876 -3.4520  0.1021
 6548SOL    HW231107   4.225   2.703   5.516  1.2607 -0.1438 -0.2163
 6549SOL     OW31108   0.027   4.060  17.299 -0.0836 -0.2623 -0.0066
 6549SOL    HW131109   0.084   4.091  17.369  0.5237  1.2487 -1.1728
 6549SOL    HW231110   4.700   3.992  17.347 -1.5692 -0.0466 -1.1381
 6550SOL     OW31111   0.427   2.038   3.304  0.0118  0.4269  0.6979
 6550SOL    HW131112   0.476   1.968   3.347 -0.7195 -1.3919 -1.3871
 6550SOL    HW231113   0.339   2.017   3.338  0.6619 -2.1295  0.8445
 6551SOL     OW31114   3.228   2.606   8.944 -0.5543  0.4250  0.3572
 6551SOL    HW131115   3.172   2.531   8.965  0.2787 -0.2205  0.2848
 6551SOL    HW231116   3.172   2.671   8.986 -2.1569 -0.6651 -0.0967
 6552SOL     OW31117   1.510   3.297   1.028  0.4946  0.2597 -0.3325
 6552SOL    HW131118   1.467   3.299   0.943 -1.2391 -0.9983  0.4978
 6552SOL    HW231119   1.554   3.212   1.024  0.4603  0.1984  0.5857
 6553SOL     OW31120   1.729   2.498   3.375  0.7424  0.2292 -0.0199
 6553SOL    HW131121   1.760   2.535   3.293 -2.7718  2.3717 -0.3835
 6553SOL    HW231122   1.737   2.570   3.438 -1.8501  3.4362 -3.3578
 6554SOL     OW31123   4.222   0.827   7.508  0.2929 -0.0457 -0.1688
 6554SOL    HW131124   4.132   0.851   7.488 -0.0606  2.1129  3.9743
 6554SOL    HW231125   4.236   0.744   7.462 -0.8250  1.1889 -2.6998
 6555SOL     OW31126   2.612   1.948  15.209  0.3567 -0.3531 -0.0998
 6555SOL    HW131127   2.639   2.020  15.152  0.1807 -0.1166  0.1163
 6555SOL    HW231128   2.690   1.893  15.211  0.2483 -0.4355  1.8289
 6556SOL     OW31129   2.325   0.618   8.269 -0.3145  0.7954 -0.0429
 6556SOL    HW131130   2.395   0.609   8.334 -1.4912  0.3276  1.1623
 6556SOL    HW231131   2.278   0.695   8.302 -0.3498 -0.0362  1.8227
 6557SOL     OW31132   1.024   3.510   4.238 -0.1283  0.6490  0.3647
 6557SOL    HW131133   1.036   3.468   4.153 -1.0697  0.3955  0.3643
 6557SOL    HW231134   0.932   3.532   4.224 -0.2068 -1.7617 -2.8315
 6558SOL     OW31135   4.315   2.727   7.545  0.1699 -0.1792 -0.0975
 6558SOL    HW131136   4.392   2.674   7.565 -0.6297 -0.8573  1.2308
 6558SOL    HW231137   4.261   2.668   7.492  0.2434  0.9021 -1.3506
 6559SOL     OW31138   4.517   1.753   4.849  0.3540 -0.1628  0.6279
 6559SOL    HW131139   4.492   1.766   4.940  2.7445 -1.3267  1.4240
 6559SOL    HW231140   4.494   1.660   4.853 -0.3848 -0.0165 -0.0641
 6560SOL     OW31141   4.578   2.287   2.599  0.0386 -0.3695 -0.3008
 6560SOL    HW131142   4.520   2.227   2.552  0.2693 -2.0466  1.5874
 6560SOL    HW231143   4.519   2.312   2.670  0.3730  0.8773 -0.4653
 6561SOL     OW31144   2.897   0.052   6.832  0.8422 -0.2776  0.0866
 6561SOL    HW131145   2.844   0.082   6.906  0.7861  0.8479 -0.4169
 6561SOL    HW231146   2.981   0.019   6.865 -0.2305 -1.9791  1.0994
 6562SOL     OW31147   1.504   2.427  13.522  0.5916  0.5829 -0.0694
 6562SOL    HW131148   1.426   2.452  13.474 -0.2656 -1.1964  0.3746
 6562SOL    HW231149   1.497   2.496  13.588 -3.2792 -1.7383  1.9351
 6563SOL     OW31150   0.553   0.874   8.846 -0.2400  0.6168  0.1078
 6563SOL    HW131151   0.539   0.916   8.761 -4.6421  0.2285  0.6754
 6563SOL    HW231152   0.542   0.950   8.904  0.0476  1.3843 -0.8361
 6564SOL     OW31153   3.320   2.093   9.166  0.4419 -0.1478 -0.0904
 6564SOL    HW131154   3.362   2.090   9.080  0.9294  2.0202  0.0668
 6564SOL    HW231155   3.278   2.007   9.171  0.1166 -0.0530 -1.3125
 6565SOL     OW31156   1.934   0.633   3.384 -0.0609 -0.1109  0.3929
 6565SOL    HW131157   1.912   0.549   3.424 -2.4042  0.4822  0.3544
 6565SOL    HW231158   1.863   0.641   3.320 -0.1362 -1.4140  0.3150
 6566SOL     OW31159   1.443   1.651   5.321  0.2624  0.2799 -0.3298
 6566SOL    HW131160   1.354   1.684   5.330  1.2767  3.4391 -2.0019
 6566SOL    HW231161   1.483   1.692   5.244  0.3607  0.2246 -0.3089
 6567SOL     OW31162   1.708   3.936   1.022  0.2890  0.4092  0.0771
 6567SOL    HW131163   1.656   3.863   1.054 -0.2377  0.9159  0.3834
 6567SOL    HW231164   1.724   3.910   0.931  0.0449  2.1626 -0.4669
 6568SOL     OW31165   3.164   3.179   5.558  0.1407  0.2255  0.2004
 6568SOL    HW131166   3.229   3.204   5.624  1.0721  0.9701 -0.9900
 6568SOL    HW231167   3.078   3.204   5.591  0.0396 -0.4831  0.4598
 6569SOL     OW31168   3.950   0.084   4.618  0.4971  0.0912  0.2713
 6569SOL    HW131169   3.912   4.716   4.604  1.6603  0.0149 -2.3239
 6569SOL    HW231170   4.041   0.065   4.595  0.6040  0.9969 -0.0368
 6570SOL     OW31171   0.099   3.370   6.688 -0.3376  0.1280 -0.2865
 6570SOL    HW131172   0.110   3.433   6.760  1.6422  0.6179 -1.0197
 6570SOL    HW231173   0.158   3.305   6.728 -1.6303  0.0270  1.4532
 6571SOL     OW31174   4.107   4.017   8.452  0.1232 -0.4692 -0.2475
 6571SOL    HW131175   4.072   3.933   8.481  1.2955 -0.3306  1.5112
 6571SOL    HW231176   4.023   4.061   8.434  0.1408  0.2599  1.5035
 6572SOL     OW31177   1.717   0.030  15.199 -0.6422  0.2462 -0.2796
 6572SOL    HW131178   1.638   4.714  15.239 -1.4457  2.1342 -0.1965
 6572SOL    HW231179   1.781   4.682  15.221 -0.6085  0.3850  0.0505
 6573SOL     OW31180   3.488   0.358  14.405 -0.0611  0.2393 -0.0033
 6573SOL    HW131181   3.472   0.278  14.355  2.0620 -0.6421  0.7388
 6573SOL    HW231182   3.558   0.328  14.462 -1.8028 -1.7297  1.0920
 6574SOL     OW31183   4.359   0.519   1.342 -0.3534 -0.6968 -0.1779
 6574SOL    HW131184   4.268   0.488   1.343 -0.1287 -1.3865 -1.4006
 6574SOL    HW231185   4.388   0.490   1.428 -0.2131  2.0209  0.6737
 6575SOL     OW31186   3.980   2.482   5.606 -0.1202 -0.3115  0.0386
 6575SOL    HW131187   4.074   2.473   5.622  0.0615  1.4253  0.0393
 6575SOL    HW231188   3.958   2.389   5.606 -2.5774  0.2719 -0.2087
 6576SOL     OW31189   2.969   0.845  14.688 -0.1457  0.1778 -0.6606
 6576SOL    HW131190   2.924   0.909  14.634 -0.9470  1.8764  2.0754
 6576SOL    HW231191   2.920   0.771  14.651  0.9655 -0.4408 -0.9119
 6577SOL     OW31192   1.489   3.431   4.846  0.3356 -0.3607 -0.3592
 6577SOL    HW131193   1.582   3.414   4.828  0.8674  1.2505  0.8365
 6577SOL    HW231194   1.485   3.507   4.788 -0.1607  1.2048  1.6835
 6578SOL     OW31195   0.056   3.885  10.453  0.6442  0.0155 -0.4070
 6578SOL    HW131196   0.096   3.853  10.373  2.7638 -0.7116  0.9356
 6578SOL    HW231197   0.129   3.871  10.514 -0.0782  0.6115  0.6058
 6579SOL     OW31198   1.405   3.635  14.344 -0.0166 -0.2001 -0.3224
 6579SOL    HW131199   1.476   3.699  14.330 -0.8574  1.0905  1.3058
 6579SOL    HW231200   1.432   3.608  14.431 -2.6518 -1.2278  0.1626
 6580SOL     OW31201   2.412   3.188   1.045 -0.0824 -0.2233  0.9379
 6580SOL    HW131202   2.469   3.264   1.049 -0.0660 -0.1488 -0.8769
 6580SOL    HW231203   2.336   3.209   0.991  1.0630  0.4394 -0.4067
 6581SOL     OW31204   2.023   1.711   7.832  0.0304 -0.0148 -0.0625
 6581SOL    HW131205   2.013   1.773   7.903 -0.4335  2.4967 -2.3295
 6581SOL    HW231206   2.022   1.630   7.883  1.3343  0.4556  0.7204
 6582SOL     OW31207   3.359   2.542  14.950  0.1631  0.1387  0.0326
 6582SOL    HW131208   3.442   2.496  14.940  0.4156  0.3722  0.9870
 6582SOL    HW231209   3.318   2.497  14.877 -0.4505  0.4639  0.1689
 6583SOL     OW31210   1.273   1.452  13.799 -0.4523  0.3225 -0.0514
 6583SOL    HW131211   1.236   1.374  13.757  0.5575 -0.5537  0.6961
 6583SOL    HW231212   1.335   1.405  13.854 -0.6888  0.1269  0.0501
 6584SOL     OW31213   2.108   0.185   8.283  0.0240 -0.1363 -0.3952
 6584SOL    HW131214   2.090   0.210   8.373 -0.6679 -2.2773  0.0435
 6584SOL    HW231215   2.167   0.112   8.301  1.6898  1.3741  0.3556
 6585SOL     OW31216   0.780   1.168  11.121 -0.4103  0.7017  0.1556
 6585SOL    HW131217   0.733   1.247  11.095 -1.2227  0.5322  1.1103
 6585SOL    HW231218   0.852   1.169  11.057  0.7085  0.1045  1.3912
 6586SOL     OW31219   2.175   0.960   0.335 -0.0415  0.1251  0.1271
 6586SOL    HW131220   2.193   0.868   0.318 -0.7481  0.1403 -0.7346
 6586SOL    HW231221   2.254   0.996   0.295  0.5568 -1.9170 -0.5308
 6587SOL     OW31222   1.336   3.297   2.187 -0.0409 -0.1576  0.2141
 6587SOL    HW131223   1.357   3.279   2.095 -2.7320  1.1326 -0.6595
 6587SOL    HW231224   1.260   3.241   2.199  1.6975 -2.2392  1.5162
 6588SOL     OW31225   2.767   1.120   7.865  0.2227 -0.4970  0.1547
 6588SOL    HW131226   2.707   1.193   7.850  2.6224  1.4361 -0.0714
 6588SOL    HW231227   2.761   1.113   7.960 -2.4181 -0.9058 -0.0456
 6589SOL     OW31228   4.686   2.837   7.430 -0.2755 -0.0632  0.2877
 6589SOL    HW131229   4.637   2.759   7.405 -1.1729  0.1275  1.4214
 6589SOL    HW231230   4.702   2.821   7.523 -1.9714  1.0256  0.7698
 6590SOL     OW31231   1.188   2.536   4.303  0.1617 -0.1873  0.8375
 6590SOL    HW131232   1.169   2.533   4.209  0.5434 -0.8365  0.7852
 6590SOL    HW231233   1.247   2.611   4.316 -0.7001  0.7620 -0.7874
 6591SOL     OW31234   1.417   3.510   1.669  0.2333  0.4324  0.0702
 6591SOL    HW131235   1.372   3.504   1.753 -1.5730  2.5530 -0.7491
 6591SOL    HW231236   1.387   3.599   1.649 -1.7208  0.3971  2.8735
 6592SOL     OW31237   3.795   1.941   4.329  0.6957  0.3868 -0.2265
 6592SOL    HW131238   3.847   2.020   4.346 -1.6906  1.7839  0.4819
 6592SOL    HW231239   3.707   1.978   4.323  0.3113 -0.4860  0.0932
 6593SOL     OW31240   1.850   0.267   8.733  0.0409  0.5120  0.1799
 6593SOL    HW131241   1.759   0.267   8.765 -0.6896 -2.1671 -1.8762
 6593SOL    HW231242   1.897   0.308   8.805  0.0970 -0.4957  0.7198
 6594SOL     OW31243   3.794   0.555   7.057 -0.1481 -0.2178  0.6163
 6594SOL    HW131244   3.835   0.469   7.055 -2.0107 -1.0363 -1.9018
 6594SOL    HW231245   3.845   0.601   6.991 -0.3593  0.3308  0.8328
 6595SOL     OW31246   0.147   1.332   2.957 -0.2799 -0.1322 -0.2412
 6595SOL    HW131247   0.187   1.395   3.017  0.1822 -3.0579  2.5286
 6595SOL    HW231248   0.076   1.308   3.017  0.4846  0.0442  0.7363
 6596SOL     OW31249   4.106   4.473   2.663  0.0659  0.2181  0.3603
 6596SOL    HW131250   4.049   4.434   2.596  1.1368  0.9635 -1.0002
 6596SOL    HW231251   4.157   4.401   2.698  0.2323  0.8389  1.3943
 6597SOL     OW31252   2.017   1.680  16.437  0.1019 -0.0631  0.0358
 6597SOL    HW131253   1.953   1.751  16.427  1.3334  1.2254  1.2481
 6597SOL    HW231254   2.070   1.693  16.358  0.0811 -1.8311 -0.2651
 6598SOL     OW31255   4.093   3.879  16.867 -0.0106 -0.1376 -0.0364
 6598SOL    HW131256   4.114   3.910  16.955 -2.0536 -0.2666  0.5036
 6598SOL    HW231257   4.088   3.784  16.878 -1.1527 -0.1849 -0.9625
 6599SOL     OW31258   3.759   1.389   5.721 -0.3972  0.6040  0.1251
 6599SOL    HW131259   3.692   1.413   5.785  0.6427 -0.1327  1.4638
 6599SOL    HW231260   3.758   1.471   5.671 -0.4605 -0.4400 -1.5931
 6600SOL     OW31261   4.050   2.853   4.615  0.4278  0.2182 -0.5193
 6600SOL    HW131262   4.000   2.772   4.625 -1.5665  1.0925 -3.4383
 6600SOL    HW231263   4.139   2.834   4.585  0.1099 -3.9228  1.1015
 6601SOL     OW31264   1.124   0.294   6.046  0.2589  0.7967 -0.2149
 6601SOL    HW131265   1.062   0.222   6.032  2.3578 -0.9042 -0.7230
 6601SOL    HW231266   1.068   0.338   6.111 -0.1455 -1.9917  1.3099
 6602SOL     OW31267   3.967   1.570   9.939 -0.5503 -0.1545  0.3200
 6602SOL    HW131268   3.963   1.644  10.000  0.0914 -0.4605  0.7257
 6602SOL    HW231269   3.939   1.496   9.993 -1.1192  0.7927  1.3346
 6603SOL     OW31270   2.615   0.938   4.379  0.0130  0.2622 -0.1943
 6603SOL    HW131271   2.629   0.998   4.306 -1.2545 -0.1450 -0.7700
 6603SOL    HW231272   2.524   0.960   4.399 -0.5122  1.2799 -3.8051
 6604SOL     OW31273   2.024   1.606  14.143  0.0856 -0.2568 -0.0083
 6604SOL    HW131274   1.951   1.552  14.176  0.9531 -1.6303 -0.3472
 6604SOL    HW231275   2.030   1.576  14.053 -0.3277 -2.2731  0.6314
 6605SOL     OW31276   4.333   1.910   5.326  0.2016 -0.3032  0.1909
 6605SOL    HW131277   4.308   1.834   5.379 -0.8297 -1.2964 -1.7101
 6605SOL    HW231278   4.262   1.912   5.263 -0.6352 -0.2173  1.1357
 6606SOL     OW31279   4.322   2.220   1.672  0.3717 -0.1228 -0.0125
 6606SOL    HW131280   4.274   2.137   1.682  1.6061 -0.8465 -0.0556
 6606SOL    HW231281   4.369   2.215   1.755  1.7737  0.0622 -0.7885
 6607SOL     OW31282   4.278   4.475  10.839  0.1243  0.0500  0.1716
 6607SOL    HW131283   4.373   4.475  10.845  0.2594  0.1485 -1.9864
 6607SOL    HW231284   4.281   4.429  10.755  1.8402 -0.9357  0.7721
 6608SOL     OW31285   0.759   3.593   2.836  0.6187 -0.5553 -0.1591
 6608SOL    HW131286   0.780   3.656   2.767  1.3661  1.0233  1.5148
 6608SOL    HW231287   0.719   3.643   2.906 -1.2351 -0.4041 -1.3239
 6609SOL     OW31288   0.308   4.583   3.102 -0.6988 -0.4026  0.3291
 6609SOL    HW131289   0.382   4.544   3.149 -0.5410  0.4793  0.8013
 6609SOL    HW231290   0.295   4.518   3.033  0.6973 -0.7595  0.3934
 6610SOL     OW31291   2.131   1.795   9.445  0.0490 -0.1303 -0.9466
 6610SOL    HW131292   2.131   1.838   9.359 -0.3749 -0.4531 -1.1023
 6610SOL    HW231293   2.094   1.714   9.412  2.8133 -0.5460 -3.0243
 6611SOL     OW31294   2.055   2.041   2.515 -0.1986  0.3868 -0.0287
 6611SOL    HW131295   2.146   2.063   2.535  0.1982 -0.5521 -0.7859
 6611SOL    HW231296   2.013   2.115   2.558  2.1297  3.9106 -3.7729
 6612SOL     OW31297   4.637   2.141   5.556 -0.1263 -0.7896 -0.5941
 6612SOL    HW131298   4.700   2.072   5.575 -0.8361 -1.1560  0.4114
 6612SOL    HW231299   4.602   2.128   5.468 -2.3294 -2.1954  0.4725
 6613SOL     OW31300   2.460   0.740   2.073 -0.3696 -0.4568 -0.0684
 6613SOL    HW131301   2.402   0.765   2.001  0.8503 -1.3697 -1.3662
 6613SOL    HW231302   2.519   0.679   2.029  0.6034  1.8174 -1.8959
 6614SOL     OW31303   3.499   4.054   3.567  0.3117 -0.3840 -0.0817
 6614SOL    HW131304   3.509   4.062   3.472 -2.2110  1.2937 -0.2118
 6614SOL    HW231305   3.555   3.980   3.592  1.9243  0.2910 -1.6626
 6615SOL     OW31306   2.769   4.188   2.588 -0.0279  0.5558 -0.4696
 6615SOL    HW131307   2.705   4.176   2.517  0.8937 -0.1855 -1.1835
 6615SOL    HW231308   2.764   4.283   2.598  1.1239  0.6447 -0.7294
 6616SOL     OW31309   4.269   3.609   7.460  0.2224 -0.5023  0.0334
 6616SOL    HW131310   4.200   3.544   7.448 -0.1391 -0.1412  0.1644
 6616SOL    HW231311   4.230   3.679   7.512 -0.8300 -1.1090  0.0576
 6617SOL     OW31312   2.499   2.016  15.685 -0.0231  0.7412 -0.3408
 6617SOL    HW131313   2.508   2.098  15.638  0.6276 -0.7455 -2.8408
 6617SOL    HW231314   2.442   2.045  15.756 -1.5010 -0.6568 -0.9690
 6618SOL     OW31315   1.147   2.263   2.096  0.0083 -0.2293  0.2220
 6618SOL    HW131316   1.056   2.251   2.070 -0.2382  0.0183  0.9822
 6618SOL    HW231317   1.178   2.201   2.031 -1.3953  0.4658 -1.0984
 6619SOL     OW31318   0.212   2.290   7.651 -0.0528 -0.3485  0.0543
 6619SOL    HW131319   0.262   2.291   7.570  0.7940  0.1177  0.5868
 6619SOL    HW231320   0.190   2.383   7.661 -1.6011 -0.6845 -0.1786
 6620SOL     OW31321   0.580   0.654   9.842  0.4319 -0.1510 -0.3254
 6620SOL    HW131322   0.650   0.715   9.864  2.6076 -1.7766 -2.8155
 6620SOL    HW231323   0.608   0.578   9.893 -1.3741  0.0539  0.9976
 6621SOL     OW31324   2.275   1.848   8.355 -0.0394  0.1798  0.7351
 6621SOL    HW131325   2.182   1.840   8.378  0.4694  2.0913  3.4330
 6621SOL    HW231326   2.301   1.757   8.341 -1.4798 -0.3658  1.5666
 6622SOL     OW31327   2.244   4.388   6.108  0.1540  0.1975 -0.8321
 6622SOL    HW131328   2.173   4.353   6.162  1.4903 -0.6955  0.3277
 6622SOL    HW231329   2.292   4.440   6.172  1.3309 -2.2686  0.2866
 6623SOL     OW31330   4.316   3.326   3.094 -0.1874  0.7894  0.3835
 6623SOL    HW131331   4.332   3.246   3.045  0.1847 -0.2088  2.1414
 6623SOL    HW231332   4.316   3.295   3.185 -0.3698  0.8641  0.4091
 6624SOL     OW31333   1.648   1.428   0.302  0.0144 -0.3193  0.0335
 6624SOL    HW131334   1.577   1.370   0.277 -2.6209  1.8487  2.4596
 6624SOL    HW231335   1.701   1.376   0.362 -0.7635  0.3933  1.3340
 6625SOL     OW31336   1.114   0.138   8.164 -0.1336  0.5755 -0.4733
 6625SOL    HW131337   1.085   0.047   8.174  1.5493 -0.1461 -1.9714
 6625SOL    HW231338   1.179   0.148   8.234 -0.6209 -0.8796  0.1808
 6626SOL     OW31339   0.440   3.778   5.211  0.1682  0.3475 -0.8328
 6626SOL    HW131340   0.346   3.768   5.197 -0.1569  1.7793  0.2557
 6626SOL    HW231341   0.461   3.748   5.300 -2.4386 -0.5292 -0.5182
 6627SOL     OW31342   0.240   3.515   3.383 -0.0241  0.0987  0.1966
 6627SOL    HW131343   0.330   3.507   3.415 -0.6225 -1.5386  1.4605
 6627SOL    HW231344   0.237   3.451   3.312 -0.7902  1.6375 -1.1541
 6628SOL     OW31345   1.797   0.189   4.426  0.1547  0.5152 -0.0557
 6628SOL    HW131346   1.802   0.230   4.340 -0.1075 -0.8503 -0.7256
 6628SOL    HW231347   1.826   0.268   4.471  1.2009  1.1209 -1.8135
 6629SOL     OW31348   1.086   0.335   3.556  0.5335 -0.5961 -0.1283
 6629SOL    HW131349   1.071   0.252   3.511 -1.6595  0.0014 -0.4955
 6629SOL    HW231350   1.017   0.384   3.510  1.7611  1.3588  0.0931
 6630SOL     OW31351   1.990   1.861   8.411  0.2197 -0.1304  0.4700
 6630SOL    HW131352   1.963   1.778   8.373  0.1363 -0.3260  0.9574
 6630SOL    HW231353   1.904   1.901   8.427  1.6203  3.1541 -0.1966
 6631SOL     OW31354   3.599   2.207  15.205  0.0707  0.0939 -0.0809
 6631SOL    HW131355   3.527   2.174  15.259  0.5820  0.3574  0.7683
 6631SOL    HW231356   3.663   2.226  15.274 -1.2085 -2.4995  1.8187
 6632SOL     OW31357   1.802   0.401  12.568 -0.3993 -0.0963 -0.3594
 6632SOL    HW131358   1.878   0.345  12.554 -0.9367 -1.1038  0.8125
 6632SOL    HW231359   1.746   0.354  12.629  0.3690 -2.1167 -1.2201
 6633SOL     OW31360   4.684   1.776  14.453 -0.3242  0.0278 -0.1979
 6633SOL    HW131361   0.014   1.695  14.438  1.2980  0.9157  0.2881
 6633SOL    HW231362   4.654   1.783  14.362  0.2566 -3.1004 -0.6366
 6634SOL     OW31363   1.234   3.045   5.878  0.0200 -0.5167  0.2143
 6634SOL    HW131364   1.289   3.121   5.899 -1.3799  0.4311  0.4578
 6634SOL    HW231365   1.300   2.994   5.832  0.8980  1.4068 -0.6527
 6635SOL     OW31366   0.928   1.225  15.423 -0.1551 -0.2631 -0.2349
 6635SOL    HW131367   0.872   1.263  15.355  1.2694  3.0663  0.4692
 6635SOL    HW231368   0.889   1.265  15.501 -1.4538 -2.1616  0.0931
 6636SOL     OW31369   1.235   0.580  12.393  0.7433 -0.2779  0.4235
 6636SOL    HW131370   1.182   0.503  12.374 -0.7189  1.4848 -2.6282
 6636SOL    HW231371   1.321   0.538  12.395  0.9949  0.1901 -0.2643
 6637SOL     OW31372   2.052   1.878   4.482 -0.3105 -0.1580  0.3893
 6637SOL    HW131373   2.134   1.849   4.441  0.0146 -0.1493  1.0312
 6637SOL    HW231374   2.007   1.917   4.408  0.7407 -0.3146 -0.3449
 6638SOL     OW31375   1.011   0.746  11.155  0.0457 -0.4457  0.3955
 6638SOL    HW131376   0.944   0.801  11.196 -0.9862 -1.3029 -0.1357
 6638SOL    HW231377   1.008   0.668  11.212  0.2565  1.3750  2.9135
 6639SOL     OW31378   3.221   2.918   1.547  0.0402  0.0588  0.5833
 6639SOL    HW131379   3.252   2.829   1.566 -1.2929 -0.7465 -0.9721
 6639SOL    HW231380   3.141   2.901   1.496 -0.7290  0.9247  1.5053
 6640SOL     OW31381   1.192   0.488   5.795 -0.2941  0.1264  0.1680
 6640SOL    HW131382   1.126   0.459   5.859  2.5605 -1.8399  2.2100
 6640SOL    HW231383   1.270   0.514   5.844  1.3844 -0.0042 -2.4380
 6641SOL     OW31384   1.035   1.550   3.732 -0.2333 -0.7203  0.3585
 6641SOL    HW131385   1.085   1.530   3.811 -2.1343  1.4843  2.1296
 6641SOL    HW231386   0.973   1.608   3.776 -1.1301 -0.9192 -0.6296
 6642SOL     OW31387   1.761   2.069   8.605 -0.2128  0.1534 -0.1009
 6642SOL    HW131388   1.685   2.110   8.647  0.0060 -0.8045  1.2147
 6642SOL    HW231389   1.833   2.122   8.639 -1.1801  0.7485  1.0501
 6643SOL     OW31390   1.268   0.720  12.139  0.0616  0.1932  0.0414
 6643SOL    HW131391   1.296   0.676  12.219 -0.1853  0.6541  0.3840
 6643SOL    HW231392   1.324   0.670  12.079 -0.7850  0.7339 -1.1982
 6644SOL     OW31393   4.320   3.693   8.287  0.3647  0.1281 -0.3953
 6644SOL    HW131394   4.273   3.737   8.358  2.0427 -0.8281  1.3137
 6644SOL    HW231395   4.260   3.700   8.213  2.0674 -0.2768 -1.7970
 6645SOL     OW31396   2.536   4.070   7.728 -0.2160  0.5663  0.2234
 6645SOL    HW131397   2.599   4.112   7.787 -0.9478  0.8139  0.8265
 6645SOL    HW231398   2.549   3.983   7.765  0.4593 -0.0803 -1.5110
 6646SOL     OW31399   1.926   1.956   4.725  0.0608 -0.3237  0.4229
 6646SOL    HW131400   1.921   1.865   4.755  0.9460 -0.4088  0.2876
 6646SOL    HW231401   1.979   1.930   4.651  1.0010  0.2344  0.9051
 6647SOL     OW31402   0.761   0.743   8.995  0.2633 -0.2675  0.3404
 6647SOL    HW131403   0.688   0.761   8.936  0.8046  1.0418  0.0735
 6647SOL    HW231404   0.790   0.831   9.016 -3.1292  0.1654  3.2199
 6648SOL     OW31405   3.161   2.624   1.419 -0.6419 -0.0449 -0.1658
 6648SOL    HW131406   3.114   2.550   1.380 -0.9477  0.0632 -0.0034
 6648SOL    HW231407   3.173   2.668   1.335 -1.3304  1.9171  0.7644
 6649SOL     OW31408   2.963   2.741   3.453 -0.0210 -0.0127  0.0865
 6649SOL    HW131409   2.926   2.829   3.455  0.2047  0.1108 -1.2186
 6649SOL    HW231410   2.883   2.691   3.468 -0.0168  0.4306  1.5442
 6650SOL     OW31411   4.315   2.855   0.127 -0.2475 -0.1427  0.3381
 6650SOL    HW131412   4.329   2.949   0.116  0.6298 -0.2554  0.4874
 6650SOL    HW231413   4.304   2.843   0.221  0.4628 -0.0812  0.4296
 6651SOL     OW31414   2.251   4.274   3.286 -0.1594  0.3493  0.5096
 6651SOL    HW131415   2.241   4.255   3.193  0.3939  2.5999 -0.0105
 6651SOL    HW231416   2.283   4.364   3.277  1.9927 -0.8460 -3.3730
 6652SOL     OW31417   2.743   0.007  13.331  0.1673 -0.1601  0.0114
 6652SOL    HW131418   2.799   0.030  13.257  0.0024  0.0178 -0.0581
 6652SOL    HW231419   2.786   0.058  13.400  1.6964 -1.8203  0.2842
 6653SOL     OW31420   4.197   3.795   6.436 -0.0032  0.2179 -0.1734
 6653SOL    HW131421   4.221   3.844   6.515 -0.6613  0.0168  0.1548
 6653SOL    HW231422   4.112   3.836   6.422  1.3714  2.6758 -1.2186
 6654SOL     OW31423   4.251   3.706   1.719  0.6032 -0.0404 -0.1472
 6654SOL    HW131424   4.315   3.757   1.670  0.8152  0.5565  0.7554
 6654SOL    HW231425   4.253   3.623   1.670 -0.9846 -0.0258 -0.2396
 6655SOL     OW31426   1.954   2.984  15.843 -0.3164  0.3440  0.5461
 6655SOL    HW131427   1.931   2.997  15.752 -0.3461 -0.6288  0.4116
 6655SOL    HW231428   1.874   2.949  15.883 -0.6581  1.8193  1.1732
 6656SOL     OW31429   0.234   1.704  13.445  0.3514 -0.0479 -0.5792
 6656SOL    HW131430   0.282   1.787  13.455 -1.2969  0.6218  1.9660
 6656SOL    HW231431   0.191   1.706  13.531 -1.7240 -0.6934 -1.6231
 6657SOL     OW31432   1.747   3.686   0.032  0.5505 -0.0008 -0.2964
 6657SOL    HW131433   1.729   3.603  17.668  0.2630 -0.1465  0.0937
 6657SOL    HW231434   1.706   3.741  17.646  2.7524  1.6646 -0.2716
 6658SOL     OW31435   1.525   1.766   4.699 -0.1812  0.5317 -0.1018
 6658SOL    HW131436   1.512   1.831   4.768  2.7091 -1.1939  2.0680
 6658SOL    HW231437   1.461   1.695   4.703  0.8544 -0.2837  1.8401
 6659SOL     OW31438   1.590   3.496   1.213  0.0681 -0.2257 -0.6129
 6659SOL    HW131439   1.544   3.457   1.288  0.5218  1.0169  0.3221
 6659SOL    HW231440   1.552   3.442   1.144  0.1039 -1.2248  0.1422
 6660SOL     OW31441   2.187   0.843   8.334  0.1087  0.2963  0.6443
 6660SOL    HW131442   2.187   0.937   8.318 -1.3427 -0.1199 -1.7300
 6660SOL    HW231443   2.230   0.852   8.419  0.8759  2.2760  0.0377
 6661SOL     OW31444   0.844   0.491   7.318 -0.1015  0.7458  0.2439
 6661SOL    HW131445   0.769   0.465   7.372  1.0217 -1.4366  0.7675
 6661SOL    HW231446   0.904   0.497   7.393  1.3956  1.4434 -0.9910
 6662SOL     OW31447   2.890   0.451  17.394  0.0619  0.5238  0.6703
 6662SOL    HW131448   2.822   0.405  17.344  0.2097  0.3576  0.6259
 6662SOL    HW231449   2.949   0.385  17.428  0.8214 -1.5787 -4.7369
 6663SOL     OW31450   0.609   4.500   8.814  0.7873 -0.4259 -0.2378
 6663SOL    HW131451   0.520   4.521   8.785  1.1141  2.1332  0.6910
 6663SOL    HW231452   0.669   4.519   8.741  0.3181 -0.9153 -0.7500
 6664SOL     OW31453   0.609   2.902   5.706  0.1055  0.0643 -0.0234
 6664SOL    HW131454   0.520   2.930   5.729 -0.3751 -2.1476  0.8794
 6664SOL    HW231455   0.644   2.936   5.788 -0.5374 -2.9238  1.4999
 6665SOL     OW31456   2.784   4.441   3.357 -0.4490 -0.1541 -0.2258
 6665SOL    HW131457   2.849   4.373   3.373 -0.6960 -0.3366  0.0066
 6665SOL    HW231458   2.731   4.432   3.436 -0.6667 -0.5596 -0.4153
 6666SOL     OW31459   1.437   2.453  15.853 -0.3614  0.1512 -0.4061
 6666SOL    HW131460   1.347   2.430  15.875  0.3723 -0.4970  1.8728
 6666SOL    HW231461   1.465   2.381  15.798  1.0275  0.1272  0.3355
 6667SOL     OW31462   1.783   4.364   8.528  0.1707  0.2609  0.3438
 6667SOL    HW131463   1.868   4.362   8.574  0.4725  0.4487 -0.2089
 6667SOL    HW231464   1.739   4.288   8.566  0.5096 -0.5792 -0.9598
 6668SOL     OW31465   3.846   1.592   7.146 -0.7142  0.1797 -0.1013
 6668SOL    HW131466   3.936   1.620   7.161 -0.7858 -0.7996  2.1090
 6668SOL    HW231467   3.820   1.561   7.232  3.6955 -0.7514  0.8726
 6669SOL     OW31468   4.489   0.472   9.214  0.0210  0.1430 -0.0455
 6669SOL    HW131469   4.514   0.500   9.302  0.0535 -1.0536  0.3304
 6669SOL    HW231470   4.542   0.532   9.161 -0.2399 -0.9181 -1.5139
 6670SOL     OW31471   4.401   0.509  13.837 -1.3436 -0.3219  0.4852
 6670SOL    HW131472   4.437   0.561  13.910  1.0850 -0.6144 -0.5057
 6670SOL    HW231473   4.481   0.483  13.791  0.7426  0.8343  3.4655
 6671SOL     OW31474   4.054   3.557   6.385  0.3585  0.4362  0.1122
 6671SOL    HW131475   4.127   3.614   6.407 -0.6897  1.7762  0.1323
 6671SOL    HW231476   4.108   3.479   6.378 -1.8362 -0.9641 -1.3296
 6672SOL     OW31477   2.696   4.339  12.456 -0.2308 -0.3862  0.6205
 6672SOL    HW131478   2.655   4.384  12.382 -0.1000 -0.6363  0.3985
 6672SOL    HW231479   2.783   4.377  12.460 -0.1611 -0.4278 -0.8209
 6673SOL     OW31480   0.343   2.269   6.526  0.5551 -0.1503  0.1590
 6673SOL    HW131481   0.368   2.335   6.591 -2.7534  1.0029  0.2866
 6673SOL    HW231482   0.249   2.253   6.534  0.8326 -1.4941  0.7750
 6674SOL     OW31483   3.089   1.845   8.761  0.7048 -0.3213  0.2262
 6674SOL    HW131484   3.109   1.930   8.722 -0.3816  0.5600  1.6035
 6674SOL    HW231485   3.157   1.825   8.825 -0.0375 -0.5673  0.9471
 6675SOL     OW31486   3.255   3.633   3.145 -0.3408 -0.4991 -1.0344
 6675SOL    HW131487   3.329   3.632   3.205 -1.9187 -0.8172  0.9020
 6675SOL    HW231488   3.270   3.719   3.106 -0.5342 -0.0261 -0.0665
 6676SOL     OW31489   2.017   2.837   0.671  0.2223 -0.2608 -0.1265
 6676SOL    HW131490   2.052   2.748   0.670  0.7817 -0.0954  2.5644
 6676SOL    HW231491   1.989   2.837   0.580  3.4971 -3.3505 -1.1502
 6677SOL     OW31492   2.154   0.314  11.175 -0.4654  0.5715  0.7098
 6677SOL    HW131493   2.233   0.277  11.137 -1.3487  2.9084 -3.3230
 6677SOL    HW231494   2.101   0.240  11.206 -1.1331  0.8776  0.2847
 6678SOL     OW31495   0.733   0.735   7.557 -0.0859 -0.6321 -0.0601
 6678SOL    HW131496   0.683   0.718   7.477  2.1779  0.8217 -1.7482
 6678SOL    HW231497   0.823   0.756   7.532 -0.5428  1.1725 -0.1772
 6679SOL     OW31498   1.021   3.634   7.700  0.4824 -0.1073  0.1649
 6679SOL    HW131499   1.039   3.643   7.793 -1.5315 -0.6835  0.5956
 6679SOL    HW231500   0.927   3.618   7.705  0.2067  1.4329 -0.2363
 6680SOL     OW31501   3.707   0.142   5.614 -0.2706  0.4642 -0.0713
 6680SOL    HW131502   3.756   0.062   5.598  0.7797  1.0587  0.1555
 6680SOL    HW231503   3.740   0.164   5.702  0.0191 -2.3730  0.5312
 6681SOL     OW31504   3.018   2.329   4.881 -0.5045  0.1613  0.3350
 6681SOL    HW131505   2.950   2.330   4.949 -0.4896  2.5040  0.3369
 6681SOL    HW231506   3.065   2.250   4.905 -0.7080  0.1519  0.7099
 6682SOL     OW31507   4.645   0.041   2.115 -0.0485  0.2786  0.0449
 6682SOL    HW131508   4.698   0.101   2.168  0.5928  0.8471 -1.2178
 6682SOL    HW231509   4.654   4.686   2.174 -0.7553  0.1717  0.0134
 6683SOL     OW31510   0.660   2.337   7.103 -0.1219  0.2073  0.7974
 6683SOL    HW131511   0.729   2.270   7.111 -2.2620 -1.9032  1.4715
 6683SOL    HW231512   0.703   2.417   7.073 -1.5057  1.4716  2.2414
 6684SOL     OW31513   0.187   4.162  17.489 -0.2513  0.5708  0.3933
 6684SOL    HW131514   0.279   4.146  17.468 -0.7646  2.2375 -3.2040
 6684SOL    HW231515   0.185   4.257  17.498 -0.4287  0.6636 -0.5229
 6685SOL     OW31516   2.336   1.911   5.214  0.2043  0.6066  0.2775
 6685SOL    HW131517   2.247   1.919   5.249 -0.1063  0.6277 -0.5199
 6685SOL    HW231518   2.359   2.002   5.197  2.9797  0.1557  1.6564
 6686SOL     OW31519   4.713   1.623  13.291 -0.7937  0.1582  1.1011
 6686SOL    HW131520   4.719   1.658  13.202 -1.0131  0.0751  1.0539
 6686SOL    HW231521   0.081   1.637  13.327 -0.6308 -0.2588  0.8747
 6687SOL     OW31522   2.293   3.882   1.414  0.0806 -0.0193  0.6253
 6687SOL    HW131523   2.247   3.914   1.336 -1.3361  4.0185  3.1405
 6687SOL    HW231524   2.345   3.958   1.440 -1.2521  0.4846  1.8101
 6688SOL     OW31525   4.111   4.040   4.195  0.4169 -0.3414  0.3166
 6688SOL    HW131526   4.126   4.004   4.108 -0.7731  1.3943 -0.5979
 6688SOL    HW231527   4.107   4.135   4.182  2.5320 -0.2675  0.2170
 6689SOL     OW31528   2.162   4.286  11.174 -0.1422  0.0549  0.3320
 6689SOL    HW131529   2.080   4.325  11.206  0.2377  0.1817  1.1594
 6689SOL    HW231530   2.221   4.350  11.214  0.9088 -2.1437  2.2650
 6690SOL     OW31531   3.858   4.077   7.785 -0.2166 -0.0576  0.3747
 6690SOL    HW131532   3.919   4.012   7.750 -0.9987  0.3427 -1.7600
 6690SOL    HW231533   3.776   4.042   7.750  0.3194 -0.0864 -0.8755
 6691SOL     OW31534   0.224   1.791   2.418 -0.8747  0.1959  0.2076
 6691SOL    HW131535   0.277   1.859   2.460 -1.5025  1.0227 -0.3563
 6691SOL    HW231536   0.230   1.720   2.482  2.3887 -0.2121 -0.5239
 6692SOL     OW31537   3.749   2.625   0.144  0.4206 -0.9579 -0.8732
 6692SOL    HW131538   3.823   2.655   0.197 -0.1759  1.7704 -1.5578
 6692SOL    HW231539   3.784   2.641   0.057  0.0783 -0.1121 -0.8510
 6693SOL     OW31540   3.046   1.635   8.583 -0.9325 -0.0730 -0.4830
 6693SOL    HW131541   3.072   1.695   8.653  0.3225 -2.3393  0.9555
 6693SOL    HW231542   3.102   1.670   8.513  1.7267  1.1168  2.2347
 6694SOL     OW31543   0.133   2.944  15.578  0.2136 -0.7370 -0.0989
 6694SOL    HW131544   0.128   2.854  15.610 -1.1176 -1.0332 -1.1342
 6694SOL    HW231545   0.218   2.946  15.535  1.1432 -0.2852  1.7876
 6695SOL     OW31546   2.502   3.665   9.290 -0.1250  0.5273  0.2885
 6695SOL    HW131547   2.460   3.607   9.227  0.9568 -0.4753  0.4800
 6695SOL    HW231548   2.500   3.601   9.362 -1.1351 -0.3158 -0.4922
 6696SOL     OW31549   2.265   3.681   0.798 -0.5524  0.3157  0.2181
 6696SOL    HW131550   2.182   3.727   0.809  0.6212  3.0526 -2.3421
 6696SOL    HW231551   2.296   3.657   0.885 -1.0145  2.5565  0.9819
 6697SOL     OW31552   1.316   2.863  14.996 -0.2251  0.1203  0.1046
 6697SOL    HW131553   1.227   2.853  15.030 -0.1350  2.4445  0.9864
 6697SOL    HW231554   1.311   2.797  14.926  1.5424 -0.8626  0.8899
 6698SOL     OW31555   1.000   1.559   4.570  0.2686  0.0621  0.4047
 6698SOL    HW131556   0.977   1.612   4.494  0.0841  0.2352  0.5810
 6698SOL    HW231557   0.921   1.505   4.575  2.0499 -2.3807  2.5381
 6699SOL     OW31558   2.424   4.119   1.224 -0.3104 -0.0399  0.0930
 6699SOL    HW131559   2.467   4.099   1.141 -2.5826 -2.6467 -0.4720
 6699SOL    HW231560   2.491   4.175   1.264  0.9900  1.1499 -3.7509
 6700SOL     OW31561   0.871   4.332  12.492 -0.5211 -0.4217 -0.4260
 6700SOL    HW131562   0.827   4.416  12.476  0.3121 -0.0987 -1.0774
 6700SOL    HW231563   0.890   4.330  12.585  1.2129  1.7140 -0.7214
 6701SOL     OW31564   2.475   2.976  12.051  0.5423  0.1469  0.3007
 6701SOL    HW131565   2.560   2.947  12.086 -0.9550 -2.9516  1.3302
 6701SOL    HW231566   2.494   2.989  11.958 -2.4077 -1.0283 -0.4556
 6702SOL     OW31567   3.445   0.783   9.252  0.1144 -0.3375 -0.3533
 6702SOL    HW131568   3.470   0.869   9.284 -1.9151 -0.6517  2.0804
 6702SOL    HW231569   3.363   0.755   9.293 -0.5366  2.1933  0.0622
 6703SOL     OW31570   3.689   4.426   7.618  0.0460  0.2228  0.0528
 6703SOL    HW131571   3.613   4.383   7.656  1.1317 -1.0489  0.7837
 6703SOL    HW231572   3.655   4.507   7.580  1.3387  0.4114 -0.6919
 6704SOL     OW31573   0.101   1.320   7.541 -0.2151  0.2553 -0.3748
 6704SOL    HW131574   0.139   1.381   7.477  1.0884 -0.6736 -0.4968
 6704SOL    HW231575   0.009   1.330   7.519 -0.3654  0.3996  0.3279
 6705SOL     OW31576   3.869   0.437   4.339 -0.2642 -0.3360  0.1269
 6705SOL    HW131577   3.811   0.477   4.273  0.9263 -0.6325 -1.0900
 6705SOL    HW231578   3.877   0.343   4.323 -0.2137 -0.8340  3.1828
 6706SOL     OW31579   4.172   1.466   4.501  0.5359  0.1893  0.0743
 6706SOL    HW131580   4.227   1.418   4.440 -2.3930 -1.5756 -1.2061
 6706SOL    HW231581   4.126   1.392   4.540  0.5525  0.2386  0.1873
 6707SOL     OW31582   0.622   4.590  17.002  0.1755 -0.0221 -0.1209
 6707SOL    HW131583   0.537   4.557  16.974  1.2429  0.5897 -4.0747
 6707SOL    HW231584   0.677   4.512  17.001 -1.5285 -1.2256  0.9454
 6708SOL     OW31585   3.757   3.421   5.813  0.0047  0.3734  0.0581
 6708SOL    HW131586   3.716   3.380   5.737  1.0503 -0.2493 -0.1763
 6708SOL    HW231587   3.736   3.515   5.810  1.9209  0.7692 -1.1415
 6709SOL     OW31588   1.018   4.399   8.939  0.1192  0.2275 -0.1988
 6709SOL    HW131589   0.925   4.421   8.945  0.6943  2.7060 -0.5545
 6709SOL    HW231590   1.041   4.492   8.942 -0.9997  0.5330 -1.2317
 6710SOL     OW31591   3.676   2.623   7.171 -0.1229 -0.2008  0.0445
 6710SOL    HW131592   3.685   2.544   7.225  0.4588 -0.9621 -1.1605
 6710SOL    HW231593   3.753   2.607   7.117  0.6978  0.5403  0.9731
 6711SOL     OW31594   2.393   0.844   2.856 -0.0623  0.3935 -0.3489
 6711SOL    HW131595   2.363   0.881   2.940 -0.4002 -0.2494 -0.1882
 6711SOL    HW231596   2.392   0.921   2.800  0.4793  0.3648 -0.3947
 6712SOL     OW31597   0.640   3.743   8.161 -0.2550 -0.2215 -0.3667
 6712SOL    HW131598   0.595   3.736   8.245  0.9878 -0.2183  0.3136
 6712SOL    HW231599   0.734   3.742   8.182 -0.4256 -2.1111  0.2889
 6713SOL     OW31600   3.859   2.120  11.090 -0.2597 -0.5450 -0.0800
 6713SOL    HW131601   3.901   2.107  11.005 -0.3745  1.8566 -0.5109
 6713SOL    HW231602   3.937   2.114  11.145 -2.4819  0.8488  3.2519
 6714SOL     OW31603   0.424   0.725   5.557  0.4666 -0.4371 -0.2089
 6714SOL    HW131604   0.470   0.707   5.640  2.8560  0.6980 -1.2786
 6714SOL    HW231605   0.408   0.819   5.571  1.0293 -0.3772  0.0600
 6715SOL     OW31606   3.982   3.497  13.576  0.2699 -0.6011 -1.0024
 6715SOL    HW131607   4.052   3.524  13.635 -1.1932 -2.2248  1.4887
 6715SOL    HW231608   3.901   3.489  13.627  1.7936 -3.0217  1.0543
 6716SOL     OW31609   4.367   4.071   1.274 -0.0845  0.3021 -0.0176
 6716SOL    HW131610   4.396   4.160   1.256  0.8719  0.1379  0.7025
 6716SOL    HW231611   4.280   4.096   1.304  0.5516  0.6592  1.5593
 6717SOL     OW31612   0.844   3.107   5.663  0.2455 -0.6649 -0.0167
 6717SOL    HW131613   0.811   3.022   5.633 -2.3346  0.4211 -0.3003
 6717SOL    HW231614   0.890   3.137   5.585 -0.8954  0.1775 -0.3612
 6718SOL     OW31615   0.098   0.216   7.896 -0.0629 -0.0561  0.0248
 6718SOL    HW131616   0.188   0.245   7.884  0.2135 -0.8380  0.2056
 6718SOL    HW231617   0.050   0.261   7.826 -0.4206 -1.2991 -0.5377
 6719SOL     OW31618   4.630   4.017   4.612  0.3765 -0.1170 -0.3757
 6719SOL    HW131619   4.558   3.956   4.594  1.7579 -2.1086  0.8330
 6719SOL    HW231620   4.706   3.962   4.597  1.9651  1.9081  0.2441
 6720SOL     OW31621   1.621   4.453   2.652  0.1547  0.2846  0.1666
 6720SOL    HW131622   1.667   4.384   2.700 -1.2730 -0.2180  0.8143
 6720SOL    HW231623   1.650   4.426   2.565  0.3405  2.1079 -0.3310
 6721SOL     OW31624   1.203   2.979   2.011 -0.2243  0.2600  0.7005
 6721SOL    HW131625   1.284   3.030   2.000  0.3868 -0.7400  0.6383
 6721SOL    HW231626   1.157   3.031   2.078  1.0938 -0.4670  2.1764
 6722SOL     OW31627   0.235   0.503  10.112  0.3574  0.2956 -0.4501
 6722SOL    HW131628   0.210   0.440  10.179 -1.5224 -0.4896 -1.8911
 6722SOL    HW231629   0.168   0.570  10.125 -1.0386 -1.0606 -0.7256
 6723SOL     OW31630   0.698   3.938   5.439  0.2976  0.2090 -0.3643
 6723SOL    HW131631   0.667   3.923   5.528  0.6586 -1.5121 -0.5130
 6723SOL    HW231632   0.671   3.854   5.401  1.9831 -0.5707  0.1386
 6724SOL     OW31633   1.486   1.514   3.307 -0.6768 -0.2973  0.2168
 6724SOL    HW131634   1.435   1.593   3.321  1.0723  1.0773 -1.1536
 6724SOL    HW231635   1.534   1.511   3.390  0.1043 -1.8331 -0.2900
 6725SOL     OW31636   3.515   3.824  11.877  0.2307  0.6619  0.7395
 6725SOL    HW131637   3.431   3.802  11.917  0.9281 -3.7104 -0.1458
 6725SOL    HW231638   3.572   3.819  11.954  0.2739  0.0449  0.6705
 6726SOL     OW31639   3.459   1.527   8.968 -0.3253  0.2466 -0.2213
 6726SOL    HW131640   3.553   1.507   8.964 -0.6536 -1.3633  0.4227
 6726SOL    HW231641   3.439   1.486   9.052  2.3300  0.9701  0.7650
 6727SOL     OW31642   1.165   1.940  16.875  0.5429  0.0638  0.0581
 6727SOL    HW131643   1.177   2.033  16.857  0.3332  0.4347  1.7672
 6727SOL    HW231644   1.145   1.937  16.969 -1.8086  0.6532 -0.4246
 6728SOL     OW31645   1.887   1.291   8.125  0.3914  0.1662 -1.0829
 6728SOL    HW131646   1.820   1.228   8.150  0.7630  1.6854  3.6561
 6728SOL    HW231647   1.841   1.374   8.138  1.7876  0.7746  0.0555
 6729SOL     OW31648   4.100   2.374   2.394  0.4247 -0.3545  0.5186
 6729SOL    HW131649   4.119   2.458   2.435 -2.7451  0.6976 -0.1513
 6729SOL    HW231650   4.158   2.363   2.319  1.8218  1.7783  1.3165
 6730SOL     OW31651   3.097   2.595   6.526  0.0240 -0.3428 -0.1967
 6730SOL    HW131652   3.018   2.647   6.539  0.4228  0.2122 -0.0188
 6730SOL    HW231653   3.100   2.572   6.433 -0.7411  1.0326 -0.5568
 6731SOL     OW31654   1.062   1.015  11.356 -0.1265  0.0266  0.1800
 6731SOL    HW131655   1.001   0.944  11.376  0.9318  0.0107  3.2559
 6731SOL    HW231656   1.001   1.087  11.338 -0.8641 -0.9406 -1.1780
 6732SOL     OW31657   2.094   4.149   3.485 -0.1353  0.2633  0.6419
 6732SOL    HW131658   2.171   4.131   3.540  0.5728 -0.6821 -0.6669
 6732SOL    HW231659   2.136   4.208   3.422  1.8897 -1.6509  0.1917
 6733SOL     OW31660   3.917   3.372  16.336  0.3336 -0.2248 -0.0987
 6733SOL    HW131661   4.006   3.347  16.362  1.1750  2.9991  0.1831
 6733SOL    HW231662   3.907   3.453  16.386 -0.4533 -0.8603  0.7894
 6734SOL     OW31663   3.359   2.804   7.968 -0.0370 -0.1619  0.4168
 6734SOL    HW131664   3.389   2.749   7.895  0.1162  0.2481  0.1662
 6734SOL    HW231665   3.273   2.772   7.995  0.0515 -0.9148 -0.1950
 6735SOL     OW31666   2.324   3.832   6.369  0.1854 -0.1173  0.0805
 6735SOL    HW131667   2.418   3.827   6.390  0.2709 -1.5464 -0.6029
 6735SOL    HW231668   2.296   3.747   6.404 -0.6317 -0.1021 -0.5345
 6736SOL     OW31669   1.609   3.956  15.188 -0.6883  0.3474  0.2622
 6736SOL    HW131670   1.662   4.012  15.244 -0.8785  0.9283 -0.1440
 6736SOL    HW231671   1.527   3.995  15.218 -1.6434 -1.8189  0.5094
 6737SOL     OW31672   4.266   0.738   6.978  0.1069 -0.3245  0.2291
 6737SOL    HW131673   4.263   0.645   6.956  0.7813 -0.4922  0.8763
 6737SOL    HW231674   4.246   0.744   7.071 -1.3214 -1.1381 -0.0274
 6738SOL     OW31675   3.664   4.684   7.531 -0.4859 -0.0939  0.0168
 6738SOL    HW131676   3.753   4.675   7.496 -0.7708 -0.8480 -0.5174
 6738SOL    HW231677   3.619   0.011   7.460  1.8119  1.5299 -0.3806
 6739SOL     OW31678   3.402   2.166  12.143  0.5903 -0.1239  0.1827
 6739SOL    HW131679   3.342   2.221  12.193  0.1515 -0.0269 -0.4374
 6739SOL    HW231680   3.429   2.098  12.205  0.6356 -0.9448 -0.7294
 6740SOL     OW31681   2.098   4.703   4.245 -0.2134  0.2442  0.2374
 6740SOL    HW131682   2.070   0.074   4.228 -0.4332  0.1709  0.2046
 6740SOL    HW231683   2.115   4.673   4.156  2.3654  2.8785 -0.1473
 6741SOL     OW31684   3.891   3.773   7.693 -0.3845  0.1276 -0.0795
 6741SOL    HW131685   3.895   3.722   7.774 -0.2752  0.1804 -0.0506
 6741SOL    HW231686   3.832   3.726   7.634 -0.7694  1.8488 -1.0594
 6742SOL     OW31687   4.674   3.849   3.668  0.3898 -0.3699  0.1871
 6742SOL    HW131688   4.596   3.800   3.640 -0.2450 -0.0347  1.3335
 6742SOL    HW231689   0.019   3.820   3.604 -0.7254  0.8898 -1.4908
 6743SOL     OW31690   4.478   3.326   5.853  0.0410  0.2037  0.1815
 6743SOL    HW131691   4.415   3.258   5.827  1.1211 -0.1511 -1.5049
 6743SOL    HW231692   4.423   3.404   5.857  0.0426  0.3469 -2.5947
 6744SOL     OW31693   3.788   4.349   3.439  0.6289 -0.3852 -0.6877
 6744SOL    HW131694   3.816   4.258   3.450 -2.7773 -1.1542  1.5599
 6744SOL    HW231695   3.869   4.398   3.453 -0.9300  1.0290  3.5711
 6745SOL     OW31696   3.609   3.857  17.071  0.0148  0.2414  0.0119
 6745SOL    HW131697   3.539   3.866  17.135  1.4269 -0.3421  1.6243
 6745SOL    HW231698   3.645   3.946  17.065 -0.7677  0.1903 -5.3134
 6746SOL     OW31699   1.911   2.567   0.524 -0.6199 -0.4831 -0.1171
 6746SOL    HW131700   1.897   2.660   0.509 -2.7609 -0.5716  1.3717
 6746SOL    HW231701   1.883   2.556   0.615  3.4865  0.5001  1.3033
 6747SOL     OW31702   0.365   2.910   8.768  0.1759 -0.4236 -0.4998
 6747SOL    HW131703   0.309   2.838   8.739 -2.6749  1.1507  1.0801
 6747SOL    HW231704   0.356   2.906   8.863  1.7498 -1.6156 -0.4131
 6748SOL     OW31705   1.769   4.206   6.133 -0.1103  0.6418 -0.0735
 6748SOL    HW131706   1.708   4.135   6.153  0.5856  0.3687  1.0602
 6748SOL    HW231707   1.804   4.183   6.047  1.5626 -0.4515  0.9151
 6749SOL     OW31708   3.522   1.579   6.849 -0.1867  0.3323 -0.5074
 6749SOL    HW131709   3.602   1.535   6.879  0.6282  0.6469 -2.2151
 6749SOL    HW231710   3.489   1.509   6.793  1.5491 -0.7622 -0.1881
 6750SOL     OW31711   0.986   1.373   5.701 -0.4115 -0.0698  0.1359
 6750SOL    HW131712   0.908   1.423   5.724 -0.0032  0.7616 -0.3030
 6750SOL    HW231713   0.991   1.414   5.615 -0.7872  1.2552  0.7455
 6751SOL     OW31714   4.207   4.205   2.330 -0.0940 -0.4612  0.1137
 6751SOL    HW131715   4.222   4.292   2.293  0.6118 -0.9819 -0.8043
 6751SOL    HW231716   4.119   4.216   2.365 -0.0267  2.0014 -0.4612
 6752SOL     OW31717   2.318   2.976  11.313 -0.0534 -0.0353 -0.1475
 6752SOL    HW131718   2.288   3.029  11.240  1.3915  2.0328  0.7364
 6752SOL    HW231719   2.282   2.892  11.286  2.3566 -1.0708 -0.1108
 6753SOL     OW31720   3.119   4.503   0.880  0.6332  0.2025 -0.1617
 6753SOL    HW131721   3.134   4.556   0.801  1.5504 -1.4835 -1.1309
 6753SOL    HW231722   3.121   4.415   0.843 -2.9180  0.1464 -0.1829
 6754SOL     OW31723   4.596   2.122  12.733  0.3243 -0.3727  0.5432
 6754SOL    HW131724   4.551   2.041  12.712  0.4078  0.0256 -1.1464
 6754SOL    HW231725   4.645   2.142  12.654  1.7427 -0.6659  1.3425
 6755SOL     OW31726   2.940   0.316   2.202  0.1845  0.6386  0.2061
 6755SOL    HW131727   2.983   0.366   2.132 -0.1494  0.3229 -0.2281
 6755SOL    HW231728   2.848   0.332   2.178 -0.1811  1.1990  2.0144
 6756SOL     OW31729   3.587   0.537   9.091 -0.1594 -0.0082  0.1494
 6756SOL    HW131730   3.536   0.578   9.161  0.7469 -1.4924  1.6724
 6756SOL    HW231731   3.523   0.528   9.020  1.4080 -2.4866 -0.9212
 6757SOL     OW31732   3.808   0.040  12.576  0.3000  0.2215 -0.0356
 6757SOL    HW131733   3.875   4.693  12.558 -0.3172 -0.0885 -1.1752
 6757SOL    HW231734   3.858   0.118  12.601  1.9916 -1.5194  2.0342
 6758SOL     OW31735   1.885   2.800  16.472  0.5258  0.2781 -0.2334
 6758SOL    HW131736   1.798   2.767  16.448  1.5182 -0.6338 -2.4738
 6758SOL    HW231737   1.911   2.730  16.532 -2.1722 -0.2873  0.2666
 6759SOL     OW31738   4.046   0.333   8.338  0.0755  0.0961 -0.0422
 6759SOL    HW131739   4.027   0.426   8.326  1.4977  0.6912  2.2692
 6759SOL    HW231740   4.106   0.321   8.264 -1.5396  0.4268 -1.3998
 6760SOL     OW31741   3.041   3.648   4.494  0.4432 -0.1818 -0.4195
 6760SOL    HW131742   3.106   3.704   4.536 -0.6371  0.3955  0.4875
 6760SOL    HW231743   3.052   3.561   4.532  0.3561 -0.0756 -0.1529
 6761SOL     OW31744   4.131   3.523   3.135  0.4011  0.7513 -0.0765
 6761SOL    HW131745   4.170   3.598   3.090 -1.3214  0.4821 -2.0235
 6761SOL    HW231746   4.186   3.446   3.121  3.6038  3.4761 -2.5007
 6762SOL     OW31747   0.982   0.430   4.187  0.4231  0.1945  0.0819
 6762SOL    HW131748   0.903   0.417   4.239  0.6494 -1.6774 -0.0613
 6762SOL    HW231749   1.005   0.341   4.161 -3.2011 -0.8499  0.5367
 6763SOL     OW31750   4.534   2.443  12.153 -0.3637  0.5872  0.1225
 6763SOL    HW131751   4.454   2.494  12.141  0.3713  1.0589 -2.6475
 6763SOL    HW231752   4.532   2.396  12.070 -0.4764 -0.4960  0.7296
 6764SOL     OW31753   4.135   3.378   7.933  0.1612  0.4085  0.3118
 6764SOL    HW131754   4.121   3.321   7.857 -1.0569  0.3147  0.6021
 6764SOL    HW231755   4.208   3.436   7.915 -1.1123  1.3167 -1.9277
 6765SOL     OW31756   2.566   3.716  10.948 -0.0803 -0.5247  0.4151
 6765SOL    HW131757   2.659   3.737  10.943 -0.2074 -0.1717 -0.5276
 6765SOL    HW231758   2.521   3.801  10.950  4.5927  1.9295  0.9824
 6766SOL     OW31759   3.752   0.647  15.228  0.0763  0.2744  0.0608
 6766SOL    HW131760   3.783   0.726  15.272  1.5581  0.6154 -1.6378
 6766SOL    HW231761   3.837   0.610  15.202 -0.0844  1.7756 -2.5704
 6767SOL     OW31762   4.638   0.262   6.829  0.1225 -0.3104 -0.0352
 6767SOL    HW131763   4.636   0.346   6.783 -2.3929 -0.4431 -0.1907
 6767SOL    HW231764   4.605   0.210   6.756 -0.8641  2.0940 -1.3245
 6768SOL     OW31765   3.820   1.300   7.492  0.1011  0.7063 -0.0869
 6768SOL    HW131766   3.779   1.264   7.571  0.8747  0.4079  0.1846
 6768SOL    HW231767   3.820   1.393   7.517  1.4103  0.6418  0.1643
 6769SOL     OW31768   0.130   0.891   5.877 -0.6695 -0.3467 -0.0915
 6769SOL    HW131769   0.225   0.895   5.873 -0.7501  1.7404  0.6488
 6769SOL    HW231770   0.119   0.910   5.970 -0.1880 -0.9692  0.0899
 6770SOL     OW31771   4.030   3.632   1.472  0.4020  0.0637 -0.0609
 6770SOL    HW131772   4.095   3.567   1.501  0.0167  0.6400  2.1087
 6770SOL    HW231773   3.955   3.572   1.479  0.2380  0.0562 -1.8862
 6771SOL     OW31774   0.372   4.598   1.649 -0.1611  0.0046 -0.2985
 6771SOL    HW131775   0.366   4.674   1.591  3.2923 -0.0352 -0.6937
 6771SOL    HW231776   0.280   4.571   1.653 -0.2748 -0.0875 -3.3485
 6772SOL     OW31777   3.508   2.761  15.070 -0.2069  0.3059  0.2920
 6772SOL    HW131778   3.455   2.832  15.036 -0.2903 -0.7289 -1.7262
 6772SOL    HW231779   3.445   2.690  15.057  0.4344 -0.0089 -1.1124
 6773SOL     OW31780   4.179   0.686   3.292 -0.3995 -0.5863 -0.7135
 6773SOL    HW131781   4.199   0.619   3.357  0.9935 -1.2025 -1.7741
 6773SOL    HW231782   4.126   0.637   3.229 -1.8684 -2.1266  1.7046
 6774SOL     OW31783   2.303   2.124  10.938 -0.0834  0.8388  0.2202
 6774SOL    HW131784   2.310   2.218  10.950  1.0069  0.3779  2.9729
 6774SOL    HW231785   2.359   2.119  10.860 -1.4201 -1.1135 -0.6392
 6775SOL     OW31786   0.407   2.658   5.853 -0.2384  0.4648  0.1354
 6775SOL    HW131787   0.408   2.737   5.799  3.2857  0.5880  0.3982
 6775SOL    HW231788   0.314   2.637   5.844 -0.5111  0.7958  2.0019
 6776SOL     OW31789   3.349   0.380   4.778  0.1098  0.1177 -0.4711
 6776SOL    HW131790   3.401   0.366   4.699  2.0670  0.2883  0.7918
 6776SOL    HW231791   3.402   0.448   4.819  2.7523 -2.4245  0.3770
 6777SOL     OW31792   3.985   0.437   5.846  0.5687  0.5600 -0.1687
 6777SOL    HW131793   4.074   0.471   5.862  0.5242  1.3428 -1.6261
 6777SOL    HW231794   4.000   0.353   5.889 -1.2601 -0.4760 -1.5638
 6778SOL     OW31795   1.142   3.405  17.079  0.2631 -0.0534 -0.2298
 6778SOL    HW131796   1.179   3.318  17.063  0.1395 -0.5586  2.2318
 6778SOL    HW231797   1.159   3.406  17.173  0.7155  0.7196 -0.3153
 6779SOL     OW31798   3.067   3.401  10.829  0.0042 -0.1689  0.3895
 6779SOL    HW131799   3.142   3.369  10.780 -0.0285  1.1956 -0.5438
 6779SOL    HW231800   3.034   3.321  10.870  0.1850  1.6380  4.0409
 6780SOL     OW31801   0.398   2.339   8.483 -0.5244  0.0274 -0.3457
 6780SOL    HW131802   0.432   2.309   8.567 -0.6354  0.5029 -0.1306
 6780SOL    HW231803   0.303   2.332   8.489 -0.3224  0.5673  3.5208
 6781SOL     OW31804   0.903   4.569   4.391 -0.8643  0.6558 -0.1394
 6781SOL    HW131805   0.924   4.636   4.456  2.4888 -0.4561 -0.0699
 6781SOL    HW231806   0.884   4.488   4.438 -1.8580  1.4988  0.9063
 6782SOL     OW31807   0.596   1.360  10.960 -0.7232  0.7274  0.3991
 6782SOL    HW131808   0.629   1.443  10.924  0.0691 -1.0971 -3.0712
 6782SOL    HW231809   0.567   1.316  10.880 -0.2246 -1.3009  1.3518
 6783SOL     OW31810   0.904   2.553   5.638 -0.6766 -0.4127  0.5594
 6783SOL    HW131811   0.893   2.463   5.670 -0.0616 -0.7234 -0.1121
 6783SOL    HW231812   0.967   2.544   5.567  0.2866 -2.1203  1.6324
 6784SOL     OW31813   1.485   2.293   1.815  0.0755 -0.4499  0.2465
 6784SOL    HW131814   1.490   2.229   1.745  0.4350 -1.2005  0.9568
 6784SOL    HW231815   1.399   2.272   1.854 -0.8106  0.0285 -1.4533
 6785SOL     OW31816   2.625   1.536   7.417  0.0971  0.4148 -0.3244
 6785SOL    HW131817   2.608   1.506   7.328  0.4977  3.4037 -1.4174
 6785SOL    HW231818   2.535   1.539   7.450  0.7903 -0.7974  1.6672
 6786SOL     OW31819   2.805   0.942   5.485  0.3418  0.6004  0.2267
 6786SOL    HW131820   2.760   1.026   5.496  0.3377  0.3991  1.7310
 6786SOL    HW231821   2.888   0.965   5.444 -0.6707  0.8647 -1.6796
 6787SOL     OW31822   2.344   3.556   9.953  0.3826  0.0316 -0.1761
 6787SOL    HW131823   2.305   3.569   9.866  0.6270 -0.2735 -0.3314
 6787SOL    HW231824   2.291   3.483   9.985  0.1523 -0.9611 -2.8190
 6788SOL     OW31825   1.435   0.733   5.045  0.2055 -0.0718 -0.3657
 6788SOL    HW131826   1.445   0.799   4.976 -1.9081 -0.1674 -0.7740
 6788SOL    HW231827   1.468   0.657   4.997  1.6384  0.2290  0.1403
 6789SOL     OW31828   4.625   1.530   9.171 -0.7833  0.5468  0.1170
 6789SOL    HW131829   4.654   1.534   9.079 -1.1683 -0.1592 -0.0390
 6789SOL    HW231830   4.531   1.533   9.154 -0.5222 -1.3763 -1.7332
 6790SOL     OW31831   1.571   4.128   5.300 -0.3567 -0.3004 -0.1208
 6790SOL    HW131832   1.610   4.043   5.321  0.3782  0.1600  0.3771
 6790SOL    HW231833   1.609   4.158   5.218 -0.4125 -1.8725 -0.7176
 6791SOL     OW31834   3.693   0.915  14.897 -0.5473  0.0983  0.3813
 6791SOL    HW131835   3.647   0.951  14.973  1.6393  0.5309  1.4947
 6791SOL    HW231836   3.714   0.995  14.849 -1.3584  0.7017  1.0425
 6792SOL     OW31837   3.603   2.521   3.682 -0.3373  0.2508 -0.8817
 6792SOL    HW131838   3.558   2.581   3.741  2.3199 -1.2255  2.6920
 6792SOL    HW231839   3.658   2.591   3.646  0.7914 -0.2811 -0.2170
 6793SOL     OW31840   3.187   0.057   6.205 -0.1069 -0.1648 -0.5165
 6793SOL    HW131841   3.263   0.027   6.255 -0.5333 -1.7964 -0.8260
 6793SOL    HW231842   3.226   0.107   6.134  3.0579 -0.2748  1.1607
 6794SOL     OW31843   1.076   1.233   7.386  0.4045  0.1761 -0.2998
 6794SOL    HW131844   0.982   1.248   7.376  0.6020  2.3810  1.2237
 6794SOL    HW231845   1.090   1.260   7.477  0.5855 -1.1567  0.0737
 6795SOL     OW31846   2.847   1.084   5.722 -0.1241  0.0769  0.4042
 6795SOL    HW131847   2.771   1.033   5.747 -0.3267 -0.0578 -0.4781
 6795SOL    HW231848   2.869   1.046   5.637  1.6607 -2.6099  2.0869
 6796SOL     OW31849   3.415   1.776   9.368 -0.0659  0.4754 -0.0868
 6796SOL    HW131850   3.358   1.792   9.292 -0.1175  3.4989  0.5619
 6796SOL    HW231851   3.403   1.856   9.419 -0.8635 -0.1351  0.6835
 6797SOL     OW31852   1.827   3.987   4.485  0.6213  0.3022  0.1227
 6797SOL    HW131853   1.896   3.985   4.552  1.0483  0.6025 -0.3093
 6797SOL    HW231854   1.800   4.078   4.474  2.1784  0.6938 -0.4634
 6798SOL     OW31855   1.871   2.635   6.687  0.1462  0.2678 -0.3877
 6798SOL    HW131856   1.916   2.591   6.615  1.2960 -1.4479  1.3866
 6798SOL    HW231857   1.786   2.647   6.645  0.3647 -0.2428 -0.9742
 6799SOL     OW31858   1.321   1.211   4.663  0.2221 -0.0328 -0.1314
 6799SOL    HW131859   1.252   1.251   4.715  1.0747 -0.0727  1.0174
 6799SOL    HW231860   1.395   1.269   4.681 -0.5959  0.9009  0.1994
 6800SOL     OW31861   1.966   0.493   6.318  0.6237 -0.2295 -0.0976
 6800SOL    HW131862   2.037   0.436   6.349  0.3877 -0.2307  0.4359
 6800SOL    HW231863   1.987   0.505   6.226  0.6172 -1.4882 -0.2687
 6801SOL     OW31864   1.535   4.172   4.345  0.2852  0.0584  0.5392
 6801SOL    HW131865   1.472   4.177   4.273  1.0671  1.9810  0.0018
 6801SOL    HW231866   1.610   4.151   4.289 -0.1255 -2.4805  0.9426
 6802SOL     OW31867   2.863   3.112   2.223  0.4305 -0.1479  0.0320
 6802SOL    HW131868   2.954   3.081   2.225  0.6656  0.5139 -1.0907
 6802SOL    HW231869   2.810   3.033   2.235 -0.0695  0.1074 -0.5139
 6803SOL     OW31870   3.802   0.306  17.482  0.3175 -0.3614  0.0294
 6803SOL    HW131871   3.799   0.326  17.388  0.8479  0.6146  0.2254
 6803SOL    HW231872   3.797   0.210  17.479  0.1068 -0.3830  1.2327
 6804SOL     OW31873   2.700   3.458  12.629  0.3876  0.0273  0.0911
 6804SOL    HW131874   2.663   3.531  12.680  0.4327 -0.3146  0.6197
 6804SOL    HW231875   2.763   3.511  12.580 -0.4947 -0.3163 -1.3974
 6805SOL     OW31876   0.433   1.261   8.416  0.8034 -0.2304  0.1266
 6805SOL    HW131877   0.345   1.299   8.425 -1.2880 -5.0254  0.1397
 6805SOL    HW231878   0.422   1.169   8.392 -0.4418  0.1498 -0.7391
 6806SOL     OW31879   1.728   1.822  10.620 -0.4552  0.7362 -0.0158
 6806SOL    HW131880   1.675   1.747  10.593 -0.1297  1.2794 -2.2091
 6806SOL    HW231881   1.793   1.824  10.549  1.0231  2.2208  1.3667
 6807SOL     OW31882   3.312   0.813   1.018 -0.0908  0.2360 -0.1325
 6807SOL    HW131883   3.345   0.791   1.105 -0.5426 -1.8149 -0.4663
 6807SOL    HW231884   3.260   0.734   1.000  1.1387 -0.5601 -0.1798
 6808SOL     OW31885   2.888   1.319   2.957 -0.0440  0.3716 -0.0629
 6808SOL    HW131886   2.974   1.332   2.916 -0.0852  0.7176 -0.0396
 6808SOL    HW231887   2.886   1.383   3.028 -0.8197  0.1256  0.1298
 6809SOL     OW31888   0.968   3.482  14.882  0.6962 -0.2638 -0.1550
 6809SOL    HW131889   0.964   3.387  14.868  0.0096 -0.3644  0.7335
 6809SOL    HW231890   0.958   3.503  14.789  2.2520 -2.8059 -0.9060
 6810SOL     OW31891   1.950   3.872   0.075 -0.0942  0.4790 -0.4522
 6810SOL    HW131892   2.020   3.863   0.011  0.0457  1.6603 -0.4499
 6810SOL    HW231893   1.904   3.788   0.073  0.0092  0.5003 -3.3507
 6811SOL     OW31894   2.848   4.253  15.890 -0.2470 -0.3822  0.2237
 6811SOL    HW131895   2.829   4.322  15.826 -1.6520 -0.9970 -0.0069
 6811SOL    HW231896   2.931   4.219  15.858  0.9424  1.3912  1.4003
 6812SOL     OW31897   2.422   2.259   6.937  0.3674 -0.0083  0.6656
 6812SOL    HW131898   2.347   2.202   6.923 -0.0173  0.5153  0.6036
 6812SOL    HW231899   2.454   2.286   6.851 -0.9644  0.2310  0.2509
 6813SOL     OW31900   2.526   3.175   8.246  0.8516 -0.6939  0.3939
 6813SOL    HW131901   2.592   3.112   8.277  0.5107 -1.1995  0.0977
 6813SOL    HW231902   2.473   3.114   8.194  1.4892  0.0927 -1.1609
 6814SOL     OW31903   0.393   0.975   8.306 -0.0519 -0.0591 -0.3274
 6814SOL    HW131904   0.406   1.007   8.217  0.1119  0.0506 -0.2652
 6814SOL    HW231905   0.427   0.886   8.300  1.2352  0.4186 -0.2534
 6815SOL     OW31906   3.798   4.617   2.718  0.0860  0.0688  0.4692
 6815SOL    HW131907   3.821   4.684   2.783  0.6466 -0.6265  0.9862
 6815SOL    HW231908   3.704   4.636   2.725  0.4763  2.5758 -0.7851
 6816SOL     OW31909   0.068   3.464   3.643 -0.5084  0.4131  0.1750
 6816SOL    HW131910   4.701   3.504   3.629 -0.3695  0.4160 -0.6846
 6816SOL    HW231911   0.114   3.499   3.567  1.8105 -3.0640 -0.0230
 6817SOL     OW31912   3.366   3.977  10.067 -0.5632 -0.1972 -0.4440
 6817SOL    HW131913   3.316   3.912  10.116 -0.7170 -0.3126 -0.7557
 6817SOL    HW231914   3.360   3.934   9.981 -1.7545  1.7410 -1.3362
 6818SOL     OW31915   4.327   1.123   8.089 -0.3503 -0.3300  0.2255
 6818SOL    HW131916   4.373   1.206   8.100 -1.5184  0.1067  1.8358
 6818SOL    HW231917   4.234   1.143   8.097  0.2510  1.7669  1.7810
 6819SOL     OW31918   1.754   0.355   5.190 -0.2838 -0.0703 -0.0079
 6819SOL    HW131919   1.804   0.435   5.178 -0.9395  0.2210 -0.8643
 6819SOL    HW231920   1.790   0.315   5.269 -0.6589  1.7894  1.0833
 6820SOL     OW31921   3.103   0.936   0.680 -0.2647 -0.3366  0.2740
 6820SOL    HW131922   3.032   0.983   0.637  0.5032 -1.2766 -2.0241
 6820SOL    HW231923   3.084   0.843   0.666 -1.0600 -0.3873  1.6534
 6821SOL     OW31924   0.639   1.383  17.015  0.2220 -0.5398  0.2931
 6821SOL    HW131925   0.616   1.396  17.107 -0.3301  1.2548 -0.0850
 6821SOL    HW231926   0.554   1.365  16.976  0.0876 -1.3828  0.9758
 6822SOL     OW31927   1.432   1.943   0.694  0.9852  0.3631 -0.3306
 6822SOL    HW131928   1.391   1.942   0.608 -0.6170  0.7390  0.4325
 6822SOL    HW231929   1.454   2.036   0.703  4.6939 -0.4684 -0.7636
 6823SOL     OW31930   4.303   1.955   1.471 -0.0783  0.6664 -0.4003
 6823SOL    HW131931   4.322   2.021   1.405 -1.3297  1.1683 -0.2652
 6823SOL    HW231932   4.247   1.902   1.415  0.2405  1.9113 -1.9033
 6824SOL     OW31933   0.899   3.180  17.463  1.0763 -0.1075  0.3789
 6824SOL    HW131934   0.811   3.217  17.472  0.3587 -1.6685 -0.1340
 6824SOL    HW231935   0.879   3.135  17.381  0.2019 -0.1634  0.6208
 6825SOL     OW31936   0.402   1.482   7.115 -0.4330 -0.7271  0.1968
 6825SOL    HW131937   0.409   1.502   7.208  0.6655 -2.3006  0.4622
 6825SOL    HW231938   0.488   1.509   7.083 -0.3547 -0.8213  0.3294
 6826SOL     OW31939   2.102   4.073   2.826  0.1170 -0.1030 -0.2950
 6826SOL    HW131940   2.115   3.978   2.824 -0.0883 -0.1714  1.0416
 6826SOL    HW231941   2.011   4.057   2.851 -0.3256 -0.4850 -2.1656
 6827SOL     OW31942   1.849   2.366   7.245 -0.0258  0.3297 -0.4991
 6827SOL    HW131943   1.819   2.455   7.266 -1.2403 -0.1327 -0.2678
 6827SOL    HW231944   1.768   2.316   7.255  0.6023 -0.4686  0.6818
 6828SOL     OW31945   1.513   3.353  10.037 -0.2515 -0.1794 -0.0476
 6828SOL    HW131946   1.462   3.331   9.959 -2.5772 -0.8067  1.6733
 6828SOL    HW231947   1.600   3.340   9.999 -1.3094 -0.8165 -2.2785
 6829SOL     OW31948   0.006   4.429   4.547  0.1809  0.1224  0.1469
 6829SOL    HW131949   0.074   4.490   4.517  1.6873 -1.1571  0.9665
 6829SOL    HW231950   4.658   4.488   4.581  1.1389  1.2218  0.1760
 6830SOL     OW31951   0.080   0.596   7.589 -0.7178  0.0689  0.1189
 6830SOL    HW131952   0.165   0.618   7.629 -1.1814 -0.3296  1.3295
 6830SOL    HW231953   0.076   0.502   7.601  2.2339  0.0145  0.7148
 6831SOL     OW31954   3.091   4.439  12.718  1.0466  0.0972 -0.2377
 6831SOL    HW131955   3.135   4.503  12.662  0.4911  1.6331  1.0591
 6831SOL    HW231956   3.163   4.387  12.756  0.6145  0.4352  1.0436
 6832SOL     OW31957   4.453   0.582  14.116  0.6269 -0.6806 -0.2378
 6832SOL    HW131958   4.373   0.632  14.129  0.0349 -1.1420 -2.0575
 6832SOL    HW231959   4.442   0.498  14.162 -1.5914  1.2574  2.7143
 6833SOL     OW31960   1.007   3.912   7.934  0.6387  0.2031  0.1646
 6833SOL    HW131961   1.004   3.818   7.952  1.8421 -0.3501 -2.4867
 6833SOL    HW231962   1.100   3.932   7.942  0.6571  0.1526  0.0846
 6834SOL     OW31963   1.535   2.832   8.814  0.1887  0.6614  0.4909
 6834SOL    HW131964   1.601   2.767   8.838  0.1156  0.6055  0.5396
 6834SOL    HW231965   1.517   2.865   8.902 -2.0314  0.7481 -0.0049
 6835SOL     OW31966   1.133   0.445   9.022 -0.5504  0.3085  0.4621
 6835SOL    HW131967   1.139   0.541   9.018  0.2776  0.2943  1.3990
 6835SOL    HW231968   1.210   0.427   9.076 -0.3930  0.7579  0.3879
 6836SOL     OW31969   4.036   2.694  16.543  0.0724  0.0244  0.8435
 6836SOL    HW131970   4.087   2.618  16.513 -1.6273  0.1955 -2.4338
 6836SOL    HW231971   3.986   2.726  16.468  1.7519 -2.7797 -1.4711
 6837SOL     OW31972   3.055   1.268  13.607 -0.3872 -0.7364 -0.0121
 6837SOL    HW131973   3.076   1.179  13.579  0.9366 -0.8296  1.2766
 6837SOL    HW231974   3.022   1.262  13.697 -1.8241  2.2518 -0.3496
 6838SOL     OW31975   3.844   2.195  10.148 -0.7462  0.1999 -0.4116
 6838SOL    HW131976   3.869   2.167  10.060 -0.5148 -0.3696 -0.1669
 6838SOL    HW231977   3.836   2.115  10.200 -2.7488  0.8538  0.2620
 6839SOL     OW31978   2.328   3.163  14.585 -0.1951  0.2143  0.0797
 6839SOL    HW131979   2.379   3.220  14.643  0.1025 -0.9841  0.9864
 6839SOL    HW231980   2.251   3.156  14.641  0.1710  0.0932  0.5660
 6840SOL     OW31981   1.471   0.414  17.410 -0.4010 -1.1808 -0.0646
 6840SOL    HW131982   1.415   0.429  17.334  0.0940  1.9739  0.1809
 6840SOL    HW231983   1.438   0.329  17.438 -2.7587  0.6105  2.6794
 6841SOL     OW31984   0.147   0.607   5.791  0.7874  0.0978  0.0871
 6841SOL    HW131985   0.133   0.702   5.785  1.5309  0.1566 -0.7109
 6841SOL    HW231986   0.060   0.577   5.817  0.2404 -0.4307 -2.4073
 6842SOL     OW31987   0.855   1.720   6.962  0.4487  0.1476 -0.0442
 6842SOL    HW131988   0.934   1.774   6.961  0.7891 -0.3574 -0.6846
 6842SOL    HW231989   0.812   1.741   6.879 -0.2641 -1.1076  0.0141
 6843SOL     OW31990   2.904   1.724   9.279 -0.2676  0.4929 -0.6083
 6843SOL    HW131991   2.890   1.818   9.281 -0.6309  0.4743 -2.1676
 6843SOL    HW231992   2.935   1.715   9.189 -0.0557 -0.1736 -0.4681
 6844SOL     OW31993   3.714   1.292   4.019 -0.4742  0.6567 -0.3059
 6844SOL    HW131994   3.753   1.217   4.064  1.6128  0.9293 -1.6788
 6844SOL    HW231995   3.655   1.312   4.092  0.1187 -2.7526  1.1101
 6845SOL     OW31996   1.381   2.305   9.150 -0.2021  0.6220  0.6307
 6845SOL    HW131997   1.405   2.221   9.111  1.1945  0.0450  2.7372
 6845SOL    HW231998   1.308   2.338   9.098  0.3425  0.6880 -0.0825
 6846SOL     OW31999   2.191   2.147  11.651 -0.0800 -0.1337 -0.1036
 6846SOL    HW132000   2.157   2.061  11.679  1.7350 -0.8243 -0.0268
 6846SOL    HW232001   2.226   2.184  11.732 -0.1494  1.0648 -0.6276
 6847SOL     OW32002   1.850   0.724   2.618 -0.2965 -0.2302 -0.5005
 6847SOL    HW132003   1.918   0.742   2.553  1.8660 -1.9605  1.3068
 6847SOL    HW232004   1.778   0.775   2.581 -0.6636  0.0839  0.6283
 6848SOL     OW32005   0.206   4.181   5.749  0.1141 -0.1932  0.6232
 6848SOL    HW132006   0.124   4.180   5.699 -0.7651  0.7619  2.0644
 6848SOL    HW232007   0.170   4.163   5.836  0.2756  1.3260  1.0140
 6849SOL     OW32008   1.536   0.853   4.792 -0.6549 -0.1172  0.3097
 6849SOL    HW132009   1.539   0.772   4.741  0.1018  0.6348 -0.8545
 6849SOL    HW232010   1.506   0.909   4.720 -1.2348 -1.3407 -0.4022
 6850SOL     OW32011   3.468   1.180   6.897 -0.2810 -0.0011 -0.3676
 6850SOL    HW132012   3.409   1.254   6.881 -0.0425  0.2586 -0.0671
 6850SOL    HW232013   3.475   1.186   6.993 -0.9085  4.5682 -0.5772
 6851SOL     OW32014   2.195   4.082  10.799  0.1218 -0.1174  0.4689
 6851SOL    HW132015   2.274   4.113  10.754  0.3885  0.2076  1.1642
 6851SOL    HW232016   2.210   4.118  10.886  1.7401  2.3085 -0.8288
 6852SOL     OW32017   2.995   3.357   7.481 -0.1983  0.1378  0.1132
 6852SOL    HW132018   2.988   3.392   7.570 -0.3308 -3.7087  1.5734
 6852SOL    HW232019   2.910   3.386   7.448 -0.8242 -0.1407  1.5247
 6853SOL     OW32020   2.224   1.003  15.776  0.7206  0.1545 -0.1168
 6853SOL    HW132021   2.305   1.043  15.744 -0.2563  1.8857 -0.3848
 6853SOL    HW232022   2.210   1.060  15.851  2.9341  0.0234  0.4014
 6854SOL     OW32023   1.188   1.573   8.420  0.4012 -0.2051  0.0644
 6854SOL    HW132024   1.194   1.497   8.477  0.1101 -1.4710 -1.5781
 6854SOL    HW232025   1.133   1.537   8.350  0.2072 -1.1057  0.6759
 6855SOL     OW32026   2.566   4.280  16.017  0.0767 -0.1156 -0.9969
 6855SOL    HW132027   2.504   4.316  16.082  1.4042  0.3728 -0.0024
 6855SOL    HW232028   2.566   4.362  15.967  0.2490  1.0194  0.8367
 6856SOL     OW32029   0.506   2.110  11.614 -0.0246 -0.1905  0.2387
 6856SOL    HW132030   0.477   2.167  11.542 -0.7713 -1.6555 -0.6132
 6856SOL    HW232031   0.592   2.139  11.644  0.7099 -0.5613 -1.5420
 6857SOL     OW32032   1.609   2.597   2.979 -0.1053  0.2962  0.0657
 6857SOL    HW132033   1.560   2.522   2.945 -1.1620  0.8575  0.3384
 6857SOL    HW232034   1.691   2.576   2.934 -1.2192 -0.6552 -1.5112
 6858SOL     OW32035   4.006   2.710   2.758 -0.1736 -0.3107 -0.4391
 6858SOL    HW132036   4.077   2.773   2.751 -1.2055  1.2076  2.4710
 6858SOL    HW232037   3.966   2.725   2.673  2.9257  2.3331 -1.4013
 6859SOL     OW32038   0.087   4.422  14.523 -0.0928 -0.5917  0.0696
 6859SOL    HW132039   0.168   4.437  14.474  0.0791  0.4412  0.6752
 6859SOL    HW232040   0.098   4.480  14.597  0.5295  1.3698 -1.5600
 6860SOL     OW32041   1.334   3.922   2.575  0.6324  0.8610 -0.2803
 6860SOL    HW132042   1.366   3.851   2.630 -1.4371  0.9337  1.0241
 6860SOL    HW232043   1.245   3.926   2.608 -0.7751 -1.2506 -3.9102
 6861SOL     OW32044   3.414   0.528   8.909  0.6751 -0.0926  0.2479
 6861SOL    HW132045   3.386   0.438   8.890  1.4435 -0.3761  0.4274
 6861SOL    HW232046   3.400   0.564   8.822 -3.2697 -2.6878 -0.2090
 6862SOL     OW32047   2.528   0.497  13.770  0.0681 -0.1073  0.4529
 6862SOL    HW132048   2.493   0.586  13.771  1.8981  0.6620 -3.0190
 6862SOL    HW232049   2.464   0.449  13.822 -0.5338  0.7743  0.5205
 6863SOL     OW32050   3.466   1.822  11.507 -0.0094  0.4538 -0.1741
 6863SOL    HW132051   3.521   1.818  11.586  1.1977 -1.6701 -1.0979
 6863SOL    HW232052   3.527   1.851  11.439 -0.7323  0.1532 -0.9492
 6864SOL     OW32053   1.440   0.769   3.695  0.1047 -0.6024  0.2857
 6864SOL    HW132054   1.520   0.755   3.746 -0.3828 -0.1045  1.1722
 6864SOL    HW232055   1.471   0.753   3.605 -1.0503  2.9267 -0.7225
 6865SOL     OW32056   1.148   2.771  11.062  0.7734 -0.3696 -0.3356
 6865SOL    HW132057   1.111   2.706  11.122  1.1547  0.7418  1.0964
 6865SOL    HW232058   1.115   2.739  10.978  2.1579 -0.0116 -1.0308
 6866SOL     OW32059   3.784   3.841   8.870  0.1896 -0.3234  0.1332
 6866SOL    HW132060   3.840   3.895   8.815  0.1220  2.5098  2.8282
 6866SOL    HW232061   3.809   3.879   8.955 -0.9228  0.6446  0.0331
 6867SOL     OW32062   4.161   2.571   8.916  0.7377  0.0961 -0.5543
 6867SOL    HW132063   4.181   2.621   8.836  0.8302  0.1010 -0.5276
 6867SOL    HW232064   4.100   2.629   8.963  1.1462 -1.1279  1.4528
 6868SOL     OW32065   2.875   1.913  12.083 -0.3551 -0.2378 -0.6075
 6868SOL    HW132066   2.788   1.946  12.103 -0.4628  0.2098 -1.7904
 6868SOL    HW232067   2.887   1.830  12.129 -1.5074 -0.6249 -1.0141
 6869SOL     OW32068   0.842   1.877   8.124  0.0905 -0.4155  0.2632
 6869SOL    HW132069   0.881   1.942   8.182  0.5748 -0.6930  0.2485
 6869SOL    HW232070   0.822   1.813   8.192  0.5267 -1.5267 -0.6474
 6870SOL     OW32071   4.413   0.275   1.785 -0.3158  0.2017  0.1444
 6870SOL    HW132072   4.367   0.238   1.860  1.1840 -1.7958  0.0862
 6870SOL    HW232073   4.438   0.197   1.735 -0.3137  0.9149 -0.9742
 6871SOL     OW32074   3.569   0.530  13.538 -0.3605 -0.3490  0.1461
 6871SOL    HW132075   3.600   0.489  13.618  0.3116  0.9656  0.5482
 6871SOL    HW232076   3.542   0.451  13.489 -1.3974  0.2738 -0.2979
 6872SOL     OW32077   3.697   4.442   2.408 -0.0870  0.3535  0.6633
 6872SOL    HW132078   3.687   4.384   2.332  2.0074  0.8260  0.0240
 6872SOL    HW232079   3.630   4.409   2.468 -1.1239  1.1107 -0.1096
 6873SOL     OW32080   1.590   3.346   3.780 -0.2878 -0.0538 -0.3646
 6873SOL    HW132081   1.563   3.354   3.689 -1.0662 -2.1304 -0.3155
 6873SOL    HW232082   1.686   3.347   3.778 -0.2809  0.3667  0.2233
 6874SOL     OW32083   1.041   1.608   9.539  0.0015  0.5286  0.0219
 6874SOL    HW132084   0.980   1.563   9.599 -1.2540  0.3954 -1.3620
 6874SOL    HW232085   0.996   1.691   9.527 -0.1323  0.5395  0.5739
 6875SOL     OW32086   4.628   1.388   2.114 -0.1197 -0.4273  0.7210
 6875SOL    HW132087   4.706   1.365   2.063 -0.5979 -0.6134  0.0634
 6875SOL    HW232088   4.666   1.419   2.196  2.3083 -1.9948  0.1776
 6876SOL     OW32089   3.327   2.302  17.501  0.5620 -0.3700  0.3086
 6876SOL    HW132090   3.324   2.333  17.410  0.3288 -1.5607 -0.0826
 6876SOL    HW232091   3.367   2.377  17.546  0.7190 -0.7543  0.8169
 6877SOL     OW32092   3.268   1.426   5.806 -0.4061 -0.3926  0.1812
 6877SOL    HW132093   3.230   1.415   5.894  0.1415 -1.4382  0.2894
 6877SOL    HW232094   3.285   1.333   5.792  0.2979  0.3633 -3.8540
 6878SOL     OW32095   2.514   2.364   4.051 -0.2261 -0.0047  0.2939
 6878SOL    HW132096   2.518   2.269   4.046 -1.3117 -0.1237  1.6035
 6878SOL    HW232097   2.604   2.393   4.061  0.3612 -1.5233 -0.6783
 6879SOL     OW32098   2.466   3.554   7.427  0.4057  0.2646  0.1654
 6879SOL    HW132099   2.438   3.595   7.345 -2.0610  0.3253  1.0307
 6879SOL    HW232100   2.454   3.632   7.481  2.4875 -0.0190  1.0261
 6880SOL     OW32101   2.577   2.586   6.845 -0.3544 -0.8636 -0.0055
 6880SOL    HW132102   2.521   2.662   6.836  0.5432  0.1087  2.8142
 6880SOL    HW232103   2.557   2.534   6.767 -3.2168  0.4616 -0.1512
 6881SOL     OW32104   0.846   1.305   6.749 -0.9982 -0.5548  0.0164
 6881SOL    HW132105   0.868   1.238   6.684  0.9544 -1.2485  1.3720
 6881SOL    HW232106   0.754   1.292   6.768 -0.6775 -1.2011  1.1172
 6882SOL     OW32107   1.093   3.924  16.032  0.0551  0.4787 -0.0650
 6882SOL    HW132108   1.157   3.951  16.098  1.2761 -0.7172 -0.7459
 6882SOL    HW232109   1.113   3.988  15.963  0.9093 -0.1808 -0.4426
 6883SOL     OW32110   0.797   0.345  11.742  0.2765  0.2304  0.4290
 6883SOL    HW132111   0.787   0.415  11.677  0.1116 -0.9118 -0.7723
 6883SOL    HW232112   0.785   0.267  11.688 -1.1821  0.1854  0.8378
 6884SOL     OW32113   2.815   2.958   3.466 -0.5436  0.0335 -0.1372
 6884SOL    HW132114   2.845   2.995   3.549 -2.6585  2.2604 -0.3856
 6884SOL    HW232115   2.741   3.015   3.448  0.3170  0.9585 -0.7476
 6885SOL     OW32116   0.346   3.770   3.914  0.3034  0.7204  0.3056
 6885SOL    HW132117   0.346   3.865   3.898 -0.8040  0.9070  1.4510
 6885SOL    HW232118   0.253   3.752   3.906  0.1720  1.0355  1.1836
 6886SOL     OW32119   3.990   4.249  15.187  0.5527 -0.0897 -0.0494
 6886SOL    HW132120   4.078   4.281  15.165  0.6530 -0.0466  0.4123
 6886SOL    HW232121   3.971   4.192  15.114  0.5649 -0.8116  0.5119
 6887SOL     OW32122   0.465   1.111   5.275  0.2342  0.0847 -0.1458
 6887SOL    HW132123   0.496   1.081   5.360 -0.1897  1.2159  0.4183
 6887SOL    HW232124   0.409   1.035   5.263 -0.2168  0.5256 -0.7997
 6888SOL     OW32125   1.939   1.632   8.609 -0.2001  0.2944  0.1641
 6888SOL    HW132126   1.945   1.721   8.645  1.0294  0.1351  0.3576
 6888SOL    HW232127   2.007   1.587   8.659  0.8766  0.8164 -0.8284
 6889SOL     OW32128   1.367   0.631   7.553 -0.7861  0.1342 -0.5527
 6889SOL    HW132129   1.455   0.594   7.556 -2.1464 -3.1500 -0.0635
 6889SOL    HW232130   1.345   0.664   7.640  0.3382 -1.7216  0.4405
 6890SOL     OW32131   2.033   0.996  15.220  0.2128  0.1099  0.1009
 6890SOL    HW132132   2.107   0.979  15.278  0.8384 -0.3305 -0.8198
 6890SOL    HW232133   1.963   0.987  15.285  0.4747  0.8015  0.4808
 6891SOL     OW32134   1.702   3.494   4.529 -0.2002 -0.0450 -0.7930
 6891SOL    HW132135   1.748   3.528   4.606  0.8006 -0.4340 -1.2120
 6891SOL    HW232136   1.753   3.527   4.455  3.8509  1.1417  2.5298
 6892SOL     OW32137   4.346   0.662   0.204 -0.4256  1.1570  0.0182
 6892SOL    HW132138   4.337   0.601   0.276 -1.2544  0.9526 -0.2534
 6892SOL    HW232139   4.281   0.729   0.226 -1.0925  0.5249 -0.0348
 6893SOL     OW32140   0.745   2.060   9.134 -0.5449 -0.4868 -0.4142
 6893SOL    HW132141   0.664   2.112   9.127  0.8285  1.7302  0.0528
 6893SOL    HW232142   0.817   2.121   9.151  0.3057 -1.2637 -1.2646
 6894SOL     OW32143   4.456   0.441   6.279  0.1332 -0.3244  0.2762
 6894SOL    HW132144   4.510   0.449   6.357  0.6567 -1.1983  0.0086
 6894SOL    HW232145   4.513   0.377   6.237 -0.9599  1.2260 -3.5478
 6895SOL     OW32146   3.606   4.698   3.486 -0.3352  0.4238 -0.0194
 6895SOL    HW132147   3.569   0.067   3.492 -1.2100  0.1064 -0.8005
 6895SOL    HW232148   3.537   4.648   3.442 -1.3751  1.6282  0.2580
 6896SOL     OW32149   1.414   3.321  10.364  0.3910 -0.2915 -0.3541
 6896SOL    HW132150   1.389   3.353  10.278  0.1000  1.1915  0.2813
 6896SOL    HW232151   1.375   3.386  10.423  2.2652 -0.5837  1.2260
 6897SOL     OW32152   1.347   0.409   4.556 -0.0083 -0.2490 -0.3734
 6897SOL    HW132153   1.329   0.316   4.573 -0.2633 -0.1309 -0.0010
 6897SOL    HW232154   1.399   0.397   4.477 -0.4354 -0.9421 -0.5507
 6898SOL     OW32155   2.097   0.191   9.701 -0.2465  0.4722 -0.1114
 6898SOL    HW132156   2.017   0.189   9.648 -0.2204  2.5936 -0.2207
 6898SOL    HW232157   2.130   0.103   9.681 -0.1336  0.6762 -0.8323
 6899SOL     OW32158   0.863   4.514  11.275  0.0410  0.6005 -0.3885
 6899SOL    HW132159   0.867   4.534  11.182 -2.1137 -0.5455 -0.7200
 6899SOL    HW232160   0.958   4.521  11.289 -0.0322  0.1499  0.3665
 6900SOL     OW32161   3.926   1.875   9.599 -0.6522  0.1496  0.4945
 6900SOL    HW132162   4.012   1.898   9.565  1.0759  0.1712  5.0315
 6900SOL    HW232163   3.867   1.923   9.540 -0.5269  0.2234  0.4287
 6901SOL     OW32164   1.606   2.224   0.758  0.1195 -0.3279 -0.3585
 6901SOL    HW132165   1.610   2.282   0.683 -0.6075 -0.8421 -0.7978
 6901SOL    HW232166   1.697   2.199   0.776 -0.5611 -2.0280  0.7372
 6902SOL     OW32167   3.563   3.475   8.966  0.1130 -0.3103 -0.3574
 6902SOL    HW132168   3.524   3.557   8.995 -1.2320 -0.7381 -0.9320
 6902SOL    HW232169   3.650   3.505   8.939  0.0128  0.1727 -0.1443
 6903SOL     OW32170   3.520   2.582   3.075 -0.4994  0.2250 -0.0979
 6903SOL    HW132171   3.532   2.487   3.075 -1.3036  0.1290  1.4342
 6903SOL    HW232172   3.465   2.594   3.152  2.1252 -0.5308  1.8956
 6904SOL     OW32173   2.031   2.892   8.951 -0.2931 -0.0724 -0.4620
 6904SOL    HW132174   2.084   2.871   8.874 -0.0909 -0.0133 -0.3380
 6904SOL    HW232175   1.978   2.813   8.960 -1.2579  0.2506 -3.3124
 6905SOL     OW32176   0.484   1.674   5.442  0.8778  0.3733 -0.3630
 6905SOL    HW132177   0.573   1.699   5.415  0.4653  1.0165 -1.1084
 6905SOL    HW232178   0.429   1.752   5.441  1.4749  0.8278  1.6432
 6906SOL     OW32179   3.296   0.283   8.825 -0.3127 -0.0957  0.0963
 6906SOL    HW132180   3.219   0.296   8.880  0.4189  0.0893  1.0758
 6906SOL    HW232181   3.315   0.191   8.845 -1.6605 -0.4374 -0.2309
 6907SOL     OW32182   3.540   0.191  13.083  0.8581  0.6111 -0.4659
 6907SOL    HW132183   3.510   0.101  13.097 -1.7782  1.5502  0.0100
 6907SOL    HW232184   3.558   0.206  12.991 -0.4633  0.6822 -0.7168
 6908SOL     OW32185   3.974   4.291   4.366  0.0171 -0.4061  0.1181
 6908SOL    HW132186   4.034   4.240   4.420  2.4389  2.1683 -0.1721
 6908SOL    HW232187   3.894   4.247   4.395 -1.0724  1.7600  0.3684
 6909SOL     OW32188   3.898   1.821   6.185 -0.2518 -0.2437 -0.1238
 6909SOL    HW132189   3.889   1.752   6.119  1.3712  1.9765 -2.6206
 6909SOL    HW232190   3.916   1.767   6.263  1.9954  0.7766  0.0579
 6910SOL     OW32191   0.848   2.588   9.196  0.4795 -0.1473 -0.0785
 6910SOL    HW132192   0.915   2.593   9.264 -0.3178 -1.4336  0.8018
 6910SOL    HW232193   0.813   2.677   9.199  0.2792 -0.2885  1.3500
 6911SOL     OW32194   3.564   0.950   6.509 -0.2790  0.5968 -0.3935
 6911SOL    HW132195   3.640   0.925   6.455  0.3579  0.1686  0.7116
 6911SOL    HW232196   3.515   0.997   6.441 -1.3820 -0.6282 -0.4389
 6912SOL     OW32197   3.572   0.524  14.077  0.3222 -0.2382 -0.4661
 6912SOL    HW132198   3.598   0.549  13.988  1.9543 -1.1683 -0.2479
 6912SOL    HW232199   3.485   0.564  14.065  0.5332  0.7542  1.2848
 6913SOL     OW32200   1.007   4.155   7.616 -0.4254 -0.4694 -0.4458
 6913SOL    HW132201   1.015   4.235   7.668  1.3453 -1.7543  1.2331
 6913SOL    HW232202   1.000   4.194   7.529  0.5019  2.2881  0.7040
 6914SOL     OW32203   1.530   1.549   1.266  0.3368  0.8835 -0.1349
 6914SOL    HW132204   1.615   1.590   1.256  0.2701  0.5063 -2.3268
 6914SOL    HW232205   1.531   1.524   1.358  1.7396 -0.5218 -0.5378
 6915SOL     OW32206   2.462   4.409  14.328 -0.6404 -0.3299  0.3832
 6915SOL    HW132207   2.425   4.357  14.257  0.0258 -1.4763  0.8722
 6915SOL    HW232208   2.439   4.349  14.399 -0.1205  1.4877  2.0786
 6916SOL     OW32209   2.084   3.265   7.126  0.2890  0.8560  0.6210
 6916SOL    HW132210   2.097   3.328   7.196  1.8636 -0.5678  1.6128
 6916SOL    HW232211   2.070   3.319   7.048 -1.0643  0.7596  0.7944
 6917SOL     OW32212   2.754   2.148   6.937  0.6126 -0.2413 -0.1075
 6917SOL    HW132213   2.681   2.186   6.985 -0.3980 -1.3352 -0.7836
 6917SOL    HW232214   2.725   2.138   6.846  3.8152  0.3486 -1.2149
 6918SOL     OW32215   0.658   3.824   4.636 -0.4769 -0.5059  0.3269
 6918SOL    HW132216   0.727   3.779   4.684  1.0053  1.2153 -0.1927
 6918SOL    HW232217   0.582   3.816   4.693 -1.2616  1.1061 -0.4675
 6919SOL     OW32218   1.770   2.631   4.560 -0.0933  0.0435  0.3945
 6919SOL    HW132219   1.722   2.557   4.597 -0.2602  0.4204  0.9423
 6919SOL    HW232220   1.808   2.585   4.486  3.2830 -1.5889  3.1126
 6920SOL     OW32221   0.331   0.710   4.905 -0.0025  0.0663  0.2015
 6920SOL    HW132222   0.262   0.758   4.950  0.8629  0.5517  0.9948
 6920SOL    HW232223   0.403   0.733   4.963  0.1597 -2.1820  0.8893
 6921SOL     OW32224   0.084   0.134   4.360  0.4273  0.0270  0.0444
 6921SOL    HW132225   0.163   0.126   4.306 -0.0459  2.6371 -1.0274
 6921SOL    HW232226   0.089   0.225   4.386  0.6127  0.4981 -1.6036
 6922SOL     OW32227   3.181   4.394   2.312 -0.0806  0.3235 -0.2797
 6922SOL    HW132228   3.123   4.465   2.286  1.0007  0.8700 -1.2300
 6922SOL    HW232229   3.172   4.395   2.407 -0.9476 -1.3667 -0.3567
 6923SOL     OW32230   4.165   2.220   9.551  0.4485 -0.0627  0.2000
 6923SOL    HW132231   4.222   2.180   9.484 -0.6294  1.6318 -1.7546
 6923SOL    HW232232   4.081   2.186   9.522  0.6830 -1.5865  1.3112
 6924SOL     OW32233   0.500   2.075   4.446  0.3594 -0.7222  0.8725
 6924SOL    HW132234   0.456   1.993   4.426 -1.5123 -0.1467  2.6402
 6924SOL    HW232235   0.425   2.121   4.483  1.3565  1.4860  0.1559
 6925SOL     OW32236   2.103   0.845   6.481  0.1657  0.2406  0.0689
 6925SOL    HW132237   2.096   0.774   6.545 -0.0606 -0.2399 -0.4954
 6925SOL    HW232238   2.114   0.927   6.530 -0.4992 -1.0938  2.4645
 6926SOL     OW32239   2.848   3.756   8.505 -0.3437  0.1523 -0.2530
 6926SOL    HW132240   2.934   3.794   8.489  0.7513 -2.3174 -0.2205
 6926SOL    HW232241   2.785   3.822   8.474  0.8296  2.2036  1.7396
 6927SOL     OW32242   2.550   3.511   1.014  0.1704  0.1955 -0.5369
 6927SOL    HW132243   2.536   3.471   1.100  2.9520  0.7400  0.1564
 6927SOL    HW232244   2.493   3.586   1.031  0.4896  0.2487  0.3009
 6928SOL     OW32245   2.830   3.393   0.415 -0.2441 -0.0081 -0.2447
 6928SOL    HW132246   2.787   3.433   0.340 -0.1100 -0.2007 -0.4254
 6928SOL    HW232247   2.918   3.378   0.380  0.8146 -1.6081  3.1148
 6929SOL     OW32248   1.660   3.776  10.886  0.2074 -0.0853 -0.2980
 6929SOL    HW132249   1.622   3.855  10.925  1.3504  0.5173 -0.4253
 6929SOL    HW232250   1.690   3.731  10.965 -1.9480 -0.3330  0.3804
 6930SOL     OW32251   1.800   4.572  14.622 -0.1766 -0.1601  0.1701
 6930SOL    HW132252   1.849   4.650  14.596 -0.7555  1.2214  3.1209
 6930SOL    HW232253   1.741   4.611  14.687  0.1176 -0.7092  0.7661
 6931SOL     OW32254   0.601   1.026   2.636 -0.6703 -0.2286  0.3926
 6931SOL    HW132255   0.519   1.073   2.652  0.7344  2.5221 -0.4650
 6931SOL    HW232256   0.568   0.941   2.666  2.2201 -1.6710 -0.5665
 6932SOL     OW32257   4.431   2.540  10.780 -0.3861  0.1313 -0.2229
 6932SOL    HW132258   4.390   2.538  10.693 -2.2809 -0.8953  0.7016
 6932SOL    HW232259   4.498   2.473  10.766  0.8468  1.9263 -3.0413
 6933SOL     OW32260   0.713   0.440   8.607 -0.1649 -0.2439 -0.2483
 6933SOL    HW132261   0.782   0.501   8.632  0.1302 -0.2692 -1.0215
 6933SOL    HW232262   0.649   0.444   8.678  0.0205  3.2068 -0.2903
 6934SOL     OW32263   0.959   0.620  13.107  0.3765  0.1031 -0.0299
 6934SOL    HW132264   0.951   0.709  13.072 -0.6104  1.9452  4.9016
 6934SOL    HW232265   0.869   0.592  13.093  0.8905 -1.9024  0.7017
 6935SOL     OW32266   4.528   2.725   4.426 -0.3476 -0.0783  0.0970
 6935SOL    HW132267   4.480   2.756   4.350  0.4035 -0.1139 -0.3874
 6935SOL    HW232268   4.619   2.717   4.396 -0.5866 -0.3527 -0.5475
 6936SOL     OW32269   0.869   0.839  10.540  0.0112 -0.1811 -0.2288
 6936SOL    HW132270   0.937   0.776  10.518  1.1575  1.2303 -0.7649
 6936SOL    HW232271   0.877   0.912  10.478  0.3315 -1.2105 -1.3751
 6937SOL     OW32272   3.802   1.636   2.487  0.0324  0.6221  0.1329
 6937SOL    HW132273   3.859   1.620   2.412  0.1568 -0.6974  0.5131
 6937SOL    HW232274   3.757   1.553   2.500  2.2790 -0.6323  0.0424
 6938SOL     OW32275   3.529   4.248   9.204  0.0035  0.4981  0.4571
 6938SOL    HW132276   3.435   4.238   9.219 -0.1335  1.4595  0.2146
 6938SOL    HW232277   3.519   4.343   9.202 -0.7476  0.3594 -2.2061
 6939SOL     OW32278   3.991   1.655   5.556 -0.0162  0.1291  0.0654
 6939SOL    HW132279   4.080   1.662   5.589 -0.6767 -0.1762  1.8729
 6939SOL    HW232280   3.951   1.707   5.625 -1.7243  1.8832 -2.2500
 6940SOL     OW32281   1.659   2.976   4.249 -0.7780 -0.4907  0.0621
 6940SOL    HW132282   1.688   3.052   4.299  0.2599 -0.9292  0.1217
 6940SOL    HW232283   1.638   2.911   4.316 -1.3428 -0.4928 -0.1150
 6941SOL     OW32284   0.377   3.290   6.536  0.1597 -0.4821 -0.2948
 6941SOL    HW132285   0.339   3.378   6.538  1.0200 -0.1599  2.0628
 6941SOL    HW232286   0.350   3.258   6.622  2.0203 -1.2349  0.0207
 6942SOL     OW32287   2.462   2.346   9.895  0.4592 -0.1323  0.2557
 6942SOL    HW132288   2.377   2.362   9.854  0.3658  1.1370  0.9476
 6942SOL    HW232289   2.482   2.258   9.862  2.3029  0.6425 -0.6714
 6943SOL     OW32290   4.428   0.390  16.078  0.3678 -0.8936 -0.1316
 6943SOL    HW132291   4.431   0.425  16.167  1.3021 -0.0456 -0.4889
 6943SOL    HW232292   4.362   0.321  16.084 -2.4215  1.6083 -2.1341
 6944SOL     OW32293   3.413   3.131   4.329  0.4669 -0.3956  0.1462
 6944SOL    HW132294   3.375   3.125   4.241 -0.9749 -0.6356  0.7834
 6944SOL    HW232295   3.381   3.048   4.364 -0.0448  0.0583  0.7760
 6945SOL     OW32296   0.253   0.803  11.111 -0.1614  0.0838 -0.3337
 6945SOL    HW132297   0.195   0.866  11.067  0.9504  1.2960 -0.0666
 6945SOL    HW232298   0.291   0.862  11.176 -0.8241 -0.6374  0.7058
 6946SOL     OW32299   0.917   3.998   4.412  0.0426 -0.1322  0.9422
 6946SOL    HW132300   0.973   3.980   4.336 -2.6481  0.9311 -1.2962
 6946SOL    HW232301   0.912   3.910   4.450  1.4413  0.2709  2.0671
 6947SOL     OW32302   1.048   1.246   3.734  0.0123  0.0179 -0.1789
 6947SOL    HW132303   0.961   1.249   3.694  0.3587  0.4596 -0.8974
 6947SOL    HW232304   1.058   1.341   3.733 -1.0146  0.1172 -2.0733
 6948SOL     OW32305   3.703   4.538   9.082  0.1671  0.0709 -0.0025
 6948SOL    HW132306   3.685   4.589   9.003 -2.3687 -0.6471  0.1218
 6948SOL    HW232307   3.619   4.531   9.127  0.5318 -0.8147  0.5322
 6949SOL     OW32308   2.550   1.104   1.768  0.1708  0.0787 -0.4121
 6949SOL    HW132309   2.456   1.106   1.786  0.1348 -0.7669 -0.4682
 6949SOL    HW232310   2.567   1.014   1.739  0.9116 -0.3647  1.3908
 6950SOL     OW32311   3.673   2.858   2.549  0.2458  0.2793  0.5164
 6950SOL    HW132312   3.725   2.799   2.493  0.3316  0.5920  0.2665
 6950SOL    HW232313   3.637   2.786   2.600  0.8825 -0.8346 -0.6021
 6951SOL     OW32314   0.955   1.034   8.837  0.0025 -0.2351  0.4506
 6951SOL    HW132315   0.907   1.017   8.918  3.3726 -1.7364  2.1520
 6951SOL    HW232316   0.884   1.063   8.780 -1.6906 -0.2592  2.5420
 6952SOL     OW32317   0.066   1.215  16.019  0.2877 -0.1358  0.3004
 6952SOL    HW132318   0.035   1.153  16.085  0.2369 -0.5377 -0.1034
 6952SOL    HW232319   0.019   1.183  15.942 -1.7575  0.2370  1.3840
 6953SOL     OW32320   4.108   1.276   2.069  0.0274 -0.0080  0.3250
 6953SOL    HW132321   4.076   1.284   2.159 -1.1914  2.8720 -0.3638
 6953SOL    HW232322   4.087   1.182   2.064 -0.8942  0.3057 -1.4884
 6954SOL     OW32323   4.626   2.419   2.073 -0.2359 -0.2163 -0.4345
 6954SOL    HW132324   4.637   2.508   2.106  1.6702  0.4500 -2.8910
 6954SOL    HW232325   4.542   2.395   2.112 -0.1622 -1.2876 -0.9549
 6955SOL     OW32326   4.706   3.883  14.897 -0.5025 -0.1660 -0.0523
 6955SOL    HW132327   0.074   3.854  14.923 -0.5540 -0.4787 -0.2197
 6955SOL    HW232328   0.009   3.912  14.809 -1.8279  0.8572 -0.0419
 6956SOL     OW32329   0.368   3.113   4.282 -0.0310  0.1774 -0.0142
 6956SOL    HW132330   0.362   3.019   4.302 -0.4312 -0.0954 -1.3931
 6956SOL    HW232331   0.327   3.154   4.358 -1.5901 -1.3365 -0.0372
 6957SOL     OW32332   2.319   2.976   2.125  0.4882  0.0484  0.1158
 6957SOL    HW132333   2.377   2.910   2.088  1.0398  1.7745 -2.0476
 6957SOL    HW232334   2.262   2.994   2.051 -1.4077 -1.3053  1.2417
 6958SOL     OW32335   1.057   1.255   8.318  0.0293 -0.1632 -0.8355
 6958SOL    HW132336   1.087   1.194   8.385  0.5473  0.3616 -0.5870
 6958SOL    HW232337   0.980   1.295   8.359 -0.2277 -3.1965  1.6379
 6959SOL     OW32338   0.682   0.154   3.474  0.0494  1.1133  0.2360
 6959SOL    HW132339   0.740   0.143   3.399  0.7432 -0.5384  1.0165
 6959SOL    HW232340   0.605   0.107   3.443  3.0521 -2.7543 -1.3618
 6960SOL     OW32341   4.393   0.521   1.636  0.3620  0.6863  0.0298
 6960SOL    HW132342   4.454   0.588   1.665 -0.7691  1.3523  0.8952
 6960SOL    HW232343   4.427   0.440   1.675 -1.1631  0.3146  0.6035
 6961SOL     OW32344   1.517   2.956   9.768 -0.0787  0.2720 -0.4554
 6961SOL    HW132345   1.433   2.946   9.813  0.6263 -0.7638  0.6061
 6961SOL    HW232346   1.556   2.876   9.802 -2.2043 -1.0578 -1.1778
 6962SOL     OW32347   1.154   4.039   1.735 -0.4810  0.1176  0.1624
 6962SOL    HW132348   1.073   4.066   1.779 -0.2107 -0.8415  1.2606
 6962SOL    HW232349   1.114   3.974   1.678  0.5358 -0.0060 -0.4070
 6963SOL     OW32350   4.281   0.530   5.317 -0.8041 -0.2497  0.3948
 6963SOL    HW132351   4.362   0.555   5.362 -1.6524 -0.4946  2.0401
 6963SOL    HW232352   4.244   0.617   5.306  0.0752  0.2079  1.0483
 6964SOL     OW32353   3.685   4.072   4.829 -0.2857  0.2552 -0.5327
 6964SOL    HW132354   3.752   4.043   4.767  0.3720 -0.3257  0.4479
 6964SOL    HW232355   3.733   4.075   4.912  1.9633 -1.4406 -1.7563
 6965SOL     OW32356   0.881   2.018   1.380  0.2193 -0.3585 -0.0691
 6965SOL    HW132357   0.961   2.042   1.333  1.0110 -1.6588  0.5954
 6965SOL    HW232358   0.831   1.961   1.322  1.5849 -2.0329  0.3777
 6966SOL     OW32359   3.901   3.749   7.060 -0.0706 -0.1443  0.0646
 6966SOL    HW132360   3.852   3.760   7.141  1.4449  0.9246  0.8272
 6966SOL    HW232361   3.846   3.683   7.018 -0.6766  0.0075  0.6383
 6967SOL     OW32362   3.477   4.240   4.842  0.3453 -0.4840  0.6302
 6967SOL    HW132363   3.503   4.252   4.934 -1.1522 -0.1747  1.0167
 6967SOL    HW232364   3.546   4.174   4.835 -0.7071 -1.4823 -0.4655
 6968SOL     OW32365   2.238   1.091  11.574  0.1913  0.3326 -0.0924
 6968SOL    HW132366   2.200   1.179  11.565  0.1774  0.2353 -1.0313
 6968SOL    HW232367   2.287   1.087  11.491  0.6034  0.3432  0.1509
 6969SOL     OW32368   2.538   2.946   1.166  0.0304  0.0423  0.4325
 6969SOL    HW132369   2.495   3.025   1.135 -0.7337 -0.0910  1.1462
 6969SOL    HW232370   2.621   2.955   1.120  0.3114 -1.0973  0.7050
 6970SOL     OW32371   0.833   2.981   7.477  0.1925 -0.3619 -0.0944
 6970SOL    HW132372   0.767   3.034   7.521 -1.9431 -0.1425 -3.5750
 6970SOL    HW232373   0.893   2.966   7.550 -0.1233  2.0793  0.6671
 6971SOL     OW32374   1.378   2.349  10.123 -0.2652  0.2274 -0.2012
 6971SOL    HW132375   1.353   2.419  10.183 -2.5777  0.2315 -1.1469
 6971SOL    HW232376   1.408   2.287  10.190  1.0184  0.3610 -0.6537
 6972SOL     OW32377   1.647   2.647   3.870  0.1104  0.0567  0.2269
 6972SOL    HW132378   1.592   2.725   3.861  0.5844  0.2764 -0.7347
 6972SOL    HW232379   1.601   2.596   3.803  0.4236  0.2155 -0.1058
 6973SOL     OW32380   3.146   0.023  16.421 -0.0376 -0.0458  0.0102
 6973SOL    HW132381   3.184   0.067  16.345 -3.3919  2.1278 -0.4324
 6973SOL    HW232382   3.218   0.041  16.481 -0.2301 -0.9385  0.5129
 6974SOL     OW32383   1.336   2.985   0.899  0.0670  0.4116 -0.0226
 6974SOL    HW132384   1.395   2.926   0.944 -1.5316 -1.6224 -0.6051
 6974SOL    HW232385   1.306   2.937   0.822  1.2119 -0.8959  0.3457
 6975SOL     OW32386   0.775   1.108   9.435  0.0288 -0.1646  0.6037
 6975SOL    HW132387   0.790   1.201   9.448 -0.3505  0.2290 -1.6989
 6975SOL    HW232388   0.685   1.117   9.402 -0.2587 -0.6621  1.2479
 6976SOL     OW32389   0.703   1.005  14.333 -0.1393 -0.1997  0.1807
 6976SOL    HW132390   0.699   1.093  14.371 -3.4352 -0.0363 -0.5340
 6976SOL    HW232391   0.609   0.993  14.319 -0.1613 -1.0124  1.0040
 6977SOL     OW32392   1.784   1.194   0.409  0.2500 -0.2581 -0.1628
 6977SOL    HW132393   1.872   1.231   0.417  0.6500 -1.1191 -0.5529
 6977SOL    HW232394   1.778   1.187   0.313  0.0469  0.9105 -0.2333
 6978SOL     OW32395   2.842   3.448   3.470  0.0759  0.2634 -0.0178
 6978SOL    HW132396   2.893   3.472   3.393  0.2313  0.0146  0.0062
 6978SOL    HW232397   2.864   3.356   3.485 -2.5544  0.2298  3.8194
 6979SOL     OW32398   4.253   3.271  17.533  0.0654  0.1306 -0.3029
 6979SOL    HW132399   4.348   3.268  17.539 -0.0144 -0.8560  0.4102
 6979SOL    HW232400   4.227   3.288  17.623  0.0673  1.2080 -0.5143
 6980SOL     OW32401   3.320   3.139   9.415 -1.0213  0.1796  0.3288
 6980SOL    HW132402   3.285   3.123   9.503 -1.1908 -0.0658  0.2184
 6980SOL    HW232403   3.263   3.098   9.349 -0.7370  0.2951  0.0118
 6981SOL     OW32404   3.613   0.868  10.074  0.1077  0.7564 -0.0507
 6981SOL    HW132405   3.525   0.881  10.111  1.0029 -0.6190  2.5807
 6981SOL    HW232406   3.588   0.801  10.011  0.7364  0.6540 -0.1898
 6982SOL     OW32407   3.983   1.190   6.069  0.2879  0.2130 -0.0815
 6982SOL    HW132408   3.918   1.122   6.087 -1.3211  1.7287 -0.1902
 6982SOL    HW232409   4.048   1.160   6.005 -1.0194 -0.5599 -1.0477
 6983SOL     OW32410   1.118   1.594   2.576 -1.0410  0.3350  0.1501
 6983SOL    HW132411   1.105   1.581   2.670 -1.1213 -0.6894 -0.0086
 6983SOL    HW232412   1.149   1.685   2.578  0.9647 -0.3820  1.2368
 6984SOL     OW32413   0.482   4.310  12.438  0.0213  0.7411  0.3085
 6984SOL    HW132414   0.575   4.330  12.429  0.1118  0.8649  1.5055
 6984SOL    HW232415   0.471   4.219  12.411  1.6126  0.6164  0.0554
 6985SOL     OW32416   1.620   0.051  14.691  0.4518  0.4876  0.7116
 6985SOL    HW132417   1.572   0.011  14.764 -2.1051  0.9196 -0.7135
 6985SOL    HW232418   1.574   0.134  14.681 -0.6499 -0.1803  0.2300
 6986SOL     OW32419   1.168   0.826   5.050  0.1909 -0.5361  0.7259
 6986SOL    HW132420   1.259   0.825   5.078  0.3545 -0.1439  0.2033
 6986SOL    HW232421   1.124   0.827   5.135 -2.4565 -0.2969 -0.6514
 6987SOL     OW32422   3.756   2.742   5.303  0.3414 -0.0511  0.3566
 6987SOL    HW132423   3.661   2.749   5.295  0.1305 -1.4852  1.7612
 6987SOL    HW232424   3.773   2.808   5.370 -0.0791 -0.6984  1.0937
 6988SOL     OW32425   2.733   3.808   1.659  0.3067 -0.0843  0.4158
 6988SOL    HW132426   2.760   3.747   1.728  3.0544  0.5744 -0.1127
 6988SOL    HW232427   2.700   3.887   1.702  0.0164  0.1329 -0.1986
 6989SOL     OW32428   4.585   0.939   5.813 -0.0406 -0.0613 -0.0955
 6989SOL    HW132429   4.555   1.005   5.876 -0.5212 -2.2757  2.0167
 6989SOL    HW232430   4.678   0.940   5.836  0.2344 -2.8216 -1.0252
 6990SOL     OW32431   2.797   3.044   7.861  0.3523  0.0273  0.0306
 6990SOL    HW132432   2.704   3.021   7.863  0.5274 -0.5834  1.0731
 6990SOL    HW232433   2.813   3.052   7.954  2.3809 -0.2034 -0.3079
 6991SOL     OW32434   4.216   4.540  16.220  0.5459 -0.0867 -0.0263
 6991SOL    HW132435   4.289   4.601  16.221 -0.3663  1.0034 -3.0464
 6991SOL    HW232436   4.261   4.455  16.219  0.1185 -0.3350  0.8870
 6992SOL     OW32437   1.928   4.092   5.354 -0.0444  0.2122  0.1094
 6992SOL    HW132438   1.886   4.177   5.368 -1.8719 -0.9687  1.9324
 6992SOL    HW232439   1.895   4.057   5.271 -1.6223 -0.0296  0.8248
 6993SOL     OW32440   4.271   4.532  11.991 -0.9763 -0.6442 -0.2097
 6993SOL    HW132441   4.352   4.500  11.953  1.4772  1.8909  2.9373
 6993SOL    HW232442   4.302   4.574  12.071 -1.0303 -2.5270  0.7900
 6994SOL     OW32443   0.733   1.597   4.377 -0.2801  0.1641 -0.2979
 6994SOL    HW132444   0.709   1.647   4.455 -0.5794 -2.5963  1.3985
 6994SOL    HW232445   0.681   1.517   4.382 -0.0280 -0.0266 -0.7163
 6995SOL     OW32446   1.417   1.398   3.806 -0.3538  0.0609 -0.2645
 6995SOL    HW132447   1.378   1.386   3.719 -2.0408  0.0897  0.4859
 6995SOL    HW232448   1.338   1.391   3.859 -0.0162 -1.6561  0.0049
 6996SOL     OW32449   4.173   0.386   1.126 -0.1954  0.2742 -0.3633
 6996SOL    HW132450   4.244   0.332   1.160 -1.8520 -1.3803  0.4531
 6996SOL    HW232451   4.104   0.395   1.192  0.1255  0.2369 -0.0254
 6997SOL     OW32452   3.734   0.278   2.845  0.5140 -0.0529  0.2611
 6997SOL    HW132453   3.661   0.270   2.784  2.2981 -0.0118 -1.8631
 6997SOL    HW232454   3.684   0.266   2.926 -1.1635  0.7336 -0.6485
 6998SOL     OW32455   1.190   4.048  16.707 -0.2309 -0.3181  0.0325
 6998SOL    HW132456   1.225   4.050  16.796  3.1917 -0.3558 -1.3115
 6998SOL    HW232457   1.176   3.953  16.704  0.7104 -0.4515 -0.0921
 6999SOL     OW32458   0.266   0.546   1.517  0.3381  0.2624 -0.4814
 6999SOL    HW132459   0.273   0.632   1.476  1.0549 -0.0563 -1.0340
 6999SOL    HW232460   0.320   0.489   1.462 -0.4372 -1.4087  0.5024
 7000SOL     OW32461   4.620   1.385   7.979 -0.1387 -0.5365 -0.2947
 7000SOL    HW132462   4.661   1.456   7.930  4.1397 -1.1482  2.3477
 7000SOL    HW232463   4.530   1.410   7.961  0.1457 -1.7419 -3.2768
 7001SOL     OW32464   0.590   0.217   2.999  0.0896  0.3869 -0.0620
 7001SOL    HW132465   0.499   0.193   2.985 -0.3952  1.8663  0.6005
 7001SOL    HW232466   0.647   0.168   2.939 -0.3078 -1.3641  0.9965
 7002SOL     OW32467   1.486   2.866   4.058 -0.1004  0.0080  0.1912
 7002SOL    HW132468   1.551   2.923   4.099 -1.3067  0.7150  1.1396
 7002SOL    HW232469   1.495   2.910   3.973 -1.0785 -0.4809 -0.1647
 7003SOL     OW32470   4.579   2.641   5.337 -0.4172 -0.2993  0.5761
 7003SOL    HW132471   4.582   2.713   5.399 -0.0046 -0.0558  0.2659
 7003SOL    HW232472   4.592   2.567   5.396 -1.3497 -1.9443 -1.2520
 7004SOL     OW32473   3.296   0.793   5.010  0.0751  0.6352  0.1777
 7004SOL    HW132474   3.271   0.729   5.077 -0.2051 -0.4217 -0.9467
 7004SOL    HW232475   3.219   0.797   4.954  1.3627 -3.5217 -1.8834
 7005SOL     OW32476   1.734   1.811   0.837 -0.4258 -0.2723  0.7831
 7005SOL    HW132477   1.791   1.804   0.760 -0.4499  1.0556  0.6438
 7005SOL    HW232478   1.781   1.759   0.902  1.7152  0.2272 -0.3455
 7006SOL     OW32479   2.310   4.011  15.229 -0.2281 -0.4125 -0.4879
 7006SOL    HW132480   2.346   4.070  15.163  2.1354  0.6018  1.6793
 7006SOL    HW232481   2.269   3.942  15.177  0.5532 -2.0157  1.0278
 7007SOL     OW32482   0.122   1.726  15.849  0.3478 -0.1788 -0.1676
 7007SOL    HW132483   0.086   1.706  15.763 -1.1092  3.2922 -0.3434
 7007SOL    HW232484   0.053   1.690  15.904 -0.1565 -0.8101 -1.2131
 7008SOL     OW32485   3.746   0.255   5.336 -0.3026  0.4257 -0.1003
 7008SOL    HW132486   3.725   0.209   5.417  0.9827  0.4493  0.2502
 7008SOL    HW232487   3.772   0.343   5.362 -1.7567  1.0105 -0.6224
 7009SOL     OW32488   2.562   4.025   1.490 -0.0226  0.1718  0.3369
 7009SOL    HW132489   2.562   4.031   1.585  1.1019 -1.0798  0.4143
 7009SOL    HW232490   2.605   4.108   1.470 -0.1813 -0.1856 -1.5123
 7010SOL     OW32491   3.779   3.975   2.488  0.3157  0.2552 -0.4472
 7010SOL    HW132492   3.827   3.991   2.407 -0.0663 -0.8950 -0.8969
 7010SOL    HW232493   3.726   3.901   2.459  0.2130  0.6421 -1.2491
 7011SOL     OW32494   4.420   4.715  16.249  0.0201  0.6034  0.0059
 7011SOL    HW132495   4.512   4.713  16.275 -0.5258 -0.4069  1.8790
 7011SOL    HW232496   4.389   0.064  16.308  2.3091  1.0574  0.6958
 7012SOL     OW32497   1.552   3.234   9.757  0.2512  0.0847 -0.0169
 7012SOL    HW132498   1.472   3.284   9.770 -0.7178 -0.3937 -4.0036
 7012SOL    HW232499   1.522   3.143   9.758  0.8874 -0.1426 -1.5652
 7013SOL     OW32500   1.177   0.862   7.142  0.3581 -0.9239  0.1708
 7013SOL    HW132501   1.085   0.842   7.125  0.3254 -0.1006 -0.6337
 7013SOL    HW232502   1.179   0.814   7.224  1.9260 -1.5753 -0.2352
 7014SOL     OW32503   0.171   1.615  11.264  0.0563 -0.1460 -0.4264
 7014SOL    HW132504   0.163   1.588  11.355  0.2992 -1.7921 -0.8853
 7014SOL    HW232505   0.253   1.572  11.238  1.7457  2.0739  1.3218
 7015SOL     OW32506   3.090   1.352   8.534 -0.1585 -0.4522  0.1759
 7015SOL    HW132507   3.077   1.444   8.558  1.1057 -0.1848 -0.1814
 7015SOL    HW232508   3.020   1.348   8.469  1.9181 -1.3843 -2.0059
 7016SOL     OW32509   2.810   3.150  14.459  0.1609 -0.0784 -0.0752
 7016SOL    HW132510   2.785   3.136  14.368  2.7161  1.7881 -1.0666
 7016SOL    HW232511   2.733   3.121  14.508 -2.0592  1.4491 -2.6690
 7017SOL     OW32512   2.332   3.530  12.534 -0.2408  0.3189  0.2524
 7017SOL    HW132513   2.283   3.506  12.613 -0.7836 -1.4281 -0.6225
 7017SOL    HW232514   2.305   3.459  12.476  1.2217  0.4969 -0.6530
 7018SOL     OW32515   0.136   2.937   5.447 -0.5074 -0.2368  0.5254
 7018SOL    HW132516   0.123   2.934   5.352  1.6270 -0.5428  0.2552
 7018SOL    HW232517   0.141   3.032   5.462  1.3965 -0.3057  0.3050
 7019SOL     OW32518   3.893   2.888   5.040 -0.1168 -0.3341 -0.1877
 7019SOL    HW132519   3.807   2.849   5.026 -1.3723  2.4168 -0.1218
 7019SOL    HW232520   3.945   2.808   5.044 -0.3786 -0.4164  1.4296
 7020SOL     OW32521   0.157   0.990   1.817 -0.1309  0.2822 -0.2212
 7020SOL    HW132522   0.081   1.001   1.760  0.2255 -0.4772 -0.8521
 7020SOL    HW232523   0.104   0.958   1.891 -1.8966  1.9117 -0.7885
 7021SOL     OW32524   3.224   3.312   3.389  0.1916 -0.8916 -0.5900
 7021SOL    HW132525   3.208   3.224   3.422  0.3754 -0.7512 -0.1202
 7021SOL    HW232526   3.159   3.326   3.320  0.8985 -1.7143 -1.4084
 7022SOL     OW32527   2.377   4.619   8.693 -0.0490 -0.3451 -0.0874
 7022SOL    HW132528   2.304   4.558   8.689 -1.3038  1.2156 -0.8682
 7022SOL    HW232529   2.387   4.617   8.789 -0.1240  1.2477 -0.0401
 7023SOL     OW32530   2.594   1.609   8.746  0.6419  0.0167 -0.3075
 7023SOL    HW132531   2.648   1.534   8.769  0.9424 -0.1138 -1.4346
 7023SOL    HW232532   2.666   1.670   8.729  0.0339  1.1410  1.1410
 7024SOL     OW32533   3.242   4.159   6.795  0.2383 -0.1145  0.0661
 7024SOL    HW132534   3.230   4.221   6.868  1.1439  0.6579 -0.4438
 7024SOL    HW232535   3.323   4.112   6.816  1.3691  2.0390  0.5398
 7025SOL     OW32536   0.314   2.035  13.098 -0.6316  0.7486 -0.0265
 7025SOL    HW132537   0.337   1.946  13.073  0.6981  0.8744  0.7486
 7025SOL    HW232538   0.389   2.058  13.153 -0.8199 -2.2154  1.4261
 7026SOL     OW32539   2.302   1.518   7.162 -0.0167 -0.0961  0.1261
 7026SOL    HW132540   2.301   1.458   7.087 -1.2423  0.6217 -0.4312
 7026SOL    HW232541   2.207   1.532   7.170 -0.2592 -1.6631  0.0906
 7027SOL     OW32542   1.246   2.187   3.142  0.3939  0.1208  0.1158
 7027SOL    HW132543   1.325   2.240   3.131 -0.0028  0.8716  0.9412
 7027SOL    HW232544   1.222   2.173   3.051 -0.9888 -1.1376  0.6592
 7028SOL     OW32545   0.559   4.184   3.626  0.7523  0.0561 -0.3924
 7028SOL    HW132546   0.597   4.154   3.709  0.3321 -0.5284 -0.4105
 7028SOL    HW232547   0.620   4.165   3.555 -1.7956 -1.9732 -2.0382
 7029SOL     OW32548   4.283   3.162   7.168  0.1115 -0.0288  0.8552
 7029SOL    HW132549   4.284   3.070   7.194  0.7925  0.1017  1.2892
 7029SOL    HW232550   4.208   3.168   7.109  0.1117  0.9940  0.9717
 7030SOL     OW32551   2.897   2.089  17.087  0.3777 -0.1752  0.0689
 7030SOL    HW132552   2.910   2.156  17.154  1.9225 -0.1586 -0.2531
 7030SOL    HW232553   2.986   2.056  17.076  0.4764  0.3800 -0.8114
 7031SOL     OW32554   3.218   0.948  13.697  0.5395  0.4719 -0.1595
 7031SOL    HW132555   3.144   0.887  13.702  1.5874 -0.6795  1.0955
 7031SOL    HW232556   3.194   1.002  13.622 -0.8162 -0.5924 -0.4835
 7032SOL     OW32557   4.457   0.920   3.502  0.0395  0.5937  0.0204
 7032SOL    HW132558   4.441   0.984   3.570 -1.5809 -1.5330  1.6637
 7032SOL    HW232559   4.483   0.978   3.430 -1.0217 -0.7761 -1.4755
 7033SOL     OW32560   1.611   0.013   4.503  0.3140  0.1880 -0.8807
 7033SOL    HW132561   1.560   0.058   4.571 -1.6671 -2.8028 -0.4256
 7033SOL    HW232562   1.677   0.081   4.488  0.5629 -0.1314 -1.2277
 7034SOL     OW32563   2.644   3.456  15.616 -0.1620 -0.1803 -0.2106
 7034SOL    HW132564   2.594   3.375  15.607  2.6074 -1.8932 -0.3751
 7034SOL    HW232565   2.709   3.459  15.546  1.5246  1.6810  1.3942
 7035SOL     OW32566   1.824   1.347   6.831  0.3441  0.3406  0.2506
 7035SOL    HW132567   1.916   1.374   6.831  0.3372  0.3669 -0.0473
 7035SOL    HW232568   1.835   1.325   6.923  3.0916 -0.0534 -0.1617
 7036SOL     OW32569   0.776   4.127   6.987  0.1721  0.4774  0.0965
 7036SOL    HW132570   0.780   4.033   6.967  2.6003  0.8633 -1.1813
 7036SOL    HW232571   0.731   4.126   7.072 -1.6950  2.7901 -0.8680
 7037SOL     OW32572   1.706   4.079   7.140 -0.1162 -0.7230 -0.3724
 7037SOL    HW132573   1.612   4.062   7.155 -0.1305  0.4847  0.8676
 7037SOL    HW232574   1.758   4.041   7.210 -0.4223  1.1044  0.8471
 7038SOL     OW32575   3.544   1.937  13.497 -0.1579 -0.0384 -0.1807
 7038SOL    HW132576   3.501   1.941  13.582  1.0160 -0.1841  0.4062
 7038SOL    HW232577   3.473   1.972  13.442  1.5920 -0.8645 -2.9818
 7039SOL     OW32578   3.428   0.635   7.371  0.0310 -0.1964 -0.1740
 7039SOL    HW132579   3.394   0.654   7.283  1.6373 -0.3389 -0.8276
 7039SOL    HW232580   3.379   0.553   7.385 -0.4724 -0.2454 -2.0767
 7040SOL     OW32581   4.096   2.428   5.234  0.4296  0.1193 -0.2618
 7040SOL    HW132582   4.148   2.439   5.154 -1.0341  1.9746 -0.9825
 7040SOL    HW232583   4.006   2.442   5.203 -0.4028 -0.4109  1.9148
 7041SOL     OW32584   3.955   2.917   8.108 -0.5377 -0.1285 -0.2458
 7041SOL    HW132585   3.863   2.903   8.088 -0.4540 -0.6650 -0.2706
 7041SOL    HW232586   3.989   2.827   8.103  0.6038  0.0796  4.0153
 7042SOL     OW32587   2.904   3.138  13.879  0.1843  0.6872 -0.7190
 7042SOL    HW132588   2.878   3.115  13.790 -0.9794  0.6808 -0.3761
 7042SOL    HW232589   2.991   3.102  13.895 -0.8244 -1.0992  0.8295
 7043SOL     OW32590   3.738   4.562   4.745  1.0368 -0.3265  0.5984
 7043SOL    HW132591   3.761   4.575   4.837 -0.5453  0.6508  0.8485
 7043SOL    HW232592   3.825   4.539   4.711  0.2803  0.8337 -2.1496
 7044SOL     OW32593   1.559   2.992   4.682  0.2851  0.7315 -0.2357
 7044SOL    HW132594   1.467   2.967   4.693  0.2421  0.9177 -0.1682
 7044SOL    HW232595   1.582   2.978   4.590  0.9543 -2.7216  0.4788
 7045SOL     OW32596   3.472   3.475   5.512  0.3836  0.2760  0.2029
 7045SOL    HW132597   3.420   3.542   5.556  2.1479  2.1761 -0.6142
 7045SOL    HW232598   3.499   3.508   5.427 -0.6774  0.2930 -0.1266
 7046SOL     OW32599   1.546   2.727   5.109  0.0921  0.0459 -0.3408
 7046SOL    HW132600   1.608   2.773   5.053 -0.1588  0.5506 -0.2028
 7046SOL    HW232601   1.508   2.664   5.047  0.2502  1.4812 -1.8918
 7047SOL     OW32602   0.241   0.718   9.551 -0.2863  0.7510 -0.7220
 7047SOL    HW132603   0.335   0.734   9.545 -0.1572  0.0290 -0.5114
 7047SOL    HW232604   0.224   0.624   9.551  0.3278  0.6382  0.1387
 7048SOL     OW32605   1.655   3.363  11.685  0.6387  0.0708 -0.0935
 7048SOL    HW132606   1.578   3.419  11.688 -1.4392 -2.8174  0.7957
 7048SOL    HW232607   1.683   3.361  11.776 -1.8737 -0.4964  0.6711
 7049SOL     OW32608   2.537   4.038   0.962 -0.1209  0.1969  0.2706
 7049SOL    HW132609   2.519   4.010   0.872  0.5282 -0.5041  0.3620
 7049SOL    HW232610   2.619   3.989   0.973  0.8440  1.2447 -2.0626
 7050SOL     OW32611   2.275   2.235  15.723  0.0185  0.4705 -0.3659
 7050SOL    HW132612   2.200   2.237  15.663 -0.5476  0.0974  0.3249
 7050SOL    HW232613   2.348   2.233  15.662 -0.1997 -1.7866 -0.5579
 7051SOL     OW32614   4.104   3.682  17.464 -0.1738 -0.5087  0.0030
 7051SOL    HW132615   4.180   3.686  17.406 -0.3509  3.3973  0.0533
 7051SOL    HW232616   4.095   3.773  17.491 -2.0016 -0.3653 -1.1134
 7052SOL     OW32617   4.587   4.040  10.331  0.2776 -0.4856 -0.7456
 7052SOL    HW132618   4.665   4.005  10.374  0.0987 -0.0122 -0.0197
 7052SOL    HW232619   4.620   4.129  10.322 -1.5010  0.2533 -0.0807
 7053SOL     OW32620   3.269   4.543  12.990  0.2809  0.4837  0.3217
 7053SOL    HW132621   3.313   4.611  13.042 -0.8367  1.7385 -0.3804
 7053SOL    HW232622   3.333   4.472  12.999  1.7584  1.6161 -1.1327
 7054SOL     OW32623   3.113   3.809   9.378  0.1317 -0.1933  0.7057
 7054SOL    HW132624   3.172   3.733   9.376  1.9065  1.2034 -0.0463
 7054SOL    HW232625   3.128   3.838   9.288 -0.2441 -0.1778  0.6484
 7055SOL     OW32626   3.405   3.896   2.739 -0.5360  0.1617 -0.1125
 7055SOL    HW132627   3.442   3.865   2.656  1.3559 -1.7054  1.4312
 7055SOL    HW232628   3.460   3.970   2.765 -2.4614  1.6754 -0.3339
 7056SOL     OW32629   1.884   2.966  10.901  0.0791 -0.2775  0.0035
 7056SOL    HW132630   1.940   3.042  10.915  0.0151 -0.7714  2.9432
 7056SOL    HW232631   1.820   3.005  10.841 -0.9242 -1.3577  0.3740
 7057SOL     OW32632   4.626   3.587   3.177  0.3589 -0.7519  1.3160
 7057SOL    HW132633   4.551   3.583   3.236  0.1717 -0.4665  1.0959
 7057SOL    HW232634   4.653   3.495   3.175 -0.6391 -1.0191  0.4111
 7058SOL     OW32635   3.472   2.862  15.907 -0.2504  0.6208  0.1691
 7058SOL    HW132636   3.387   2.854  15.863 -0.4208 -0.1727  0.6474
 7058SOL    HW232637   3.498   2.942  15.862  2.2391 -0.2166  0.1145
 7059SOL     OW32638   3.848   0.098  16.181 -0.0428  0.2454  0.3971
 7059SOL    HW132639   3.771   0.055  16.143  0.3008  1.7444 -2.0016
 7059SOL    HW232640   3.880   0.043  16.252  1.2340  0.6607  0.1430
 7060SOL     OW32641   4.303   4.106   5.260 -0.1136 -0.1154 -0.4312
 7060SOL    HW132642   4.282   4.075   5.172 -0.3127 -1.5418  0.1206
 7060SOL    HW232643   4.388   4.063   5.275 -1.4944 -2.2536  1.1767
 7061SOL     OW32644   1.121   2.397   5.254 -0.2167  0.3451 -0.1331
 7061SOL    HW132645   1.199   2.447   5.228  0.1316 -0.6093 -0.9077
 7061SOL    HW232646   1.147   2.309   5.227 -0.3926 -0.4906  2.4830
 7062SOL     OW32647   0.292   0.972   9.042 -0.6494 -0.3587 -0.3246
 7062SOL    HW132648   0.299   0.878   9.026  1.3229 -0.1937 -0.4467
 7062SOL    HW232649   0.206   0.988   9.002 -0.8416  0.5528  0.4453
 7063SOL     OW32650   2.865   2.850   8.091 -0.7170  0.7181 -0.4569
 7063SOL    HW132651   2.950   2.887   8.113 -0.2435 -0.1199 -0.8328
 7063SOL    HW232652   2.890   2.797   8.014 -0.8623  0.5298 -0.3757
 7064SOL     OW32653   0.556   4.457   6.233  0.2730 -0.2592 -0.2371
 7064SOL    HW132654   0.597   4.451   6.147 -0.1046 -1.1205 -0.3621
 7064SOL    HW232655   0.480   4.401   6.214 -1.2945  2.0268 -0.6340
 7065SOL     OW32656   3.756   0.402   4.694  0.2557 -0.6114 -0.0548
 7065SOL    HW132657   3.700   0.444   4.759  1.1615  0.2589  0.1785
 7065SOL    HW232658   3.695   0.347   4.646 -0.7343 -0.3804  0.9504
 7066SOL     OW32659   3.988   4.145   9.630 -0.7139  0.0739  0.6506
 7066SOL    HW132660   4.043   4.204   9.682  0.0988  2.0750 -2.4622
 7066SOL    HW232661   3.919   4.211   9.615 -2.4302 -1.2464  2.7608
 7067SOL     OW32662   1.612   2.658  14.579  0.0438 -0.5013  0.0756
 7067SOL    HW132663   1.612   2.605  14.499 -1.4861 -1.3248  0.6214
 7067SOL    HW232664   1.624   2.748  14.548  1.6285 -1.4179 -1.9413
 7068SOL     OW32665   4.613   2.613   7.566  0.4020  0.3703 -0.1712
 7068SOL    HW132666   4.706   2.612   7.586  0.1917 -3.2018  0.6367
 7068SOL    HW232667   4.590   2.520   7.572  2.1500  0.1016  2.2909
 7069SOL     OW32668   3.192   2.174   0.729  0.2147 -0.3459 -0.7314
 7069SOL    HW132669   3.158   2.262   0.747 -0.1771 -0.4190 -1.1122
 7069SOL    HW232670   3.119   2.142   0.676  0.2365  0.7626 -1.4512
 7070SOL     OW32671   0.727   4.625   5.400  0.1548  0.0266 -0.0861
 7070SOL    HW132672   0.691   4.556   5.456  0.7014  0.1081  0.3626
 7070SOL    HW232673   0.810   4.585   5.374 -0.0314 -0.5122  0.1399
 7071SOL     OW32674   2.717   2.629   8.703  0.2045  0.3363 -0.9342
 7071SOL    HW132675   2.666   2.608   8.782  0.4644 -0.2944 -0.9306
 7071SOL    HW232676   2.710   2.724   8.705 -1.6313  0.1662  0.5114
 7072SOL     OW32677   3.698   2.802  16.047 -0.0781  0.3585  0.6425
 7072SOL    HW132678   3.611   2.814  16.008  0.9329  0.8652 -1.4112
 7072SOL    HW232679   3.758   2.845  15.987 -0.3559  1.4154  1.1175
 7073SOL     OW32680   1.146   0.014   7.934 -0.4118  1.0730 -0.7277
 7073SOL    HW132681   1.150   0.080   8.003  1.2297  0.9121 -0.6630
 7073SOL    HW232682   1.104   0.059   7.860 -0.1919 -0.2424 -1.6409
 7074SOL     OW32683   4.479   0.039   6.043  0.6341  0.6328  0.1119
 7074SOL    HW132684   4.530   4.682   6.015  1.2142  0.1711  2.4446
 7074SOL    HW232685   4.502   0.094   5.968 -1.6836  0.5200 -0.6889
 7075SOL     OW32686   0.713   2.815   7.767  0.2434 -0.2225  0.4505
 7075SOL    HW132687   0.675   2.820   7.855  2.6016  0.2346  1.4425
 7075SOL    HW232688   0.635   2.816   7.711  0.4452  1.4128  0.2045
 7076SOL     OW32689   1.669   3.578  14.480 -0.1274  0.3449 -0.5198
 7076SOL    HW132690   1.698   3.648  14.539 -0.2964 -1.2746  1.4879
 7076SOL    HW232691   1.706   3.612  14.398 -1.2925 -0.2283 -1.2760
 7077SOL     OW32692   4.352   1.011   6.353 -0.6377  0.2234 -0.1225
 7077SOL    HW132693   4.434   1.000   6.306 -0.6509 -0.0542 -0.0752
 7077SOL    HW232694   4.355   1.097   6.396  0.0260 -0.2266  0.7102
 7078SOL     OW32695   1.277   4.044   7.209 -0.2270 -0.2708 -0.3008
 7078SOL    HW132696   1.329   4.101   7.265 -0.6044 -0.4332  0.2140
 7078SOL    HW232697   1.205   4.029   7.271  0.1231  0.3997  0.2639
 7079SOL     OW32698   1.431   0.071   1.683 -0.5020  0.3512  0.1286
 7079SOL    HW132699   1.343   0.064   1.719 -0.0953  0.7695  1.1971
 7079SOL    HW232700   1.471   4.715   1.726  2.2524  0.3698 -2.4158
 7080SOL     OW32701   1.604   4.085   3.601 -0.1572 -0.2702 -0.0973
 7080SOL    HW132702   1.661   4.107   3.527 -1.6301  0.4592 -1.0163
 7080SOL    HW232703   1.672   4.078   3.668 -0.3274 -3.5572 -0.2857
 7081SOL     OW32704   3.231   1.718   4.550 -0.0876 -1.0594  0.3421
 7081SOL    HW132705   3.181   1.667   4.487 -1.5732 -0.0992  0.7587
 7081SOL    HW232706   3.316   1.740   4.511 -1.1003  0.3085 -1.0781
 7082SOL     OW32707   2.945   1.176   0.915  0.9731 -0.5306 -0.3938
 7082SOL    HW132708   3.027   1.153   0.871  0.6138 -2.6409  0.0151
 7082SOL    HW232709   2.918   1.088   0.942 -1.3147  0.0714 -0.7269
 7083SOL     OW32710   3.791   3.887  12.901 -0.3648  0.0317 -0.3883
 7083SOL    HW132711   3.778   3.911  12.809 -0.9728  0.3094 -0.2303
 7083SOL    HW232712   3.887   3.890  12.893 -0.1059 -2.9584  1.4458
 7084SOL     OW32713   0.882   4.292  10.361  0.3678  0.5216 -0.4097
 7084SOL    HW132714   0.840   4.314  10.277 -2.2013 -0.2448  0.6773
 7084SOL    HW232715   0.963   4.254  10.328 -0.2248 -0.5062 -0.6743
 7085SOL     OW32716   1.774   2.232   9.771 -0.2684 -1.1969  0.2284
 7085SOL    HW132717   1.867   2.212   9.762 -0.1304 -0.5813  0.2977
 7085SOL    HW232718   1.748   2.247   9.680 -0.8932  0.3270  0.6496
 7086SOL     OW32719   4.683   1.352   5.654  0.0089 -0.5919  0.0673
 7086SOL    HW132720   4.684   1.440   5.616  0.3555 -1.0200 -0.9275
 7086SOL    HW232721   4.635   1.363   5.736  0.6640 -1.0433  0.5061
 7087SOL     OW32722   2.621   1.203   9.352  0.0408  0.2337 -0.0939
 7087SOL    HW132723   2.665   1.224   9.270 -0.5928  0.9435 -0.2484
 7087SOL    HW232724   2.593   1.293   9.370 -1.5500  0.3348 -3.0184
 7088SOL     OW32725   1.477   2.724   3.652  0.2929  0.1732 -0.3343
 7088SOL    HW132726   1.459   2.818   3.652 -0.0212  0.1001 -2.5788
 7088SOL    HW232727   1.393   2.690   3.622  0.0877  1.1332 -0.8519
 7089SOL     OW32728   4.685   4.216   4.147  0.0312  0.5619  0.1376
 7089SOL    HW132729   4.593   4.216   4.121 -0.2941  0.2403  1.3032
 7089SOL    HW232730   4.680   4.207   4.242  2.6454  1.6062  0.3776
 7090SOL     OW32731   3.390   3.576  14.131  0.3495 -0.3463  0.4223
 7090SOL    HW132732   3.438   3.658  14.143 -1.2279  0.7108 -0.4802
 7090SOL    HW232733   3.469   3.523  14.131 -0.3093 -1.2963 -1.3055
 7091SOL     OW32734   2.088   3.866   2.291  0.2409  0.3906 -0.2409
 7091SOL    HW132735   2.065   3.815   2.214  0.5865 -1.4443  0.8701
 7091SOL    HW232736   2.000   3.893   2.321  1.0392  2.0872  0.5938
 7092SOL     OW32737   0.587   3.102   2.161 -0.0072  0.1366  0.1732
 7092SOL    HW132738   0.671   3.065   2.133  0.5831  1.3677  0.3266
 7092SOL    HW232739   0.589   3.091   2.256 -1.4035  1.0002  0.3069
 7093SOL     OW32740   4.535   2.956   2.281 -0.0619 -0.5151  0.0564
 7093SOL    HW132741   4.551   2.897   2.208  1.3491 -0.1587  0.0669
 7093SOL    HW232742   4.556   3.043   2.247  2.9345 -0.6734  1.4620
 7094SOL     OW32743   4.015   3.284   1.560 -0.3416 -0.6625 -0.0705
 7094SOL    HW132744   3.937   3.338   1.567  2.4293  3.2955  0.5941
 7094SOL    HW232745   4.081   3.350   1.581 -1.0047 -0.2548  0.7112
 7095SOL     OW32746   4.387   1.440   9.048  0.1404 -0.4810  0.1936
 7095SOL    HW132747   4.292   1.452   9.053 -0.0394 -1.2602 -1.6404
 7095SOL    HW232748   4.393   1.359   9.099 -0.1319 -0.5449  0.1231
 7096SOL     OW32749   4.314   0.151  16.051 -0.0543  0.6002  0.3325
 7096SOL    HW132750   4.370   0.130  15.977  0.9208  1.6452  0.7618
 7096SOL    HW232751   4.327   0.077  16.110 -1.5251  1.3792  1.6234
 7097SOL     OW32752   2.128   3.716   5.730 -0.1722  0.3058  0.8545
 7097SOL    HW132753   2.223   3.726   5.726 -0.2974  1.0521 -0.3537
 7097SOL    HW232754   2.094   3.747   5.646 -0.3072 -0.3891  0.6572
 7098SOL     OW32755   3.321   1.953  15.790 -0.0856 -0.0658  0.0184
 7098SOL    HW132756   3.324   1.858  15.801 -0.7475 -0.2744 -1.5881
 7098SOL    HW232757   3.273   1.961  15.707  0.6130  0.0851 -0.3750
 7099SOL     OW32758   0.323   1.187   2.371  0.0488 -0.0922  0.5740
 7099SOL    HW132759   0.260   1.166   2.302  0.0214  0.6413  0.3837
 7099SOL    HW232760   0.313   1.106   2.422  0.3043 -1.0165 -0.8528
 7100SOL     OW32761   3.268   4.476   6.270 -0.1762 -0.3559  0.0848
 7100SOL    HW132762   3.180   4.500   6.301 -0.1957 -0.0157 -0.2376
 7100SOL    HW232763   3.319   4.520   6.338 -2.2615 -0.7094  1.8907
 7101SOL     OW32764   3.440   1.845   6.866 -0.6502 -0.6081 -0.1911
 7101SOL    HW132765   3.531   1.876   6.865 -1.8469  2.9234 -0.3081
 7101SOL    HW232766   3.466   1.754   6.882  1.0374  0.1309  1.3168
 7102SOL     OW32767   3.889   1.052  14.149  0.1776  0.1826  0.4445
 7102SOL    HW132768   3.929   1.130  14.109  1.0356  0.3967  1.7176
 7102SOL    HW232769   3.902   1.071  14.242 -1.4850  1.2541  0.4651
 7103SOL     OW32770   3.174   4.670   6.882 -0.0183 -0.3107  0.2387
 7103SOL    HW132771   3.173   4.608   6.955 -1.2356  0.2421  0.6820
 7103SOL    HW232772   3.259   4.713   6.891 -0.6909  0.7182  1.6595
 7104SOL     OW32773   2.086   4.138   2.490  0.3539 -0.1397  0.1139
 7104SOL    HW132774   2.029   4.208   2.521  0.4946  0.7374 -1.6180
 7104SOL    HW232775   2.030   4.061   2.496  1.4258 -0.7965  1.6772
 7105SOL     OW32776   0.308   4.663   3.444 -0.5581 -0.2640 -0.0177
 7105SOL    HW132777   0.389   4.613   3.434  1.3364  2.8084 -0.0072
 7105SOL    HW232778   0.252   4.599   3.487 -2.0490  0.1791 -1.2774
 7106SOL     OW32779   1.904   0.112  14.831 -0.1715  0.3247  0.1880
 7106SOL    HW132780   1.923   0.092  14.740 -1.9271  0.9612 -0.3087
 7106SOL    HW232781   1.819   0.149  14.809 -0.4369 -0.5886 -0.3075
 7107SOL     OW32782   2.187   0.920  11.298 -0.2950  0.1491  0.2683
 7107SOL    HW132783   2.253   0.990  11.304 -1.6694  1.4728 -0.0477
 7107SOL    HW232784   2.116   0.966  11.343  0.2020 -0.2673  1.4942
 7108SOL     OW32785   4.133   4.273  14.292  0.0227  0.2257  0.2313
 7108SOL    HW132786   4.178   4.198  14.330 -0.0890  0.4934  0.8896
 7108SOL    HW232787   4.157   4.265  14.200 -2.4792 -0.0301 -0.4014
 7109SOL     OW32788   3.014   1.083   6.388  0.1477  0.3845 -0.7405
 7109SOL    HW132789   3.056   1.039   6.462 -1.7321 -1.1857 -0.6089
 7109SOL    HW232790   2.966   1.147   6.441 -1.7128  0.0487 -2.0462
 7110SOL     OW32791   4.370   0.860   8.020 -0.0867  0.0781  0.0820
 7110SOL    HW132792   4.339   0.879   7.931 -1.0499  1.9902  0.8360
 7110SOL    HW232793   4.370   0.953   8.044  3.6541  0.4518 -1.2557
 7111SOL     OW32794   2.224   2.388   9.778  0.2707 -0.0125  0.0917
 7111SOL    HW132795   2.162   2.386   9.705  0.0671 -0.1965  0.2674
 7111SOL    HW232796   2.184   2.453   9.836  1.3887 -1.1722  2.2056
 7112SOL     OW32797   2.440   1.359   5.896 -0.2929  0.3713  0.6792
 7112SOL    HW132798   2.385   1.435   5.877 -0.4414  0.6852  2.3841
 7112SOL    HW232799   2.427   1.301   5.822 -1.9133 -0.1036  1.3438
 7113SOL     OW32800   3.860   4.007   5.591 -0.3234  0.2404  0.3330
 7113SOL    HW132801   3.766   4.026   5.599 -0.3496  0.1747  0.1681
 7113SOL    HW232802   3.871   3.912   5.592  1.5841  0.4818  1.9797
 7114SOL     OW32803   0.724   4.315   6.555  0.2947  0.2287  0.5468
 7114SOL    HW132804   0.718   4.266   6.636 -2.0785 -1.4851 -0.6778
 7114SOL    HW232805   0.818   4.315   6.537  0.2460 -1.2849  0.3132
 7115SOL     OW32806   3.642   2.147   1.522  0.1399 -0.0108 -0.1840
 7115SOL    HW132807   3.735   2.147   1.499  0.7713  1.1105  2.3090
 7115SOL    HW232808   3.616   2.187   1.439  2.1041  0.7447 -0.4371
 7116SOL     OW32809   2.718   0.607   9.327 -0.6660 -0.3891  0.4200
 7116SOL    HW132810   2.734   0.635   9.417 -1.1558  0.1096  0.3549
 7116SOL    HW232811   2.690   0.690   9.288 -0.1646 -0.4502 -0.0757
 7117SOL     OW32812   3.183   4.202  17.280  0.4117  0.5791  0.2542
 7117SOL    HW132813   3.239   4.200  17.358  0.3384  0.0152  0.2955
 7117SOL    HW232814   3.213   4.117  17.248  2.2831  1.2352  0.3239
 7118SOL     OW32815   2.032   0.138   7.085 -0.2023  0.0167  0.0320
 7118SOL    HW132816   2.093   0.118   7.157 -0.2850  1.6598  0.5556
 7118SOL    HW232817   2.037   0.058   7.033  1.0659  0.0040  0.1532
 7119SOL     OW32818   2.333   1.542   4.487 -0.2755 -0.5062  0.4626
 7119SOL    HW132819   2.257   1.544   4.545 -0.8595  0.2464 -0.3352
 7119SOL    HW232820   2.399   1.580   4.545 -1.8468  1.8639  0.7158
 7120SOL     OW32821   3.049   3.637   1.436 -0.2671 -0.5796 -0.1139
 7120SOL    HW132822   3.071   3.728   1.453  1.6825 -0.6836 -2.0252
 7120SOL    HW232823   3.131   3.591   1.415 -0.4218 -1.5803  1.4905
 7121SOL     OW32824   3.109   4.466  11.104 -0.0651 -0.1161  0.1303
 7121SOL    HW132825   3.179   4.489  11.042 -0.3376 -0.3949 -0.2826
 7121SOL    HW232826   3.126   4.536  11.167  2.6727 -0.5068 -0.1749
 7122SOL     OW32827   3.408   0.506  12.706  0.5504 -0.0543 -0.1486
 7122SOL    HW132828   3.327   0.454  12.702 -0.3602  1.2987  0.5676
 7122SOL    HW232829   3.373   0.595  12.699  2.0542  0.5510  0.1072
 7123SOL     OW32830   4.046   2.332   7.169 -0.8069 -0.1042  0.0235
 7123SOL    HW132831   4.102   2.372   7.103 -1.8394 -0.7864 -1.2565
 7123SOL    HW232832   3.992   2.267   7.124  0.7814 -1.4708  0.0709
 7124SOL     OW32833   4.339   0.471   2.058  0.2976  0.5865  0.3469
 7124SOL    HW132834   4.361   0.378   2.050 -3.2418 -0.3658  1.6782
 7124SOL    HW232835   4.426   0.510   2.048 -0.0452  1.5357  0.9905
 7125SOL     OW32836   0.770   0.337  12.568  0.3650  0.0301  0.3356
 7125SOL    HW132837   0.745   0.420  12.527  0.3486 -0.4480 -0.6256
 7125SOL    HW232838   0.834   0.305  12.505  1.5451 -2.0309  2.5908
 7126SOL     OW32839   0.170   2.088  10.733 -0.1959 -0.3952  0.4454
 7126SOL    HW132840   0.251   2.134  10.716 -0.2787 -0.5592 -0.3670
 7126SOL    HW232841   0.184   2.005  10.688  0.5995 -0.1447  0.2423
 7127SOL     OW32842   0.191   1.188   5.611  0.2870  0.5498  0.2250
 7127SOL    HW132843   0.112   1.228   5.647  0.7131 -0.0623  1.8394
 7127SOL    HW232844   0.167   1.192   5.519  2.2892  1.7329 -0.2594
 7128SOL     OW32845   3.801   2.963  15.864 -0.1222  0.0677  0.5051
 7128SOL    HW132846   3.716   3.000  15.841 -0.5033 -0.8339  0.4556
 7128SOL    HW232847   3.824   2.938  15.774 -1.1509  4.2954 -0.9281
 7129SOL     OW32848   0.206   4.361   8.640  0.2632  0.3564  0.0588
 7129SOL    HW132849   0.150   4.430   8.675 -1.0147 -0.2350 -0.8188
 7129SOL    HW232850   0.147   4.323   8.574  0.2205 -0.6618  0.6792
 7130SOL     OW32851   1.592   0.941  10.095  0.4546 -0.1046 -0.1382
 7130SOL    HW132852   1.641   0.977  10.021  1.9365 -0.1215  0.8313
 7130SOL    HW232853   1.651   0.870  10.121  0.1835 -0.7262 -1.2079
 7131SOL     OW32854   4.584   3.741   8.841  0.0358  0.0829 -0.0909
 7131SOL    HW132855   4.545   3.799   8.775  0.2275 -0.7743 -0.9717
 7131SOL    HW232856   4.500   3.731   8.886  0.9190  0.7566  1.7061
 7132SOL     OW32857   1.433   2.860  17.195 -0.5302  0.2284  0.5785
 7132SOL    HW132858   1.493   2.931  17.172 -1.6368  0.0494 -2.8533
 7132SOL    HW232859   1.497   2.800  17.232 -1.0765 -1.0588 -0.5848
 7133SOL     OW32860   2.895   2.976   4.144  0.5438 -0.4351  0.3857
 7133SOL    HW132861   2.900   3.066   4.110 -2.8079 -0.0491  0.9562
 7133SOL    HW232862   2.845   2.987   4.224 -0.7895 -0.4904 -0.4492
 7134SOL     OW32863   2.965   0.878   4.010 -0.1720 -0.3297  0.0056
 7134SOL    HW132864   2.891   0.817   4.011  1.0790 -1.8462 -3.2033
 7134SOL    HW232865   3.017   0.860   4.088 -0.9051 -4.0831 -0.3982
 7135SOL     OW32866   4.033   1.264   4.736  0.0216  0.0049  0.7095
 7135SOL    HW132867   4.082   1.339   4.772  1.0226 -0.2287 -0.1479
 7135SOL    HW232868   3.978   1.225   4.803 -0.5601  1.1638  0.9154
 7136SOL     OW32869   2.501   2.053  11.225 -0.5421  0.6494  0.4596
 7136SOL    HW132870   2.500   2.112  11.301  0.3334  0.1005  0.8993
 7136SOL    HW232871   2.489   2.110  11.149  2.6329  0.4244 -0.2055
 7137SOL     OW32872   1.230   0.803   2.147  0.0554 -0.2835 -0.3054
 7137SOL    HW132873   1.209   0.879   2.093 -2.5607  0.7033  2.0736
 7137SOL    HW232874   1.317   0.776   2.117  0.9150  1.0942  0.9362
 7138SOL     OW32875   4.568   2.791  16.820 -0.3695 -0.2447 -0.5038
 7138SOL    HW132876   4.631   2.820  16.886 -1.3260  0.0688  0.2631
 7138SOL    HW232877   4.505   2.862  16.831 -1.1130 -0.9230 -0.4062
 7139SOL     OW32878   0.354   2.563   2.889  0.8362  0.4592 -0.2488
 7139SOL    HW132879   0.275   2.614   2.908  0.0724 -0.2987 -1.4170
 7139SOL    HW232880   0.339   2.571   2.795 -2.3574  1.8670  0.3766
 7140SOL     OW32881   4.692   2.841   4.010  0.2689 -0.2245 -0.2152
 7140SOL    HW132882   4.615   2.897   3.999 -0.4674 -1.5275 -1.7273
 7140SOL    HW232883   4.692   2.796   3.925 -1.5746  2.8411 -1.8656
 7141SOL     OW32884   1.804   0.276   7.357 -0.2555 -0.0996  0.1017
 7141SOL    HW132885   1.858   0.240   7.287 -1.6311  0.6743 -1.3595
 7141SOL    HW232886   1.779   0.363   7.326 -1.8332 -0.0219  1.6039
 7142SOL     OW32887   2.972   1.767  11.674  0.0718  0.2778 -0.2899
 7142SOL    HW132888   2.992   1.743  11.765  0.4700  4.2225  0.6515
 7142SOL    HW232889   3.062   1.792  11.650 -0.6886  0.2041 -3.1786
 7143SOL     OW32890   3.206   0.691   4.604 -0.1541 -0.2306 -0.7015
 7143SOL    HW132891   3.191   0.673   4.511 -0.2911 -0.2330 -0.6794
 7143SOL    HW232892   3.155   0.620   4.643 -0.4784 -0.7036 -1.9861
 7144SOL     OW32893   3.618   4.114   6.030 -0.2129  0.2475 -0.0714
 7144SOL    HW132894   3.545   4.093   6.089 -0.6057  0.8986 -0.3181
 7144SOL    HW232895   3.614   4.209   6.043  0.6170 -0.0759  2.6148
 7145SOL     OW32896   0.978   1.796   4.414 -0.0396  0.0069 -0.1650
 7145SOL    HW132897   0.933   1.857   4.472 -2.1906 -0.1778 -1.6289
 7145SOL    HW232898   0.907   1.788   4.350 -1.6539 -0.8884  1.7328
 7146SOL     OW32899   2.641   1.463   4.653  0.4268  0.6212 -0.5612
 7146SOL    HW132900   2.688   1.382   4.673  0.7101  0.0781 -3.3883
 7146SOL    HW232901   2.576   1.457   4.723  0.1096  1.0591 -0.8207
 7147SOL     OW32902   2.439   3.349   1.900  0.5313 -0.7561  0.2656
 7147SOL    HW132903   2.467   3.257   1.909 -0.2290 -1.0870 -0.6749
 7147SOL    HW232904   2.492   3.386   1.971 -0.0447 -2.6756  1.7030
 7148SOL     OW32905   4.521   3.458   0.675  0.0100 -0.2555 -0.2390
 7148SOL    HW132906   4.589   3.427   0.615 -0.0248 -0.1557 -0.3315
 7148SOL    HW232907   4.450   3.483   0.616  0.5792 -0.5582 -1.0626
 7149SOL     OW32908   0.504   1.030   1.915  0.0859  0.1082 -0.5819
 7149SOL    HW132909   0.555   0.950   1.920  0.0076  0.1727  1.2524
 7149SOL    HW232910   0.561   1.104   1.937 -1.8152  1.3930  0.0222
 7150SOL     OW32911   3.080   0.386   5.276  0.7890  0.3260  0.2129
 7150SOL    HW132912   3.079   0.313   5.338  1.2869  2.0602  2.2499
 7150SOL    HW232913   3.027   0.451   5.322  0.5322  1.6919 -2.0332
 7151SOL     OW32914   1.013   0.600   8.355  0.6877  0.1570  0.3563
 7151SOL    HW132915   0.992   0.536   8.287 -1.2736  1.2281 -0.0636
 7151SOL    HW232916   1.014   0.547   8.435 -2.1925  0.8985  0.8822
 7152SOL     OW32917   1.305   4.506   4.938  0.4113 -0.0436  0.8738
 7152SOL    HW132918   1.275   4.597   4.946 -2.6211 -0.8165 -1.2950
 7152SOL    HW232919   1.286   4.461   5.020  0.4093 -1.8865 -0.1446
 7153SOL     OW32920   0.708   1.823   2.551  0.2856  0.0880 -0.2363
 7153SOL    HW132921   0.641   1.801   2.486 -1.1302  1.0629  0.8773
 7153SOL    HW232922   0.767   1.750   2.536  2.3535  1.1402  2.8059
 7154SOL     OW32923   3.178   3.376   5.902  0.1042  0.4618 -0.4068
 7154SOL    HW132924   3.113   3.437   5.936 -0.1422  0.5180 -0.9769
 7154SOL    HW232925   3.127   3.295   5.892  1.7081 -0.2731 -2.5929
 7155SOL     OW32926   0.314   1.189   7.272 -0.7403 -0.4814 -0.1387
 7155SOL    HW132927   0.354   1.272   7.247  1.9961 -1.0524  2.2639
 7155SOL    HW232928   0.348   1.125   7.209 -0.2796 -0.8028  0.4318
 7156SOL     OW32929   2.239   1.030   6.796  0.5721  0.2906 -0.6324
 7156SOL    HW132930   2.163   1.065   6.843  1.1482 -0.8492  1.1788
 7156SOL    HW232931   2.263   1.106   6.743 -2.8783 -0.3918 -3.1567
 7157SOL     OW32932   1.342   4.669   2.914  0.0418 -0.1185  0.0614
 7157SOL    HW132933   1.296   0.031   2.930 -0.8859 -0.4397 -0.9357
 7157SOL    HW232934   1.431   4.698   2.895  0.7417 -2.1737  0.1193
 7158SOL     OW32935   0.924   3.095   0.045 -0.0420 -0.3373  0.2536
 7158SOL    HW132936   0.920   3.141  17.642  0.3955  1.2183  1.1004
 7158SOL    HW232937   0.891   3.154   0.112  2.6675  2.5265 -0.9860
 7159SOL     OW32938   1.335   1.121  10.605 -0.5867 -0.2346  0.1580
 7159SOL    HW132939   1.333   1.041  10.658  0.3934 -0.9948 -0.9457
 7159SOL    HW232940   1.325   1.092  10.514  0.0708 -2.0479  0.6551
 7160SOL     OW32941   4.283   3.126   0.133 -0.0009 -0.5227  0.0052
 7160SOL    HW132942   4.314   3.196   0.190 -0.7537  0.9695 -1.3870
 7160SOL    HW232943   4.221   3.178   0.081 -0.3371  0.0366  0.9704
 7161SOL     OW32944   3.354   3.024   3.698 -0.3829 -0.3055 -0.8736
 7161SOL    HW132945   3.405   3.014   3.779 -2.3823  0.5708  0.5046
 7161SOL    HW232946   3.278   2.967   3.714  1.1967 -2.1934 -0.1640
 7162SOL     OW32947   3.369   3.961   7.622 -0.0665 -0.3106 -0.2405
 7162SOL    HW132948   3.447   3.961   7.678 -0.8517  0.1671  0.8593
 7162SOL    HW232949   3.379   3.877   7.576  2.9985 -0.7283  1.1669
 7163SOL     OW32950   1.532   3.242  16.424  0.5036  0.4813  0.4084
 7163SOL    HW132951   1.501   3.326  16.391 -0.5781  0.1565  0.6107
 7163SOL    HW232952   1.483   3.187  16.363 -0.9346  4.0192 -1.6407
 7164SOL     OW32953   0.988   1.381   1.959 -0.2510 -0.2840 -0.0327
 7164SOL    HW132954   1.064   1.412   1.910 -0.2193  1.8894  1.4277
 7164SOL    HW232955   1.037   1.335   2.026 -0.9466 -1.9598 -0.6709
 7165SOL     OW32956   1.556   4.668  16.030 -0.3426 -0.2361 -0.0527
 7165SOL    HW132957   1.651   4.657  16.023 -0.5428 -1.1737 -1.5424
 7165SOL    HW232958   1.550   4.682  15.935  0.7851  1.1045  0.0767
 7166SOL     OW32959   4.444   0.449  10.245  0.2641 -0.2706 -0.8790
 7166SOL    HW132960   4.425   0.402  10.164 -0.3023 -0.6865 -0.5071
 7166SOL    HW232961   4.532   0.486  10.239  0.2542 -0.1667 -0.3712
 7167SOL     OW32962   3.235   3.492   3.766 -0.2787 -0.1742 -0.0815
 7167SOL    HW132963   3.308   3.548   3.792 -1.4946  1.1019  0.5485
 7167SOL    HW232964   3.232   3.517   3.673 -3.0578  0.8931  0.2944
 7168SOL     OW32965   3.444   4.322   0.890 -0.3118 -0.1263 -0.2906
 7168SOL    HW132966   3.362   4.323   0.941 -0.4018 -1.5991 -0.4216
 7168SOL    HW232967   3.450   4.240   0.842 -1.5750 -1.2948  1.5460
 7169SOL     OW32968   1.444   1.899   4.908  0.1937  0.7099  0.5647
 7169SOL    HW132969   1.474   1.913   4.998  0.4384 -1.9434  0.9060
 7169SOL    HW232970   1.358   1.865   4.933 -0.0659  1.9654  1.3759
 7170SOL     OW32971   0.927   0.940  13.286 -0.2147 -0.2669  0.4747
 7170SOL    HW132972   0.929   1.026  13.244  3.2128 -0.6115 -0.0655
 7170SOL    HW232973   1.016   0.942  13.321 -0.6621 -0.0513  1.5926
 7171SOL     OW32974   0.123   2.446  16.634 -0.5033  0.4743 -0.3571
 7171SOL    HW132975   0.134   2.411  16.722  1.0732 -0.1541 -0.8214
 7171SOL    HW232976   0.034   2.482  16.646 -1.6481 -2.0553 -1.3361
 7172SOL     OW32977   1.328   4.038   3.586  0.2147  0.0906 -0.1870
 7172SOL    HW132978   1.307   4.048   3.494  3.1390  1.2389 -0.7267
 7172SOL    HW232979   1.420   4.063   3.596  0.4282 -1.6528  2.2348
 7173SOL     OW32980   0.559   2.407  14.159 -0.0195 -0.6602  0.2455
 7173SOL    HW132981   0.595   2.424  14.071  1.5688 -0.3386  0.9505
 7173SOL    HW232982   0.547   2.497  14.189  0.5381 -0.6910  0.5569
 7174SOL     OW32983   3.038   3.291   5.328  0.2748  0.0486  0.1170
 7174SOL    HW132984   3.071   3.380   5.318 -0.3292  0.2417 -0.1680
 7174SOL    HW232985   3.054   3.276   5.421  1.7042  0.1876 -0.1025
 7175SOL     OW32986   0.654   0.368   7.918 -0.2579 -0.1376 -0.0994
 7175SOL    HW132987   0.708   0.400   7.991 -1.5721  1.1901  0.2891
 7175SOL    HW232988   0.668   0.443   7.861 -2.9711 -0.4866 -1.2125
 7176SOL     OW32989   2.332   1.082   7.217  0.4908 -0.0323 -0.1336
 7176SOL    HW132990   2.275   1.066   7.293  1.9580 -0.8617  0.7953
 7176SOL    HW232991   2.417   1.059   7.256  0.3681 -0.4192 -0.0866
 7177SOL     OW32992   0.676   1.941  10.937  0.5306  0.6810  0.0331
 7177SOL    HW132993   0.696   2.004  11.006  0.9211  1.5974 -0.9237
 7177SOL    HW232994   0.763   1.901  10.930  0.1251  0.0174 -1.1020
 7178SOL     OW32995   0.609   4.503  17.355 -0.1269  0.0528 -0.6552
 7178SOL    HW132996   0.694   4.537  17.384 -0.2305 -1.3295  1.2497
 7178SOL    HW232997   0.553   4.532  17.427  0.8787 -0.2869  0.2627
 7179SOL     OW32998   1.143   0.082  16.437 -0.4145 -1.1332 -0.1234
 7179SOL    HW132999   1.119   0.174  16.440  0.8838 -0.7782 -0.6233
 7179SOL    HW233000   1.085   0.046  16.503 -0.3836  2.3889  1.7837
 7180SOL     OW33001   2.681   1.418  17.106 -0.5650 -0.4697 -0.2263
 7180SOL    HW133002   2.593   1.381  17.115 -0.0429 -1.3964  1.0011
 7180SOL    HW233003   2.661   1.493  17.162 -1.6251  0.9398 -2.5293
 7181SOL     OW33004   1.030   3.821  12.793  0.4793 -0.2710 -0.4619
 7181SOL    HW133005   1.067   3.844  12.708 -0.7446  0.5524 -0.7692
 7181SOL    HW233006   0.971   3.893  12.815  0.7791 -0.6798  1.6900
 7182SOL     OW33007   2.860   1.440   9.645 -0.5632  0.4024 -0.3433
 7182SOL    HW133008   2.810   1.479   9.573  1.8782 -0.2104 -2.3495
 7182SOL    HW233009   2.879   1.349   9.623 -0.8100  0.5114 -0.9911
 7183SOL     OW33010   4.104   2.229   8.405  0.3910 -0.3290  0.4242
 7183SOL    HW133011   4.194   2.214   8.376 -1.4443 -2.1245 -4.3517
 7183SOL    HW233012   4.094   2.322   8.385  3.4150  0.0545  0.6692
 7184SOL     OW33013   3.081   2.926   7.164  0.1792  0.2307 -0.3378
 7184SOL    HW133014   3.052   2.979   7.239 -0.6280  0.4166 -0.7761
 7184SOL    HW233015   3.097   2.996   7.101  1.0928 -0.9179 -1.3814
 7185SOL     OW33016   3.179   2.454   2.435  0.0317 -0.7460  0.0233
 7185SOL    HW133017   3.251   2.506   2.472  0.6831 -1.2939 -0.4822
 7185SOL    HW233018   3.122   2.527   2.414  0.2918 -0.7594 -0.7054
 7186SOL     OW33019   0.393   1.840   8.164  0.7009 -0.6037 -0.5763
 7186SOL    HW133020   0.385   1.788   8.085 -1.8527 -0.4929 -0.3881
 7186SOL    HW233021   0.448   1.915   8.140 -1.0019  0.7323 -0.3657
 7187SOL     OW33022   2.543   2.998  11.783 -0.1484 -0.1442  0.1503
 7187SOL    HW133023   2.489   3.030  11.711 -0.6769  1.2628  1.1651
 7187SOL    HW233024   2.627   3.036  11.758 -0.2652 -0.3513 -0.5581
 7188SOL     OW33025   3.116   0.600  13.146 -0.0186 -0.1521  0.1494
 7188SOL    HW133026   3.069   0.675  13.181 -1.4028 -0.1097 -1.7532
 7188SOL    HW233027   3.170   0.572  13.220  1.1418 -0.4632 -0.8084
 7189SOL     OW33028   0.533   2.839   8.331  0.1592 -0.3225  0.2696
 7189SOL    HW133029   0.502   2.750   8.316  2.0423 -0.9781  0.1828
 7189SOL    HW233030   0.581   2.824   8.412 -0.3275 -1.4168  0.3523
 7190SOL     OW33031   0.153   4.464   6.257  0.4990  0.0144  0.1745
 7190SOL    HW133032   0.194   4.450   6.172  4.5617  0.8918  2.0130
 7190SOL    HW233033   0.143   4.371   6.280 -2.2812  0.2061 -0.1812
 7191SOL     OW33034   1.513   0.304   7.598 -0.7512  0.2789 -0.1033
 7191SOL    HW133035   1.515   0.209   7.614  4.3417  0.4388  0.2540
 7191SOL    HW233036   1.538   0.323   7.689  0.7394 -2.5377  0.0831
 7192SOL     OW33037   1.537   0.862  12.121 -0.0475 -0.2887  0.2987
 7192SOL    HW133038   1.456   0.811  12.112 -0.5537  0.0725  2.9788
 7192SOL    HW233039   1.525   0.916  12.043 -0.0213  0.8282  1.0812
 7193SOL     OW33040   4.221   3.025   7.554 -0.8234  0.1855 -0.3264
 7193SOL    HW133041   4.211   3.048   7.462 -0.4050  3.0012  0.3537
 7193SOL    HW233042   4.280   2.954   7.529 -1.4649 -0.9388  1.3049
 7194SOL     OW33043   3.125   2.528  17.245  0.3203  0.0461  0.6537
 7194SOL    HW133044   3.188   2.593  17.277 -0.2468  1.0940 -0.3554
 7194SOL    HW233045   3.181   2.454  17.223  0.1691  0.4437 -1.0475
 7195SOL     OW33046   0.219   4.652   2.500 -0.0933  0.0932 -0.0480
 7195SOL    HW133047   0.232   4.567   2.459  2.3273  0.8181 -0.7725
 7195SOL    HW233048   0.211   4.715   2.428  0.1314 -0.4465 -0.5488
 7196SOL     OW33049   0.787   0.391   1.562 -0.4515 -0.3915 -0.2417
 7196SOL    HW133050   0.695   0.414   1.572 -0.4606 -0.4029 -0.2980
 7196SOL    HW233051   0.811   0.380   1.654  1.1748  0.5560 -0.5540
 7197SOL     OW33052   0.805   2.927   3.891 -0.0721  0.6083  1.1908
 7197SOL    HW133053   0.778   3.017   3.909 -0.4292  0.5117  1.1254
 7197SOL    HW233054   0.731   2.889   3.844 -0.9684  0.2804  2.8607
 7198SOL     OW33055   1.690   2.806   7.713 -0.8425  0.1478  0.0260
 7198SOL    HW133056   1.678   2.787   7.620 -3.0050 -1.5515  0.6574
 7198SOL    HW233057   1.629   2.748   7.758 -1.2650 -0.0239 -0.7563
 7199SOL     OW33058   1.748   0.845   4.079  0.5845  0.1990  0.0031
 7199SOL    HW133059   1.715   0.848   4.169  0.1877 -0.4253 -0.1248
 7199SOL    HW233060   1.821   0.783   4.084  1.3797  1.1544  0.2188
 7200SOL     OW33061   3.354   4.506  10.304 -0.2431 -0.0680  0.1925
 7200SOL    HW133062   3.342   4.420  10.264 -0.7671  0.7227 -1.3710
 7200SOL    HW233063   3.362   4.471  10.392 -1.7502 -0.3519  0.2233
 7201SOL     OW33064   0.518   2.503   5.632  0.4226 -0.4291  0.2126
 7201SOL    HW133065   0.483   2.561   5.699  0.2836 -2.2532  1.7203
 7201SOL    HW233066   0.496   2.413   5.657  0.5976 -1.0946 -2.0465
 7202SOL     OW33067   4.266   1.394  10.109 -0.6195 -0.2989 -0.0223
 7202SOL    HW133068   4.204   1.363  10.175 -0.5777  1.2042  0.7192
 7202SOL    HW233069   4.342   1.379  10.165  1.2960 -0.9218 -2.8035
 7203SOL     OW33070   2.103   4.531  14.975 -0.0768  0.2510  0.0021
 7203SOL    HW133071   2.190   4.493  14.988 -0.2010  0.7191  2.1261
 7203SOL    HW233072   2.105   4.566  14.886 -1.0949  1.0947  0.3120
 7204SOL     OW33073   0.448   0.244  12.254 -0.1076 -0.3661  0.3781
 7204SOL    HW133074   0.527   0.197  12.227 -0.7376 -1.2176  0.0272
 7204SOL    HW233075   0.382   0.208  12.195  0.7809  0.9075 -1.3865
 7205SOL     OW33076   2.525   2.049   8.161  0.3351 -0.5430  0.2688
 7205SOL    HW133077   2.577   2.053   8.241  0.3519 -3.8971  0.4184
 7205SOL    HW233078   2.458   1.989   8.194 -2.3879  2.3635  0.0474
 7206SOL     OW33079   2.649   0.432   7.947  0.2410 -0.2400 -0.1372
 7206SOL    HW133080   2.615   0.357   7.997 -0.2708  0.6975  0.9305
 7206SOL    HW233081   2.707   0.471   8.012 -1.4614  0.1632  1.1381
 7207SOL     OW33082   0.002   2.583   3.384 -0.2971  0.7238  0.0410
 7207SOL    HW133083   4.681   2.502   3.353  1.0782 -0.0964  0.4177
 7207SOL    HW233084   0.052   2.609   3.306 -0.7683 -1.6029 -1.0264
 7208SOL     OW33085   2.706   1.027   9.762  0.3262 -0.3888  0.0666
 7208SOL    HW133086   2.708   1.053   9.670  1.5120  3.0429  1.0569
 7208SOL    HW233087   2.700   1.107   9.814 -1.9194 -1.0294  0.7868
 7209SOL     OW33088   3.342   3.108   5.771  0.7568  0.0544 -0.3579
 7209SOL    HW133089   3.389   3.176   5.819  0.9344 -1.3208  1.4370
 7209SOL    HW233090   3.412   3.071   5.718  0.2705 -1.7550  0.2641
 7210SOL     OW33091   0.506   0.156  12.850  0.5147 -0.0494 -0.2694
 7210SOL    HW133092   0.418   0.125  12.872  0.6351 -0.5947 -0.5650
 7210SOL    HW233093   0.520   0.108  12.769  0.3502 -0.8030  0.1561
 7211SOL     OW33094   1.032   0.921   6.455  0.3761 -0.1383  0.0735
 7211SOL    HW133095   0.993   0.833   6.461 -1.0983  0.6410  2.1658
 7211SOL    HW233096   1.127   0.914   6.463  0.3709  0.7196  0.8604
 7212SOL     OW33097   1.187   3.137   7.728 -0.5535 -0.3164 -0.3334
 7212SOL    HW133098   1.244   3.064   7.753 -1.7408 -0.9976  0.3482
 7212SOL    HW233099   1.138   3.081   7.667 -0.7776 -0.8781  0.3708
 7213SOL     OW33100   0.004   3.314   9.134 -0.1688 -0.4410  0.2040
 7213SOL    HW133101   0.017   3.274   9.220  2.0643 -0.7498 -0.2749
 7213SOL    HW233102   0.087   3.310   9.087  1.1186  1.0737  2.3546
 7214SOL     OW33103   4.608   1.541   1.173  0.2769  0.0998  0.1954
 7214SOL    HW133104   4.588   1.493   1.253  0.4590  3.8242  2.4454
 7214SOL    HW233105   4.687   1.587   1.200 -0.2878  0.4442  1.2404
 7215SOL     OW33106   1.305   0.362   2.670 -0.2993  0.0401  0.4712
 7215SOL    HW133107   1.372   0.328   2.611  0.0923 -0.1670  1.0345
 7215SOL    HW233108   1.256   0.283   2.691  1.5288 -1.7212 -1.8938
 7216SOL     OW33109   0.253   1.235   3.455 -0.1189 -0.0851 -0.3380
 7216SOL    HW133110   0.346   1.256   3.449  0.0385 -1.3998 -2.7908
 7216SOL    HW233111   0.239   1.140   3.457  1.2098 -0.3277 -1.9231
 7217SOL     OW33112   2.859   1.590   1.479  0.3123  0.3028  0.5677
 7217SOL    HW133113   2.783   1.613   1.532 -0.4893  0.7792 -0.8200
 7217SOL    HW233114   2.937   1.625   1.523  0.0156  1.4429  0.1803
 7218SOL     OW33115   4.190   0.756   2.870 -0.4197  0.0890 -0.7545
 7218SOL    HW133116   4.119   0.759   2.805 -1.3213 -1.9025  0.1352
 7218SOL    HW233117   4.169   0.670   2.907  0.6385  0.2295  0.1516
 7219SOL     OW33118   4.243   0.707   0.607 -0.1801 -0.0639  0.2715
 7219SOL    HW133119   4.214   0.631   0.557 -0.1450  0.0847  0.0262
 7219SOL    HW233120   4.311   0.745   0.552 -0.4161  0.2522  0.2009
 7220SOL     OW33121   2.052   2.062   0.270 -0.0968  0.1456 -0.7447
 7220SOL    HW133122   2.028   2.143   0.224 -0.4257 -0.8654 -2.3345
 7220SOL    HW233123   2.087   2.102   0.349  0.9021 -1.1409 -0.5363
 7221SOL     OW33124   3.191   3.053   3.490  0.0117  0.6482 -0.4449
 7221SOL    HW133125   3.209   2.993   3.418 -0.7523 -0.5369  0.3429
 7221SOL    HW233126   3.257   3.053   3.559  0.8559 -0.0118 -1.2681
 7222SOL     OW33127   0.063   1.441   3.439 -0.5569 -0.6818 -0.5133
 7222SOL    HW133128   0.136   1.379   3.449 -0.4094 -0.6691 -1.4582
 7222SOL    HW233129   4.710   1.405   3.490  0.7833 -3.5442 -0.6055
 7223SOL     OW33130   1.177   2.446  12.514  0.0651 -0.0278  0.2190
 7223SOL    HW133131   1.124   2.367  12.509  0.6703 -0.4391  0.3182
 7223SOL    HW233132   1.214   2.452  12.426  1.7057  1.3843  1.0082
 7224SOL     OW33133   4.354   3.951   2.830 -0.3698  0.0123 -0.3079
 7224SOL    HW133134   4.291   4.022   2.831  0.4751  0.8215 -3.2652
 7224SOL    HW233135   4.296   3.884   2.866  0.8638 -1.6668 -1.4059
 7225SOL     OW33136   4.365   3.878   3.341  0.0139 -0.4945 -0.1415
 7225SOL    HW133137   4.289   3.892   3.397 -0.0583 -0.9878 -0.1126
 7225SOL    HW233138   4.397   3.963   3.309 -0.7239  0.1484  0.8483
 7226SOL     OW33139   0.193   3.617   8.179  0.3460 -0.7500  0.5140
 7226SOL    HW133140   0.253   3.669   8.125 -0.1027 -1.5554 -0.7756
 7226SOL    HW233141   0.124   3.586   8.121 -2.0647 -0.2642  3.1655
 7227SOL     OW33142   0.889   4.462   6.183  0.1826 -0.1560 -0.0842
 7227SOL    HW133143   0.826   4.485   6.115  0.1943  1.9297  0.6070
 7227SOL    HW233144   0.939   4.400   6.130  0.2062 -0.9935  0.9084
 7228SOL     OW33145   0.670   4.269  16.361 -0.0402  0.4161 -0.2393
 7228SOL    HW133146   0.648   4.237  16.449  1.6588 -1.5674 -0.5340
 7228SOL    HW233147   0.747   4.218  16.335  0.7513  2.3286 -1.6411
 7229SOL     OW33148   3.554   0.926  12.805  0.0591  0.0601 -0.5711
 7229SOL    HW133149   3.631   0.895  12.757  0.7036  1.9161 -0.7467
 7229SOL    HW233150   3.498   0.849  12.816 -1.6505  1.3302 -0.5584
 7230SOL     OW33151   3.801   2.662   1.127  0.1750  0.3364  0.3488
 7230SOL    HW133152   3.719   2.683   1.083  0.7762  1.9693  0.0082
 7230SOL    HW233153   3.822   2.752   1.151 -0.5735  0.5879  0.0648
 7231SOL     OW33154   1.639   2.567   8.059  0.2803 -0.0077 -0.2236
 7231SOL    HW133155   1.638   2.473   8.073 -0.7813  0.1020  0.3889
 7231SOL    HW233156   1.730   2.588   8.037  0.8121 -0.2306  1.7783
 7232SOL     OW33157   0.412   0.500  10.800  0.1031 -0.0495 -0.5487
 7232SOL    HW133158   0.427   0.407  10.783  0.0356 -0.0278 -0.7302
 7232SOL    HW233159   0.400   0.509  10.894  0.7134  0.1800 -0.4903
 7233SOL     OW33160   0.847   0.258  13.613 -0.0499 -0.5318  0.5525
 7233SOL    HW133161   0.906   0.235  13.541  1.4700 -1.0826  1.9916
 7233SOL    HW233162   0.790   0.329  13.585 -0.8413 -2.1154 -1.8688
 7234SOL     OW33163   0.124   4.491   3.563 -0.3148  0.2650  0.1567
 7234SOL    HW133164   0.062   4.536   3.620  0.6134  1.5367  0.1587
 7234SOL    HW233165   0.064   4.431   3.519 -1.6593  0.3047  1.9568
 7235SOL     OW33166   4.323   2.927  16.871 -0.1068  0.1786 -0.2160
 7235SOL    HW133167   4.253   2.868  16.843  0.6465 -1.0794  0.5158
 7235SOL    HW233168   4.312   3.003  16.815  1.4049  0.3739 -0.2452
 7236SOL     OW33169   3.821   3.593   8.988  0.3066 -0.1053 -0.0629
 7236SOL    HW133170   3.837   3.641   9.069  1.9457 -1.7370  0.5879
 7236SOL    HW233171   3.830   3.668   8.929 -2.0643 -0.6751 -1.1485
 7237SOL     OW33172   4.096   4.616   9.919 -0.2933  0.2705  0.2406
 7237SOL    HW133173   4.037   4.686   9.890  1.3211  1.3693 -0.4098
 7237SOL    HW233174   4.183   4.651   9.897  0.4515 -1.4208  0.4822
 7238SOL     OW33175   0.834   2.677   2.353 -0.2516 -0.4776 -0.1557
 7238SOL    HW133176   0.863   2.608   2.412 -1.8539 -2.0374 -1.1678
 7238SOL    HW233177   0.809   2.625   2.276  0.7518 -0.5686 -0.4134
 7239SOL     OW33178   2.376   3.682   1.593  0.2354  0.0115 -0.1379
 7239SOL    HW133179   2.363   3.718   1.681  3.2363  1.1608 -0.1468
 7239SOL    HW233180   2.330   3.737   1.530  1.1056  0.4220 -0.4131
 7240SOL     OW33181   2.913   1.081   7.140 -0.1418 -0.1643  0.4820
 7240SOL    HW133182   2.895   1.172   7.165 -1.1193 -0.4737  0.9053
 7240SOL    HW233183   2.982   1.094   7.076  1.9588 -1.1189  2.5369
 7241SOL     OW33184   0.052   2.803   0.973 -0.6944  0.2796 -0.1516
 7241SOL    HW133185   0.087   2.879   1.019  0.9034 -1.3826  1.3856
 7241SOL    HW233186   0.115   2.738   1.005 -2.5612 -1.5514 -0.2436
 7242SOL     OW33187   1.372   1.612  15.948 -0.7067 -0.1348 -0.0241
 7242SOL    HW133188   1.419   1.664  15.883  1.2369 -1.0768  0.6433
 7242SOL    HW233189   1.286   1.592  15.910 -0.3694 -0.3827 -0.6505
 7243SOL     OW33190   1.791   0.090  16.943 -0.0109  0.0929 -0.3789
 7243SOL    HW133191   1.764   0.004  16.977  0.5122  0.9185  2.1294
 7243SOL    HW233192   1.771   0.148  17.016 -2.4707 -0.9899 -0.1906
 7244SOL     OW33193   4.694   3.131   7.741  0.3617 -0.3075 -0.2383
 7244SOL    HW133194   0.017   3.059   7.788 -1.7158 -1.0525  0.4815
 7244SOL    HW233195   0.020   3.205   7.780  0.6225  0.4686 -2.0068
 7245SOL     OW33196   0.410   1.649   4.570 -0.1044  0.4101 -0.2701
 7245SOL    HW133197   0.358   1.661   4.650  1.6632  2.9247  0.4631
 7245SOL    HW233198   0.500   1.669   4.592  0.0928 -2.1093  1.1935
 7246SOL     OW33199   0.786   3.137  11.413  0.2759  0.3483  0.7600
 7246SOL    HW133200   0.778   3.075  11.341  2.4858  0.3349  0.5289
 7246SOL    HW233201   0.872   3.119  11.451 -0.0910 -0.1994  1.3321
 7247SOL     OW33202   0.921   0.482  11.265 -0.3376 -0.4728 -0.5984
 7247SOL    HW133203   0.895   0.479  11.357  1.0518  0.0229 -0.1931
 7247SOL    HW233204   0.892   0.396  11.234  0.5232 -0.4396 -1.4948
 7248SOL     OW33205   2.241   3.178   4.151 -0.2601  0.3850 -0.5109
 7248SOL    HW133206   2.173   3.113   4.167  2.4445 -3.2339 -3.4540
 7248SOL    HW233207   2.216   3.243   4.216  0.0422  1.3539 -1.3721
 7249SOL     OW33208   3.917   1.880  15.370 -0.3260  0.4247 -0.0352
 7249SOL    HW133209   3.936   1.884  15.276  0.2077 -2.1090 -0.0360
 7249SOL    HW233210   4.005   1.894  15.405 -0.9001  1.2141  1.0993
 7250SOL     OW33211   1.091   0.304   3.186 -0.6213 -0.0871  0.1281
 7250SOL    HW133212   0.999   0.318   3.162 -0.2052  0.3384 -1.2514
 7250SOL    HW233213   1.137   0.388   3.180 -2.6111  0.9554 -0.4306
 7251SOL     OW33214   2.718   3.897   7.174 -0.1823  0.0542  0.4058
 7251SOL    HW133215   2.665   3.894   7.254  0.0998  2.6438  0.6932
 7251SOL    HW233216   2.665   3.964   7.131  0.8282  0.3696 -0.3314
 7252SOL     OW33217   4.262   0.981  14.337  0.3122 -0.3161  0.1755
 7252SOL    HW133218   4.356   0.980  14.356  0.3482 -2.2474 -0.0659
 7252SOL    HW233219   4.250   0.886  14.330  1.1104 -0.4650  0.8402
 7253SOL     OW33220   0.806   0.326   4.929 -0.0026  0.2936  0.4776
 7253SOL    HW133221   0.783   0.268   4.856  0.7518  2.0130 -1.1244
 7253SOL    HW233222   0.797   0.403   4.872  1.2094 -0.7551 -1.1380
 7254SOL     OW33223   0.260   2.391   8.095 -0.4871  0.3153  0.3724
 7254SOL    HW133224   0.336   2.364   8.043  0.2715 -0.2798  1.8106
 7254SOL    HW233225   0.235   2.475   8.058 -0.4736 -0.2936 -1.0524
 7255SOL     OW33226   3.329   3.378   3.014  0.4331  0.0424  0.3434
 7255SOL    HW133227   3.288   3.455   3.052 -2.4429 -1.2359 -0.1423
 7255SOL    HW233228   3.415   3.411   2.988 -0.2923  2.2870  0.8301
 7256SOL     OW33229   1.933   3.188   0.130  0.2024 -0.3581 -0.1605
 7256SOL    HW133230   1.850   3.203   0.174  1.1525  0.5617  1.3231
 7256SOL    HW233231   1.987   3.259   0.165  4.2278 -2.5960 -1.8623
 7257SOL     OW33232   0.372   2.925   2.576 -0.1602 -0.4966  0.2969
 7257SOL    HW133233   0.282   2.957   2.576 -0.0695 -0.2357  0.5185
 7257SOL    HW233234   0.367   2.851   2.516  1.6695  0.4710 -1.0580
 7258SOL     OW33235   3.765   1.091   3.085  0.0407 -0.3180  0.5139
 7258SOL    HW133236   3.778   1.087   2.990  0.7846 -0.0593  0.6116
 7258SOL    HW233237   3.718   1.009   3.100 -2.5865  0.7346 -1.9461
 7259SOL     OW33238   2.859   2.704   6.562 -0.4771 -0.1804 -0.7792
 7259SOL    HW133239   2.827   2.738   6.479 -1.3977  0.2366 -0.2575
 7259SOL    HW233240   2.781   2.701   6.618 -0.5314 -1.3261 -0.9236
 7260SOL     OW33241   2.064   1.238   2.808  1.1357  0.2971  0.2066
 7260SOL    HW133242   2.067   1.203   2.897  1.1820 -1.9504 -0.6800
 7260SOL    HW233243   2.048   1.331   2.819  0.8749  0.3184 -0.4106
 7261SOL     OW33244   2.361   4.279   5.863  0.0973 -0.1772  0.0309
 7261SOL    HW133245   2.323   4.307   5.947 -3.5442 -0.2622 -1.5777
 7261SOL    HW233246   2.444   4.327   5.867 -0.5893  1.0079  0.1722
 7262SOL     OW33247   1.996   3.101  11.281 -0.4300 -0.5243  0.0236
 7262SOL    HW133248   2.041   3.050  11.348  0.2885  1.9103  1.4260
 7262SOL    HW233249   2.033   3.066  11.200  2.0486  0.9511  0.5070
 7263SOL     OW33250   1.697   3.468   0.496  0.5191  0.2430 -0.2027
 7263SOL    HW133251   1.611   3.428   0.506  0.5560  0.0466 -0.6877
 7263SOL    HW233252   1.755   3.401   0.533  0.1451  1.1288  2.0073
 7264SOL     OW33253   3.880   2.581   5.096  0.1110  0.4121 -0.1794
 7264SOL    HW133254   3.851   2.617   5.179  2.5703  0.5628  0.6020
 7264SOL    HW233255   3.823   2.505   5.085  0.5194  0.2922 -1.5483
 7265SOL     OW33256   2.768   2.005   8.671 -0.1412 -0.0364  0.4409
 7265SOL    HW133257   2.710   2.023   8.745 -1.3539  0.3646 -0.5936
 7265SOL    HW233258   2.733   2.064   8.603  1.4680  0.6589  0.2322
 7266SOL     OW33259   0.375   2.209   8.921 -0.0866  0.0484 -0.0621
 7266SOL    HW133260   0.283   2.214   8.949  0.0124 -1.0196  0.4315
 7266SOL    HW233261   0.416   2.197   9.007 -1.1528 -0.4315  0.3852
 7267SOL     OW33262   4.314   1.374   8.301  0.4509  0.3799 -0.2995
 7267SOL    HW133263   4.226   1.409   8.288 -0.0309 -0.1741  1.4801
 7267SOL    HW233264   4.298   1.300   8.360 -0.9664 -0.5161 -1.8205
 7268SOL     OW33265   3.865   1.892   3.201  0.2850 -0.6413  0.1941
 7268SOL    HW133266   3.859   1.945   3.122 -1.6044  0.8115  1.2930
 7268SOL    HW233267   3.849   1.805   3.164  0.0575 -1.6127  2.5472
 7269SOL     OW33268   4.266   2.688   1.962  0.0966 -0.2354 -0.1420
 7269SOL    HW133269   4.218   2.771   1.961 -1.4784 -1.1707 -1.5046
 7269SOL    HW233270   4.240   2.659   2.049  0.3374  0.5442  0.1917
 7270SOL     OW33271   3.275   4.253   3.271 -0.0247 -0.2769 -0.1204
 7270SOL    HW133272   3.285   4.264   3.177  3.0812 -0.8565  0.1309
 7270SOL    HW233273   3.354   4.300   3.299 -0.0339 -0.8013  0.8022
 7271SOL     OW33274   3.932   4.307  13.900  0.0072 -0.2035 -0.4286
 7271SOL    HW133275   3.863   4.245  13.926 -1.0588  0.3437 -1.9956
 7271SOL    HW233276   3.888   4.361  13.835  2.9485  1.7473 -0.8259
 7272SOL     OW33277   2.998   4.462  12.149 -0.6021 -0.0100 -0.1823
 7272SOL    HW133278   3.008   4.439  12.057 -0.7744  2.4030 -0.7902
 7272SOL    HW233279   2.916   4.418  12.174  0.5110 -1.0734  1.6372
 7273SOL     OW33280   4.632   3.629   6.799 -0.5445 -0.0925 -0.5469
 7273SOL    HW133281   4.616   3.583   6.881 -1.4010 -3.2502 -2.5170
 7273SOL    HW233282   4.576   3.585   6.736 -0.7998 -1.3307  0.5491
 7274SOL     OW33283   3.317   3.376  14.868 -0.1923  0.3619 -0.1748
 7274SOL    HW133284   3.228   3.401  14.841  1.2435  1.8979 -3.4315
 7274SOL    HW233285   3.299   3.369  14.962  0.5571 -2.2368 -0.2310
 7275SOL     OW33286   0.472   4.274   2.714  0.9314  0.3993 -0.2900
 7275SOL    HW133287   0.492   4.290   2.621  0.2722 -0.9319 -0.6733
 7275SOL    HW233288   0.403   4.210   2.697  2.0471 -1.0680  0.7086
 7276SOL     OW33289   1.908   0.182   5.015 -0.5601 -0.9230  0.2172
 7276SOL    HW133290   1.945   0.246   4.954  0.3508 -2.6603 -1.0859
 7276SOL    HW233291   1.829   0.228   5.040 -0.1909 -1.4457  2.3313
 7277SOL     OW33292   1.090   3.951   6.037 -0.4133 -0.0694  0.2985
 7277SOL    HW133293   1.085   3.974   5.944 -1.0482  0.0732  0.3660
 7277SOL    HW233294   1.011   3.897   6.044 -0.2496 -0.5701 -1.8533
 7278SOL     OW33295   3.552   3.447  11.117  0.0342 -0.6569 -0.7836
 7278SOL    HW133296   3.458   3.456  11.098 -0.7487 -0.7181  2.9753
 7278SOL    HW233297   3.545   3.410  11.205 -3.3432  1.3406 -0.2009
 7279SOL     OW33298   1.326   3.360   9.775 -0.0899 -0.2040 -0.4953
 7279SOL    HW133299   1.244   3.371   9.824 -1.7563 -2.9942 -2.6535
 7279SOL    HW233300   1.293   3.406   9.698  0.7432  1.6718  0.2714
 7280SOL     OW33301   2.291   1.404   8.912  0.4222  0.1788  0.0007
 7280SOL    HW133302   2.354   1.357   8.967 -0.3879  0.3786  1.1076
 7280SOL    HW233303   2.336   1.405   8.828  3.2263  3.8977  1.5330
 7281SOL     OW33304   2.757   0.955   6.592 -0.1567 -0.4953 -0.4671
 7281SOL    HW133305   2.712   1.038   6.608  0.7087  0.0264 -0.7390
 7281SOL    HW233306   2.786   0.924   6.678  0.9265  0.2789 -0.5498
 7282SOL     OW33307   0.133   2.112   4.797  0.5860  0.0902 -0.4408
 7282SOL    HW133308   0.043   2.144   4.809  1.6095  2.0334  1.8684
 7282SOL    HW233309   0.133   2.034   4.852  0.4568  0.4045  0.0031
 7283SOL     OW33310   2.413   0.423   3.715 -0.1961  0.2793  0.3126
 7283SOL    HW133311   2.335   0.368   3.703  0.4235 -0.9509  1.9698
 7283SOL    HW233312   2.373   0.507   3.734 -1.4645 -0.6897  1.8550
 7284SOL     OW33313   0.711   0.671   1.789 -0.1439  0.0966  0.0432
 7284SOL    HW133314   0.711   0.722   1.870  0.6232 -1.7470  1.1990
 7284SOL    HW233315   0.798   0.633   1.798  0.1192  0.7554  0.2833
 7285SOL     OW33316   0.521   2.401   8.762 -0.5978  0.6104 -0.4870
 7285SOL    HW133317   0.440   2.375   8.805  0.4471  1.2510  1.8590
 7285SOL    HW233318   0.565   2.448   8.833  1.7896 -2.9534  0.3466
 7286SOL     OW33319   3.577   0.421   7.233  0.6115 -0.1396  0.0700
 7286SOL    HW133320   3.629   0.486   7.185 -0.6161  2.8140  2.7544
 7286SOL    HW233321   3.502   0.423   7.174 -1.2169  0.9316  2.4524
 7287SOL     OW33322   4.695   3.093   4.991 -0.1236  0.1025  0.9726
 7287SOL    HW133323   4.719   3.159   4.926 -2.3191 -0.2006 -0.1468
 7287SOL    HW233324   4.665   3.157   5.055 -0.5689  1.3778 -0.5180
 7288SOL     OW33325   0.798   0.612  11.629  0.1885  0.3259 -0.7799
 7288SOL    HW133326   0.854   0.668  11.576 -1.4946  2.4350 -0.3774
 7288SOL    HW233327   0.761   0.559  11.559 -1.9301  0.7120  0.0491
 7289SOL     OW33328   2.449   4.670   5.849  0.4383  0.2297 -0.2128
 7289SOL    HW133329   2.513   4.705   5.911 -0.8006  2.3341 -0.1289
 7289SOL    HW233330   2.486   4.587   5.819  3.2183  1.0973  0.7629
 7290SOL     OW33331   3.786   1.328   2.309 -0.0671  0.2655 -0.2265
 7290SOL    HW133332   3.711   1.384   2.286  0.7568  1.4005 -0.1102
 7290SOL    HW233333   3.759   1.246   2.266  0.2516 -0.7383  1.4885
 7291SOL     OW33334   3.373   0.309   8.526  0.0471  0.1147  0.1454
 7291SOL    HW133335   3.412   0.395   8.542 -1.8411  1.1324 -0.7011
 7291SOL    HW233336   3.344   0.283   8.614 -2.1835 -1.3988 -1.0563
 7292SOL     OW33337   1.456   3.746   2.241  0.1789  0.2393 -0.0584
 7292SOL    HW133338   1.446   3.660   2.282  0.7794 -0.3532 -1.1515
 7292SOL    HW233339   1.473   3.727   2.148 -1.8467 -1.7299 -0.0313
 7293SOL     OW33340   1.433   0.285   2.225  0.0170  0.5054 -0.0312
 7293SOL    HW133341   1.437   0.301   2.319 -0.0921 -1.6787  0.3272
 7293SOL    HW233342   1.411   0.192   2.223  0.4308  0.3957  0.3772
 7294SOL     OW33343   1.755   2.811   7.014 -0.1058 -0.1516  0.3361
 7294SOL    HW133344   1.811   2.835   6.940 -2.0022  0.3254 -0.9538
 7294SOL    HW233345   1.687   2.877   7.017  0.0347  0.0346 -0.6292
 7295SOL     OW33346   2.294   0.411   5.023 -0.4108 -0.8126 -0.0065
 7295SOL    HW133347   2.249   0.340   4.978  0.9806 -1.4008 -0.4816
 7295SOL    HW233348   2.228   0.446   5.083  0.1920 -0.3907  0.4141
 7296SOL     OW33349   0.696   1.878   3.732  0.5907  0.0183  0.2196
 7296SOL    HW133350   0.738   1.845   3.653  2.8647  0.9482  1.0410
 7296SOL    HW233351   0.728   1.814   3.794  1.6004  0.4028  0.0872
 7297SOL     OW33352   2.701   1.959  10.532  0.7899 -0.7938  0.3645
 7297SOL    HW133353   2.789   1.927  10.515  1.6321  3.4536 -3.3159
 7297SOL    HW233354   2.705   2.051  10.560 -0.9980 -0.1071 -1.6083
 7298SOL     OW33355   0.617   3.738   6.728 -0.1288 -0.2148 -0.1171
 7298SOL    HW133356   0.609   3.677   6.801  1.8742  2.5406  2.4304
 7298SOL    HW233357   0.526   3.766   6.721  0.3108  1.4950  1.0358
 7299SOL     OW33358   0.804   0.817   8.413  0.0857 -0.2016  0.3691
 7299SOL    HW133359   0.878   0.761   8.391  0.2584  0.6300 -1.1804
 7299SOL    HW233360   0.727   0.765   8.437 -1.5319  2.8291  1.7384
 7300SOL     OW33361   0.859   0.262   4.639  0.2839 -0.0655 -0.1226
 7300SOL    HW133362   0.770   0.266   4.603  0.4488 -1.4867 -0.6522
 7300SOL    HW233363   0.883   0.183   4.591 -0.2657 -0.9167  0.9935
 7301SOL     OW33364   3.791   1.771   2.058  0.2737 -0.0254  0.0569
 7301SOL    HW133365   3.780   1.740   1.968 -0.5854  0.2961  0.0556
 7301SOL    HW233366   3.708   1.805   2.092  0.3002  0.6767 -0.5849
 7302SOL     OW33367   4.322   2.500  10.526  0.2340 -0.5157  0.3394
 7302SOL    HW133368   4.372   2.447  10.463 -0.2210 -1.9909  1.2145
 7302SOL    HW233369   4.259   2.534  10.464 -0.7673 -1.7777  0.6545
 7303SOL     OW33370   0.204   1.542   6.475 -0.2944 -0.0566  0.5011
 7303SOL    HW133371   0.188   1.629   6.438 -0.0749  0.0443  0.6422
 7303SOL    HW233372   0.252   1.496   6.406  0.7684  0.4029  0.9273
 7304SOL     OW33373   0.804   1.881  13.216 -0.5790  0.2172 -0.1686
 7304SOL    HW133374   0.753   1.800  13.223  1.3681 -0.9116  1.0724
 7304SOL    HW233375   0.854   1.867  13.136 -2.1322 -0.6384 -0.9828
 7305SOL     OW33376   0.163   4.266  14.791 -0.1746 -0.1455  0.2503
 7305SOL    HW133377   0.207   4.281  14.708  0.1666 -0.0012  0.4551
 7305SOL    HW233378   0.211   4.195  14.835  2.8590  1.3693 -0.6619
 7306SOL     OW33379   3.717   3.061   7.984 -0.5659 -0.4225  0.5414
 7306SOL    HW133380   3.707   2.994   8.051  3.4361 -1.6127 -0.0527
 7306SOL    HW233381   3.785   3.118   8.021  1.6853 -2.8481  0.1458
 7307SOL     OW33382   3.862   1.585   9.652 -0.0650  0.7870  0.6942
 7307SOL    HW133383   3.909   1.557   9.730  0.1001 -2.4422 -0.5658
 7307SOL    HW233384   3.842   1.675   9.679  1.2114  2.0096 -2.4779
 7308SOL     OW33385   3.142   1.866   5.274  0.1603  0.2141  0.5899
 7308SOL    HW133386   3.126   1.774   5.292  0.5632 -0.1179 -0.7655
 7308SOL    HW233387   3.052   1.900   5.279 -0.0083 -0.3914  1.7231
 7309SOL     OW33388   4.262   3.914  16.662  0.4159  0.1152 -0.1091
 7309SOL    HW133389   4.336   3.889  16.717  1.5742  2.4623 -0.6029
 7309SOL    HW233390   4.194   3.919  16.729  1.8166 -1.6613  1.4378
 7310SOL     OW33391   2.702   3.494   4.657  0.1812  0.2268 -0.4953
 7310SOL    HW133392   2.725   3.521   4.746 -1.6487 -0.5334  0.2101
 7310SOL    HW233393   2.624   3.548   4.641 -0.6899 -0.6306  0.8431
 7311SOL     OW33394   0.164   3.171  13.284  0.2856  0.1324 -0.1992
 7311SOL    HW133395   0.085   3.209  13.321 -0.3998 -1.2930 -0.2065
 7311SOL    HW233396   0.190   3.114  13.357  1.4485 -1.1763 -1.6385
 7312SOL     OW33397   4.008   4.094  13.253  0.2250  0.1417  0.1904
 7312SOL    HW133398   4.020   4.052  13.338 -2.4397  3.3760  2.1707
 7312SOL    HW233399   3.944   4.164  13.269  1.5347  1.0256  1.6302
 7313SOL     OW33400   0.676   4.153   3.931  0.3298  0.4978  0.5417
 7313SOL    HW133401   0.741   4.085   3.915  1.0564  1.5845 -1.0777
 7313SOL    HW233402   0.621   4.124   4.004 -0.1108  2.1230  0.8398
 7314SOL     OW33403   3.141   1.493  14.373 -0.1902  0.1719  0.3604
 7314SOL    HW133404   3.130   1.484  14.468 -0.2142 -1.0997  0.2346
 7314SOL    HW233405   3.104   1.412  14.340  0.1078  0.1894 -0.0137
 7315SOL     OW33406   1.099   3.135   2.195  0.5770  0.0456  0.3055
 7315SOL    HW133407   1.065   3.225   2.199  0.6179  0.0464  0.6180
 7315SOL    HW233408   1.079   3.105   2.284  0.9573 -2.6303 -0.5175
 7316SOL     OW33409   0.419   1.387   5.501  0.1156  0.3427  0.1496
 7316SOL    HW133410   0.447   1.478   5.491 -0.9719  0.5905 -0.6971
 7316SOL    HW233411   0.373   1.397   5.584  3.0904  1.4406  1.6538
 7317SOL     OW33412   4.450   3.265   3.752 -0.1368  0.3931  0.0981
 7317SOL    HW133413   4.531   3.298   3.791 -0.3702 -1.5133  2.1940
 7317SOL    HW233414   4.496   3.193   3.710 -0.5464 -0.1211  0.5308
 7318SOL     OW33415   0.291   0.247   2.730 -0.2154  0.5109  0.1739
 7318SOL    HW133416   0.322   0.158   2.713  1.1586  1.2523 -1.2312
 7318SOL    HW233417   0.322   0.293   2.651  1.1758  0.7310  0.8373
 7319SOL     OW33418   3.089   4.451   8.205  0.7444  0.6696 -0.1711
 7319SOL    HW133419   3.154   4.506   8.249  1.9318 -0.4365 -0.5539
 7319SOL    HW233420   3.016   4.512   8.190 -0.7014 -1.5302 -1.9962
 7320SOL     OW33421   1.050   0.775  10.879 -0.1084  0.0414  0.5636
 7320SOL    HW133422   1.024   0.779  10.971 -1.1208  0.1099  0.2726
 7320SOL    HW233423   0.984   0.710  10.854  0.3905  0.2296 -1.2485
 7321SOL     OW33424   4.413   2.873   5.998 -1.0106 -0.1293  0.4856
 7321SOL    HW133425   4.330   2.919   5.982 -0.4828  1.0572  1.1827
 7321SOL    HW233426   4.434   2.913   6.083 -1.1570  0.1902  0.3747
 7322SOL     OW33427   1.503   4.488   3.166  0.3335  0.0066  0.0222
 7322SOL    HW133428   1.507   4.407   3.115 -0.0092  0.6154 -0.9740
 7322SOL    HW233429   1.471   4.539   3.091 -1.5260  0.5480  1.1939
 7323SOL     OW33430   3.261   2.401   6.196 -0.1105 -0.0862  0.2324
 7323SOL    HW133431   3.284   2.493   6.186 -3.5440  0.7073 -0.4645
 7323SOL    HW233432   3.174   2.394   6.236 -0.6395 -0.4277 -0.9770
 7324SOL     OW33433   2.942   4.205   3.415 -0.2504 -0.2074  0.2256
 7324SOL    HW133434   2.995   4.164   3.348 -0.3830 -1.3962  0.8415
 7324SOL    HW233435   2.868   4.143   3.419 -1.3363  1.1439  1.1735
 7325SOL     OW33436   0.343   2.966  11.522  0.5256 -0.2077  0.2478
 7325SOL    HW133437   0.353   3.020  11.444 -2.5804 -0.2948 -0.2152
 7325SOL    HW233438   0.345   2.882  11.478 -0.8682  1.3239 -2.7248
 7326SOL     OW33439   3.822   1.993   7.994 -0.1170 -0.6382 -0.4091
 7326SOL    HW133440   3.862   2.070   7.952 -2.5520 -0.2226 -2.0007
 7326SOL    HW233441   3.837   2.019   8.085 -0.4536 -3.5693  0.4843
 7327SOL     OW33442   4.145   1.818   2.345  0.3334 -0.2352 -0.7888
 7327SOL    HW133443   4.203   1.742   2.338  1.4286  0.5151  0.0813
 7327SOL    HW233444   4.146   1.847   2.254  1.6157  1.2533 -0.3059
 7328SOL     OW33445   4.338   1.020  15.415 -0.2793 -0.6627 -0.0300
 7328SOL    HW133446   4.423   1.026  15.458 -0.0014  0.2067 -0.6933
 7328SOL    HW233447   4.300   0.942  15.455  1.7298 -0.9243  1.3754
 7329SOL     OW33448   0.670   0.368   6.054  0.4147 -0.6052  0.8215
 7329SOL    HW133449   0.664   0.370   5.959  2.8509  0.1356  0.6912
 7329SOL    HW233450   0.635   0.280   6.067  0.2937 -0.4049  1.8770
 7330SOL     OW33451   3.895   2.126  14.641  0.1720  0.0843  0.0224
 7330SOL    HW133452   3.967   2.168  14.688  0.1349 -0.0045  0.1584
 7330SOL    HW233453   3.868   2.183  14.568  2.2262  1.0816  0.0228
 7331SOL     OW33454   1.608   0.862  15.486  0.4096 -0.6073  0.7659
 7331SOL    HW133455   1.519   0.832  15.467  1.7214 -1.6895 -3.5872
 7331SOL    HW233456   1.637   0.807  15.560  0.5584 -3.2182 -1.2349
 7332SOL     OW33457   3.140   2.535  15.102 -0.2184  0.4017  0.2315
 7332SOL    HW133458   3.088   2.463  15.065  1.1965 -0.4242 -0.1670
 7332SOL    HW233459   3.216   2.542  15.044 -2.3361 -0.0846 -2.5991
 7333SOL     OW33460   3.139   0.862   4.781 -0.0028  0.1531  0.2398
 7333SOL    HW133461   3.063   0.913   4.752  0.3255  0.1962 -0.5369
 7333SOL    HW233462   3.178   0.818   4.706 -1.2246 -2.1527  0.9838
 7334SOL     OW33463   2.765   3.111   3.824  0.3956 -0.3702  0.3073
 7334SOL    HW133464   2.847   3.082   3.786  0.4306  0.9767 -0.6355
 7334SOL    HW233465   2.792   3.157   3.903  0.3291 -2.3272  1.4662
 7335SOL     OW33466   3.307   1.799  12.117 -0.0429  0.7083  0.0993
 7335SOL    HW133467   3.386   1.768  12.073 -1.7438 -0.6984 -1.9565
 7335SOL    HW233468   3.314   1.894  12.108  2.1188  0.5762  0.5031
 7336SOL     OW33469   1.244   1.160   6.877  0.3224 -0.0291 -0.1033
 7336SOL    HW133470   1.200   1.221   6.936  0.8964  0.7819 -0.5074
 7336SOL    HW233471   1.262   1.218   6.803  0.9036 -0.8041 -0.5636
 7337SOL     OW33472   2.880   0.604   4.062  0.0988  0.3864 -0.5282
 7337SOL    HW133473   2.854   0.512   4.071  0.3299  0.2467 -1.2779
 7337SOL    HW233474   2.886   0.643   4.150  0.7199 -0.1681 -0.3260
 7338SOL     OW33475   2.237   4.087   4.837 -0.4114 -0.3222  0.0958
 7338SOL    HW133476   2.286   4.042   4.906 -0.0177 -0.8206 -0.5006
 7338SOL    HW233477   2.174   4.143   4.881 -3.4254 -3.7336  0.0969
 7339SOL     OW33478   4.419   3.230  10.457  0.1200 -0.4769 -0.1264
 7339SOL    HW133479   4.473   3.238  10.535  0.4043 -0.8546 -0.2806
 7339SOL    HW233480   4.421   3.134  10.447  0.7937 -0.3865 -0.8378
 7340SOL     OW33481   2.469   1.584   8.137  0.8098 -0.0237 -0.1838
 7340SOL    HW133482   2.416   1.515   8.178 -0.0433  2.0073  2.0603
 7340SOL    HW233483   2.406   1.650   8.107  0.9864  0.5197  0.6512
 7341SOL     OW33484   4.071   3.827   5.534 -0.4620  0.0581  0.2223
 7341SOL    HW133485   4.017   3.906   5.541  1.2196  1.3197 -1.0161
 7341SOL    HW233486   4.077   3.827   5.438  0.7807 -3.1026  0.2941
 7342SOL     OW33487   3.475   2.792   7.239  0.0076  0.4520 -0.0135
 7342SOL    HW133488   3.395   2.740   7.236  0.1757  0.2037 -0.1962
 7342SOL    HW233489   3.541   2.731   7.205  0.1176  1.3190 -1.3487
 7343SOL     OW33490   3.311   1.867   3.816  0.4416 -0.2192 -0.1334
 7343SOL    HW133491   3.392   1.865   3.766  1.2549 -2.2566  1.2549
 7343SOL    HW233492   3.315   1.780   3.854 -0.2459 -0.5836 -0.8936
 7344SOL     OW33493   0.510   1.863   6.373  0.3029 -0.3608 -0.5807
 7344SOL    HW133494   0.489   1.861   6.466  1.3948 -0.2711 -0.3417
 7344SOL    HW233495   0.589   1.916   6.372  0.9027 -1.2606 -0.1287
 7345SOL     OW33496   1.603   2.589  12.830 -0.4309  0.2549 -0.1320
 7345SOL    HW133497   1.518   2.580  12.874  0.1808  0.3678  1.0732
 7345SOL    HW233498   1.579   2.611  12.740  0.8061  0.1179 -0.4924
 7346SOL     OW33499   3.834   2.110   3.985  0.0533  0.2152  0.2496
 7346SOL    HW133500   3.787   2.030   3.962 -1.3239  0.6292  1.6476
 7346SOL    HW233501   3.847   2.153   3.901  0.3135  1.0219  0.7056
 7347SOL     OW33502   4.258   3.533   5.983  0.4658  0.8222 -0.4958
 7347SOL    HW133503   4.164   3.519   5.981  0.5468  0.0223  2.3770
 7347SOL    HW233504   4.280   3.580   6.063  0.8968 -0.1265 -0.0559
 7348SOL     OW33505   3.091   1.633   9.026 -0.0222  1.1041 -0.1450
 7348SOL    HW133506   3.090   1.538   9.011  2.8658  1.2450 -1.1971
 7348SOL    HW233507   3.026   1.658   8.961 -1.5008 -2.4769 -0.0336
 7349SOL     OW33508   1.191   4.510   3.666  0.2060 -0.1124  0.7587
 7349SOL    HW133509   1.171   4.548   3.752  0.5248 -0.0080  0.7865
 7349SOL    HW233510   1.262   4.450   3.688  0.4663 -0.7008 -1.7417
 7350SOL     OW33511   3.273   3.236   5.112 -0.1490  0.5951  0.2054
 7350SOL    HW133512   3.336   3.294   5.069  0.7276 -1.0697 -0.7603
 7350SOL    HW233513   3.193   3.259   5.065 -1.1568  0.1340  1.6749
 7351SOL     OW33514   3.246   0.162   2.054  0.0665 -0.4767 -0.1112
 7351SOL    HW133515   3.289   0.090   2.102  2.4376 -0.4876 -2.2426
 7351SOL    HW233516   3.165   0.164   2.105  0.5457  0.4652  0.6005
 7352SOL     OW33517   3.921   0.336   2.515  0.1867 -0.3010 -0.0003
 7352SOL    HW133518   3.885   0.302   2.433 -0.9111 -0.3646  0.5205
 7352SOL    HW233519   3.913   0.429   2.496 -1.8829 -0.3938  0.4574
 7353SOL     OW33520   1.255   1.534   4.209  0.4454 -0.0361 -0.4527
 7353SOL    HW133521   1.166   1.545   4.241  0.8162 -1.5822  1.0736
 7353SOL    HW233522   1.293   1.622   4.202  1.3721 -0.4497 -0.6026
 7354SOL     OW33523   4.669   2.444   8.059  0.1950  0.1718 -0.1981
 7354SOL    HW133524   4.616   2.423   7.983  0.4929  2.0605 -0.9329
 7354SOL    HW233525   4.665   2.539   8.049 -2.1159 -0.0123 -1.0006
 7355SOL     OW33526   2.243   0.967   4.891 -0.1136  0.1308 -0.0943
 7355SOL    HW133527   2.285   0.897   4.941  0.7997 -0.7909 -2.1285
 7355SOL    HW233528   2.314   1.010   4.844  0.4710 -0.2878  0.4128
 7356SOL     OW33529   3.612   0.116   2.300 -0.0818  0.1526 -0.4343
 7356SOL    HW133530   3.575   0.046   2.355  0.0600 -0.8263 -1.5878
 7356SOL    HW233531   3.548   0.183   2.322  0.9528  0.9128  0.2817
 7357SOL     OW33532   0.346   0.495   8.448  0.4066 -0.1300  0.2342
 7357SOL    HW133533   0.372   0.412   8.410  0.5296 -0.5576  1.2447
 7357SOL    HW233534   0.269   0.510   8.392 -0.8846  1.0893  2.2911
 7358SOL     OW33535   1.389   3.616   7.929  0.6475 -0.8774  0.0652
 7358SOL    HW133536   1.461   3.597   7.869 -0.8125 -2.3941 -1.2057
 7358SOL    HW233537   1.430   3.573   8.004  1.5063  1.8190  1.1265
 7359SOL     OW33538   0.553   1.061   9.183  0.3698  0.4262  0.6318
 7359SOL    HW133539   0.470   1.068   9.229  0.5747 -1.3618  1.2896
 7359SOL    HW233540   0.580   1.151   9.202 -0.4673  1.0446 -1.1922
 7360SOL     OW33541   3.441   0.772   8.069  0.4192 -0.0765  0.0335
 7360SOL    HW133542   3.413   0.855   8.030 -1.9885 -0.5258  0.8386
 7360SOL    HW233543   3.378   0.715   8.024 -0.5285  0.2467  0.9518
 7361SOL     OW33544   0.959   3.443   8.731  0.3280  0.0990 -0.2536
 7361SOL    HW133545   0.952   3.475   8.821  0.9599 -2.4936  0.7283
 7361SOL    HW233546   0.873   3.400   8.730  0.4266 -0.0988 -0.2422
 7362SOL     OW33547   3.239   2.987   6.411 -0.2948  0.2838 -0.2747
 7362SOL    HW133548   3.316   2.964   6.463 -0.0605  0.1422 -0.6877
 7362SOL    HW233549   3.223   3.077   6.441  2.0216 -0.3851  2.9892
 7363SOL     OW33550   2.779   3.332  16.468 -0.2262  0.1903 -0.1503
 7363SOL    HW133551   2.815   3.392  16.533 -1.0368 -0.4856  0.9131
 7363SOL    HW233552   2.775   3.397  16.397 -3.4853  0.7505  0.5343
 7364SOL     OW33553   3.479   3.437   4.116  0.1892 -0.2704 -0.1580
 7364SOL    HW133554   3.455   3.456   4.026 -1.8984  2.7507  1.0389
 7364SOL    HW233555   3.547   3.371   4.102 -0.9607 -1.3370 -0.7233
 7365SOL     OW33556   3.270   0.499   5.505  0.4766  0.5734 -0.2687
 7365SOL    HW133557   3.243   0.410   5.529 -1.9106  1.5189  0.5925
 7365SOL    HW233558   3.279   0.535   5.593  0.6451 -1.2591  0.4647
 7366SOL     OW33559   3.463   2.868   2.960 -0.4874 -0.0533 -0.1282
 7366SOL    HW133560   3.458   2.816   3.041 -2.1940 -0.0465 -0.2307
 7366SOL    HW233561   3.369   2.879   2.944 -0.6826 -0.7016  0.5841
 7367SOL     OW33562   3.301   1.490  10.288  0.7452 -0.0391 -0.3526
 7367SOL    HW133563   3.253   1.557  10.239  0.8367  1.3632  1.4912
 7367SOL    HW233564   3.299   1.523  10.377 -1.1554  1.1238 -0.8343
 7368SOL     OW33565   0.982   4.307   9.762  0.2905  0.2494  0.5829
 7368SOL    HW133566   1.056   4.325   9.820  0.2842  0.2260  0.5986
 7368SOL    HW233567   0.958   4.396   9.738 -0.0746 -0.1664 -0.5786
 7369SOL     OW33568   4.228   1.138   9.670  0.3049  0.2286 -0.0029
 7369SOL    HW133569   4.309   1.106   9.711 -0.0205  1.3932  1.5597
 7369SOL    HW233570   4.179   1.161   9.749  0.5714 -0.2871  0.3075
 7370SOL     OW33571   0.730   1.192  10.075  0.6350 -0.0781 -0.1176
 7370SOL    HW133572   0.723   1.208  10.169 -0.7976  0.5026 -0.3153
 7370SOL    HW233573   0.824   1.179  10.061  0.9715  1.1246  1.1276
 7371SOL     OW33574   2.354   2.583   3.578 -0.0993 -0.3224  0.4869
 7371SOL    HW133575   2.383   2.603   3.667  0.3862  0.0911  0.2353
 7371SOL    HW233576   2.293   2.515   3.605 -0.1838  0.5446  2.4620
 7372SOL     OW33577   2.840   0.162   3.560 -0.1183 -0.2240 -0.7809
 7372SOL    HW133578   2.744   0.165   3.560 -0.0637  1.1925  1.2730
 7372SOL    HW233579   2.856   0.117   3.643 -0.6869 -0.9599 -1.0663
 7373SOL     OW33580   1.254   1.999   8.980  0.6623 -0.0720  0.3666
 7373SOL    HW133581   1.341   2.022   9.014 -0.4946  0.5930  2.9037
 7373SOL    HW233582   1.263   1.907   9.007 -0.4850 -0.3883 -0.3113
 7374SOL     OW33583   0.509   2.049   5.692 -0.1591  0.3334 -0.1418
 7374SOL    HW133584   0.603   2.028   5.684  0.0115  1.5513 -1.3756
 7374SOL    HW233585   0.505   2.127   5.638 -0.6173 -0.4065 -1.1630
 7375SOL     OW33586   3.496   2.323   5.357 -0.3035  0.2540 -0.0831
 7375SOL    HW133587   3.479   2.231   5.373  1.7479 -0.2910 -0.9831
 7375SOL    HW233588   3.515   2.355   5.445 -1.7963  1.1132 -0.0765
 7376SOL     OW33589   4.445   3.043   6.219 -0.2663 -0.9174 -0.1461
 7376SOL    HW133590   4.371   3.035   6.279 -0.2469  1.3475  0.1872
 7376SOL    HW233591   4.450   3.135   6.194  3.2714 -1.4242 -1.3865
 7377SOL     OW33592   0.012   1.481  10.724 -0.5091 -0.1079 -0.4638
 7377SOL    HW133593   0.095   1.438  10.745 -0.0452 -0.5842 -3.3233
 7377SOL    HW233594   0.033   1.573  10.742  2.0835 -0.4276 -1.8864
 7378SOL     OW33595   2.572   2.683  15.216 -0.0680  0.1694  0.2457
 7378SOL    HW133596   2.643   2.705  15.156  0.0886 -3.0409 -0.7488
 7378SOL    HW233597   2.513   2.647  15.150  1.0601 -0.6819 -0.2931
 7379SOL     OW33598   4.394   0.377   9.617 -0.0446  0.2949  0.0986
 7379SOL    HW133599   4.305   0.353   9.590  0.4136 -2.4928  1.1110
 7379SOL    HW233600   4.376   0.426   9.697  1.7565  1.5839 -0.3031
 7380SOL     OW33601   0.409   3.442   5.994  0.1780 -0.1078 -0.3393
 7380SOL    HW133602   0.486   3.499   5.995  0.3644 -0.3843  1.3645
 7380SOL    HW233603   0.426   3.390   6.073 -0.5294 -0.0979 -0.1859
 7381SOL     OW33604   4.696   2.922  13.147 -0.0199  0.5488 -0.0443
 7381SOL    HW133605   4.616   2.971  13.125 -0.8665 -1.0067 -0.4387
 7381SOL    HW233606   4.692   2.943  13.241  0.5521 -2.3959  0.6453
 7382SOL     OW33607   0.535   2.850   3.765  0.4661  0.7320  0.7676
 7382SOL    HW133608   0.498   2.764   3.744  1.0869  0.7390 -0.3313
 7382SOL    HW233609   0.465   2.905   3.801  1.4916  1.6106  1.4052
 7383SOL     OW33610   3.331   3.577  15.344  0.3129 -0.0151 -0.0837
 7383SOL    HW133611   3.363   3.667  15.335  0.2654 -0.0589 -0.7344
 7383SOL    HW233612   3.397   3.532  15.397  0.2123  1.9562  1.6905
 7384SOL     OW33613   0.999   3.554   1.654  0.5456  0.4552 -0.3599
 7384SOL    HW133614   1.028   3.522   1.568  2.0963  1.9697 -0.4078
 7384SOL    HW233615   1.037   3.478   1.699  0.7516 -1.1311 -3.1988
 7385SOL     OW33616   1.898   4.538   8.339 -0.3232 -0.7496 -0.0708
 7385SOL    HW133617   1.846   4.481   8.395 -1.5643 -1.2275 -1.6895
 7385SOL    HW233618   1.882   4.624   8.378  0.7504 -0.1474 -0.9641
 7386SOL     OW33619   2.999   2.345   0.377  0.4732 -0.1666 -0.0116
 7386SOL    HW133620   2.946   2.418   0.409  0.4891 -0.3669  0.4670
 7386SOL    HW233621   3.087   2.382   0.387  0.3014 -0.2183  1.7385
 7387SOL     OW33622   0.122   0.252   4.870 -0.2259  0.3348 -0.1912
 7387SOL    HW133623   0.138   0.172   4.820  1.1531 -0.7139  1.9260
 7387SOL    HW233624   0.058   0.290   4.810  1.4037  1.4495 -1.2234
 7388SOL     OW33625   1.256   0.289  11.865 -0.0209 -0.0493 -0.2110
 7388SOL    HW133626   1.227   0.240  11.942 -1.1102  2.5073  1.0109
 7388SOL    HW233627   1.309   0.223  11.822  0.0136  0.2337 -0.6071
 7389SOL     OW33628   2.450   3.686   1.298 -0.0380 -0.8787 -0.0177
 7389SOL    HW133629   2.525   3.729   1.339 -0.0093  0.2782 -1.2926
 7389SOL    HW233630   2.381   3.708   1.361  1.1992  3.1494 -0.0661
 7390SOL     OW33631   4.712   3.308   5.957 -0.1652 -0.0122 -0.0945
 7390SOL    HW133632   4.699   3.362   6.035 -0.4432  1.8691 -1.4196
 7390SOL    HW233633   4.630   3.333   5.914  0.2576 -0.1400 -0.9866
 7391SOL     OW33634   2.009   3.051  17.463 -0.6623  0.1786  0.2091
 7391SOL    HW133635   1.947   3.095  17.521 -0.2049  1.6226 -0.3773
 7391SOL    HW233636   1.959   3.058  17.382 -3.3184  1.0682  1.9383
 7392SOL     OW33637   1.750   2.960   8.284  0.0109 -0.2005 -0.2681
 7392SOL    HW133638   1.802   2.882   8.301 -1.0520 -0.6983  0.7331
 7392SOL    HW233639   1.697   2.929   8.210  1.2891 -0.5003 -1.0509
 7393SOL     OW33640   2.821   1.777   6.923  0.5287  0.3112  0.5140
 7393SOL    HW133641   2.859   1.806   7.005  2.1471  2.2512 -0.9223
 7393SOL    HW233642   2.886   1.811   6.862 -0.6874 -1.0602 -1.5656
 7394SOL     OW33643   2.830   4.334  11.658  0.0215 -0.1930  0.2232
 7394SOL    HW133644   2.869   4.330  11.570 -0.4301 -1.5376  0.0905
 7394SOL    HW233645   2.769   4.261  11.655 -1.4162  0.9407  2.3673
 7395SOL     OW33646   0.335   2.672   7.791  0.3817  0.3768 -0.6080
 7395SOL    HW133647   0.291   2.680   7.876  0.8203 -2.8807 -0.0742
 7395SOL    HW233648   0.417   2.631   7.819 -1.3196 -2.3022  0.4969
 7396SOL     OW33649   4.205   4.098   7.121  0.0184 -0.1478 -0.4550
 7396SOL    HW133650   4.124   4.048   7.128 -0.9410  1.5071  0.3235
 7396SOL    HW233651   4.161   4.183   7.117 -1.7645 -1.0838 -0.7110
 7397SOL     OW33652   3.815   3.852  12.312 -0.3699  0.4838 -0.0647
 7397SOL    HW133653   3.761   3.813  12.381  0.7015  0.4659  0.7770
 7397SOL    HW233654   3.866   3.916  12.361 -0.8596  0.3093  0.6683
 7398SOL     OW33655   1.186   3.560   3.823 -0.6382 -0.0049 -0.6331
 7398SOL    HW133656   1.270   3.535   3.862 -1.4541 -1.8488 -0.0562
 7398SOL    HW233657   1.225   3.587   3.740  0.3407  0.0690 -0.1454
 7399SOL     OW33658   2.059   2.317   1.250 -0.7054  0.0191 -0.1442
 7399SOL    HW133659   2.063   2.287   1.159 -0.1751 -0.3290 -0.0040
 7399SOL    HW233660   2.090   2.238   1.293  1.1215  0.2509 -1.0583
 7400SOL     OW33661   1.510   0.910   2.421 -0.4930  0.3371  0.2277
 7400SOL    HW133662   1.593   0.952   2.445 -0.7906 -1.0586  3.8098
 7400SOL    HW233663   1.514   0.901   2.326 -1.3789 -2.8591  0.4963
 7401SOL     OW33664   0.698   1.571   0.481  0.3789  0.1158 -0.3237
 7401SOL    HW133665   0.686   1.648   0.537 -1.8667  0.1889 -0.9337
 7401SOL    HW233666   0.625   1.519   0.514  0.3511  0.3792  0.0284
 7402SOL     OW33667   4.499   0.544   7.699 -0.2327 -0.0591 -0.0884
 7402SOL    HW133668   4.524   0.583   7.615  2.2008  0.6155  0.9389
 7402SOL    HW233669   4.404   0.545   7.705 -0.1645 -0.7111  1.0021
 7403SOL     OW33670   1.827   3.077   8.763 -0.2825  0.0874  0.1990
 7403SOL    HW133671   1.893   3.145   8.768 -2.0067  1.8214 -0.9364
 7403SOL    HW233672   1.754   3.125   8.803 -1.8224 -1.8878 -0.2032
 7404SOL     OW33673   2.800   3.072  15.374  0.3681 -0.9107 -0.0563
 7404SOL    HW133674   2.732   3.040  15.314  0.9749  1.0330 -1.7912
 7404SOL    HW233675   2.827   3.157  15.339 -2.6633 -0.7308 -2.0097
 7405SOL     OW33676   2.526   2.733   9.448 -0.3918 -0.4152 -0.3476
 7405SOL    HW133677   2.436   2.703   9.458 -0.1295 -0.6475  1.3128
 7405SOL    HW233678   2.574   2.651   9.438  0.7489  0.1851  0.0966
 7406SOL     OW33679   0.983   0.835   0.815  0.7538 -0.1153  0.2543
 7406SOL    HW133680   0.946   0.798   0.735 -0.1140 -2.0443  1.5383
 7406SOL    HW233681   1.035   0.902   0.770  0.4291  0.6892  1.0658
 7407SOL     OW33682   1.154   2.882   4.017  0.0900  0.2415 -0.9090
 7407SOL    HW133683   1.106   2.956   3.982  0.0084  0.4272 -0.3968
 7407SOL    HW233684   1.204   2.939   4.075 -1.7416  2.3995 -1.4709
 7408SOL     OW33685   1.221   0.870  13.366  0.2059 -0.3309  0.5629
 7408SOL    HW133686   1.231   0.781  13.332 -1.4227 -0.8169  1.3754
 7408SOL    HW233687   1.218   0.852  13.460  1.9257  1.4837  0.9671
 7409SOL     OW33688   1.960   1.920   8.714  0.4303  1.0174 -0.2102
 7409SOL    HW133689   2.031   1.957   8.662 -0.9199  0.5632 -2.3875
 7409SOL    HW233690   1.880   1.968   8.693 -0.3976 -1.1376 -1.9791
 7410SOL     OW33691   3.818   3.066   6.346  0.3966 -0.0537 -0.9177
 7410SOL    HW133692   3.766   3.135   6.388  0.7223 -0.2292 -0.2172
 7410SOL    HW233693   3.906   3.101   6.336  0.5157  0.2781  1.1861
 7411SOL     OW33694   3.641   0.581   4.884  0.4965 -0.0133 -0.4684
 7411SOL    HW133695   3.620   0.627   4.804 -0.3936  1.5476  0.6642
 7411SOL    HW233696   3.607   0.641   4.951 -1.2778 -1.4046 -0.1003
 7412SOL     OW33697   1.021   1.898   2.403 -0.3395  0.2860  0.2820
 7412SOL    HW133698   1.037   1.985   2.366  0.5942 -0.2959 -0.6929
 7412SOL    HW233699   1.003   1.917   2.495 -0.9364 -0.3019  0.2892
 7413SOL     OW33700   3.655   4.528   5.426  0.7421  0.0221 -0.0382
 7413SOL    HW133701   3.698   4.498   5.346  0.9918 -0.9144  0.4491
 7413SOL    HW233702   3.622   4.445   5.460  0.4187 -0.2664 -1.0376
 7414SOL     OW33703   0.944   4.013  13.901 -0.0617  0.2092  0.4938
 7414SOL    HW133704   0.880   3.967  13.956 -0.9188  2.3390  1.3039
 7414SOL    HW233705   0.887   4.077  13.857  1.0398  0.3424 -0.7452
 7415SOL     OW33706   2.013   1.059   0.578  0.3497  0.1406  0.1345
 7415SOL    HW133707   2.043   0.978   0.620 -0.0388  0.2193  0.5602
 7415SOL    HW233708   2.060   1.054   0.494 -0.3667 -1.6416 -0.1620
 7416SOL     OW33709   3.943   1.517   3.278 -0.8048  0.0274 -0.0911
 7416SOL    HW133710   3.859   1.545   3.244  0.0490  2.3350 -0.2991
 7416SOL    HW233711   3.939   1.424   3.302 -0.4699  0.1636  0.4996
 7417SOL     OW33712   4.323   0.329   2.464  0.5596 -0.4648  0.1063
 7417SOL    HW133713   4.301   0.408   2.415 -0.7785 -1.2020 -0.4780
 7417SOL    HW233714   4.288   0.269   2.398 -0.7814 -0.3081  0.6969
 7418SOL     OW33715   3.419   1.715   1.715 -0.5151 -0.1641  0.2691
 7418SOL    HW133716   3.393   1.679   1.630 -2.3307  0.0330  0.7482
 7418SOL    HW233717   3.448   1.804   1.701  0.7607 -0.4729  0.9515
 7419SOL     OW33718   2.317   3.943   5.721 -0.7919 -0.9240 -0.6299
 7419SOL    HW133719   2.319   3.978   5.810  0.0840  0.6796 -1.2840
 7419SOL    HW233720   2.262   4.011   5.682 -0.5750  0.4838  1.4969
 7420SOL     OW33721   2.117   3.261   7.526  0.2935  1.1687 -0.0195
 7420SOL    HW133722   2.094   3.333   7.467 -2.3814  0.3590 -0.0024
 7420SOL    HW233723   2.204   3.277   7.561  0.5001 -0.2931  0.1283
 7421SOL     OW33724   4.237   2.006  13.625  0.2694  0.0863 -0.2463
 7421SOL    HW133725   4.312   1.946  13.618  1.5806  1.5655  1.1218
 7421SOL    HW233726   4.272   2.095  13.618 -1.1780  0.8672  2.5762
 7422SOL     OW33727   3.351   2.011   5.218  0.0101 -0.3332  0.2465
 7422SOL    HW133728   3.323   2.099   5.242 -1.1083 -0.1904 -1.6341
 7422SOL    HW233729   3.268   1.966   5.233 -0.4134  0.2456 -0.3423
 7423SOL     OW33730   3.743   4.067  15.185  0.3445  0.1067 -0.0044
 7423SOL    HW133731   3.769   4.093  15.097 -2.3754  2.1813 -0.1817
 7423SOL    HW233732   3.829   4.039  15.217  0.9901  1.1590 -0.8103
 7424SOL     OW33733   4.671   0.122   1.848  0.1104  1.0679 -0.0598
 7424SOL    HW133734   4.617   0.191   1.886 -1.9597 -0.5996  0.0678
 7424SOL    HW233735   4.683   0.076   1.932  1.3734 -0.5957 -1.1618
 7425SOL     OW33736   4.717   4.607   4.900 -0.2111  0.2183  0.8394
 7425SOL    HW133737   0.053   4.665   4.848 -0.3116  0.5796  1.1320
 7425SOL    HW233738   4.680   4.665   4.968 -1.0877 -1.3372  1.6845
 7426SOL     OW33739   2.460   3.230  15.151 -0.8346  0.1745  0.1108
 7426SOL    HW133740   2.502   3.159  15.199  0.9926 -0.0613 -1.8410
 7426SOL    HW233741   2.424   3.179  15.079 -1.7270 -0.7555  1.2178
 7427SOL     OW33742   3.460   2.991   6.849  0.1085  0.2875  0.0079
 7427SOL    HW133743   3.379   2.975   6.898  0.1700  1.1870  0.3996
 7427SOL    HW233744   3.485   3.077   6.881 -2.0763  1.3419 -1.0986
 7428SOL     OW33745   3.039   0.195   8.626  0.5723 -0.0202  0.1577
 7428SOL    HW133746   3.070   0.105   8.633 -0.6053 -0.4639 -0.3061
 7428SOL    HW233747   3.033   0.229   8.715  1.3388 -0.3614  0.3372
 7429SOL     OW33748   3.309   1.690  15.811 -0.1369  0.0207  0.1409
 7429SOL    HW133749   3.314   1.634  15.733  0.7548 -0.1203  0.3090
 7429SOL    HW233750   3.361   1.647  15.879 -1.1568 -0.7814  0.4285
 7430SOL     OW33751   3.842   3.391  14.774  0.4823 -0.5916  0.4475
 7430SOL    HW133752   3.891   3.430  14.847  0.2507  1.8087 -0.6905
 7430SOL    HW233753   3.797   3.326  14.829  0.2576  0.3287  1.3518
 7431SOL     OW33754   0.464   3.840   7.672 -0.5362 -0.2069  0.0822
 7431SOL    HW133755   0.538   3.799   7.716  0.1419  1.9673  0.9330
 7431SOL    HW233756   0.390   3.781   7.689 -0.1670 -0.0498  2.1316
 7432SOL     OW33757   4.634   0.602   8.269 -0.2954 -0.3528 -0.5310
 7432SOL    HW133758   4.635   0.685   8.220 -0.9923 -0.9165 -1.5053
 7432SOL    HW233759   4.542   0.581   8.285 -0.2884 -0.2691 -0.3847
 7433SOL     OW33760   3.003   4.465   3.175  0.2195  0.0022  0.0788
 7433SOL    HW133761   2.936   4.504   3.232 -0.1135  0.4418 -0.6065
 7433SOL    HW233762   2.993   4.371   3.184  0.2323 -0.1437 -1.3830
 7434SOL     OW33763   4.352   0.238   0.360 -0.3107  0.0358 -0.1449
 7434SOL    HW133764   4.430   0.206   0.405 -0.7849  1.2737  1.5404
 7434SOL    HW233765   4.285   0.172   0.376  1.5575 -1.8333 -0.1267
 7435SOL     OW33766   1.068   1.958   3.141 -0.1982  0.0644 -0.0549
 7435SOL    HW133767   1.096   2.028   3.200 -2.8402 -0.0277  1.3112
 7435SOL    HW233768   1.031   2.007   3.068 -0.5278 -0.8051 -0.4713
 7436SOL     OW33769   4.463   3.386   0.932  0.4195  0.0134  0.2752
 7436SOL    HW133770   4.484   3.417   0.844 -1.2773 -1.3891 -0.6415
 7436SOL    HW233771   4.412   3.460   0.964  0.2301 -0.9687  2.2192
 7437SOL     OW33772   3.270   1.150  14.915  0.1144  0.1413 -0.2340
 7437SOL    HW133773   3.353   1.196  14.902 -1.9612  3.9997 -0.0289
 7437SOL    HW233774   3.296   1.097  14.990 -2.6599 -0.8227  0.0563
 7438SOL     OW33775   2.349   1.556   4.237  0.5325 -0.2693  0.0021
 7438SOL    HW133776   2.371   1.563   4.330  0.7790  0.1263 -0.0839
 7438SOL    HW233777   2.253   1.553   4.242  0.4569  2.0257  0.0390
 7439SOL     OW33778   2.732   0.960  10.557 -0.6834  0.1535 -0.4011
 7439SOL    HW133779   2.638   0.971  10.572 -0.4951  1.6834 -0.3365
 7439SOL    HW233780   2.730   0.878  10.508  1.0121  0.0060 -0.2113
 7440SOL     OW33781   0.872   2.013   8.646 -0.1893  0.4297 -0.7134
 7440SOL    HW133782   0.826   2.087   8.685  0.0104  0.0848  0.1556
 7440SOL    HW233783   0.960   2.049   8.653 -1.0868  2.4079  0.3762
 7441SOL     OW33784   3.188   4.431   2.972  0.7536 -0.0659 -0.3662
 7441SOL    HW133785   3.126   4.446   3.044  0.9210 -0.3451 -0.1642
 7441SOL    HW233786   3.182   4.515   2.926 -1.9746 -0.9804 -1.6159
 7442SOL     OW33787   2.323   0.933   4.434  0.0624 -0.3780 -0.1163
 7442SOL    HW133788   2.312   0.934   4.339 -0.5763 -0.2048 -0.0427
 7442SOL    HW233789   2.233   0.931   4.467  0.0304 -0.9559 -0.2308
 7443SOL     OW33790   3.872   2.403   5.903  0.3583 -0.6046  0.5383
 7443SOL    HW133791   3.818   2.347   5.959 -3.7593  1.7320 -1.1236
 7443SOL    HW233792   3.807   2.461   5.864 -0.2569  0.7989  3.6479
 7444SOL     OW33793   3.045   2.005  11.880 -0.0476  0.0071 -0.2417
 7444SOL    HW133794   2.977   1.959  11.930 -0.3970  0.2177 -0.5269
 7444SOL    HW233795   3.077   1.944  11.813  0.0931  1.3774 -1.4221
 7445SOL     OW33796   3.922   1.195   7.909 -0.2647 -0.0358 -0.2270
 7445SOL    HW133797   3.963   1.177   7.824  0.6242 -0.1720  0.2362
 7445SOL    HW233798   3.862   1.263   7.879 -0.1056  0.4098  0.4690
 7446SOL     OW33799   0.548   3.977   5.732 -0.1650 -0.0165 -0.1528
 7446SOL    HW133800   0.474   3.921   5.708  1.8145 -2.5510 -0.4068
 7446SOL    HW233801   0.596   3.912   5.784 -2.5540 -1.1386  0.6790
 7447SOL     OW33802   4.454   2.013  11.409  0.6507 -0.1544  0.3016
 7447SOL    HW133803   4.498   2.040  11.490  0.1175 -0.4993  0.7113
 7447SOL    HW233804   4.527   1.970  11.366 -0.6681 -0.2853 -1.8168
 7448SOL     OW33805   4.435   3.404  12.889  0.0218  0.1250  0.5328
 7448SOL    HW133806   4.449   3.456  12.810  0.9510  1.9951  1.9214
 7448SOL    HW233807   4.525   3.374  12.899  1.2594  2.9134 -2.1321
 7449SOL     OW33808   3.005   2.992  16.357 -0.2602  0.2278  0.5432
 7449SOL    HW133809   2.925   3.035  16.387  1.2365  2.7715  0.9139
 7449SOL    HW233810   2.993   2.998  16.262 -1.7735 -2.7145  0.5650
 7450SOL     OW33811   0.919   2.353   2.928  0.2223 -0.1004 -0.1642
 7450SOL    HW133812   0.907   2.363   2.833  1.0460 -1.0025 -0.3669
 7450SOL    HW233813   0.959   2.266   2.929 -0.1440 -0.2700 -0.1689
 7451SOL     OW33814   0.535   1.413   9.037 -0.4785 -0.4024  0.6343
 7451SOL    HW133815   0.473   1.410   8.964  0.7640  0.2315 -0.4481
 7451SOL    HW233816   0.593   1.338   9.025  2.3736  2.3438 -2.5311
 7452SOL     OW33817   1.491   1.320  13.932 -0.3764  0.1232 -0.3117
 7452SOL    HW133818   1.472   1.226  13.937  1.6764 -0.1757  1.5761
 7452SOL    HW233819   1.528   1.332  14.019 -1.1160  0.9913 -0.1202
 7453SOL     OW33820   1.074   2.231   4.188 -0.0264 -0.6451 -0.0539
 7453SOL    HW133821   1.092   2.292   4.116  0.9550  1.1058  1.6827
 7453SOL    HW233822   1.106   2.148   4.152 -0.9010 -0.3945 -1.4237
 7454SOL     OW33823   3.618   3.473   8.555 -0.0704 -0.3112  0.2311
 7454SOL    HW133824   3.607   3.540   8.623 -1.0019 -1.5546  1.3113
 7454SOL    HW233825   3.697   3.430   8.587 -0.2295  1.4364  3.0459
 7455SOL     OW33826   1.058   0.631   7.760  0.0983  0.1190  0.0738
 7455SOL    HW133827   1.043   0.723   7.740 -0.0106  0.2519  0.7736
 7455SOL    HW233828   1.090   0.641   7.850  1.6412  2.6955 -0.7679
 7456SOL     OW33829   2.510   4.236   5.599 -0.7876 -0.2829  1.3099
 7456SOL    HW133830   2.462   4.181   5.536  0.6611  1.1539 -1.0434
 7456SOL    HW233831   2.437   4.253   5.658  0.1973  1.0075  2.1648
 7457SOL     OW33832   4.389   3.399   2.254 -0.0340  0.7877  0.1946
 7457SOL    HW133833   4.465   3.370   2.203  1.2963  3.0107  0.9139
 7457SOL    HW233834   4.332   3.457   2.203  0.4283  1.8353  0.8632
 7458SOL     OW33835   0.184   2.538   4.709 -0.2026  0.2346  0.4895
 7458SOL    HW133836   0.210   2.481   4.637 -0.4219  0.0865  0.5249
 7458SOL    HW233837   0.091   2.515   4.702  0.5347 -2.8315  0.8407
 7459SOL     OW33838   0.664   0.307  10.244  0.0764  0.0272 -0.0631
 7459SOL    HW133839   0.702   0.224  10.216  0.5482  0.0456  0.5390
 7459SOL    HW233840   0.747   0.328  10.286 -0.7304 -0.5217  1.8248
 7460SOL     OW33841   0.017   3.326   3.202  0.2416  0.0589 -0.8607
 7460SOL    HW133842   0.091   3.274   3.234  0.1465  0.5807  0.2148
 7460SOL    HW233843   4.672   3.276   3.251  1.1231  1.8921  2.2092
 7461SOL     OW33844   2.528   0.512   3.487 -0.1334  0.7595 -0.0041
 7461SOL    HW133845   2.492   0.479   3.570 -1.0306 -0.5363 -0.9176
 7461SOL    HW233846   2.492   0.448   3.425  1.8572 -1.3382  0.9683
 7462SOL     OW33847   2.768   2.556   6.279  0.5902  0.0132 -0.1630
 7462SOL    HW133848   2.800   2.574   6.191 -1.0222  2.2130 -0.3222
 7462SOL    HW233849   2.742   2.646   6.299  0.2238  0.2302 -1.6142
 7463SOL     OW33850   0.586   1.033  13.146  0.1836 -0.0425  0.6577
 7463SOL    HW133851   0.637   1.047  13.066  0.1543  0.1289  0.6688
 7463SOL    HW233852   0.532   0.962  13.111  0.1878  0.0122  0.5397
 7464SOL     OW33853   4.137   2.361   2.758  0.7731  0.2116 -0.5130
 7464SOL    HW133854   4.208   2.380   2.696  0.0313  1.4123 -0.9949
 7464SOL    HW233855   4.180   2.303   2.821 -0.9654 -0.8351 -0.3042
 7465SOL     OW33856   1.052   1.706   1.850  0.6430  0.4495  0.4065
 7465SOL    HW133857   1.118   1.725   1.783  0.5946 -1.5969 -0.2270
 7465SOL    HW233858   1.064   1.613   1.870  0.3539  0.3323  0.0482
 7466SOL     OW33859   0.911   1.125   1.908 -0.3764  0.3124  0.4589
 7466SOL    HW133860   0.921   1.219   1.923 -0.9011  0.6924 -1.5524
 7466SOL    HW233861   0.864   1.125   1.824 -2.0271 -2.4281  1.3895
 7467SOL     OW33862   0.266   2.095   8.696 -0.4025 -0.7354  0.5224
 7467SOL    HW133863   0.342   2.041   8.674  0.8006  1.0575  0.3177
 7467SOL    HW233864   0.281   2.120   8.787 -0.1006 -2.1177  0.8469
 7468SOL     OW33865   1.287   3.250   7.391  0.3509 -0.4011 -0.3471
 7468SOL    HW133866   1.234   3.294   7.324 -0.8657  1.0129  1.5720
 7468SOL    HW233867   1.236   3.275   7.467  1.2944  0.2263  0.0715
 7469SOL     OW33868   2.657   2.462   5.180  0.2414  0.3290 -0.1207
 7469SOL    HW133869   2.613   2.482   5.097  2.1980 -0.9353 -1.4442
 7469SOL    HW233870   2.712   2.541   5.185  0.6423 -0.0989  1.9942
 7470SOL     OW33871   1.651   3.422   4.192 -0.2656  0.6194 -0.3508
 7470SOL    HW133872   1.669   3.372   4.112  1.0163  3.8040 -2.0676
 7470SOL    HW233873   1.569   3.376   4.207  0.0217  0.3516  0.3650
 7471SOL     OW33874   1.403   3.954   1.794 -0.0353  0.1166  0.0162
 7471SOL    HW133875   1.436   4.016   1.730 -1.5077  0.6116 -0.2636
 7471SOL    HW233876   1.314   3.989   1.805  0.2606  1.3338 -1.4785
 7472SOL     OW33877   0.154   2.462   5.523 -0.0330 -0.3998  0.5537
 7472SOL    HW133878   0.231   2.444   5.468  0.0917  0.4031  0.4681
 7472SOL    HW233879   0.182   2.546   5.559  0.1521 -0.2718  0.1052
 7473SOL     OW33880   2.191   2.948  16.002 -0.1755 -0.5177 -0.6658
 7473SOL    HW133881   2.101   2.923  15.978 -0.1759 -0.1265 -1.0597
 7473SOL    HW233882   2.237   2.880  15.952  0.8570  0.8574 -1.5922
 7474SOL     OW33883   0.035   1.725  14.920  0.3752  0.7220  0.2788
 7474SOL    HW133884   0.128   1.732  14.942  0.1944  2.2129  0.5756
 7474SOL    HW233885   0.012   1.639  14.954 -1.0862  0.1508 -2.1645
 7475SOL     OW33886   3.513   2.573   4.935 -0.3146 -0.4030 -0.3625
 7475SOL    HW133887   3.576   2.527   4.880  0.8494  3.4563 -2.2639
 7475SOL    HW233888   3.454   2.499   4.921 -2.0154  1.1520 -1.4176
 7476SOL     OW33889   3.332   1.550   5.070  0.4406 -0.2512 -0.0681
 7476SOL    HW133890   3.389   1.528   4.997  1.3350  0.1546  0.5036
 7476SOL    HW233891   3.315   1.644   5.062 -0.8394 -0.4703  0.0928
 7477SOL     OW33892   3.401   4.357   5.290 -0.1294 -0.0583  0.1955
 7477SOL    HW133893   3.322   4.353   5.237 -0.6899 -2.1291  1.1409
 7477SOL    HW233894   3.357   4.361   5.375  0.8923 -4.8174  0.9834
 7478SOL     OW33895   3.853   1.125  10.696 -0.6107  0.3377  0.4504
 7478SOL    HW133896   3.839   1.215  10.667  0.4744  0.3442 -0.0252
 7478SOL    HW233897   3.785   1.118  10.764 -1.0857 -0.6962 -0.1384
 7479SOL     OW33898   4.497   2.272   6.624  0.7380 -0.0305 -0.1736
 7479SOL    HW133899   4.448   2.329   6.564  1.1259  1.3535  0.8272
 7479SOL    HW233900   4.441   2.194   6.620  1.2364 -0.2796 -2.4574
 7480SOL     OW33901   3.575   0.261   3.474 -0.0180  0.1546 -0.2638
 7480SOL    HW133902   3.613   0.338   3.516  1.3696 -0.2485 -0.7890
 7480SOL    HW233903   3.516   0.311   3.417  0.4693  2.4397  1.2437
 7481SOL     OW33904   2.459   4.094   4.434 -0.0959 -0.1173 -0.0221
 7481SOL    HW133905   2.418   4.127   4.514  0.9320  0.4895  0.2551
 7481SOL    HW233906   2.393   4.113   4.367  0.0828 -1.7802 -0.6772
 7482SOL     OW33907   0.982   1.179  13.154  0.1562  0.8287 -0.7506
 7482SOL    HW133908   1.012   1.264  13.186 -1.5867  0.4928  1.7329
 7482SOL    HW233909   0.909   1.209  13.099 -0.5023  1.1794  0.3157
 7483SOL     OW33910   1.182   2.181   9.931 -0.5313 -0.1795  0.0229
 7483SOL    HW133911   1.159   2.127   9.855  0.3364 -0.3520 -0.1184
 7483SOL    HW233912   1.098   2.202   9.972 -0.4714 -0.8043  0.4693
 7484SOL     OW33913   4.524   0.901   2.151 -0.3367 -0.0307  0.3211
 7484SOL    HW133914   4.456   0.859   2.099 -0.0391  0.0875 -0.1642
 7484SOL    HW233915   4.531   0.984   2.104  0.8810  0.9463  2.1758
 7485SOL     OW33916   1.277   4.483   7.626  0.3284  0.1475  0.0548
 7485SOL    HW133917   1.233   4.565   7.606 -0.6080 -0.6784 -1.2474
 7485SOL    HW233918   1.371   4.493   7.608  0.8214 -1.1383  1.8592
 7486SOL     OW33919   2.210   1.563   4.818  0.0263 -0.6539  0.6153
 7486SOL    HW133920   2.199   1.594   4.728 -2.3447 -0.2983  1.0213
 7486SOL    HW233921   2.123   1.540   4.851 -0.2902  0.9733  0.9595
 7487SOL     OW33922   2.046   2.306   0.156 -0.3448  0.1734 -0.7674
 7487SOL    HW133923   2.034   2.370   0.226  0.0913  0.5407 -1.0299
 7487SOL    HW233924   2.122   2.342   0.111  0.0695 -0.3866 -0.5215
 7488SOL     OW33925   2.723   2.941   2.990  0.2747  0.4182  0.2845
 7488SOL    HW133926   2.757   3.021   2.949 -1.2694  1.5426  1.1990
 7488SOL    HW233927   2.749   2.874   2.927 -2.4457 -0.4727  0.0989
 7489SOL     OW33928   3.828   0.313  16.521  0.1506  0.1721 -0.2041
 7489SOL    HW133929   3.798   0.223  16.519 -0.2007  0.1962  3.4804
 7489SOL    HW233930   3.781   0.349  16.597  2.1844  0.1040  1.1008
 7490SOL     OW33931   0.985   1.126   5.839  0.3303 -0.3116 -0.0627
 7490SOL    HW133932   1.050   1.105   5.773  3.0972  3.1390  1.5648
 7490SOL    HW233933   0.935   1.178   5.776  0.7732  0.7403  0.4542
 7491SOL     OW33934   1.330   0.812  15.428 -0.9893  0.5966 -0.2464
 7491SOL    HW133935   1.362   0.894  15.464 -1.1325  1.4857 -2.1559
 7491SOL    HW233936   1.246   0.801  15.473 -0.7972  1.1524  0.2389
 7492SOL     OW33937   4.117   0.224   8.870  0.1999  0.7004 -0.3093
 7492SOL    HW133938   4.211   0.240   8.876  0.0898  0.8662  0.9732
 7492SOL    HW233939   4.089   0.255   8.956 -0.5202  2.3719 -1.1431
 7493SOL     OW33940   1.664   2.382   8.462 -0.0163  0.4519 -0.1298
 7493SOL    HW133941   1.586   2.416   8.507  0.3567  1.1238  0.0146
 7493SOL    HW233942   1.704   2.462   8.428 -0.6309  0.2399 -1.3893
 7494SOL     OW33943   1.030   4.592   5.900  0.3661 -0.3058 -0.3507
 7494SOL    HW133944   1.087   4.519   5.924 -1.7257 -1.1000  2.1775
 7494SOL    HW233945   1.077   4.637   5.830 -0.4640  0.6484 -0.2892
 7495SOL     OW33946   0.974   4.126   3.553 -0.6593  0.3717 -0.1492
 7495SOL    HW133947   0.894   4.115   3.502  0.7906 -0.9891 -2.1531
 7495SOL    HW233948   0.966   4.220   3.569  0.9509  0.6024 -0.6951
 7496SOL     OW33949   0.790   1.283   9.053  0.4194 -0.3665 -0.3604
 7496SOL    HW133950   0.803   1.323   8.967  0.4039 -1.3784 -0.8394
 7496SOL    HW233951   0.845   1.334   9.112  0.4066 -0.1569 -0.5296
 7497SOL     OW33952   0.627   3.363   3.094 -0.1609 -0.2099  0.2839
 7497SOL    HW133953   0.671   3.367   3.179  0.6993  1.0099 -0.2392
 7497SOL    HW233954   0.692   3.393   3.032  0.4667  2.3132  2.1558
 7498SOL     OW33955   0.897   4.137   5.099 -0.2923 -0.3549 -0.0010
 7498SOL    HW133956   0.854   4.203   5.154  1.2750  1.7652 -1.3057
 7498SOL    HW233957   0.901   4.183   5.015 -4.2205  0.0936  0.0306
 7499SOL     OW33958   3.702   3.689   5.678  0.0944 -0.3675  0.5745
 7499SOL    HW133959   3.681   3.779   5.705  1.0843  0.1408 -0.3686
 7499SOL    HW233960   3.720   3.699   5.585  1.5381 -0.9340  0.7968
 7500SOL     OW33961   0.060   4.145  14.448 -0.5446  0.5603 -0.2764
 7500SOL    HW133962   0.122   4.105  14.508 -2.8923 -1.2360  0.9395
 7500SOL    HW233963   0.065   4.240  14.454  0.3989  0.5827 -1.3831
 7501SOL     OW33964   1.821   4.331   7.506  0.8018 -0.3261 -0.0213
 7501SOL    HW133965   1.866   4.388   7.569  1.6781 -1.7171  0.6139
 7501SOL    HW233966   1.858   4.363   7.423 -0.0595 -0.8627 -0.6077
 7502SOL     OW33967   4.115   1.937   5.956  0.1740 -0.4495 -0.2607
 7502SOL    HW133968   4.134   1.898   6.041 -1.5678 -0.2439  0.2261
 7502SOL    HW233969   4.042   1.991   5.984 -1.2290 -1.6996 -1.4983
 7503SOL     OW33970   0.324   1.595   8.569 -0.3513  0.2510 -0.3248
 7503SOL    HW133971   0.377   1.626   8.496  1.9896 -1.9234  0.4488
 7503SOL    HW233972   0.274   1.526   8.524 -0.1652  0.5380 -0.9728
 7504SOL     OW33973   0.339   1.760   6.170  0.2581  0.0146 -0.0507
 7504SOL    HW133974   0.361   1.707   6.093 -1.8968 -0.2911 -0.4661
 7504SOL    HW233975   0.422   1.802   6.192  0.6909 -1.6074  1.4009
 7505SOL     OW33976   2.978   3.089   6.691  0.1856  0.3252  0.6323
 7505SOL    HW133977   2.907   3.088   6.627 -0.0120 -1.5506  0.8784
 7505SOL    HW233978   2.941   3.014   6.737 -1.8045  0.6262 -0.4754
 7506SOL     OW33979   1.732   2.234   4.213  0.2251 -0.4226  0.2795
 7506SOL    HW133980   1.673   2.163   4.187 -0.8816  0.0796  1.4241
 7506SOL    HW233981   1.734   2.284   4.131  0.4843  0.3287  0.7475
 7507SOL     OW33982   1.998   2.542  12.921 -0.4025  0.0121 -0.4412
 7507SOL    HW133983   1.993   2.463  12.974 -0.4143 -0.5564 -1.3033
 7507SOL    HW233984   2.086   2.573  12.942  0.4087 -1.7448 -1.3318
 7508SOL     OW33985   3.176   3.044   6.937  0.3182 -0.1533 -0.2770
 7508SOL    HW133986   3.130   3.066   6.855 -0.7091 -1.2222  0.0153
 7508SOL    HW233987   3.228   3.124   6.928  1.9161 -1.0007  1.5340
 7509SOL     OW33988   2.559   4.204   6.071  0.5845  0.2455 -0.1639
 7509SOL    HW133989   2.553   4.290   6.112  2.2747 -0.7920  2.2526
 7509SOL    HW233990   2.498   4.152   6.123  0.6979  0.7226  0.4392
 7510SOL     OW33991   0.983   4.393   6.651 -0.8836  0.2555 -0.4433
 7510SOL    HW133992   0.995   4.374   6.558  0.2363 -1.3827  0.0412
 7510SOL    HW233993   1.066   4.354   6.677 -1.7485  0.6370  2.8363
 7511SOL     OW33994   1.256   3.672  13.756  0.1725  0.1279 -0.2243
 7511SOL    HW133995   1.187   3.666  13.822  0.9926  0.0311  0.6221
 7511SOL    HW233996   1.305   3.599  13.794  0.4414  0.4089 -0.0313
 7512SOL     OW33997   4.185   1.440   3.716 -0.5661  0.1152 -0.4108
 7512SOL    HW133998   4.193   1.346   3.733 -0.2770  0.3511  0.7240
 7512SOL    HW233999   4.275   1.465   3.699 -0.5460  2.8706  3.8306
 7513SOL     OW34000   3.478   3.590   3.850  0.1113  0.8872  0.0695
 7513SOL    HW134001   3.510   3.678   3.869 -1.2213  1.5293 -0.6799
 7513SOL    HW234002   3.553   3.567   3.795 -0.1183  1.2048 -0.3755
 7514SOL     OW34003   0.983   0.512   1.085 -0.3240 -0.1345  0.1074
 7514SOL    HW134004   1.055   0.459   1.120 -0.6880 -0.9170 -0.3299
 7514SOL    HW234005   1.009   0.513   0.993  0.8689  0.5175  0.4385
 7515SOL     OW34006   4.697   1.245   7.075 -0.2653 -0.3454 -0.7804
 7515SOL    HW134007   4.609   1.241   7.112 -0.3795 -4.4255 -1.4315
 7515SOL    HW234008   4.718   1.336   7.093 -2.1287 -0.1302  0.2493
 7516SOL     OW34009   2.915   3.075   9.445  0.6507  0.8602 -0.6007
 7516SOL    HW134010   2.917   3.025   9.526 -0.8038 -1.8213 -2.2160
 7516SOL    HW234011   2.918   3.001   9.384 -2.0568  0.9686 -0.8735
 7517SOL     OW34012   2.090   1.455  15.907 -0.8773 -0.1114  0.0268
 7517SOL    HW134013   2.167   1.445  15.851  0.0615 -2.9450  1.8851
 7517SOL    HW234014   2.097   1.365  15.937  2.0740  0.8620  2.2289
 7518SOL     OW34015   2.063   2.591   0.242 -0.4969 -0.3669 -0.2403
 7518SOL    HW134016   2.005   2.604   0.317  3.1581 -0.0357  2.5325
 7518SOL    HW234017   2.148   2.630   0.263 -1.4292 -0.2639  3.4940
 7519SOL     OW34018   2.897   0.134   8.379 -0.0714 -0.2165 -0.4652
 7519SOL    HW134019   2.955   0.179   8.317 -0.2545 -0.0091 -0.4843
 7519SOL    HW234020   2.941   0.153   8.462 -0.5046 -0.4089 -0.1910
 7520SOL     OW34021   1.928   2.582  16.655  0.1340 -0.2309  0.1821
 7520SOL    HW134022   2.016   2.568  16.689 -0.2465  0.4117  1.4333
 7520SOL    HW234023   1.933   2.499  16.608 -0.9099  0.0156 -0.3640
 7521SOL     OW34024   1.968   4.175   7.851 -0.4539 -1.0378 -0.3458
 7521SOL    HW134025   2.040   4.166   7.788 -0.0942 -1.8211  0.1727
 7521SOL    HW234026   2.017   4.164   7.933  1.0848 -0.1951 -1.1477
 7522SOL     OW34027   0.478   2.471  16.339  0.6198 -0.9415  0.0616
 7522SOL    HW134028   0.508   2.523  16.265 -1.3007  2.9176  2.0006
 7522SOL    HW234029   0.399   2.523  16.351  1.2113  0.3468 -1.6623
 7523SOL     OW34030   0.525   3.646  12.694  0.1906  0.2409  0.1456
 7523SOL    HW134031   0.600   3.606  12.738 -0.7286 -0.3128  1.2139
 7523SOL    HW234032   0.543   3.740  12.686 -2.5132  0.7795  0.3670
 7524SOL     OW34033   0.648   3.334   7.177 -0.3483 -0.0512  0.3808
 7524SOL    HW134034   0.733   3.296   7.154 -1.0115 -0.8263 -0.8300
 7524SOL    HW234035   0.658   3.331   7.272  0.2519 -1.4438  0.2753
 7525SOL     OW34036   0.911   3.800   3.575  0.5346 -0.2600 -0.1265
 7525SOL    HW134037   0.976   3.869   3.579  1.5767 -1.1553 -1.9480
 7525SOL    HW234038   0.895   3.775   3.484  1.4000  1.3950 -0.7215
 7526SOL     OW34039   0.301   0.258  11.147  0.1846  0.0246 -1.4522
 7526SOL    HW134040   0.322   0.335  11.094 -0.4091 -0.0335 -1.7743
 7526SOL    HW234041   0.371   0.195  11.131  0.6376  0.0952  0.2084
 7527SOL     OW34042   4.221   4.132  16.913 -0.0615  0.1923 -0.0444
 7527SOL    HW134043   4.185   4.135  17.002 -1.0648  1.9860 -0.5152
 7527SOL    HW234044   4.316   4.128  16.923  0.0864 -0.1712 -1.6066
 7528SOL     OW34045   1.803   2.710   4.179 -0.3838  0.7635  0.2803
 7528SOL    HW134046   1.799   2.795   4.135 -1.0674 -0.3284 -1.7505
 7528SOL    HW234047   1.717   2.713   4.220  0.4624 -0.3677  2.1201
 7529SOL     OW34048   1.411   1.004   7.059 -0.0840 -0.0964  0.0258
 7529SOL    HW134049   1.361   0.933   7.101 -1.5940 -0.1550 -1.8459
 7529SOL    HW234050   1.341   1.064   7.033 -0.1191  0.2715  0.9785
 7530SOL     OW34051   2.190   3.225   0.902  0.2988 -0.2271 -0.6927
 7530SOL    HW134052   2.173   3.302   0.848 -1.5790 -0.6861 -0.7708
 7530SOL    HW234053   2.104   3.186   0.887  0.1520 -0.0474 -0.3316
 7531SOL     OW34054   3.222   2.548   9.272  0.1366  0.2203 -0.4292
 7531SOL    HW134055   3.315   2.536   9.254 -0.4783 -0.4822 -3.1932
 7531SOL    HW234056   3.190   2.461   9.248 -0.1414 -0.1551  1.2986
 7532SOL     OW34057   2.380   4.469   3.657 -0.3903  0.7202 -0.3377
 7532SOL    HW134058   2.313   4.535   3.673 -0.1077  0.8356  0.3582
 7532SOL    HW234059   2.341   4.422   3.583  0.1372 -1.8268  0.9825
 7533SOL     OW34060   2.953   1.167   6.802  0.1525  0.3637 -0.1935
 7533SOL    HW134061   3.029   1.166   6.859  1.5155  1.0210 -1.9996
 7533SOL    HW234062   2.940   1.073   6.790  1.3611  0.4607 -2.2930
 7534SOL     OW34063   0.107   2.355   2.625  0.4122  0.1676  0.4699
 7534SOL    HW134064   0.012   2.362   2.617  0.5921  1.4446 -0.4316
 7534SOL    HW234065   0.111   2.270   2.670  4.3675  0.0004 -0.1937
 7535SOL     OW34066   1.763   1.067   8.244 -0.2965  0.4110  0.0114
 7535SOL    HW134067   1.674   1.066   8.280 -0.2148  0.1864  0.2049
 7535SOL    HW234068   1.796   0.995   8.298  0.3135  0.6093 -0.1015
 7536SOL     OW34069   2.339   0.147   1.907 -0.1816 -0.2840 -0.2419
 7536SOL    HW134070   2.360   0.155   2.001  2.2767  1.7469 -0.9412
 7536SOL    HW234071   2.374   0.062   1.883 -0.6823 -0.7384  0.6114
 7537SOL     OW34072   1.973   3.653   6.566 -0.1743 -0.2822  0.7341
 7537SOL    HW134073   1.929   3.730   6.531  0.8807  0.0478  0.1735
 7537SOL    HW234074   1.917   3.648   6.644 -2.5243  1.4009 -0.8286
 7538SOL     OW34075   2.734   0.878  17.074 -0.9382  0.2482 -0.4874
 7538SOL    HW134076   2.754   0.970  17.095  0.9863 -0.3131  0.1534
 7538SOL    HW234077   2.800   0.880  17.005  0.2217 -2.2072  0.5767
 7539SOL     OW34078   3.129   1.442   1.602  0.3202 -0.2727 -0.2439
 7539SOL    HW134079   3.060   1.469   1.663 -0.4758  0.9631 -1.7135
 7539SOL    HW234080   3.083   1.435   1.519 -0.3367  2.4138 -0.1084
 7540SOL     OW34081   3.762   3.774   7.951 -0.1948 -0.0539 -0.2306
 7540SOL    HW134082   3.811   3.697   7.978 -0.4610  0.6090  2.1383
 7540SOL    HW234083   3.680   3.740   7.987  0.6385  0.2180  1.9371
 7541SOL     OW34084   2.895   1.333   1.129  1.2457  0.2801 -0.1966
 7541SOL    HW134085   2.880   1.286   1.047 -0.8071 -0.4961  0.6077
 7541SOL    HW234086   2.886   1.419   1.089 -2.8677  0.4659  1.0994
 7542SOL     OW34087   3.599   1.151   7.984  0.1804  0.4711  0.2788
 7542SOL    HW134088   3.616   1.116   8.071  0.4346 -1.0729 -0.3884
 7542SOL    HW234089   3.570   1.238   8.012  0.6251  0.8566 -0.4621
 7543SOL     OW34090   0.017   2.694   3.789  0.2835 -0.3399 -0.6297
 7543SOL    HW134091   0.032   2.632   3.717  1.6883 -1.2338  0.4501
 7543SOL    HW234092   0.102   2.687   3.831 -0.8907  0.7522  1.8941
 7544SOL     OW34093   1.652   3.547  10.153  0.6078 -0.0280  0.0907
 7544SOL    HW134094   1.641   3.595  10.071  0.3842  2.1293  1.3820
 7544SOL    HW234095   1.594   3.472  10.139 -0.3398  0.6393  0.4350
 7545SOL     OW34096   2.108   2.522   6.903 -0.2019  0.2820  0.2778
 7545SOL    HW134097   2.014   2.535   6.906 -0.0954  0.9091  0.8355
 7545SOL    HW234098   2.131   2.556   6.989 -1.2837  1.1745  0.1987
 7546SOL     OW34099   4.056   1.601   5.260  0.3927  0.1996  1.3163
 7546SOL    HW134100   3.992   1.537   5.228 -0.3252  1.1584  0.8209
 7546SOL    HW234101   4.002   1.681   5.266  0.0623  0.1741 -1.2931
 7547SOL     OW34102   2.752   4.501   4.247 -0.1079 -0.1046  0.2552
 7547SOL    HW134103   2.732   4.417   4.288  0.3433 -0.6723 -0.6847
 7547SOL    HW234104   2.821   4.466   4.190  0.6635 -0.3658  1.3399
 7548SOL     OW34105   2.484   4.697   5.277 -0.2952 -0.7168  0.2292
 7548SOL    HW134106   2.523   4.655   5.200 -1.5031 -0.0201 -0.7492
 7548SOL    HW234107   2.528   4.659   5.353 -1.8234  1.3033  2.1017
 7549SOL     OW34108   2.405   1.252   2.856 -0.2690  0.3140 -0.3294
 7549SOL    HW134109   2.354   1.330   2.833  1.1833  1.3376 -0.0160
 7549SOL    HW234110   2.488   1.292   2.881 -0.1745 -0.3674  0.4447
 7550SOL     OW34111   3.476   1.066   9.256  0.8889  0.2112 -0.0535
 7550SOL    HW134112   3.468   1.159   9.279 -0.5133  0.2816 -0.8151
 7550SOL    HW234113   3.429   1.057   9.173 -3.0111  1.3092  1.9956
 7551SOL     OW34114   0.229   1.502  15.476 -0.7351  0.0432 -0.0629
 7551SOL    HW134115   0.209   1.581  15.527  0.6646 -0.4882  1.2923
 7551SOL    HW234116   0.216   1.433  15.541  1.0373  0.6771  0.9658
 7552SOL     OW34117   2.668   0.236   8.701 -0.4770 -0.6982 -0.0938
 7552SOL    HW134118   2.684   0.233   8.607 -3.1064  0.1526 -0.5771
 7552SOL    HW234119   2.691   0.328   8.716 -2.0289 -0.3948  0.4104
 7553SOL     OW34120   3.554   1.990   7.827 -0.0577  0.4427 -0.7586
 7553SOL    HW134121   3.612   2.040   7.885  0.1362 -0.0956 -0.4888
 7553SOL    HW234122   3.608   1.914   7.806 -2.3870 -0.9657 -1.4992
 7554SOL     OW34123   4.648   0.967  17.655  0.9345 -0.5273 -0.0466
 7554SOL    HW134124   4.624   1.008   0.057 -2.7548  0.3957 -1.5583
 7554SOL    HW234125   4.605   0.882  17.665  1.4335 -1.0067 -1.9614
 7555SOL     OW34126   3.198   0.773   6.313  0.0748  0.8377 -0.2038
 7555SOL    HW134127   3.164   0.748   6.399  0.2966  1.0626 -0.0511
 7555SOL    HW234128   3.126   0.753   6.253  0.1725 -1.1896  0.3649
 7556SOL     OW34129   3.012   3.866   4.194  0.9653  0.2054  0.1191
 7556SOL    HW134130   3.026   3.858   4.288 -2.4965 -2.8536  0.3410
 7556SOL    HW234131   2.920   3.843   4.181  0.6480  0.5731  1.7356
 7557SOL     OW34132   3.182   2.794   9.362 -0.0154  0.1251 -0.2773
 7557SOL    HW134133   3.120   2.836   9.302  1.6597  0.3565 -1.8611
 7557SOL    HW234134   3.190   2.706   9.324  1.0612  1.1515 -2.4841
 7558SOL     OW34135   2.025   4.561  17.405  0.2292  0.6721 -0.9935
 7558SOL    HW134136   2.016   4.656  17.409  1.4720  0.7429  0.2945
 7558SOL    HW234137   2.118   4.568  17.427 -0.1320 -2.8346  1.7010
 7559SOL     OW34138   4.372   2.387   7.553  0.4046 -0.2610 -0.2505
 7559SOL    HW134139   4.291   2.375   7.503 -0.5587  2.3087  0.6871
 7559SOL    HW234140   4.432   2.350   7.488  1.4905  0.2901  0.4399
 7560SOL     OW34141   2.506   4.637  11.549 -0.4029  0.5442  0.3024
 7560SOL    HW134142   2.499   4.543  11.534 -1.2128  0.3463  1.8930
 7560SOL    HW234143   2.415   4.653  11.525 -0.4648  2.4895  1.7927
 7561SOL     OW34144   3.818   3.914   6.683  0.2748 -0.2333  0.4859
 7561SOL    HW134145   3.898   3.877   6.722  0.4934  0.0345  0.2951
 7561SOL    HW234146   3.767   3.835   6.663 -1.8325  1.3301 -0.2380
 7562SOL     OW34147   0.588   1.285   6.803  0.2747  0.1792  0.1170
 7562SOL    HW134148   0.570   1.361   6.748  0.0714 -1.6650 -2.4167
 7562SOL    HW234149   0.576   1.312   6.894  2.7187 -1.6317  0.9774
 7563SOL     OW34150   0.254   1.338   0.704  0.1042 -0.2458  0.1092
 7563SOL    HW134151   0.318   1.286   0.753  0.3275 -1.0773 -1.0721
 7563SOL    HW234152   0.230   1.267   0.645  0.6175  3.6913 -4.7662
 7564SOL     OW34153   1.125   3.510   8.978 -0.5487 -0.1384 -0.2317
 7564SOL    HW134154   1.212   3.489   8.944  0.0700 -0.0168  1.2776
 7564SOL    HW234155   1.109   3.435   9.036 -0.1659 -2.1685 -2.7793
 7565SOL     OW34156   0.287   1.780   7.158  0.0449 -0.7071  0.1392
 7565SOL    HW134157   0.241   1.862   7.142  4.5100  1.4595 -1.4892
 7565SOL    HW234158   0.259   1.733   7.080  1.0337  0.4310 -0.8797
 7566SOL     OW34159   4.031   4.607  12.572  0.2719  0.4762 -0.6100
 7566SOL    HW134160   4.048   4.555  12.493 -0.1877  0.2483 -0.5575
 7566SOL    HW234161   4.092   4.681  12.559  1.6143 -0.3626  0.9770
 7567SOL     OW34162   1.870   4.627   8.075  0.3316  0.0685 -0.0385
 7567SOL    HW134163   1.831   4.546   8.044 -0.3778  0.6473 -0.6580
 7567SOL    HW234164   1.866   4.610   8.169 -0.6886  0.2212 -0.0561
 7568SOL     OW34165   3.194   2.823   2.934 -0.6206  0.6533  0.6419
 7568SOL    HW134166   3.167   2.887   3.001  1.4414  0.2494  1.8679
 7568SOL    HW234167   3.161   2.738   2.965  0.6309 -0.6667 -1.6558
 7569SOL     OW34168   2.473   2.025  12.975 -0.3355 -0.3662 -0.3912
 7569SOL    HW134169   2.461   1.967  12.900  1.6871 -0.5242 -0.5844
 7569SOL    HW234170   2.548   1.984  13.019 -0.8820  1.0007  1.8346
 7570SOL     OW34171   2.518   2.415   7.800  0.5722  0.8793 -0.0038
 7570SOL    HW134172   2.577   2.403   7.875  1.0202 -1.0518 -0.6695
 7570SOL    HW234173   2.538   2.499   7.760  1.7311  0.4040 -0.4128
 7571SOL     OW34174   0.470   3.786   1.922 -0.3631 -0.1514 -0.1108
 7571SOL    HW134175   0.536   3.787   1.852 -0.6489 -0.2966 -0.3860
 7571SOL    HW234176   0.430   3.872   1.925 -1.4044 -0.7093  2.0503
 7572SOL     OW34177   3.223   1.708  15.478 -0.4995 -0.1949  0.3542
 7572SOL    HW134178   3.155   1.641  15.472 -1.4685  0.7001  1.5142
 7572SOL    HW234179   3.255   1.710  15.387 -0.5360  0.9736  0.3638
 7573SOL     OW34180   2.859   1.899   5.324 -0.0746 -0.2863 -0.6899
 7573SOL    HW134181   2.862   1.980   5.376  0.7434  0.3156 -1.6943
 7573SOL    HW234182   2.865   1.832   5.393 -1.2908  0.8381  0.5141
 7574SOL     OW34183   0.645   2.527   0.801  0.2897 -0.9815 -0.5603
 7574SOL    HW134184   0.601   2.575   0.871 -1.0675 -1.6807 -0.9327
 7574SOL    HW234185   0.714   2.492   0.856  1.0991 -1.2897 -1.7754
 7575SOL     OW34186   4.246   3.153   0.765 -0.3173  0.4399  0.6745
 7575SOL    HW134187   4.176   3.093   0.788  0.8122 -1.4348 -0.7960
 7575SOL    HW234188   4.311   3.115   0.823  0.7652  0.4119 -0.5507
 7576SOL     OW34189   4.617   3.748  15.806 -0.0441 -0.3825  0.2157
 7576SOL    HW134190   4.677   3.775  15.737 -0.8624  0.8700 -0.0071
 7576SOL    HW234191   4.688   3.709  15.856  0.8461  1.3071  0.2407
 7577SOL     OW34192   4.500   3.965  15.608 -0.3904  0.1612  0.0332
 7577SOL    HW134193   4.425   3.907  15.599 -0.7388  0.0260  3.7108
 7577SOL    HW234194   4.499   4.000  15.697 -2.9120  0.6463 -0.2026
 7578SOL     OW34195   3.431   1.977   3.565 -0.2158 -0.7782 -0.6557
 7578SOL    HW134196   3.492   2.009   3.499 -1.1778 -0.4498 -1.3816
 7578SOL    HW234197   3.363   1.950   3.504 -1.8024 -0.7202  1.1002
 7579SOL     OW34198   1.730   4.312   5.480 -1.0288 -0.0389  0.3479
 7579SOL    HW134199   1.651   4.295   5.427  1.1101 -1.7374 -2.3068
 7579SOL    HW234200   1.694   4.345   5.562 -1.1001 -0.3951  0.4592
 7580SOL     OW34201   1.958   4.690   4.469 -0.5889  0.3650  0.7764
 7580SOL    HW134202   1.903   0.048   4.458 -1.5871 -0.9388 -3.1533
 7580SOL    HW234203   2.000   4.685   4.383 -0.4337 -1.0335  0.9240
 7581SOL     OW34204   0.499   4.505   2.836  0.0772  0.5220 -0.5320
 7581SOL    HW134205   0.577   4.480   2.886 -0.8949 -2.3565 -0.4397
 7581SOL    HW234206   0.493   4.434   2.772  0.7835  0.1736 -0.2139
 7582SOL     OW34207   2.619   2.156   8.475  0.4411  0.1380  0.2195
 7582SOL    HW134208   2.661   2.125   8.395 -0.0454 -0.8840  0.3570
 7582SOL    HW234209   2.658   2.239   8.503 -0.1285  0.4321  0.1352
 7583SOL     OW34210   3.877   4.221   9.017 -0.3599 -0.7893  0.2479
 7583SOL    HW134211   3.790   4.258   9.032 -1.0178 -1.1252 -2.6957
 7583SOL    HW234212   3.945   4.288   9.022 -1.1581  0.1644 -1.6451
 7584SOL     OW34213   3.289   4.626   7.820  0.0418 -0.0945 -0.4090
 7584SOL    HW134214   3.242   4.690   7.873 -2.3909 -1.1040 -1.3305
 7584SOL    HW234215   3.355   4.682   7.779 -0.1651  0.0370 -0.5624
 7585SOL     OW34216   1.867   3.948  11.842  0.0047  0.5203 -0.3234
 7585SOL    HW134217   1.880   4.038  11.811  0.1416  0.3247 -0.8320
 7585SOL    HW234218   1.771   3.941  11.841 -0.0501  1.2183 -0.5555
 7586SOL     OW34219   0.827   3.043   1.948 -0.3291 -0.0000 -0.4919
 7586SOL    HW134220   0.892   3.031   1.879  0.2206 -1.1469  0.2154
 7586SOL    HW234221   0.760   3.069   1.886  0.6299  1.3133 -0.9609
 7587SOL     OW34222   1.984   4.677   5.693  0.3971  0.0669 -0.7718
 7587SOL    HW134223   1.903   4.702   5.739  1.6557  2.5628  0.1390
 7587SOL    HW234224   2.036   4.645   5.767 -0.1973  0.3341 -0.2386
 7588SOL     OW34225   2.114   4.393   1.163 -0.4702  0.1689  0.3023
 7588SOL    HW134226   2.019   4.393   1.172 -0.7496  0.2137 -2.4689
 7588SOL    HW234227   2.128   4.329   1.232 -0.6699 -0.2312 -0.0328
 7589SOL     OW34228   3.128   0.581  12.861  0.2264  0.0836  0.4533
 7589SOL    HW134229   3.124   0.487  12.844  3.2263 -0.0278  0.4348
 7589SOL    HW234230   3.105   0.585  12.954  0.2529 -0.4753  0.4836
 7590SOL     OW34231   2.389   1.313   7.411 -0.1530 -0.1621 -0.0443
 7590SOL    HW134232   2.358   1.391   7.366  1.8050 -0.0518 -1.1975
 7590SOL    HW234233   2.478   1.310   7.375  0.4104  1.9939  1.1596
 7591SOL     OW34234   2.645   2.354   2.715 -0.4771  0.4224 -0.1106
 7591SOL    HW134235   2.642   2.449   2.705  2.4745  0.3192 -2.1068
 7591SOL    HW234236   2.552   2.340   2.697  0.3842 -1.8252 -2.9103
 7592SOL     OW34237   2.146   1.734   5.461  0.8970  0.2456 -0.3063
 7592SOL    HW134238   2.124   1.813   5.412 -0.7084  0.8843  1.4576
 7592SOL    HW234239   2.144   1.779   5.546  1.1050  0.1543 -0.2526
 7593SOL     OW34240   0.233   3.611  14.550  0.3661 -0.1949 -0.2881
 7593SOL    HW134241   0.301   3.644  14.608  0.2833  0.2476 -0.4440
 7593SOL    HW234242   0.217   3.531  14.600  0.0938  0.3797  0.5398
 7594SOL     OW34243   2.045   1.688  16.079  0.0986 -0.1918  0.1090
 7594SOL    HW134244   2.060   1.619  16.014  0.9133  0.1133 -0.0274
 7594SOL    HW234245   1.950   1.679  16.076 -0.1145  2.0974  0.1717
 7595SOL     OW34246   1.332   0.378   2.928  0.6452 -0.3871 -0.7469
 7595SOL    HW134247   1.313   0.372   2.834 -1.4821  0.0204 -0.3491
 7595SOL    HW234248   1.427   0.371   2.919  0.5990 -0.9035 -0.8408
 7596SOL     OW34249   2.465   0.197  14.989  0.1590 -0.1099 -0.0958
 7596SOL    HW134250   2.517   0.269  14.953  0.3494 -0.5346 -0.6851
 7596SOL    HW234251   2.381   0.209  14.945  0.1867  1.6719  0.3283
 7597SOL     OW34252   3.126   0.242   7.019 -0.1722  0.2606  0.0431
 7597SOL    HW134253   3.109   0.247   6.924 -2.6621 -4.7372  0.2315
 7597SOL    HW234254   3.080   0.321   7.045  1.1022  1.4879 -1.4530
 7598SOL     OW34255   1.193   0.585   4.777  0.2137  0.3591  0.1466
 7598SOL    HW134256   1.226   0.663   4.733  1.6261 -0.4562 -0.2451
 7598SOL    HW234257   1.177   0.519   4.709 -0.2664  0.3820  0.2399
 7599SOL     OW34258   2.185   2.686   5.040  0.2387 -0.5721  0.3683
 7599SOL    HW134259   2.271   2.720   5.063  0.8548 -1.1359 -1.0987
 7599SOL    HW234260   2.167   2.749   4.970 -0.1940 -0.4815  0.5588
 7600SOL     OW34261   2.187   3.551   6.243  0.0976  0.0424 -0.3720
 7600SOL    HW134262   2.229   3.508   6.169  0.3136 -2.0524  0.9487
 7600SOL    HW234263   2.198   3.482   6.309 -2.0998  0.9992  1.0058
 7601SOL     OW34264   0.407   1.964   9.948 -0.5716  0.3578 -0.2638
 7601SOL    HW134265   0.483   1.998   9.995  1.2602 -0.7893 -2.4404
 7601SOL    HW234266   0.350   1.933  10.019  0.5902  0.1905  0.5990
 7602SOL     OW34267   0.854   2.961   4.883 -0.1205 -0.7538  0.0938
 7602SOL    HW134268   0.794   2.959   4.958  0.4645  0.1728  0.5883
 7602SOL    HW234269   0.934   3.003   4.914 -1.2815  1.3021  0.3132
 7603SOL     OW34270   2.548   3.892   9.125  0.2934  0.1696  0.1714
 7603SOL    HW134271   2.537   3.846   9.208 -1.8853  0.2348 -0.0704
 7603SOL    HW234272   2.553   3.810   9.077 -2.1167 -0.6018  1.2552
 7604SOL     OW34273   2.319   1.594   6.328 -0.1615 -0.3354  0.4319
 7604SOL    HW134274   2.234   1.555   6.351  0.0922 -0.2141  1.5945
 7604SOL    HW234275   2.301   1.686   6.348 -0.6058  0.1732 -2.3264
 7605SOL     OW34276   2.736   2.991  15.634 -0.2954  0.1939 -0.7265
 7605SOL    HW134277   2.776   3.021  15.553 -2.5163  0.5838 -1.6726
 7605SOL    HW234278   2.702   2.904  15.616 -0.2687  0.3774 -1.6621
 7606SOL     OW34279   3.028   3.648  11.087 -0.3786 -0.2952  0.0568
 7606SOL    HW134280   2.973   3.706  11.140 -0.3490 -0.6391  0.4575
 7606SOL    HW234281   3.046   3.571  11.141  2.6950 -0.7205 -1.5503
 7607SOL     OW34282   2.729   1.875   4.517 -0.2599  0.4391 -0.1314
 7607SOL    HW134283   2.736   1.970   4.522  0.9607  0.3507 -0.1081
 7607SOL    HW234284   2.647   1.863   4.565  0.6667 -0.7609  1.1739
 7608SOL     OW34285   3.958   1.913  11.751 -0.4654  0.3405 -0.2010
 7608SOL    HW134286   4.015   1.836  11.746 -0.1450  0.5686 -0.0480
 7608SOL    HW234287   4.012   1.980  11.793 -1.4342  0.6235  0.5952
 7609SOL     OW34288   1.329   1.048  13.004  0.0645  0.6741  0.0042
 7609SOL    HW134289   1.390   0.975  13.013 -1.1852 -0.1802  1.3723
 7609SOL    HW234290   1.388   1.120  12.979 -0.9121  1.4559 -0.0384
 7610SOL     OW34291   2.474   3.976  10.888 -0.3941  0.1140 -0.9008
 7610SOL    HW134292   2.394   4.018  10.919  0.6663  0.1123  1.7930
 7610SOL    HW234293   2.551   4.012  10.932  0.3524 -0.2256 -1.9118
 7611SOL     OW34294   0.657   2.016  15.301 -0.4757  0.4170 -0.7167
 7611SOL    HW134295   0.654   2.112  15.299  1.8304  0.4803 -1.6080
 7611SOL    HW234296   0.735   1.993  15.251  0.0647 -0.8728  0.7165
 7612SOL     OW34297   1.849   0.893   8.417 -0.5209 -0.0334 -0.0128
 7612SOL    HW134298   1.832   0.799   8.415 -1.6951  0.2042 -0.9000
 7612SOL    HW234299   1.809   0.923   8.498  1.3873 -2.4698  1.8114
 7613SOL     OW34300   0.539   0.408   1.671  0.1462 -0.4157 -0.2166
 7613SOL    HW134301   0.451   0.376   1.690 -0.9850  1.3386 -2.5403
 7613SOL    HW234302   0.539   0.502   1.687  0.6149 -0.2594 -1.1282
 7614SOL     OW34303   0.737   2.446   4.529  0.2939 -0.5040 -0.0071
 7614SOL    HW134304   0.805   2.398   4.483  1.2398  0.6953  0.1312
 7614SOL    HW234305   0.741   2.531   4.485  0.8660  0.8709  2.7106
 7615SOL     OW34306   4.475   4.354   8.720  0.1767 -0.0993  0.3300
 7615SOL    HW134307   4.437   4.368   8.633 -0.6631 -2.4220  0.3229
 7615SOL    HW234308   4.398   4.339   8.776 -0.0480  1.0699  0.3218
 7616SOL     OW34309   3.976   4.497   6.297 -0.1413 -0.2628  0.2353
 7616SOL    HW134310   3.941   4.420   6.343 -2.0162 -0.4532 -1.5022
 7616SOL    HW234311   4.053   4.507   6.353  0.6720  0.5463 -1.0315
 7617SOL     OW34312   2.652   4.642   1.600  0.7135  0.1510  0.2147
 7617SOL    HW134313   2.645   4.651   1.505  1.2939 -1.6839  0.0008
 7617SOL    HW234314   2.745   4.618   1.597  0.9955  1.3155 -0.9849
 7618SOL     OW34315   0.792   4.488  13.850 -0.3134 -0.3048 -0.3848
 7618SOL    HW134316   0.759   4.570  13.887  0.9190 -0.0921  0.2762
 7618SOL    HW234317   0.867   4.521  13.798 -0.7362 -0.6034 -1.1860
 7619SOL     OW34318   3.575   3.053   2.745  0.2187  0.0382 -0.5194
 7619SOL    HW134319   3.608   2.979   2.693  0.2545  0.8725 -1.6804
 7619SOL    HW234320   3.536   3.002   2.816 -1.9486  1.1803 -0.9032
 7620SOL     OW34321   3.402   3.887   8.771 -0.2364 -0.2895  0.0706
 7620SOL    HW134322   3.336   3.938   8.725  0.3979 -0.4202 -0.9737
 7620SOL    HW234323   3.410   3.943   8.848  0.2733 -2.8322  1.8752
 7621SOL     OW34324   3.114   0.830   4.227 -0.2024  0.3971 -0.1410
 7621SOL    HW134325   3.198   0.857   4.265 -0.8520  0.9999  0.8304
 7621SOL    HW234326   3.099   0.745   4.268 -2.5755  0.6556 -0.4746
 7622SOL     OW34327   0.650   0.688   4.431  0.8108  0.0027  0.2154
 7622SOL    HW134328   0.711   0.622   4.401 -1.0867 -1.9112  0.5469
 7622SOL    HW234329   0.573   0.650   4.389  0.1082  1.6491  0.0275
 7623SOL     OW34330   2.716   3.327   7.190 -0.4129  0.6010 -0.1909
 7623SOL    HW134331   2.715   3.372   7.274  0.0859  1.2994 -0.5573
 7623SOL    HW234332   2.801   3.283   7.189 -1.0175 -0.5261 -1.6453
 7624SOL     OW34333   3.495   0.102  14.304  0.7516 -0.3306 -0.4092
 7624SOL    HW134334   3.416   0.086  14.355 -0.3475  1.6553 -1.4853
 7624SOL    HW234335   3.562   0.060  14.359 -1.1300 -0.9500  1.4030
 7625SOL     OW34336   2.998   2.295  12.248 -0.1043  0.6271  0.0575
 7625SOL    HW134337   2.907   2.267  12.241 -0.7604  2.0333  2.7358
 7625SOL    HW234338   3.036   2.211  12.222 -0.3134  0.4648  0.2818
 7626SOL     OW34339   0.342   1.774   2.960 -0.2313  0.1440  0.1277
 7626SOL    HW134340   0.273   1.820   2.913  1.0758  1.0778 -0.8837
 7626SOL    HW234341   0.349   1.836   3.032 -0.8164  0.3667 -0.0063
 7627SOL     OW34342   3.471   0.254   5.470  0.1377  0.4743 -0.1047
 7627SOL    HW134343   3.551   0.231   5.517 -0.1352  0.6673  0.4497
 7627SOL    HW234344   3.459   0.172   5.421 -0.6063  0.8414 -0.5265
 7628SOL     OW34345   4.202   2.091   5.677  0.2112  0.4279 -0.2647
 7628SOL    HW134346   4.164   2.061   5.759 -2.0160  3.2287 -0.2654
 7628SOL    HW234347   4.250   2.011   5.656  0.3265  0.4505 -0.0852
 7629SOL     OW34348   3.703   4.624   2.158 -0.2071  0.2911 -0.5893
 7629SOL    HW134349   3.671   4.704   2.201  1.8123 -0.0509  1.5436
 7629SOL    HW234350   3.624   4.574   2.137 -0.7360  1.0055 -0.3484
 7630SOL     OW34351   1.071   0.500  12.001  0.1389  0.4292 -0.8643
 7630SOL    HW134352   1.092   0.443  12.075  3.0415 -1.1521 -2.9329
 7630SOL    HW234353   1.016   0.561  12.051  0.7521 -0.5430  0.9902
 7631SOL     OW34354   4.697   3.110   5.719 -0.6196 -0.0475  0.4370
 7631SOL    HW134355   4.687   3.157   5.802  2.9662 -0.2393  0.9580
 7631SOL    HW234356   4.717   3.020   5.744 -0.2977 -0.6172 -1.8993
 7632SOL     OW34357   1.868   1.201   6.270  0.2883 -0.3014  0.3921
 7632SOL    HW134358   1.949   1.235   6.232 -0.7972  0.0539 -1.5898
 7632SOL    HW234359   1.846   1.269   6.334  1.9294 -1.1492  1.8562
 7633SOL     OW34360   3.086   4.534  16.636  0.8486 -0.8010 -0.1722
 7633SOL    HW134361   3.026   4.474  16.593  0.8495 -0.7997 -0.1751
 7633SOL    HW234362   3.088   4.610  16.577  3.0514 -0.7218 -0.0090
 7634SOL     OW34363   3.073   0.577   3.856 -0.4525 -0.1287 -0.2284
 7634SOL    HW134364   3.008   0.601   3.921  1.0251 -1.0695  1.6020
 7634SOL    HW234365   3.029   0.515   3.797  1.6248 -0.1293 -1.7963
 7635SOL     OW34366   4.360   2.174   8.344  0.2791 -0.5244  0.0869
 7635SOL    HW134367   4.378   2.234   8.417 -0.6043 -2.2140  1.6948
 7635SOL    HW234368   4.429   2.113   8.370 -2.9176 -3.1847  2.2104
 7636SOL     OW34369   2.432   2.296  14.719 -0.2795 -0.2904  0.4568
 7636SOL    HW134370   2.342   2.267  14.704  0.0537 -1.8180  1.4241
 7636SOL    HW234371   2.433   2.376  14.667 -3.6691  0.5033  1.5575
 7637SOL     OW34372   0.246   1.332   6.655  0.3222  0.0111  0.5349
 7637SOL    HW134373   0.220   1.388   6.582 -0.5220  1.2346  1.7740
 7637SOL    HW234374   0.331   1.369   6.679 -0.2586  0.7948  1.3752
 7638SOL     OW34375   0.899   0.594   8.802  0.2106  0.3148  0.1427
 7638SOL    HW134376   0.852   0.611   8.883  0.0617 -0.8030  0.2996
 7638SOL    HW234377   0.910   0.499   8.813 -2.5260 -0.0017  0.1423
 7639SOL     OW34378   3.005   0.021  14.337  0.2786 -0.3155  0.5861
 7639SOL    HW134379   3.006   0.013  14.242 -1.4081 -1.0898  0.6325
 7639SOL    HW234380   2.914   0.043  14.358  1.2345  1.2962  3.1450
 7640SOL     OW34381   4.650   2.368   6.383  0.1281 -0.0179  0.7519
 7640SOL    HW134382   4.617   2.301   6.443 -2.5174  1.8035  1.3435
 7640SOL    HW234383   4.613   2.448   6.419  1.1945  0.4976  0.6969
 7641SOL     OW34384   2.390   0.099   1.132  0.1622 -0.4332 -0.0126
 7641SOL    HW134385   2.319   0.049   1.090 -0.1174 -0.8249  0.9244
 7641SOL    HW234386   2.463   0.047   1.100  0.6440 -1.5016  2.7984
 7642SOL     OW34387   4.128   2.515   3.578 -0.4698  0.2667 -0.9433
 7642SOL    HW134388   4.142   2.428   3.543  1.7502  0.6107 -0.9136
 7642SOL    HW234389   4.118   2.574   3.503 -3.7757  2.4347  1.1310
 7643SOL     OW34390   1.622   3.231   8.842  0.4085  0.1633  0.1635
 7643SOL    HW134391   1.583   3.282   8.771  1.3450  0.4240 -0.1603
 7643SOL    HW234392   1.558   3.231   8.913  0.7187  1.9408  0.4377
 7644SOL     OW34393   1.054   1.096   9.501  0.4332  0.4193 -0.4403
 7644SOL    HW134394   1.099   1.083   9.418  0.7283 -1.3385  0.0032
 7644SOL    HW234395   0.966   1.070   9.476  0.2564  0.0894  0.5001
 7645SOL     OW34396   1.630   1.754   5.131 -0.4261  0.2811  0.0887
 7645SOL    HW134397   1.689   1.712   5.193  0.5097  1.0165 -0.3050
 7645SOL    HW234398   1.610   1.673   5.085 -1.4066  0.8000 -0.3900
 7646SOL     OW34399   3.973   1.441   0.244  0.0206  0.3180 -0.5916
 7646SOL    HW134400   3.926   1.383   0.303  0.6031 -3.0214 -3.3840
 7646SOL    HW234401   4.047   1.469   0.298 -0.9350  1.0687  0.3200
 7647SOL     OW34402   4.409   2.876  14.698  0.1093 -0.6877 -0.1974
 7647SOL    HW134403   4.485   2.818  14.706  0.6097 -0.3216 -2.3122
 7647SOL    HW234404   4.365   2.840  14.621  0.7048  0.7823 -1.2153
 7648SOL     OW34405   1.649   0.799   7.369 -0.2962  0.1983 -0.1541
 7648SOL    HW134406   1.637   0.706   7.348 -1.8428  0.7271 -1.5284
 7648SOL    HW234407   1.720   0.790   7.434 -0.6645 -1.4765  0.0211
 7649SOL     OW34408   3.987   1.133  15.361 -0.2927 -0.0272 -0.1327
 7649SOL    HW134409   4.057   1.193  15.334 -1.4145  0.3903 -2.1242
 7649SOL    HW234410   3.930   1.145  15.285 -1.7338  0.7071  1.0735
 7650SOL     OW34411   3.129   1.903   4.322  0.1259  0.3252 -0.4130
 7650SOL    HW134412   3.178   1.855   4.256  1.6977  0.0533  0.9705
 7650SOL    HW234413   3.040   1.906   4.285 -0.4725 -1.9806  0.8655
 7651SOL     OW34414   0.844   4.122   7.978  0.0948 -0.5083  0.0018
 7651SOL    HW134415   0.783   4.048   7.967  1.4877 -1.3952 -1.6772
 7651SOL    HW234416   0.928   4.075   7.971  0.3066 -0.1292  0.0299
 7652SOL     OW34417   3.384   0.028   8.922 -0.6844  0.0306  0.4601
 7652SOL    HW134418   3.334   4.703   8.990  0.0313  2.5776  2.6409
 7652SOL    HW234419   3.420   4.677   8.868  0.1819  0.3381  0.6346
 7653SOL     OW34420   1.745   2.799  15.603 -0.5420 -0.2725 -0.1483
 7653SOL    HW134421   1.798   2.744  15.661 -1.3299  1.3897  2.1098
 7653SOL    HW234422   1.795   2.878  15.584 -1.6734  0.2513 -0.9763
 7654SOL     OW34423   1.249   1.908  15.501  0.0360 -0.3129 -0.2896
 7654SOL    HW134424   1.214   1.973  15.441  2.8411  1.7751  0.3337
 7654SOL    HW234425   1.201   1.928  15.581  0.7413 -0.7326  0.2416
 7655SOL     OW34426   2.894   1.899   6.440 -0.6616  0.3460  0.5002
 7655SOL    HW134427   2.963   1.928   6.380  0.8421  0.6568  2.3779
 7655SOL    HW234428   2.946   1.831   6.482 -1.4388 -1.5585 -1.6404
 7656SOL     OW34429   4.167   4.395   9.328  0.5319 -0.1782  0.5001
 7656SOL    HW134430   4.128   4.420   9.412 -1.2600  0.3850 -0.5039
 7656SOL    HW234431   4.095   4.412   9.267  1.4561  0.5899 -0.3721
 7657SOL     OW34432   1.154   3.666   3.364 -0.1593  0.5439  0.0583
 7657SOL    HW134433   1.063   3.686   3.343 -0.0041  1.3138  0.1271
 7657SOL    HW234434   1.151   3.578   3.400  1.6770  0.3250 -0.3366
 7658SOL     OW34435   3.210   3.454   6.755  0.0712  0.4788 -0.1293
 7658SOL    HW134436   3.186   3.507   6.831 -1.2685  1.9567 -1.5799
 7658SOL    HW234437   3.127   3.412   6.732 -1.5670  2.8815  1.5335
 7659SOL     OW34438   2.537   2.879   4.487 -0.0766 -0.2803 -0.3869
 7659SOL    HW134439   2.449   2.868   4.449  0.0428 -3.4768  0.2538
 7659SOL    HW234440   2.526   2.816   4.558  0.2575 -0.1834 -0.2491
 7660SOL     OW34441   3.563   1.464  15.896  0.6877  0.2193 -0.1139
 7660SOL    HW134442   3.649   1.492  15.866  0.9968 -1.2569 -0.6183
 7660SOL    HW234443   3.582   1.375  15.926  1.1243  0.1239 -0.6755
 7661SOL     OW34444   2.565   2.220  11.015 -0.2307 -0.0173 -0.4094
 7661SOL    HW134445   2.650   2.255  11.043  0.5848 -1.9578 -0.4762
 7661SOL    HW234446   2.594   2.146  10.962  1.5008  0.2648  0.1333
 7662SOL     OW34447   1.879   3.955   2.440  0.5444  0.3227 -0.1886
 7662SOL    HW134448   1.869   3.871   2.484  1.1901  1.0330  1.3316
 7662SOL    HW234449   1.786   3.971   2.425  0.4196 -0.0920  0.1495
 7663SOL     OW34450   1.753   3.699   7.072  0.0964  0.2947 -0.1229
 7663SOL    HW134451   1.767   3.729   7.162  2.4915  0.3898 -0.5406
 7663SOL    HW234452   1.673   3.648   7.087  0.0998 -0.0683 -1.3608
 7664SOL     OW34453   2.444   3.006   4.169 -0.6309 -0.3661  0.1425
 7664SOL    HW134454   2.367   3.063   4.158 -0.5287 -0.5610 -1.5009
 7664SOL    HW234455   2.496   3.070   4.219 -2.2888  1.1919 -0.0985
 7665SOL     OW34456   3.171   2.122   4.942 -0.0955 -0.3796  0.2841
 7665SOL    HW134457   3.187   2.158   5.029  0.4062  0.2706 -0.0839
 7665SOL    HW234458   3.201   2.031   4.945 -0.0601 -0.3599  0.5587
 7666SOL     OW34459   0.034   4.696   6.331 -0.3719 -0.1090 -0.2548
 7666SOL    HW134460   0.102   0.026   6.377 -0.1552  0.4685 -1.1845
 7666SOL    HW234461   0.090   4.631   6.289  1.2809  1.5288 -0.6218
 7667SOL     OW34462   0.830   0.829  11.328 -0.4140  0.1911  0.1300
 7667SOL    HW134463   0.871   0.794  11.407  1.5063  0.2110 -0.8783
 7667SOL    HW234464   0.756   0.769  11.313 -0.5459  0.9029 -2.0309
 7668SOL     OW34465   1.792   0.395   5.554 -0.6718  1.1727  0.4704
 7668SOL    HW134466   1.842   0.314   5.538 -1.5081  0.9460 -0.9685
 7668SOL    HW234467   1.703   0.365   5.566  1.2879 -5.3218 -1.0660
 7669SOL     OW34468   2.303   3.057   2.408 -0.0630  0.4169  0.4539
 7669SOL    HW134469   2.300   3.152   2.421 -0.1629  0.5250 -0.3466
 7669SOL    HW234470   2.283   3.051   2.314 -1.0723 -1.2465  0.7848
 7670SOL     OW34471   0.641   4.554   6.478 -0.1429  0.4518  0.5829
 7670SOL    HW134472   0.653   4.467   6.516 -0.6895  0.4907  0.8405
 7670SOL    HW234473   0.629   4.527   6.387 -0.8417  0.0710  0.7855
 7671SOL     OW34474   0.811   3.479   2.573 -0.5981  0.4335  0.1799
 7671SOL    HW134475   0.747   3.496   2.642  1.7540  1.3529  2.1192
 7671SOL    HW234476   0.751   3.490   2.499 -0.9401  0.3723  0.4477
 7672SOL     OW34477   3.034   3.269   6.341  0.3631  0.0311  0.0812
 7672SOL    HW134478   3.126   3.266   6.313 -0.2893  0.7343 -2.0923
 7672SOL    HW234479   2.993   3.312   6.266  0.7753 -2.6920 -1.7073
 7673SOL     OW34480   2.782   2.159   5.382  0.1746  0.3948 -0.0231
 7673SOL    HW134481   2.700   2.162   5.333  0.6636  1.9327 -0.7797
 7673SOL    HW234482   2.749   2.209   5.457 -0.5349 -0.1234  0.0109
 7674SOL     OW34483   1.801   1.661  17.442 -0.0476 -0.0786  0.3023
 7674SOL    HW134484   1.821   1.666  17.349 -0.5599 -0.2965  0.1791
 7674SOL    HW234485   1.720   1.711  17.431 -1.0493 -1.4423  1.5616
 7675SOL     OW34486   0.398   4.006   3.820  0.1778 -0.0920  0.3661
 7675SOL    HW134487   0.376   4.001   3.727  0.8894  2.1129  0.0675
 7675SOL    HW234488   0.379   4.098   3.840  0.0650 -0.4666  2.0271
 7676SOL     OW34489   2.793   2.081   2.354  0.0927 -0.2242  0.3432
 7676SOL    HW134490   2.710   2.087   2.307  0.6670  3.6023 -0.2211
 7676SOL    HW234491   2.844   2.027   2.293 -1.4871 -0.7977 -0.4683
 7677SOL     OW34492   0.385   4.289   6.517 -0.1859 -0.3051  0.1865
 7677SOL    HW134493   0.453   4.351   6.491 -0.7218  1.1194  2.1286
 7677SOL    HW234494   0.436   4.239   6.581  1.9676  0.9905 -0.5164
 7678SOL     OW34495   1.842   4.456   4.497  0.2174  0.3364 -0.6312
 7678SOL    HW134496   1.873   4.545   4.483 -0.2970  0.6226  0.0613
 7678SOL    HW234497   1.925   4.408   4.510  0.3758  0.3365 -1.6636
 7679SOL     OW34498   3.208   2.627   5.447 -0.0803 -0.0009  0.0241
 7679SOL    HW134499   3.204   2.718   5.417 -1.9396 -0.6483 -1.7007
 7679SOL    HW234500   3.301   2.602   5.450 -0.3594 -1.1557 -0.8633
 7680SOL     OW34501   0.642   3.713   5.832 -0.3554  0.0570 -0.2684
 7680SOL    HW134502   0.633   3.653   5.906 -0.0672  0.2049 -0.1140
 7680SOL    HW234503   0.591   3.665   5.766 -0.4340  1.4532 -1.2246
 7681SOL     OW34504   0.059   2.296  11.316 -0.7176 -0.0597  0.1551
 7681SOL    HW134505   0.035   2.373  11.264  1.7605 -0.4665 -1.5583
 7681SOL    HW234506   0.117   2.339  11.379 -0.2591  0.4236 -0.5952
 7682SOL     OW34507   4.710   3.708   1.074  0.5013  0.1583 -0.0921
 7682SOL    HW134508   0.067   3.760   1.047  1.9071 -2.4067 -1.0576
 7682SOL    HW234509   4.649   3.780   1.090 -0.0872 -0.4717  0.5059
 7683SOL     OW34510   0.944   3.442  11.737 -0.2120  0.0673 -0.0305
 7683SOL    HW134511   0.895   3.516  11.773 -2.2653 -1.1635 -0.2940
 7683SOL    HW234512   0.876   3.385  11.701 -0.5311 -0.0647  0.7805
 7684SOL     OW34513   1.070   0.194   4.044  0.0950 -0.1362  0.2325
 7684SOL    HW134514   1.091   0.135   4.117  1.0317 -0.5995 -0.4065
 7684SOL    HW234515   0.979   0.177   4.022 -0.2732  1.1932  0.7273
 7685SOL     OW34516   4.437   3.778   2.615  0.5703  0.1613 -0.1335
 7685SOL    HW134517   4.415   3.846   2.678 -2.8302  1.6124 -2.9102
 7685SOL    HW234518   4.352   3.739   2.596  1.2016 -1.3398  0.1400
 7686SOL     OW34519   3.783   4.214   8.057 -0.2575 -0.2880  0.4216
 7686SOL    HW134520   3.816   4.304   8.055 -1.5121  0.1623 -0.1186
 7686SOL    HW234521   3.812   4.186   7.970 -0.7818  4.2596 -1.2363
 7687SOL     OW34522   3.548   0.262   4.524 -0.0356 -0.4099  0.5373
 7687SOL    HW134523   3.624   0.244   4.469 -2.0848  1.7683 -3.0703
 7687SOL    HW234524   3.534   0.170   4.549  0.6672 -0.9746 -1.1220
 7688SOL     OW34525   3.696   0.683   7.411 -0.0855 -0.2564  0.2988
 7688SOL    HW134526   3.603   0.670   7.388  0.4750 -1.7951 -1.1095
 7688SOL    HW234527   3.702   0.633   7.493 -1.4113  0.3806  0.7966
 7689SOL     OW34528   2.989   4.213   9.039 -0.7149  0.8462 -0.4473
 7689SOL    HW134529   2.907   4.169   9.060  0.3280 -0.0554  1.8148
 7689SOL    HW234530   3.008   4.246   9.127 -0.2548 -1.3903  0.2803
 7690SOL     OW34531   1.719   1.025   4.874  0.8758 -0.5817 -0.6384
 7690SOL    HW134532   1.674   1.101   4.910 -1.7363 -2.9607  1.1163
 7690SOL    HW234533   1.641   0.971   4.858 -1.1873  1.3134  3.0399
 7691SOL     OW34534   4.480   3.104  13.115 -0.6957 -0.0922 -0.0397
 7691SOL    HW134535   4.448   3.178  13.167  2.0978  1.4549 -0.5063
 7691SOL    HW234536   4.439   3.108  13.028  0.8560 -1.4886 -0.8394
 7692SOL     OW34537   0.146   1.450   8.118  0.0104 -0.0602 -0.2704
 7692SOL    HW134538   0.158   1.526   8.062 -2.8119 -0.0755 -0.8881
 7692SOL    HW234539   0.062   1.420   8.083 -0.4373  0.9015 -0.0150
 7693SOL     OW34540   2.963   3.527   7.746  0.2355  0.5146 -0.4930
 7693SOL    HW134541   2.951   3.491   7.834  0.5046 -1.2091 -1.1708
 7693SOL    HW234542   3.058   3.541   7.746  0.0479  1.7222  1.4899
 7694SOL     OW34543   0.111   0.004  11.121  0.5948  0.7658 -0.3071
 7694SOL    HW134544   0.174   0.047  11.180  1.2391 -0.0715 -0.3866
 7694SOL    HW234545   0.113   0.053  11.039 -1.5290  1.8130  0.2580
 7695SOL     OW34546   2.023   3.445  17.646  0.5795  0.4134  0.3506
 7695SOL    HW134547   2.051   3.512  17.584  3.4858  0.7652  2.0052
 7695SOL    HW234548   2.039   3.482   0.052  0.7243 -2.2187  1.4483
 7696SOL     OW34549   3.108   3.687  13.309 -0.6492  0.4199 -0.2318
 7696SOL    HW134550   3.151   3.615  13.263 -1.9141 -0.1555 -0.4986
 7696SOL    HW234551   3.102   3.756  13.243  1.2444 -0.2805 -1.1306
 7697SOL     OW34552   4.653   1.603   7.801  0.5113  0.0475 -0.1412
 7697SOL    HW134553   4.625   1.567   7.717  1.7514 -0.1226 -0.4769
 7697SOL    HW234554   4.592   1.676   7.815  0.0315 -0.7361  1.8939
 7698SOL     OW34555   4.255   1.652   8.580  0.3783 -0.0724 -0.1663
 7698SOL    HW134556   4.295   1.698   8.507 -2.0636  0.9560 -0.8425
 7698SOL    HW234557   4.170   1.696   8.577  1.4276  2.0778  2.5095
 7699SOL     OW34558   0.480   3.332   5.243 -0.4312  0.6934  0.4865
 7699SOL    HW134559   0.424   3.410   5.240  0.0875  1.0221 -0.7943
 7699SOL    HW234560   0.530   3.356   5.165  1.2494 -1.4907  0.8881
 7700SOL     OW34561   0.583   1.303   5.128 -0.3159  0.0253  0.2439
 7700SOL    HW134562   0.508   1.252   5.159  0.0145  0.3719  1.6117
 7700SOL    HW234563   0.638   1.285   5.205  0.1995  0.8891  0.0785
 7701SOL     OW34564   4.239   0.085   5.715  0.6209  0.0135  0.5064
 7701SOL    HW134565   4.260   4.711   5.722 -0.4061 -0.3412 -1.2635
 7701SOL    HW234566   4.247   0.084   5.620 -1.2729 -1.9875  0.3680
 7702SOL     OW34567   3.422   2.959  12.590  0.1296  0.1318 -0.4522
 7702SOL    HW134568   3.327   2.965  12.599  0.4979  1.2923  2.6550
 7702SOL    HW234569   3.441   2.968  12.496 -2.2038 -0.6824 -0.9897
 7703SOL     OW34570   3.319   3.579   1.158  0.1534 -0.1164 -0.7007
 7703SOL    HW134571   3.295   3.543   1.244  1.0302  0.7026 -0.1032
 7703SOL    HW234572   3.324   3.673   1.175  2.6687 -0.0971 -1.5129
 7704SOL     OW34573   0.007   1.640  14.099 -0.2187  0.1726  0.0885
 7704SOL    HW134574   0.013   1.621  14.193 -1.6910  3.0462  0.7871
 7704SOL    HW234575   0.061   1.720  14.097  0.5460 -0.3412  0.1024
 7705SOL     OW34576   3.164   2.117   3.594 -0.2462 -0.0652  0.6925
 7705SOL    HW134577   3.210   2.036   3.614 -2.8987 -1.7141  0.1014
 7705SOL    HW234578   3.179   2.121   3.500  1.1865  1.9415  0.9976
 7706SOL     OW34579   3.888   3.351   8.302  0.4614  0.4822 -0.5011
 7706SOL    HW134580   3.889   3.376   8.395  0.8275 -0.1107 -0.3475
 7706SOL    HW234581   3.982   3.338   8.291  0.6702  1.0812  0.5882
 7707SOL     OW34582   1.226   4.552   1.121 -0.3010  0.0371  0.3766
 7707SOL    HW134583   1.165   4.617   1.088  1.4793  1.4403 -0.1358
 7707SOL    HW234584   1.266   4.592   1.198  1.2436  0.2275 -0.5108
 7708SOL     OW34585   3.931   3.399   6.577 -0.0095  0.3606  0.3258
 7708SOL    HW134586   3.958   3.439   6.494 -0.3539  1.2089  0.6217
 7708SOL    HW234587   4.012   3.356   6.605  1.7641  1.9606 -2.3355
 7709SOL     OW34588   3.561   1.205  17.464 -0.1563  0.5824  0.0160
 7709SOL    HW134589   3.489   1.195  17.526  0.1174 -0.9985  0.0713
 7709SOL    HW234590   3.629   1.241  17.521 -1.6434  1.6883  1.0859
 7710SOL     OW34591   0.408   2.933   4.799 -0.2160  0.4381  0.5896
 7710SOL    HW134592   0.496   2.936   4.761  0.7182 -3.2771  2.4131
 7710SOL    HW234593   0.430   2.914   4.891 -2.4801  0.2285  1.0921
 7711SOL     OW34594   1.966   1.846   3.857 -0.1828 -0.1813  0.3791
 7711SOL    HW134595   1.903   1.786   3.896 -0.8748  0.8606  0.8712
 7711SOL    HW234596   1.923   1.929   3.837 -0.4271 -0.1992  0.8436
 7712SOL     OW34597   1.395   3.131   4.320  0.3339  0.0280 -0.1764
 7712SOL    HW134598   1.460   3.108   4.254 -0.3303  0.6982 -1.0640
 7712SOL    HW234599   1.430   3.217   4.343  0.2310 -0.0680  0.3389
 7713SOL     OW34600   3.006   3.073  13.514 -0.0617 -0.3256 -0.5793
 7713SOL    HW134601   2.985   3.156  13.557 -0.7127 -0.3525 -0.8442
 7713SOL    HW234602   2.926   3.022  13.526  0.4167 -0.8468  0.3666
 7714SOL     OW34603   1.318   1.262   6.089  0.0387  0.5942 -0.1655
 7714SOL    HW134604   1.352   1.230   6.005  1.6156 -0.3262  0.8303
 7714SOL    HW234605   1.263   1.329   6.047  0.2743  1.5545  1.0618
 7715SOL     OW34606   3.899   3.353   8.590  0.1630  0.0827 -0.3347
 7715SOL    HW134607   3.969   3.297   8.623 -0.1111 -1.7522 -2.8674
 7715SOL    HW234608   3.923   3.438   8.627  1.3248 -0.8012  0.9423
 7716SOL     OW34609   2.947   4.040  12.400 -0.0196  0.8272 -0.2303
 7716SOL    HW134610   3.032   4.067  12.435  1.0750  1.0678 -3.1162
 7716SOL    HW234611   2.895   4.010  12.475  1.5809 -0.0169  0.5509
 7717SOL     OW34612   4.671   3.482  15.482 -0.1669  0.0680  0.3233
 7717SOL    HW134613   0.014   3.459  15.551 -0.7178  0.8275  1.0753
 7717SOL    HW234614   4.689   3.413  15.418 -1.0326 -0.0029  0.1586
 7718SOL     OW34615   3.615   1.176   6.663  0.1236  0.8043  0.5476
 7718SOL    HW134616   3.585   1.159   6.752  0.9787  1.2801  0.9322
 7718SOL    HW234617   3.598   1.095   6.616 -1.4645  1.9601 -0.8577
 7719SOL     OW34618   2.284   0.175   2.997 -0.1461  0.1717 -0.1262
 7719SOL    HW134619   2.282   0.130   2.912  1.9077 -0.8541  0.3792
 7719SOL    HW234620   2.330   0.109   3.048 -0.6265  0.4425  0.6560
 7720SOL     OW34621   2.431   0.211  15.309  0.1665 -0.1564  0.1445
 7720SOL    HW134622   2.353   0.244  15.354 -1.0622 -0.0247 -2.0393
 7720SOL    HW234623   2.393   0.165  15.234  2.0958 -2.1221  0.3952
 7721SOL     OW34624   4.456   1.828  13.651  0.1016  0.1052  0.4180
 7721SOL    HW134625   4.525   1.875  13.699  0.7725 -2.4746  1.9937
 7721SOL    HW234626   4.427   1.781  13.729  1.8608 -3.2224 -0.9468
 7722SOL     OW34627   4.109   4.700  15.779 -0.2172 -0.4740  0.6508
 7722SOL    HW134628   4.204   4.716  15.779 -0.3445  0.2771  0.0441
 7722SOL    HW234629   4.110   4.614  15.821  0.1674 -0.3497  0.9018
 7723SOL     OW34630   2.187   1.046   3.341 -0.3609 -0.5119 -0.9873
 7723SOL    HW134631   2.116   1.030   3.403  2.5282 -3.2527  1.6739
 7723SOL    HW234632   2.266   1.019   3.389 -0.7192 -0.9232 -0.6217
 7724SOL     OW34633   1.582   3.124   2.593 -0.1614 -0.0125  0.9655
 7724SOL    HW134634   1.563   3.171   2.512  1.0348 -1.7488 -0.3548
 7724SOL    HW234635   1.497   3.082   2.606 -0.3573  0.6356  1.8249
 7725SOL     OW34636   4.372   0.431  13.056  0.2259 -0.5352 -0.0856
 7725SOL    HW134637   4.345   0.499  12.994  1.6681 -0.4199 -0.5959
 7725SOL    HW234638   4.349   0.465  13.143  0.5567  0.5429 -0.4104
 7726SOL     OW34639   3.442   1.417  16.191  0.3982 -0.4228  0.3704
 7726SOL    HW134640   3.460   1.474  16.116 -1.6757  1.0022  0.9424
 7726SOL    HW234641   3.465   1.331  16.154  2.8497  0.6291 -0.5575
 7727SOL     OW34642   1.714   2.565   7.549 -0.0256 -0.2587 -0.3180
 7727SOL    HW134643   1.657   2.605   7.484  1.7377 -1.3171 -2.4879
 7727SOL    HW234644   1.671   2.479   7.561  0.8893 -0.8470 -1.3165
 7728SOL     OW34645   2.251   1.854   6.457 -0.0242  0.3276  0.0964
 7728SOL    HW134646   2.317   1.851   6.526  1.0377  0.1477 -0.9324
 7728SOL    HW234647   2.266   1.940   6.418 -1.2365  0.7452  0.5374
 7729SOL     OW34648   0.501   2.561   8.358  0.7682  0.1458 -0.1253
 7729SOL    HW134649   0.531   2.495   8.420 -1.9299 -2.1820 -1.2971
 7729SOL    HW234650   0.407   2.545   8.365  0.7327  0.0917 -0.6790
 7730SOL     OW34651   2.746   4.559   4.643  0.3601 -0.2000  0.3124
 7730SOL    HW134652   2.656   4.530   4.624  0.9758 -2.7619  1.3080
 7730SOL    HW234653   2.735   4.633   4.704 -0.5497 -0.9844  1.1050
 7731SOL     OW34654   1.511   3.089   8.424  0.5325  0.0330  0.0010
 7731SOL    HW134655   1.469   3.014   8.381  2.0346 -0.8383  0.0766
 7731SOL    HW234656   1.598   3.049   8.421  1.1423  1.4010 -0.5815
 7732SOL     OW34657   2.370   1.148  13.158 -0.3283  0.0331 -0.5271
 7732SOL    HW134658   2.461   1.119  13.162  0.2432  1.9231 -0.1864
 7732SOL    HW234659   2.378   1.206  13.082 -0.5844  1.6003  0.6568
 7733SOL     OW34660   0.063   2.751  11.675  0.8194 -0.5450  0.0764
 7733SOL    HW134661   0.100   2.743  11.762 -1.6648  2.0525  1.3865
 7733SOL    HW234662   4.703   2.801  11.694  1.4326  0.7969 -0.8777
 7734SOL     OW34663   2.621   2.216  15.900 -0.0634  0.0098  0.1058
 7734SOL    HW134664   2.620   2.264  15.817 -2.1449  0.4587  0.4007
 7734SOL    HW234665   2.550   2.256  15.951  0.0024  2.3485 -1.6068
 7735SOL     OW34666   2.512   0.831   6.513  0.5908 -0.2117  0.4029
 7735SOL    HW134667   2.589   0.888   6.517  0.5197 -0.0320 -0.7392
 7735SOL    HW234668   2.453   0.869   6.448 -0.4341  0.6841  1.8566
 7736SOL     OW34669   0.493   4.018   7.454  0.5449  0.2785  0.1280
 7736SOL    HW134670   0.412   4.039   7.501  2.2520 -0.6431  3.4336
 7736SOL    HW234671   0.529   3.963   7.523 -1.4179 -1.1362  0.0081
 7737SOL     OW34672   0.995   1.271   4.029 -0.4850 -0.0621  0.0718
 7737SOL    HW134673   0.939   1.250   3.954  1.2458 -0.1587 -1.2087
 7737SOL    HW234674   0.989   1.191   4.082  1.0545  0.7079  1.3858
 7738SOL     OW34675   4.269   4.644   7.937 -0.2622  0.5088  0.2060
 7738SOL    HW134676   4.264   4.705   7.863  1.3819  0.8239  0.3515
 7738SOL    HW234677   4.360   4.665   7.959 -0.0674  2.2286 -2.1821
 7739SOL     OW34678   1.032   4.480   3.453  0.1211 -0.4185 -0.4015
 7739SOL    HW134679   1.110   4.426   3.440 -0.7635 -2.2179  1.7374
 7739SOL    HW234680   1.064   4.514   3.536 -1.7445  0.3283  0.0164
 7740SOL     OW34681   4.137   1.258   9.911 -0.2443  0.9555  0.3446
 7740SOL    HW134682   4.198   1.316   9.958 -0.3209 -0.2874  1.9640
 7740SOL    HW234683   4.051   1.295   9.930 -0.0755  0.2557  2.4271
 7741SOL     OW34684   3.758   2.089   5.671 -0.3361  0.2523 -0.0315
 7741SOL    HW134685   3.847   2.101   5.639 -0.3690  0.8074  0.0939
 7741SOL    HW234686   3.731   2.180   5.681  0.6042  0.4025  1.0311
 7742SOL     OW34687   1.926   2.609   1.928 -0.1206  0.3688  0.3520
 7742SOL    HW134688   2.010   2.633   1.968  0.4848 -0.7380 -0.2763
 7742SOL    HW234689   1.918   2.692   1.881  0.4999 -0.0361 -0.4759
 7743SOL     OW34690   3.486   1.879   1.263  0.8148  0.5367 -0.3536
 7743SOL    HW134691   3.576   1.872   1.293  0.1287 -0.0624  1.5797
 7743SOL    HW234692   3.503   1.938   1.190  0.3725  0.3463 -0.6116
 7744SOL     OW34693   0.668   0.916  13.377 -0.3072  0.0113 -0.3378
 7744SOL    HW134694   0.638   0.962  13.299  1.0135 -0.7606 -1.3096
 7744SOL    HW234695   0.755   0.901  13.341  0.4098  0.6545  1.1600
 7745SOL     OW34696   3.723   0.121   4.105 -0.1813 -0.4133  0.0065
 7745SOL    HW134697   3.817   0.114   4.085 -0.0963  0.1624  0.2105
 7745SOL    HW234698   3.686   0.143   4.019 -1.2032 -1.4430  0.1871
 7746SOL     OW34699   2.270   3.118   3.862  0.1728 -0.0604 -0.3552
 7746SOL    HW134700   2.331   3.079   3.800  0.4809  1.1605 -0.8283
 7746SOL    HW234701   2.301   3.082   3.946 -0.7872 -0.2623 -0.0935
 7747SOL     OW34702   2.185   2.752  15.801  0.4673 -0.2163  0.2961
 7747SOL    HW134703   2.095   2.725  15.782 -0.0266  0.5262  1.6195
 7747SOL    HW234704   2.223   2.664  15.798 -0.1336 -0.4466 -0.6718
 7748SOL     OW34705   4.588   0.044   5.081 -0.6243 -0.1959  0.4129
 7748SOL    HW134706   4.653   0.112   5.099 -1.4007  0.4902  0.6163
 7748SOL    HW234707   4.509   0.098   5.090 -0.2444  0.6772 -1.4390
 7749SOL     OW34708   2.742   1.237   6.090  0.6242 -0.2790 -0.4994
 7749SOL    HW134709   2.760   1.143   6.085 -0.5108 -0.4595 -1.2230
 7749SOL    HW234710   2.676   1.247   6.022  0.4152  1.7481  0.0058
 7750SOL     OW34711   0.531   0.308   4.002 -0.0081  0.2323  0.6495
 7750SOL    HW134712   0.583   0.387   4.017  0.8963 -0.0877 -0.7904
 7750SOL    HW234713   0.582   0.275   3.928 -0.3671  2.9389 -0.7973
 7751SOL     OW34714   4.203   0.535   4.102 -0.6069  0.2823  0.2508
 7751SOL    HW134715   4.255   0.530   4.022 -0.5301 -2.3291  0.4516
 7751SOL    HW234716   4.271   0.546   4.169  1.5481 -0.9569 -1.7345
 7752SOL     OW34717   2.120   4.663   8.940 -0.5876 -0.5879  0.7925
 7752SOL    HW134718   2.081   4.683   8.856  2.1618  0.0316 -0.3436
 7752SOL    HW234719   2.127   0.035   8.967 -3.6171  0.4117 -1.8852
 7753SOL     OW34720   2.423   1.101   5.999  0.0868  0.2829  0.0445
 7753SOL    HW134721   2.430   1.191   5.967  0.4323 -0.0729 -0.9127
 7753SOL    HW234722   2.331   1.081   5.981 -0.0544 -0.6936  1.9488
 7754SOL     OW34723   2.552   2.416  15.701  0.1228  0.3301  0.0754
 7754SOL    HW134724   2.493   2.483  15.666 -0.0705  0.9296  1.5450
 7754SOL    HW234725   2.635   2.463  15.700  1.6862 -2.4492 -0.1260
 7755SOL     OW34726   2.818   3.084   6.411  1.1464 -0.3851 -0.3162
 7755SOL    HW134727   2.895   3.140   6.409  0.9276 -0.1173 -1.1846
 7755SOL    HW234728   2.748   3.149   6.414  0.9456 -0.5799 -0.7432
 7756SOL     OW34729   1.000   3.539  12.791 -0.0089 -0.9453  0.2248
 7756SOL    HW134730   1.003   3.634  12.802 -0.7568 -0.7687 -1.2166
 7756SOL    HW234731   1.085   3.524  12.750  0.2907 -0.9427  0.8295
 7757SOL     OW34732   4.714   2.943  17.042  0.5838 -0.3796  0.2149
 7757SOL    HW134733   4.672   2.995  16.973  3.4833 -0.4261 -1.6141
 7757SOL    HW234734   0.086   2.957  17.016  1.7124  0.8256  4.8191
 7758SOL     OW34735   1.947   4.690   8.718  0.5297 -0.0912 -0.2595
 7758SOL    HW134736   1.897   0.044   8.754  0.7022 -1.6410  3.1542
 7758SOL    HW234737   1.947   4.714   8.625 -0.8336 -2.5464 -0.8879
 7759SOL     OW34738   3.330   2.384  11.041 -0.2732 -0.1764 -0.4642
 7759SOL    HW134739   3.380   2.377  11.122  1.5753 -1.2850 -1.7001
 7759SOL    HW234740   3.385   2.330  10.984 -0.0822 -0.3373 -0.1327
 7760SOL     OW34741   2.438   1.039   9.169 -0.8926 -0.4759 -0.9221
 7760SOL    HW134742   2.436   1.127   9.208  1.6930 -1.9943  2.5917
 7760SOL    HW234743   2.393   1.045   9.084 -1.3680 -0.0723 -0.6445
 7761SOL     OW34744   2.278   2.779   9.809  0.4395 -0.4103 -0.7285
 7761SOL    HW134745   2.280   2.823   9.894  1.7755 -1.8137 -0.0181
 7761SOL    HW234746   2.359   2.729   9.823  2.0937  2.2890 -0.6113
 7762SOL     OW34747   0.342   3.523  14.004  0.7890  0.6195 -0.4632
 7762SOL    HW134748   0.315   3.544  14.093 -1.1121 -1.0972 -0.6352
 7762SOL    HW234749   0.328   3.428  14.008  2.1623  0.6004  4.3607
 7763SOL     OW34750   3.273   0.296   7.755 -1.0556  0.1243 -0.2812
 7763SOL    HW134751   3.229   0.277   7.838 -0.1673 -0.4575  0.0585
 7763SOL    HW234752   3.228   0.376   7.726  0.5494  1.0459 -0.1848
 7764SOL     OW34753   0.209   1.135   2.099 -0.0770  0.0217  0.0252
 7764SOL    HW134754   0.130   1.107   2.146  2.6747 -1.8263  3.4665
 7764SOL    HW234755   0.215   1.063   2.037  0.2333 -0.5846  0.7591
 7765SOL     OW34756   1.723   2.149   0.341 -0.3885  0.0791  0.1669
 7765SOL    HW134757   1.684   2.199   0.270 -2.0911 -1.8873 -0.2761
 7765SOL    HW234758   1.806   2.123   0.301 -0.6859 -2.3814  1.1202
 7766SOL     OW34759   3.035   2.835   5.857  0.1299  0.8252 -0.1592
 7766SOL    HW134760   3.124   2.858   5.880  0.0840 -2.0129  2.8942
 7766SOL    HW234761   3.051   2.837   5.763 -0.5219  1.3365 -0.2622
 7767SOL     OW34762   3.420   2.975  17.107 -0.5134  0.2403  0.3086
 7767SOL    HW134763   3.383   3.004  17.190  1.0607 -0.7507  1.3519
 7767SOL    HW234764   3.486   2.912  17.136  1.7049  2.2943 -0.2594
 7768SOL     OW34765   1.764   1.557  16.325  0.6568  0.2083 -0.2304
 7768SOL    HW134766   1.703   1.514  16.384  1.0360 -0.0550 -0.0280
 7768SOL    HW234767   1.801   1.619  16.388  0.5443  2.6166 -2.5179
 7769SOL     OW34768   0.854   2.219   5.210 -0.2858 -0.0677  0.3544
 7769SOL    HW134769   0.761   2.200   5.195  0.2082 -1.9727 -0.2195
 7769SOL    HW234770   0.889   2.183   5.129 -0.9135 -0.3525  0.2093
 7770SOL     OW34771   0.395   3.513  12.474  0.1068  0.1414  0.2128
 7770SOL    HW134772   0.435   3.540  12.556  0.5601 -3.6001  1.2136
 7770SOL    HW234773   0.412   3.593  12.425 -2.0270  0.1358 -0.5539
 7771SOL     OW34774   0.128   0.576  12.617 -0.1190  0.5216  0.7127
 7771SOL    HW134775   0.104   0.537  12.533 -2.1721 -1.4205  2.2062
 7771SOL    HW234776   0.114   0.496  12.668  1.4589 -0.1524  0.1004
 7772SOL     OW34777   3.777   2.517   8.835 -0.0714  0.1292  0.0447
 7772SOL    HW134778   3.743   2.581   8.773  0.4322  0.3924  0.0414
 7772SOL    HW234779   3.813   2.577   8.900 -1.1850 -0.8000  1.5405
 7773SOL     OW34780   2.970   4.249   7.061  0.2263 -0.3215 -0.0620
 7773SOL    HW134781   3.041   4.214   7.116 -0.3440 -1.1645  0.1432
 7773SOL    HW234782   2.925   4.166   7.045 -0.0117 -0.1950 -0.0436
 7774SOL     OW34783   2.139   0.223   7.366  0.2063 -0.0539  0.0684
 7774SOL    HW134784   2.160   0.315   7.380  0.1610  0.0684 -0.6592
 7774SOL    HW234785   2.078   0.206   7.438 -0.7161 -1.1866 -0.9813
 7775SOL     OW34786   2.310   0.729  17.164  0.6215  0.2861  0.6211
 7775SOL    HW134787   2.280   0.638  17.158  0.6728  0.4134 -1.6288
 7775SOL    HW234788   2.243   0.756  17.227 -1.4212 -1.6792 -0.7125
 7776SOL     OW34789   4.057   3.293  13.130 -0.1782 -0.1199  0.3935
 7776SOL    HW134790   4.043   3.349  13.053 -0.3394 -1.2416 -0.3940
 7776SOL    HW234791   4.149   3.318  13.142 -0.3920  0.2572  1.2781
 7777SOL     OW34792   1.545   1.148   0.552  0.0566 -0.2662  0.0801
 7777SOL    HW134793   1.518   1.089   0.481 -3.3239  0.0590  1.1027
 7777SOL    HW234794   1.630   1.171   0.516  0.8318 -0.4058  1.8407
 7778SOL     OW34795   1.798   2.694   9.118  0.1872 -0.6874 -0.0997
 7778SOL    HW134796   1.832   2.741   9.194 -0.1643 -1.2550  0.4134
 7778SOL    HW234797   1.707   2.685   9.147  0.7910 -1.6860  1.5046
 7779SOL     OW34798   3.815   4.489   3.136 -0.2832 -0.2925  0.4249
 7779SOL    HW134799   3.811   4.572   3.088  0.8579 -0.8965 -0.7005
 7779SOL    HW234800   3.739   4.495   3.194 -1.7936 -2.2620 -1.3777
 7780SOL     OW34801   1.068   3.060   5.008  0.4259  0.0883 -0.3210
 7780SOL    HW134802   1.028   3.107   5.082 -1.4912 -0.2036 -1.1555
 7780SOL    HW234803   1.143   3.019   5.050 -0.6852 -1.4584  0.1539
 7781SOL     OW34804   3.929   1.103   9.089 -0.3234 -0.1217 -0.0325
 7781SOL    HW134805   3.849   1.053   9.107 -0.8000  0.8773  0.6178
 7781SOL    HW234806   3.924   1.168   9.159 -3.4793  0.3321 -0.6494
 7782SOL     OW34807   4.440   0.266   5.335  0.4383  0.1053 -0.9131
 7782SOL    HW134808   4.366   0.316   5.369  1.1081 -1.0940  2.3349
 7782SOL    HW234809   4.394   0.182   5.325  2.6422 -1.3737  1.4499
 7783SOL     OW34810   2.885   4.584   5.320  0.4828  0.2804 -0.0569
 7783SOL    HW134811   2.878   4.638   5.241  1.5351 -1.0571 -1.0584
 7783SOL    HW234812   2.853   4.649   5.382  1.6424  1.2871 -0.5116
 7784SOL     OW34813   0.690   2.148   0.838 -0.5223  0.7678  0.4611
 7784SOL    HW134814   0.711   2.143   0.745  0.8990  1.7487  0.7288
 7784SOL    HW234815   0.685   2.242   0.853 -0.4319  1.0522 -1.2914
 7785SOL     OW34816   2.300   4.627  13.064  0.8323 -0.0955  0.1865
 7785SOL    HW134817   2.388   4.663  13.060  1.1577 -1.1232 -1.7080
 7785SOL    HW234818   2.247   4.685  13.008  0.0563 -2.5464 -1.5837
 7786SOL     OW34819   3.773   2.360   8.362 -0.8806 -0.4583 -0.0746
 7786SOL    HW134820   3.785   2.455   8.360  0.3489 -0.6406 -0.9080
 7786SOL    HW234821   3.796   2.347   8.270  0.3470 -0.7473  0.2878
 7787SOL     OW34822   3.920   2.771   3.097 -0.3226 -0.2690  0.1083
 7787SOL    HW134823   3.962   2.816   3.170 -1.5286  1.1265 -0.0598
 7787SOL    HW234824   3.994   2.751   3.039 -0.1979 -3.3047  1.3167
 7788SOL     OW34825   2.462   4.019  15.459  0.0267  0.3316  0.4166
 7788SOL    HW134826   2.467   3.923  15.455  0.7384  0.3254  1.4534
 7788SOL    HW234827   2.407   4.036  15.383  0.6037  2.2187  0.4088
 7789SOL     OW34828   2.911   2.973   7.605  0.4018 -0.2372 -0.2411
 7789SOL    HW134829   2.853   2.918   7.552  0.4906 -0.7218  0.1754
 7789SOL    HW234830   2.852   3.014   7.668  0.3429  1.7683 -1.5703
 7790SOL     OW34831   3.812   4.372   9.662  0.4158  1.0286 -0.0625
 7790SOL    HW134832   3.819   4.467   9.676 -1.3617  0.8116  2.2821
 7790SOL    HW234833   3.776   4.343   9.745  1.9693  1.4772  0.7716
 7791SOL     OW34834   2.309   2.720   2.429  0.2005 -0.0223  0.1319
 7791SOL    HW134835   2.372   2.771   2.480  0.2242  1.1053 -1.0094
 7791SOL    HW234836   2.241   2.786   2.417 -0.4117 -0.6454  0.1869
 7792SOL     OW34837   3.092   1.142   4.056 -0.1355 -0.8758  0.2063
 7792SOL    HW134838   3.083   1.049   4.035 -0.4630 -0.4787 -1.4183
 7792SOL    HW234839   3.000   1.162   4.069 -0.2352 -0.2334 -1.5093
 7793SOL     OW34840   2.488   0.321   2.726 -0.3137 -0.9812 -0.1402
 7793SOL    HW134841   2.460   0.367   2.806 -0.5764 -1.4484  0.0366
 7793SOL    HW234842   2.560   0.383   2.717  0.4974 -1.6878  1.5428
 7794SOL     OW34843   3.792   3.843   4.231  0.1290  0.0083 -0.0617
 7794SOL    HW134844   3.755   3.755   4.241 -0.7043  0.3065 -0.5774
 7794SOL    HW234845   3.841   3.835   4.149 -0.1405 -1.1498 -0.1089
 7795SOL     OW34846   2.437   3.366  11.720  0.5598 -0.2481 -0.2278
 7795SOL    HW134847   2.453   3.274  11.700 -1.2927 -0.6088 -0.0773
 7795SOL    HW234848   2.392   3.365  11.805  2.7031  0.3676  0.9086
 7796SOL     OW34849   3.174   1.701  14.185  0.3394 -0.0933  0.3038
 7796SOL    HW134850   3.151   1.648  14.108 -0.1749 -0.2824  0.5852
 7796SOL    HW234851   3.193   1.634  14.252  0.7852 -1.4198 -1.1459
 7797SOL     OW34852   3.323   0.185   2.992 -0.6764 -0.2607  0.3221
 7797SOL    HW134853   3.273   0.226   3.062 -1.8662  2.4099 -2.0706
 7797SOL    HW234854   3.304   0.251   2.925  1.8552  0.5479  0.4095
 7798SOL     OW34855   4.438   1.401  12.261  0.0045 -0.1143 -0.1189
 7798SOL    HW134856   4.367   1.460  12.234  1.7118  0.6877 -2.8050
 7798SOL    HW234857   4.504   1.468  12.245  0.6304 -0.3571  1.3607
 7799SOL     OW34858   2.185   2.267  15.141 -0.6117 -0.6595  0.0924
 7799SOL    HW134859   2.117   2.200  15.133 -1.3499  0.0994  0.0622
 7799SOL    HW234860   2.262   2.233  15.095 -0.2466  2.4683 -1.5830
 7800SOL     OW34861   2.691   2.167   4.376  0.2520 -0.1860 -0.0334
 7800SOL    HW134862   2.747   2.139   4.304  2.0334 -0.8222  1.5851
 7800SOL    HW234863   2.759   2.183   4.441 -0.2178 -1.0366  0.6693
 7801SOL     OW34864   0.674   1.849  12.752 -0.5903  0.0154  0.2903
 7801SOL    HW134865   0.701   1.866  12.662 -2.4590  0.9254 -0.0959
 7801SOL    HW234866   0.712   1.929  12.788 -0.6775  0.1363  0.1143
 7802SOL     OW34867   1.730   0.712  14.205 -0.1435  0.1474  0.1878
 7802SOL    HW134868   1.695   0.623  14.214  2.3172 -0.8443 -0.1123
 7802SOL    HW234869   1.787   0.701  14.130 -1.1557  1.7519 -0.8049
 7803SOL     OW34870   1.010   1.165   1.607 -0.1605 -0.0783 -0.5442
 7803SOL    HW134871   0.942   1.222   1.643  0.0887  0.8560 -1.5448
 7803SOL    HW234872   1.006   1.182   1.513 -1.6188  1.2916 -0.2248
 7804SOL     OW34873   3.891   2.212   9.410  0.2127 -0.5272  0.1805
 7804SOL    HW134874   3.958   2.247   9.351  2.0485 -1.5971  1.6106
 7804SOL    HW234875   3.880   2.120   9.386 -3.2759  0.5361 -2.2083
 7805SOL     OW34876   2.583   4.001   5.325  0.3460 -0.2300  0.2454
 7805SOL    HW134877   2.492   4.028   5.315  0.6442  0.6426 -0.1045
 7805SOL    HW234878   2.569   3.925   5.382 -0.8608 -1.0205 -1.1112
 7806SOL     OW34879   0.780   2.131   7.912  0.3298 -0.4286  0.5475
 7806SOL    HW134880   0.801   2.213   7.958 -0.1197  0.5858 -1.0725
 7806SOL    HW234881   0.862   2.081   7.912  0.7030  0.1675  1.7697
 7807SOL     OW34882   2.750   4.456   7.064  0.4807 -0.5515  0.2392
 7807SOL    HW134883   2.724   4.469   7.155 -0.6457  1.0933 -0.3114
 7807SOL    HW234884   2.840   4.426   7.070  0.7296 -0.0569 -1.0677
 7808SOL     OW34885   0.215   2.933   1.817  0.2881 -0.5588 -0.1846
 7808SOL    HW134886   0.280   2.973   1.759 -0.2534  0.8939  0.2286
 7808SOL    HW234887   0.132   2.976   1.797  0.1613 -1.0236 -0.6602
 7809SOL     OW34888   3.026   4.325   8.447  0.1128  0.5126 -0.4882
 7809SOL    HW134889   3.017   4.230   8.450  1.9985  0.3607  0.0371
 7809SOL    HW234890   3.018   4.347   8.354 -0.9164  0.9852 -0.2926
 7810SOL     OW34891   2.441   3.141   7.097 -0.1616 -0.1219 -0.1340
 7810SOL    HW134892   2.425   3.146   7.191 -0.7607 -1.4114 -0.1750
 7810SOL    HW234893   2.508   3.209   7.090  1.3908 -1.9860 -3.2704
 7811SOL     OW34894   1.674   0.878   3.401  0.3421  0.3027 -0.0900
 7811SOL    HW134895   1.634   0.853   3.318  0.3870  0.5007 -0.1699
 7811SOL    HW234896   1.652   0.803   3.458 -0.9232 -1.1779 -2.4946
 7812SOL     OW34897   4.310   1.312   6.366  0.0032  0.0543 -1.0047
 7812SOL    HW134898   4.216   1.311   6.350  0.1265 -1.7856 -1.5780
 7812SOL    HW234899   4.310   1.370   6.442  0.2057 -1.9668  0.5474
 7813SOL     OW34900   0.002   4.323   0.605  0.8268  0.1303  0.7806
 7813SOL    HW134901   4.706   4.285   0.691 -2.6711  0.1458  0.1428
 7813SOL    HW234902   4.641   4.375   0.600 -0.9840 -2.5954  1.6689
 7814SOL     OW34903   1.802   3.887  13.046 -0.6837 -0.5763  0.4839
 7814SOL    HW134904   1.723   3.841  13.019 -1.8308  1.7812 -0.1442
 7814SOL    HW234905   1.850   3.818  13.094  0.5997  0.0625  0.1300
 7815SOL     OW34906   2.585   3.351  15.896  0.1542  0.3437  0.0803
 7815SOL    HW134907   2.555   3.441  15.908  0.4854  0.3562  0.7759
 7815SOL    HW234908   2.668   3.359  15.849  0.1589  0.8138  0.1667
 7816SOL     OW34909   0.289   4.249   4.749  0.6398 -0.1944  0.7832
 7816SOL    HW134910   0.209   4.262   4.799 -0.6431 -0.1917 -1.2533
 7816SOL    HW234911   0.291   4.329   4.695  1.8672 -1.1964 -0.6749
 7817SOL     OW34912   0.591   3.540   6.923  0.1631  0.3917  0.1246
 7817SOL    HW134913   0.580   3.568   7.014 -3.4456  0.3058 -0.3032
 7817SOL    HW234914   0.546   3.459   6.946 -2.7262  2.1529  0.6105
 7818SOL     OW34915   0.689   4.151  10.763  0.1403 -0.5820  0.1137
 7818SOL    HW134916   0.594   4.153  10.771  0.1008 -1.4267 -0.1516
 7818SOL    HW234917   0.712   4.178  10.852  0.5828  0.6003 -0.3625
 7819SOL     OW34918   0.257   2.016  13.422 -0.7893  0.0695 -0.2221
 7819SOL    HW134919   0.195   2.032  13.493 -2.3908 -1.9742 -1.1605
 7819SOL    HW234920   0.248   2.094  13.367 -2.5483 -0.9115 -1.3021
 7820SOL     OW34921   0.772   1.073   7.112  0.4384  0.3335  0.6089
 7820SOL    HW134922   0.815   1.061   7.028 -0.8275  1.8028 -0.2440
 7820SOL    HW234923   0.815   1.002   7.160  1.5305  0.6084  0.0297
 7821SOL     OW34924   2.580   1.285  11.268 -0.3301  0.3804  0.2786
 7821SOL    HW134925   2.636   1.284  11.346 -1.6572 -0.3578  1.2194
 7821SOL    HW234926   2.597   1.370  11.229 -1.0592 -0.7910 -2.5864
 7822SOL     OW34927   0.278   3.612   7.686  0.1166 -0.0799 -0.5771
 7822SOL    HW134928   0.188   3.637   7.708 -0.4292 -0.5563 -2.2481
 7822SOL    HW234929   0.284   3.563   7.604  0.3989 -1.8299  0.4787
 7823SOL     OW34930   1.792   1.267   3.418 -0.1703  0.0158 -0.5675
 7823SOL    HW134931   1.885   1.247   3.421 -0.0979  0.7544  1.9752
 7823SOL    HW234932   1.776   1.279   3.324 -2.8055 -2.2002 -0.4133
 7824SOL     OW34933   3.057   3.754   4.921  0.2397 -0.1216  0.1150
 7824SOL    HW134934   3.071   3.813   4.847 -0.9044  0.0627  0.0464
 7824SOL    HW234935   3.039   3.812   4.995 -0.8073  1.8265 -1.6771
 7825SOL     OW34936   3.145   1.162   3.103 -0.2614 -0.4846 -0.2191
 7825SOL    HW134937   3.195   1.103   3.160  1.2151  1.4299  0.4606
 7825SOL    HW234938   3.063   1.163   3.153  1.1757  0.2044  2.1174
 7826SOL     OW34939   2.997   1.772   4.881 -0.6693 -0.0273  0.5334
 7826SOL    HW134940   3.092   1.773   4.870 -0.7747  2.5075 -0.3398
 7826SOL    HW234941   2.977   1.830   4.955 -1.5023 -0.0119  0.2960
 7827SOL     OW34942   1.245   1.866   8.576 -0.1010 -0.0026 -0.3643
 7827SOL    HW134943   1.318   1.895   8.521 -0.8850 -2.1559 -2.5427
 7827SOL    HW234944   1.190   1.878   8.498  0.8258  1.1311 -0.8433
 7828SOL     OW34945   4.338   1.096   5.252  0.1050  0.6295 -0.5609
 7828SOL    HW134946   4.287   1.167   5.291  0.0670 -0.5721  1.5533
 7828SOL    HW234947   4.287   1.018   5.271  1.9149 -0.9244 -2.0878
 7829SOL     OW34948   2.378   1.860  17.363  0.0143  0.3220 -0.3041
 7829SOL    HW134949   2.464   1.900  17.376 -0.3094  0.8300  0.2832
 7829SOL    HW234950   2.356   1.820  17.447 -0.1099 -0.6970 -0.8213
 7830SOL     OW34951   2.568   4.437   2.289  0.0540 -0.1867 -0.2787
 7830SOL    HW134952   2.493   4.410   2.342 -0.9735 -0.6311 -1.9853
 7830SOL    HW234953   2.542   4.529   2.287  1.0390  0.0336 -2.7736
 7831SOL     OW34954   1.029   3.071   9.016  0.6162 -0.3378  0.4599
 7831SOL    HW134955   1.087   3.127   9.069 -1.2193  1.2408  0.7951
 7831SOL    HW234956   0.965   3.043   9.081 -0.0421  0.5410  0.1952
 7832SOL     OW34957   3.824   2.115   1.278  0.0352 -0.0909 -0.0513
 7832SOL    HW134958   3.793   2.024   1.281 -1.2758  0.4556  2.6648
 7832SOL    HW234959   3.871   2.132   1.196 -0.5287  2.9305  0.2682
 7833SOL     OW34960   1.801   1.389   7.682  0.0080  0.5992  0.6008
 7833SOL    HW134961   1.763   1.377   7.769  0.1361  1.3410  0.7543
 7833SOL    HW234962   1.743   1.455   7.646  0.5262 -0.3999 -2.0538
 7834SOL     OW34963   3.955   3.814  16.064 -0.5248  0.0758  0.2478
 7834SOL    HW134964   3.945   3.906  16.041 -1.5338  0.2070  1.2312
 7834SOL    HW234965   3.863   3.790  16.054 -0.3949 -1.0010  1.6263
 7835SOL     OW34966   3.030   4.121   2.355  0.2131 -0.0727  0.1313
 7835SOL    HW134967   3.114   4.145   2.395  1.0004 -1.2924 -0.8025
 7835SOL    HW234968   2.989   4.207   2.342 -1.0127 -0.7651 -0.5639
 7836SOL     OW34969   1.221   1.468   0.818 -0.1508  0.3232  0.1315
 7836SOL    HW134970   1.234   1.563   0.821 -0.0704  0.3398 -0.7794
 7836SOL    HW234971   1.243   1.448   0.728  0.0488 -0.4514  0.3527
 7837SOL     OW34972   2.781   2.449   4.101  0.0570  0.2797 -0.2242
 7837SOL    HW134973   2.836   2.438   4.179 -0.0923 -0.1627 -0.1838
 7837SOL    HW234974   2.845   2.421   4.035 -0.6306 -2.9268  0.5003
 7838SOL     OW34975   0.692   2.496   2.169  0.2169  0.0498 -0.4271
 7838SOL    HW134976   0.632   2.558   2.128 -0.7907 -1.2238 -0.9101
 7838SOL    HW234977   0.732   2.454   2.093  0.2394 -1.4457  0.3959
 7839SOL     OW34978   2.252   1.356  11.466 -0.7810 -0.3000  0.2105
 7839SOL    HW134979   2.309   1.391  11.534 -0.8389 -2.4833  1.3865
 7839SOL    HW234980   2.214   1.437  11.433 -0.9830  0.1866  1.6736
 7840SOL     OW34981   2.942   1.170  15.475  0.0181  0.6786 -0.0560
 7840SOL    HW134982   2.944   1.113  15.552  1.4642  0.7831 -0.0065
 7840SOL    HW234983   3.037   1.185  15.472  0.0579  0.1009 -1.7795
 7841SOL     OW34984   1.551   2.196   8.878  0.3096  0.1822 -0.3048
 7841SOL    HW134985   1.478   2.236   8.831 -0.7239 -1.8064 -0.3933
 7841SOL    HW234986   1.515   2.167   8.962  0.3732 -1.7510 -0.9511
 7842SOL     OW34987   2.227   1.251  14.802 -0.2656  0.0772 -0.0404
 7842SOL    HW134988   2.156   1.187  14.796  1.2592 -1.4567 -1.8114
 7842SOL    HW234989   2.200   1.286  14.886  3.0332 -1.3833  1.6141
 7843SOL     OW34990   2.644   1.601   6.101  0.1572 -0.2635  0.0953
 7843SOL    HW134991   2.552   1.614   6.075 -0.2819 -1.2738  1.1983
 7843SOL    HW234992   2.634   1.642   6.187 -0.5904 -3.2507  1.4010
 7844SOL     OW34993   4.533   1.839   7.185 -0.1435  0.1381  0.1167
 7844SOL    HW134994   4.462   1.840   7.250  2.6123  0.1114  3.0889
 7844SOL    HW234995   4.569   1.927   7.195  2.8156 -1.1017  0.2536
 7845SOL     OW34996   1.315   2.986   5.113  0.1415  0.1315  0.3023
 7845SOL    HW134997   1.383   2.978   5.046 -0.7235  1.1875 -0.7055
 7845SOL    HW234998   1.366   3.044   5.169 -0.5149  1.1758 -0.1799
 7846SOL     OW34999   1.709   0.305  15.104  0.2811 -0.2256  0.3429
 7846SOL    HW135000   1.801   0.324  15.088 -0.0319  0.0555 -1.1110
 7846SOL    HW235001   1.713   0.226  15.159  1.7102 -1.1179 -1.0511
 7847SOL     OW35002   3.301   4.253  16.997  0.0718  0.6228  0.4802
 7847SOL    HW135003   3.290   4.158  16.989  1.9314  0.2418  2.4763
 7847SOL    HW235004   3.258   4.264  17.082 -0.7613 -2.8925  0.5069
 7848SOL     OW35005   2.192   3.479   3.268  0.6839 -0.7756 -0.2480
 7848SOL    HW135006   2.196   3.485   3.173 -1.2267  1.3209 -0.2060
 7848SOL    HW235007   2.237   3.397   3.287 -0.0725 -0.8346  1.2761
 7849SOL     OW35008   1.645   1.995  15.444 -0.2048 -0.3935  0.3001
 7849SOL    HW135009   1.614   1.909  15.418 -3.9737  0.9039  0.5332
 7849SOL    HW235010   1.561   2.039  15.457  0.1001 -0.3747  2.3557
 7850SOL     OW35011   2.634   0.051   8.409  0.3837 -0.0989  0.3406
 7850SOL    HW135012   2.726   0.074   8.397  0.8752 -2.8250 -1.1467
 7850SOL    HW235013   2.638   4.700   8.474  1.9967 -0.2465  0.0744
 7851SOL     OW35014   0.654   0.401   8.347 -0.0097 -0.9561 -0.5603
 7851SOL    HW135015   0.664   0.433   8.436 -2.5272 -1.7202 -0.0116
 7851SOL    HW235016   0.581   0.341   8.360 -0.5799 -0.4470 -1.4302
 7852SOL     OW35017   2.069   4.133   9.623  0.2756  1.6947  0.0556
 7852SOL    HW135018   2.084   4.074   9.549 -2.2613 -0.4158  1.1921
 7852SOL    HW235019   1.995   4.085   9.662  1.5013  0.9992  1.5013
 7853SOL     OW35020   1.878   1.030   2.792  0.1524 -0.1204  0.4762
 7853SOL    HW135021   1.910   1.116   2.819  0.3733  0.5718 -1.9876
 7853SOL    HW235022   1.951   0.982   2.753 -0.8307 -2.2064  1.1617
 7854SOL     OW35023   2.522   0.149   9.116  0.4744 -0.2533 -0.2112
 7854SOL    HW135024   2.565   0.131   9.032  2.2048  1.1210  0.3958
 7854SOL    HW235025   2.532   0.243   9.124  0.4602 -0.1199 -1.7065
 7855SOL     OW35026   1.502   3.403   5.110 -0.2455  0.3376 -0.4310
 7855SOL    HW135027   1.503   3.490   5.151 -1.9973  0.5473 -0.8406
 7855SOL    HW235028   1.477   3.421   5.020  0.4233  0.5377 -0.5788
 7856SOL     OW35029   4.240   3.333   8.504 -0.1745 -0.0185  0.3061
 7856SOL    HW135030   4.258   3.341   8.598  0.8563  1.7030 -0.0392
 7856SOL    HW235031   4.306   3.390   8.465 -0.4508  0.8439  1.0854
 7857SOL     OW35032   1.559   2.889  11.185 -0.5112  0.0769  0.1323
 7857SOL    HW135033   1.497   2.961  11.171 -0.2175  0.6562  1.8083
 7857SOL    HW235034   1.538   2.856  11.272  1.3603  2.7568  1.5922
 7858SOL     OW35035   2.145   0.899   3.734  0.1231  0.0288 -0.2579
 7858SOL    HW135036   2.205   0.829   3.758 -0.0217  0.7935  2.3388
 7858SOL    HW235037   2.065   0.861   3.698  0.5980 -1.2476  0.0493
 7859SOL     OW35038   1.222   3.517   6.433  0.2920 -0.4318  0.4374
 7859SOL    HW135039   1.247   3.533   6.524  0.9180  1.9974 -0.1622
 7859SOL    HW235040   1.302   3.516   6.380  0.0811  0.5244  0.0915
 7860SOL     OW35041   3.562   0.802  12.312  0.0748 -0.1101 -0.1244
 7860SOL    HW135042   3.561   0.716  12.356  0.1391 -0.7862 -1.4366
 7860SOL    HW235043   3.546   0.860  12.386  0.2137  0.4368 -0.5257
 7861SOL     OW35044   1.687   2.908  17.662 -0.3849 -0.5096  0.1280
 7861SOL    HW135045   1.741   2.846  17.613  0.5783 -0.5203  1.1946
 7861SOL    HW235046   1.738   2.933   0.059 -0.6329 -2.4297  0.8998
 7862SOL     OW35047   1.799   2.916   6.249  0.1454  0.3195  0.1034
 7862SOL    HW135048   1.814   2.961   6.166  1.0134  2.8804  1.6545
 7862SOL    HW235049   1.791   2.825   6.220  1.5600  0.9228 -2.1196
 7863SOL     OW35050   1.825   4.547  14.929  0.1963  0.8299  0.2703
 7863SOL    HW135051   1.824   4.633  14.888  4.1375  0.5801 -0.3139
 7863SOL    HW235052   1.917   4.535  14.955 -0.6146  1.1121  3.2921
 7864SOL     OW35053   3.007   1.773   1.851  0.1142  0.5094 -0.0808
 7864SOL    HW135054   3.031   1.778   1.758 -3.4184 -2.0099 -1.1163
 7864SOL    HW235055   3.003   1.678   1.856 -0.3355  0.5654  0.4810
 7865SOL     OW35056   0.858   2.085  13.926  0.0256 -0.2722 -0.0106
 7865SOL    HW135057   0.799   2.096  13.852 -0.9099  1.2685  0.9562
 7865SOL    HW235058   0.884   2.175  13.947 -0.4804 -0.6234  2.1632
 7866SOL     OW35059   0.515   0.100   7.694  0.1960 -0.5867  0.0418
 7866SOL    HW135060   0.500   0.005   7.702  0.4193 -0.5695  0.6695
 7866SOL    HW235061   0.525   0.103   7.599 -0.2459 -2.6463 -0.0700
 7867SOL     OW35062   0.700   3.238  12.861 -0.0710 -0.1950 -0.3423
 7867SOL    HW135063   0.709   3.188  12.942 -0.4488  0.6087  0.1931
 7867SOL    HW235064   0.648   3.181  12.805 -1.0604  1.2971 -0.9272
 7868SOL     OW35065   4.700   1.001  15.834  0.2700 -0.8721 -0.2481
 7868SOL    HW135066   0.060   0.951  15.852  0.8747  0.3792  0.5728
 7868SOL    HW235067   4.630   0.946  15.868  0.3701  0.6588  2.4208
 7869SOL     OW35068   2.340   3.863   4.702 -0.2388  0.4328 -0.4066
 7869SOL    HW135069   2.431   3.866   4.730 -0.6979  0.8953  0.9943
 7869SOL    HW235070   2.319   3.953   4.727 -2.1169 -0.1377  0.0666
 7870SOL     OW35071   4.665   1.479   9.741 -0.4247 -0.0753 -0.0601
 7870SOL    HW135072   4.707   1.559   9.710  0.2794 -0.2729  0.3800
 7870SOL    HW235073   4.573   1.481   9.712 -0.0802 -0.5994 -1.2054
 7871SOL     OW35074   4.555   1.164   7.779 -0.0189 -0.0721  0.3230
 7871SOL    HW135075   4.501   1.235   7.742  0.8153  0.3417 -0.0879
 7871SOL    HW235076   4.578   1.125   7.695 -0.3321  0.6092 -0.0907
 7872SOL     OW35077   3.931   0.178   4.861  0.4165  0.1817  0.2455
 7872SOL    HW135078   3.972   0.144   4.781 -0.5457 -2.5337  0.9354
 7872SOL    HW235079   3.898   0.262   4.828 -0.3940  0.6775  2.3359
 7873SOL     OW35080   4.066   3.153   4.616  0.2814 -0.2122 -0.2448
 7873SOL    HW135081   4.092   3.061   4.606  0.7216 -0.3636  2.3460
 7873SOL    HW235082   4.124   3.175   4.689  1.9445 -1.5310 -1.1637
 7874SOL     OW35083   1.289   1.191  16.170  0.6361  0.2878 -0.4607
 7874SOL    HW135084   1.349   1.266  16.166  1.0059  0.1168  1.6476
 7874SOL    HW235085   1.209   1.225  16.131  0.3800  0.5330  0.2850
 7875SOL     OW35086   4.056   3.537   0.424 -0.3547 -0.8086 -0.3870
 7875SOL    HW135087   4.000   3.518   0.498 -0.2862 -1.7448 -0.5778
 7875SOL    HW235088   4.060   3.464   0.363  0.4784 -1.4876  0.4831
 7876SOL     OW35089   1.436   4.203   7.366  0.7284 -0.1215  0.7048
 7876SOL    HW135090   1.412   4.198   7.458 -1.3770 -1.0262  0.1278
 7876SOL    HW235091   1.526   4.175   7.380  1.3285 -0.1614 -3.0302
 7877SOL     OW35092   2.971   4.226   4.361  0.2620  0.8780 -0.1821
 7877SOL    HW135093   3.065   4.243   4.361  0.3015  0.6714  0.7605
 7877SOL    HW235094   2.925   4.248   4.280  0.1734  2.0583  0.1875
 7878SOL     OW35095   1.646   2.757  17.317  0.0867  0.1531 -1.4774
 7878SOL    HW135096   1.703   2.736  17.391  2.2221 -1.6758 -3.5980
 7878SOL    HW235097   1.711   2.748  17.247  0.0055  0.8229 -1.6409
 7879SOL     OW35098   0.757   4.423   3.397 -0.3302  0.0228  0.9451
 7879SOL    HW135099   0.728   4.513   3.384  2.4943  1.2148  2.8292
 7879SOL    HW235100   0.841   4.437   3.442  0.8757  1.0846 -1.6392
 7880SOL     OW35101   2.688   2.766   8.286 -0.2774 -0.2193 -0.3706
 7880SOL    HW135102   2.751   2.704   8.322 -1.3598  0.0365  1.9887
 7880SOL    HW235103   2.740   2.813   8.220  0.5595 -0.0502  0.4043
 7881SOL     OW35104   0.904   2.685   5.332  0.0961  0.0032 -0.3050
 7881SOL    HW135105   0.839   2.744   5.296  1.0625  2.1720  1.4832
 7881SOL    HW235106   0.979   2.742   5.314  0.8898 -1.1246 -0.5975
 7882SOL     OW35107   1.799   1.365  10.671 -0.5725  0.2499 -0.0621
 7882SOL    HW135108   1.718   1.405  10.704  0.9523  1.1107  2.6423
 7882SOL    HW235109   1.770   1.353  10.581  0.0440  0.5870 -0.3063
 7883SOL     OW35110   0.707   1.140   8.742  0.0779 -0.1306 -0.0177
 7883SOL    HW135111   0.679   1.091   8.665  1.3485 -0.8171 -0.0471
 7883SOL    HW235112   0.623   1.135   8.787  0.5953  0.9400  1.0597
 7884SOL     OW35113   1.730   1.312   1.280 -0.2557 -0.8306  0.0537
 7884SOL    HW135114   1.646   1.331   1.323 -0.4518 -0.2743 -0.5790
 7884SOL    HW235115   1.739   1.216   1.285  0.4817 -0.7964 -0.7466
 7885SOL     OW35116   4.378   1.906   6.395  0.2127  0.3255 -0.7122
 7885SOL    HW135117   4.471   1.912   6.415 -0.0509  0.1801  0.5929
 7885SOL    HW235118   4.366   1.811   6.392 -2.5754  0.6415  0.4471
 7886SOL     OW35119   1.667   2.675   6.504 -0.3517 -1.0933  0.1185
 7886SOL    HW135120   1.676   2.609   6.436 -2.6994 -0.9784 -0.3108
 7886SOL    HW235121   1.572   2.683   6.496 -0.6245 -1.0657  3.4552
 7887SOL     OW35122   1.497   3.240  13.684 -0.4719 -0.2880  0.5108
 7887SOL    HW135123   1.582   3.206  13.711  0.9059  1.8644 -1.0806
 7887SOL    HW235124   1.483   3.196  13.601 -1.7598  1.3443 -0.1560
 7888SOL     OW35125   0.915   2.214   2.679  0.2050 -0.0501 -0.0830
 7888SOL    HW135126   0.866   2.173   2.607  0.1181  1.2829 -0.7928
 7888SOL    HW235127   1.005   2.186   2.664  0.2404  0.1197 -0.1967
 7889SOL     OW35128   0.847   3.653   5.172  0.0781 -0.4390 -0.0979
 7889SOL    HW135129   0.776   3.630   5.112 -0.9562  1.7262  0.2790
 7889SOL    HW235130   0.847   3.746   5.147 -1.7504 -0.4797 -0.2649
 7890SOL     OW35131   4.584   0.484   7.303 -0.2274 -0.6188 -0.3780
 7890SOL    HW135132   4.676   0.461   7.291  0.3628  1.3919  0.4281
 7890SOL    HW235133   4.604   0.573   7.330 -1.5817 -0.4614  0.0961
 7891SOL     OW35134   1.721   1.484   4.254  0.1044 -0.1963  0.2176
 7891SOL    HW135135   1.644   1.447   4.298  0.7586 -0.8620  0.7967
 7891SOL    HW235136   1.785   1.414   4.250  1.2303  0.7291  1.9227
 7892SOL     OW35137   1.673   0.987   6.998 -0.4285  0.0365  1.2938
 7892SOL    HW135138   1.583   0.989   7.028 -0.7380  1.0430  0.3185
 7892SOL    HW235139   1.716   0.934   7.064 -0.3094 -1.8461 -0.2982
 7893SOL     OW35140   3.348   1.567  13.793 -0.1676 -0.5832 -0.6312
 7893SOL    HW135141   3.264   1.558  13.837  1.6007 -0.5987  2.7283
 7893SOL    HW235142   3.344   1.510  13.716  1.3059 -3.0383  1.1253
 7894SOL     OW35143   0.861   3.157  11.967 -0.1590 -0.9773  0.1991
 7894SOL    HW135144   0.769   3.144  11.945 -0.8555  3.5894  0.3902
 7894SOL    HW235145   0.879   3.079  12.018  1.4009 -0.3920  0.5550
 7895SOL     OW35146   4.525   4.098   8.789 -0.0103  0.0609  0.2573
 7895SOL    HW135147   4.601   4.090   8.847 -1.4707  0.2681  2.1974
 7895SOL    HW235148   4.548   4.177   8.739  2.9339 -1.1680 -0.3658
 7896SOL     OW35149   3.491   0.989   0.813 -0.1240 -0.0155 -0.7624
 7896SOL    HW135150   3.571   1.017   0.857  0.3419 -1.3021 -0.7920
 7896SOL    HW235151   3.429   0.995   0.886  0.2614  0.0229 -0.4361
 7897SOL     OW35152   3.592   2.345   8.991  0.6318  0.0249  0.2834
 7897SOL    HW135153   3.639   2.408   8.937 -0.5544  0.3552 -0.3603
 7897SOL    HW235154   3.652   2.271   9.000 -1.9269 -2.0771  0.1924
 7898SOL     OW35155   3.330   2.503  16.034  0.1547  0.0743  0.4995
 7898SOL    HW135156   3.285   2.452  16.101  0.8094  1.1111  1.7173
 7898SOL    HW235157   3.299   2.593  16.049  1.2291  0.6176 -0.5385
 7899SOL     OW35158   3.148   1.622   5.604  0.3923  0.0277 -0.0772
 7899SOL    HW135159   3.175   1.543   5.650  0.3045  0.2916  0.4259
 7899SOL    HW235160   3.090   1.663   5.668 -1.2428 -1.3399 -0.7024
 7900SOL     OW35161   2.472   0.437   7.450  0.1999 -0.0658  0.5551
 7900SOL    HW135162   2.450   0.418   7.542 -0.6889  2.4273  0.8402
 7900SOL    HW235163   2.383   0.436   7.414 -0.0499  0.2460  1.1555
 7901SOL     OW35164   1.845   0.297  17.450 -0.5260  0.1673 -0.6860
 7901SOL    HW135165   1.869   0.385  17.479 -2.2559 -0.2470  2.0003
 7901SOL    HW235166   1.842   0.268  17.542 -1.8383 -0.7158 -1.0095
 7902SOL     OW35167   2.471   0.443   4.151 -0.4974  0.4881 -0.7176
 7902SOL    HW135168   2.496   0.510   4.215 -0.2670 -0.4648  0.2045
 7902SOL    HW235169   2.460   0.363   4.202 -0.7756  1.3718  0.6134
 7903SOL     OW35170   4.131   3.790  16.309  0.0812 -0.4471  0.0841
 7903SOL    HW135171   4.099   3.797  16.219 -0.7509 -3.8305  0.0861
 7903SOL    HW235172   4.063   3.733  16.346  1.3936 -0.1899  2.8761
 7904SOL     OW35173   2.111   3.365   9.278  0.0558 -0.1864 -0.0652
 7904SOL    HW135174   2.205   3.368   9.259 -0.3012 -0.6889 -1.9126
 7904SOL    HW235175   2.081   3.454   9.294 -2.4631 -1.0773  0.2931
 7905SOL     OW35176   4.278   4.052   1.810 -0.3084 -0.0061 -0.2927
 7905SOL    HW135177   4.204   4.090   1.856  0.0003  3.5163 -2.7019
 7905SOL    HW235178   4.306   3.986   1.873  0.6598 -1.4363 -2.1953
 7906SOL     OW35179   4.632   1.645   6.612  0.4458 -0.0037 -0.0619
 7906SOL    HW135180   4.687   1.710   6.568  0.6319  0.7212  1.2292
 7906SOL    HW235181   4.586   1.603   6.540 -0.8253  0.6822  0.3377
 7907SOL     OW35182   1.541   3.730   1.052 -0.1000 -0.3481  0.6288
 7907SOL    HW135183   1.448   3.753   1.051 -0.2466 -0.9069  0.9889
 7907SOL    HW235184   1.543   3.653   1.109  2.2480  2.6163  4.5504
 7908SOL     OW35185   3.075   2.030  15.283 -0.1463  0.3211 -0.0392
 7908SOL    HW135186   3.138   2.027  15.212 -1.0744  2.7004 -0.9664
 7908SOL    HW235187   3.068   2.124  15.296  0.9116  0.3068  0.6163
 7909SOL     OW35188   1.121   0.824   5.950 -0.2295  0.0136 -0.0524
 7909SOL    HW135189   1.194   0.842   5.890 -0.8536  0.7473 -0.5875
 7909SOL    HW235190   1.083   0.911   5.953 -0.9804 -0.3498  0.7025
 7910SOL     OW35191   0.699   1.857   5.112  0.1457  0.2383  0.6037
 7910SOL    HW135192   0.620   1.909   5.099  0.1497  0.7766  2.6599
 7910SOL    HW235193   0.773   1.916   5.125  0.7502 -0.1342 -1.1057
 7911SOL     OW35194   3.822   3.234   5.520 -0.9433  0.3751  0.1079
 7911SOL    HW135195   3.807   3.211   5.429  0.6673 -0.1785 -0.0208
 7911SOL    HW235196   3.756   3.177   5.560  0.0119 -2.3513 -2.2837
 7912SOL     OW35197   0.352   0.300  16.940 -0.3432 -0.1546  0.0810
 7912SOL    HW135198   0.320   0.224  16.989  1.1697  0.1535  1.5274
 7912SOL    HW235199   0.350   0.362  17.013  0.0642 -0.4298  0.3252
 7913SOL     OW35200   2.412   3.390  12.201 -0.0479 -0.0472 -0.0367
 7913SOL    HW135201   2.477   3.323  12.224  3.4220  3.5076  0.6137
 7913SOL    HW235202   2.339   3.368  12.259 -0.7858  1.5155 -0.3763
 7914SOL     OW35203   4.423   4.097  11.781  0.3218  0.3571  0.4250
 7914SOL    HW135204   4.372   4.029  11.824  0.2773  1.1520  1.6297
 7914SOL    HW235205   4.349   4.147  11.746  0.7940  1.6348  1.2711
 7915SOL     OW35206   2.129   3.802   2.793  0.4489  0.0153 -0.0795
 7915SOL    HW135207   2.080   3.721   2.805  0.2384  0.0090 -0.9445
 7915SOL    HW235208   2.147   3.789   2.700  0.5675 -0.7607  0.0513
 7916SOL     OW35209   1.701   0.564  11.955 -0.9531 -0.0890 -0.3961
 7916SOL    HW135210   1.777   0.506  11.944 -0.8905  0.4343 -2.7699
 7916SOL    HW235211   1.738   0.642  11.914 -1.9565  0.3675 -0.4217
 7917SOL     OW35212   2.476   1.672   3.421 -0.4809  0.7630  0.8730
 7917SOL    HW135213   2.537   1.717   3.480  0.2127  2.9598 -1.5452
 7917SOL    HW235214   2.507   1.699   3.334 -1.8566  0.8964  0.4283
 7918SOL     OW35215   1.985   1.210  14.275 -0.2645 -0.0083 -0.3519
 7918SOL    HW135216   1.969   1.118  14.299  0.1745 -0.0781 -0.3284
 7918SOL    HW235217   1.989   1.211  14.179  1.2229  2.2670 -0.2432
 7919SOL     OW35218   0.820   0.938   3.742 -0.0396 -0.4733 -0.1707
 7919SOL    HW135219   0.886   0.991   3.696 -2.6996  2.4552 -0.6133
 7919SOL    HW235220   0.782   1.013   3.788  0.9051  0.2855 -0.6227
 7920SOL     OW35221   3.640   2.368   9.371  0.1419 -0.3315  0.5754
 7920SOL    HW135222   3.735   2.367   9.383  0.3146 -0.2272 -0.8329
 7920SOL    HW235223   3.620   2.274   9.373 -0.3971 -0.2253  0.0692
 7921SOL     OW35224   3.691   2.371   2.280 -0.4019  0.1869 -0.1850
 7921SOL    HW135225   3.609   2.351   2.325 -0.0468 -0.7400  0.0491
 7921SOL    HW235226   3.754   2.325   2.334  0.0033  1.5093  0.4569
 7922SOL     OW35227   1.092   1.000   8.463  0.1576  0.2677  0.2900
 7922SOL    HW135228   1.154   0.933   8.435 -0.4278  0.6181 -1.8214
 7922SOL    HW235229   1.024   0.941   8.495  1.2035 -0.1530  1.7334
 7923SOL     OW35230   3.568   2.111   8.520  0.1979  0.0886  0.2827
 7923SOL    HW135231   3.568   2.205   8.539  0.8910 -0.3296  2.3284
 7923SOL    HW235232   3.656   2.090   8.549  0.2491  0.1455  0.1659
 7924SOL     OW35233   2.237   2.003   9.626 -0.4442  0.1618 -0.5113
 7924SOL    HW135234   2.192   1.948   9.562 -2.4981  1.2193  0.0083
 7924SOL    HW235235   2.259   2.078   9.570 -2.3141 -0.5689 -2.2324
 7925SOL     OW35236   2.109   0.026  15.602 -0.2775  0.3201 -0.5420
 7925SOL    HW135237   2.093   4.692  15.523  1.0082  0.0325 -0.5986
 7925SOL    HW235238   2.089   0.109  15.558 -0.3247  0.0668 -0.9999
 7926SOL     OW35239   2.293   1.470  15.127  0.3408  0.1356 -0.5024
 7926SOL    HW135240   2.232   1.539  15.100 -1.0104 -1.3826 -1.3293
 7926SOL    HW235241   2.236   1.394  15.114  0.2365  0.6231 -2.8611
 7927SOL     OW35242   3.524   1.105   2.259 -0.4270  0.0322  0.1229
 7927SOL    HW135243   3.480   1.135   2.179 -0.1143  1.1437  0.3709
 7927SOL    HW235244   3.450   1.074   2.310  1.2334 -0.7740  2.0486
 7928SOL     OW35245   0.610   3.957   2.321 -0.0261 -0.3629 -0.0457
 7928SOL    HW135246   0.603   4.028   2.257 -0.7943 -0.3194  0.0838
 7928SOL    HW235247   0.631   4.011   2.397 -0.6920 -1.4932  0.9400
 7929SOL     OW35248   2.833   3.311   2.853  0.2441  0.1264 -0.7055
 7929SOL    HW135249   2.883   3.233   2.876 -1.9930 -1.7060 -2.0911
 7929SOL    HW235250   2.846   3.305   2.758 -2.5445 -0.5457 -1.0357
 7930SOL     OW35251   2.726   3.069   1.835  0.0210  0.2147  0.1148
 7930SOL    HW135252   2.697   3.097   1.921  0.4813 -0.2616  0.4224
 7930SOL    HW235253   2.781   3.143   1.812  0.5295 -0.5290 -1.0657
 7931SOL     OW35254   2.341   0.532  10.444 -0.2968 -0.1406  0.1316
 7931SOL    HW135255   2.401   0.459  10.460 -1.5418 -1.0345  0.7141
 7931SOL    HW235256   2.284   0.538  10.521 -0.8038  0.3898 -0.2798
 7932SOL     OW35257   2.801   3.643   9.313  0.0380 -0.1310 -0.1403
 7932SOL    HW135258   2.810   3.660   9.219 -0.7857 -0.1366 -0.2193
 7932SOL    HW235259   2.723   3.587   9.316 -1.1199  1.4313 -1.5465
 7933SOL     OW35260   1.511   1.752   1.037 -0.2350 -0.4942  0.4222
 7933SOL    HW135261   1.435   1.767   1.093 -1.2915 -2.4173 -0.4909
 7933SOL    HW235262   1.570   1.712   1.102 -0.4931 -2.9495 -0.8215
 7934SOL     OW35263   1.938   3.756   6.888  0.3216 -0.9027  0.4516
 7934SOL    HW135264   1.869   3.760   6.954 -0.2443 -0.0910 -0.1908
 7934SOL    HW235265   1.996   3.823   6.925 -1.2685  0.5428  0.2901
 7935SOL     OW35266   0.099   3.507   6.430  0.2559 -0.0552  0.1650
 7935SOL    HW135267   0.178   3.556   6.407 -0.0612  1.3895  2.1276
 7935SOL    HW235268   0.112   3.465   6.516 -1.4514 -1.2846 -0.1724
 7936SOL     OW35269   0.379   4.627   8.148  0.5263 -0.4932  0.3132
 7936SOL    HW135270   0.427   4.574   8.211  0.3341  0.1614  1.0208
 7936SOL    HW235271   0.291   4.633   8.187 -0.1857 -1.0297 -1.2332
 7937SOL     OW35272   0.845   2.045   8.342 -0.1242 -0.7277 -0.2228
 7937SOL    HW135273   0.773   2.108   8.342 -1.6345 -2.4337  1.9205
 7937SOL    HW235274   0.914   2.090   8.391  1.1992 -0.8312 -1.9859
 7938SOL     OW35275   0.553   3.198  13.349  0.3335 -0.4049 -0.2242
 7938SOL    HW135276   0.592   3.232  13.429  1.5471 -0.6685 -0.6992
 7938SOL    HW235277   0.555   3.281  13.302 -1.6042  0.1320  0.6696
 7939SOL     OW35278   1.818   0.809   7.180  0.3657 -0.1193  0.1618
 7939SOL    HW135279   1.741   0.786   7.230  0.3172 -1.6462 -0.5967
 7939SOL    HW235280   1.861   0.865   7.244 -0.5928  0.9848 -0.1608
 7940SOL     OW35281   0.453   0.703   1.699 -0.6396 -0.5404 -0.1074
 7940SOL    HW135282   0.424   0.758   1.772  2.1151  1.3918 -0.4666
 7940SOL    HW235283   0.543   0.689   1.729 -0.6515 -2.5203 -1.0342
 7941SOL     OW35284   3.147   0.528   7.710  0.2269  0.0952 -0.0359
 7941SOL    HW135285   3.052   0.524   7.719  0.0721  3.3008 -0.4497
 7941SOL    HW235286   3.155   0.576   7.628  0.3195  0.7452  0.3493
 7942SOL     OW35287   3.564   3.155  12.674 -0.1263 -1.5542 -0.6884
 7942SOL    HW135288   3.512   3.077  12.654 -1.7802 -0.6928  0.2210
 7942SOL    HW235289   3.645   3.127  12.717 -0.1192 -1.9162 -0.9431
 7943SOL     OW35290   3.185   3.362   7.284  0.0823 -0.0913  0.0305
 7943SOL    HW135291   3.267   3.358   7.333  0.6029  3.6162 -0.4774
 7943SOL    HW235292   3.137   3.395   7.360 -1.4536 -0.2549 -0.8660
 7944SOL     OW35293   4.045   1.116   3.971 -0.3272  0.0683 -0.5239
 7944SOL    HW135294   4.033   1.129   3.877  1.1095 -1.7657 -0.9521
 7944SOL    HW235295   3.958   1.083   3.992  0.3259 -1.6325 -0.5127
 7945SOL     OW35296   3.474   2.250   3.275  0.7559 -0.3470 -1.0427
 7945SOL    HW135297   3.545   2.309   3.300 -1.4749  1.8079  0.1529
 7945SOL    HW235298   3.419   2.260   3.353 -1.3865  0.8161 -2.6857
 7946SOL     OW35299   3.244   3.202  17.035 -0.0506  0.3026 -0.1438
 7946SOL    HW135300   3.191   3.275  17.003  1.6721  2.2129  1.3801
 7946SOL    HW235301   3.196   3.170  17.112  0.9943 -1.0365 -0.0406
 7947SOL     OW35302   4.270   3.146  16.173  0.2200 -0.5679  0.3460
 7947SOL    HW135303   4.177   3.131  16.186  0.2951 -3.5341 -2.8069
 7947SOL    HW235304   4.311   3.072  16.217  1.2305 -0.4182 -0.3333
 7948SOL     OW35305   2.546   2.428   7.092  0.4371 -0.2440 -0.2796
 7948SOL    HW135306   2.499   2.372   7.030  0.3493  2.4367 -2.6393
 7948SOL    HW235307   2.575   2.497   7.032  0.7082  0.6282  0.8663
 7949SOL     OW35308   2.287   4.327   7.464 -0.2031  0.4861 -0.0180
 7949SOL    HW135309   2.361   4.275   7.495  0.0715  1.1388  0.4175
 7949SOL    HW235310   2.263   4.375   7.543  0.9150  0.2464  0.4653
 7950SOL     OW35311   1.828   2.487   2.755 -0.0652  0.1073 -0.0472
 7950SOL    HW135312   1.904   2.442   2.719 -0.3149 -1.4017  1.2959
 7950SOL    HW235313   1.760   2.476   2.689  1.9472 -1.5682 -1.8566
 7951SOL     OW35314   2.645   0.901   5.769 -0.2183  0.5779  0.3777
 7951SOL    HW135315   2.645   0.805   5.772 -4.0543  0.4966 -0.9638
 7951SOL    HW235316   2.555   0.917   5.740  0.5566 -0.5236 -2.6092
 7952SOL     OW35317   4.159   1.003  13.291  0.3466  0.0340  0.1777
 7952SOL    HW135318   4.226   0.944  13.255  1.2381  1.5723 -0.7053
 7952SOL    HW235319   4.216   1.045  13.356 -0.9343 -2.0915  2.6276
 7953SOL     OW35320   2.356   0.896  16.489 -0.1999 -0.2385 -0.2749
 7953SOL    HW135321   2.272   0.942  16.484  1.3546  2.8105  1.6223
 7953SOL    HW235322   2.420   0.967  16.497  0.2260 -0.6493 -0.0259
 7954SOL     OW35323   3.466   4.539   9.223 -0.5227  0.2180 -0.5905
 7954SOL    HW135324   3.485   4.590   9.302 -1.4431  0.1128 -0.3132
 7954SOL    HW235325   3.384   4.584   9.207 -0.4288  1.4081  2.3161
 7955SOL     OW35326   0.547   3.483  10.194 -0.6662 -0.5478 -0.4545
 7955SOL    HW135327   0.491   3.511  10.121  0.4046  3.9529  0.4036
 7955SOL    HW235328   0.543   3.557  10.255  1.0917 -0.8639  0.0435
 7956SOL     OW35329   0.985   0.302  16.914 -0.6001 -0.2206  0.5477
 7956SOL    HW135330   1.004   0.328  17.004  0.2431  1.3966 -0.0984
 7956SOL    HW235331   0.988   0.378  16.856 -0.5842  0.1374  1.0214
 7957SOL     OW35332   0.808   2.212  15.798  0.0947  0.1302 -0.0267
 7957SOL    HW135333   0.787   2.164  15.718 -1.0969 -3.4848  2.4114
 7957SOL    HW235334   0.895   2.173  15.814 -0.6460 -1.6494 -0.2867
 7958SOL     OW35335   0.616   2.537   8.959  0.6328  0.0040  0.5022
 7958SOL    HW135336   0.585   2.485   9.033 -1.6486 -0.3937 -0.6968
 7958SOL    HW235337   0.667   2.605   9.001 -0.3776  1.5817 -0.8317
 7959SOL     OW35338   2.332   2.493   6.718  0.1179  0.0924 -0.0059
 7959SOL    HW135339   2.284   2.541   6.651  1.7990  2.6214  0.6239
 7959SOL    HW235340   2.289   2.519   6.800  0.0427 -1.5228  0.4746
 7960SOL     OW35341   2.607   3.886   4.478 -0.2846 -0.0140  0.5040
 7960SOL    HW135342   2.548   3.958   4.459 -2.3813 -1.9529 -0.4114
 7960SOL    HW235343   2.613   3.893   4.574  1.1263  0.9788  0.3368
 7961SOL     OW35344   0.264   4.058   8.046 -0.2099 -0.3764  0.4429
 7961SOL    HW135345   0.312   3.976   8.050  0.6244  0.1432  1.1187
 7961SOL    HW235346   0.247   4.073   7.953  0.0897 -0.3063  0.4015
 7962SOL     OW35347   4.483   4.360   1.830 -0.6030  0.4044 -0.0025
 7962SOL    HW135348   4.456   4.390   1.744  0.1262  2.0186  0.3360
 7962SOL    HW235349   4.401   4.350   1.878  0.4894 -2.2915  1.3496
 7963SOL     OW35350   4.278   1.096   2.226 -0.3034  0.6207  0.2978
 7963SOL    HW135351   4.324   1.113   2.144  0.9837 -2.1953  0.4277
 7963SOL    HW235352   4.188   1.077   2.200 -0.1765  1.1628 -0.5366
 7964SOL     OW35353   0.948   0.505  16.713 -0.0721  0.2518 -0.1413
 7964SOL    HW135354   0.982   0.449  16.643 -1.6836 -0.9338  0.0395
 7964SOL    HW235355   0.855   0.519  16.693 -0.1697 -1.5343 -1.0026
 7965SOL     OW35356   3.888   0.835   0.444 -0.0360 -0.4198  0.2459
 7965SOL    HW135357   3.814   0.794   0.400  0.1821  0.2685 -0.7580
 7965SOL    HW235358   3.892   0.777   0.520  3.0429  1.0374  1.2213
 7966SOL     OW35359   1.839   4.136  12.593 -0.6647 -0.0006 -0.1815
 7966SOL    HW135360   1.880   4.053  12.568 -1.6040 -0.3163 -0.6702
 7966SOL    HW235361   1.871   4.205  12.534  0.0376  0.7450  1.0677
 7967SOL     OW35362   3.252   0.524  13.633  0.0708 -0.4906  0.0064
 7967SOL    HW135363   3.169   0.520  13.681 -0.1605  0.4459 -0.3063
 7967SOL    HW235364   3.307   0.587  13.680  0.0675 -0.8271  0.4609
 7968SOL     OW35365   0.146   1.637   3.905  0.5333 -0.1141  0.0897
 7968SOL    HW135366   0.076   1.571   3.909  0.3117 -0.0034 -2.2546
 7968SOL    HW235367   0.133   1.673   3.818 -2.8652  0.4121  0.7960
 7969SOL     OW35368   1.840   0.724  16.960 -0.1791  0.2097  0.0266
 7969SOL    HW135369   1.839   0.691  17.050 -0.1422  0.5052  0.1334
 7969SOL    HW235370   1.920   0.774  16.976  0.7264 -0.9182 -0.9780
 7970SOL     OW35371   0.529   2.240   9.169 -0.0781  0.2163 -0.1575
 7970SOL    HW135372   0.511   2.232   9.263 -0.4119 -2.0805 -0.4231
 7970SOL    HW235373   0.616   2.279   9.183 -0.6939  1.4712  0.1613
 7971SOL     OW35374   4.385   0.788   9.847 -0.1718  0.2465 -0.3310
 7971SOL    HW135375   4.301   0.829   9.867  0.2389  1.6267 -1.4544
 7971SOL    HW235376   4.384   0.826   9.759 -1.0446  0.8675 -0.0571
 7972SOL     OW35377   0.126   0.621  13.540  0.1325  0.3721  0.2641
 7972SOL    HW135378   0.148   0.642  13.450 -1.4317 -0.6275 -0.3474
 7972SOL    HW235379   0.031   0.617  13.540  0.2440 -2.0883 -0.9536
 7973SOL     OW35380   0.095   2.316   7.319  0.2521 -0.1750  0.0842
 7973SOL    HW135381   0.059   2.402   7.295  1.1094  1.1515  3.4492
 7973SOL    HW235382   0.182   2.318   7.281 -0.5866  1.6091 -1.7636
 7974SOL     OW35383   3.259   4.055   3.717 -0.5721  0.9112 -0.1414
 7974SOL    HW135384   3.333   4.052   3.657 -0.6376  0.6666 -0.2123
 7974SOL    HW235385   3.285   4.134   3.764  0.8394  0.3687 -0.0228
 7975SOL     OW35386   3.823   4.606   5.619 -1.0994  0.2745 -0.0499
 7975SOL    HW135387   3.889   4.540   5.596 -0.1113  1.7594 -1.4451
 7975SOL    HW235388   3.756   4.585   5.554 -2.4760  0.9647  1.1640
 7976SOL     OW35389   2.560   0.794   9.156 -0.0503 -0.0535 -0.2699
 7976SOL    HW135390   2.521   0.877   9.131 -0.4207  1.0970  4.0821
 7976SOL    HW235391   2.485   0.734   9.153  0.7054 -0.9938 -0.4057
 7977SOL     OW35392   1.464   3.751   6.037  0.2435 -0.1922  0.2489
 7977SOL    HW135393   1.555   3.728   6.055  0.1829 -0.6698 -0.0566
 7977SOL    HW235394   1.472   3.843   6.013  0.9393 -0.1385  0.7067
 7978SOL     OW35395   1.233   3.756   8.550  0.3175  0.4395  0.0995
 7978SOL    HW135396   1.301   3.693   8.526  0.6233  0.2354  1.4998
 7978SOL    HW235397   1.149   3.713   8.532 -0.2781  1.3563  0.7245
 7979SOL     OW35398   0.753   0.936   7.792  0.4445  0.3003 -0.6878
 7979SOL    HW135399   0.663   0.943   7.760 -0.2035 -2.6019  0.5276
 7979SOL    HW235400   0.759   0.861   7.851 -1.8189  0.6561  0.0018
 7980SOL     OW35401   2.581   4.448   9.944 -0.2752 -0.1877 -0.3871
 7980SOL    HW135402   2.581   4.542   9.929 -0.2543 -0.5513 -2.7029
 7980SOL    HW235403   2.558   4.440  10.037 -2.3895  1.3762 -0.7588
 7981SOL     OW35404   0.116   4.100   8.560 -0.0989 -0.1554 -0.0739
 7981SOL    HW135405   0.203   4.110   8.523  0.1129  0.5133  0.6082
 7981SOL    HW235406   0.135   4.110   8.653  0.9902  1.5000 -0.4828
 7982SOL     OW35407   3.886   0.251   6.809 -0.1153  0.4087 -0.6193
 7982SOL    HW135408   3.900   0.296   6.892 -0.3176  2.4341 -1.6963
 7982SOL    HW235409   3.968   0.268   6.762  0.0956  0.2492 -0.3091
 7983SOL     OW35410   2.422   0.695  10.249 -0.3278 -0.1417  0.7057
 7983SOL    HW135411   2.395   0.655  10.332  1.8553  0.3837  1.6787
 7983SOL    HW235412   2.371   0.656  10.179 -1.8009  0.2756  1.5535
 7984SOL     OW35413   0.845   4.559   9.724  0.3536  0.0229 -0.5444
 7984SOL    HW135414   0.796   4.578   9.644  0.2283  0.4695 -0.3607
 7984SOL    HW235415   0.776   4.520   9.777 -0.3924  2.6679  0.4160
 7985SOL     OW35416   0.147   1.543   5.841  0.3078 -0.3314 -1.0399
 7985SOL    HW135417   0.061   1.550   5.883  0.3953  2.3645 -1.3138
 7985SOL    HW235418   0.169   1.635   5.828  1.2975 -0.5300 -0.7230
 7986SOL     OW35419   0.447   0.582   4.260  0.1260  0.0502  0.5176
 7986SOL    HW135420   0.439   0.486   4.264  0.1377 -0.0040 -0.7314
 7986SOL    HW235421   0.510   0.583   4.188 -1.5564 -1.0858 -1.0034
 7987SOL     OW35422   2.608   0.581   0.133 -0.2801 -0.0798 -0.4160
 7987SOL    HW135423   2.548   0.561   0.061  1.4432  0.4786 -1.9841
 7987SOL    HW235424   2.693   0.589   0.090  0.4267  0.3961  1.0560
 7988SOL     OW35425   3.241   2.980   9.635 -0.0434 -0.2478  0.5662
 7988SOL    HW135426   3.176   2.914   9.612 -0.9761  0.8114  0.1056
 7988SOL    HW235427   3.317   2.941   9.592 -0.5261 -0.1602 -0.3727
 7989SOL     OW35428   4.718   3.401  12.815 -0.0366 -0.3176  0.4642
 7989SOL    HW135429   0.007   3.358  12.900  0.8491 -1.4876 -0.2181
 7989SOL    HW235430   0.086   3.386  12.779 -0.3629 -0.2499 -0.3473
 7990SOL     OW35431   2.636   4.165  11.584  0.4985  0.1872  0.1956
 7990SOL    HW135432   2.652   4.112  11.506 -0.5681  0.8703 -0.4920
 7990SOL    HW235433   2.647   4.103  11.656  1.1791  1.5043  1.2071
 7991SOL     OW35434   0.628   0.631   5.731  0.9305  0.3050  0.2609
 7991SOL    HW135435   0.646   0.662   5.820 -2.7517 -0.4045  1.2676
 7991SOL    HW235436   0.618   0.536   5.728 -0.1583  0.5242 -3.7223
 7992SOL     OW35437   0.057   2.786   4.252 -0.5411  0.0864 -0.2271
 7992SOL    HW135438   0.117   2.853   4.282 -2.0161  1.8484 -1.2038
 7992SOL    HW235439   0.047   2.812   4.160  0.8873  1.8668  0.1347
 7993SOL     OW35440   3.889   1.144   2.567  0.4486  0.0389 -0.0766
 7993SOL    HW135441   3.980   1.117   2.580  0.2049 -0.6557  0.1578
 7993SOL    HW235442   3.855   1.077   2.508  0.9758 -0.7457  0.5154
 7994SOL     OW35443   1.825   4.491   5.973  0.2168 -0.3446  0.6973
 7994SOL    HW135444   1.833   4.396   5.970 -1.0364 -0.4329 -0.0099
 7994SOL    HW235445   1.736   4.500   6.007 -0.1510 -0.4228 -0.2558
 7995SOL     OW35446   0.615   1.008   5.481  0.2141 -1.0132  0.4578
 7995SOL    HW135447   0.649   0.919   5.491 -1.9318 -2.0373 -1.3134
 7995SOL    HW235448   0.540   1.006   5.541 -0.2106  1.6815  0.0143
 7996SOL     OW35449   2.655   3.106   5.397 -0.3274 -0.0897  0.3720
 7996SOL    HW135450   2.691   3.075   5.313  1.4203  0.6934  0.8213
 7996SOL    HW235451   2.722   3.074   5.458 -1.1468 -0.9416  0.8141
 7997SOL     OW35452   3.030   4.626   2.265  0.2572  0.0377  0.0350
 7997SOL    HW135453   3.011   4.704   2.316  0.4447  1.0212 -1.4055
 7997SOL    HW235454   2.945   4.592   2.238  0.9674 -1.6131 -0.1395
 7998SOL     OW35455   2.421   2.629   2.193  0.2965  0.5484 -0.1323
 7998SOL    HW135456   2.360   2.660   2.260 -0.7228  0.3128 -0.9474
 7998SOL    HW235457   2.496   2.687   2.211  0.9569 -0.0118 -1.0581
 7999SOL     OW35458   3.988   3.260   3.405 -0.4218 -0.7125  0.0391
 7999SOL    HW135459   3.895   3.246   3.423 -0.3343  0.8299  1.8458
 7999SOL    HW235460   3.995   3.268   3.310 -0.5840 -0.5474  0.0387
 8000SOL     OW35461   2.517   1.853  17.024 -0.0832 -0.9737 -0.3340
 8000SOL    HW135462   2.481   1.924  16.971  3.0383  2.0985  1.6387
 8000SOL    HW235463   2.549   1.792  16.958  1.3448 -0.0014 -0.5288
 8001SOL     OW35464   4.214   0.331  14.417  0.5753  0.1119 -0.2125
 8001SOL    HW135465   4.256   0.367  14.339  2.6489 -2.2190 -0.1894
 8001SOL    HW235466   4.243   0.240  14.416 -1.8737 -0.6907  2.0996
 8002SOL     OW35467   1.317   2.411   7.660 -0.1175  0.4884 -0.2076
 8002SOL    HW135468   1.242   2.371   7.705 -0.1626  1.7360  0.8397
 8002SOL    HW235469   1.389   2.372   7.709 -0.0706  1.0282  0.1554
 8003SOL     OW35470   2.582   3.870   7.392 -0.2354  0.3413  0.8197
 8003SOL    HW135471   2.501   3.854   7.441 -0.6212  1.9733  0.7358
 8003SOL    HW235472   2.627   3.935   7.446  0.3009  0.7160 -0.0804
 8004SOL     OW35473   0.644   2.175   0.138  0.1121 -0.0213 -0.1414
 8004SOL    HW135474   0.635   2.195   0.045  1.3270 -0.3039 -0.3132
 8004SOL    HW235475   0.732   2.210   0.154  1.0523 -2.9791  1.1429
 8005SOL     OW35476   1.347   1.628   6.006 -0.6232  0.1836  0.1638
 8005SOL    HW135477   1.333   1.534   6.000  2.1998 -0.3832  2.3974
 8005SOL    HW235478   1.324   1.635   5.913 -0.8965 -1.1126  0.1402
 8006SOL     OW35479   2.230   1.583   5.186  0.2534  0.7328  0.5335
 8006SOL    HW135480   2.160   1.522   5.207  0.9857  0.3251  1.8145
 8006SOL    HW235481   2.183   1.659   5.153 -2.0088 -0.8791  0.1025
 8007SOL     OW35482   3.671   2.262  12.950 -0.5083 -0.4644  0.4718
 8007SOL    HW135483   3.746   2.310  12.914 -0.9585 -0.0388  0.0992
 8007SOL    HW235484   3.594   2.301  12.909  1.1147  2.0528 -0.2321
 8008SOL     OW35485   2.694   4.468   2.697 -0.0152  0.3524  0.4712
 8008SOL    HW135486   2.690   4.487   2.791 -2.7975  2.1450 -0.0258
 8008SOL    HW235487   2.652   4.543   2.656  2.7567  0.5178 -2.0165
 8009SOL     OW35488   0.146   1.801   1.922  0.3753 -0.1550 -0.3692
 8009SOL    HW135489   0.108   1.718   1.894  0.9477  0.1680 -2.1215
 8009SOL    HW235490   0.105   1.806   2.009  0.0467  1.9840 -0.6398
 8010SOL     OW35491   4.420   3.214   6.763 -0.2075  0.0681  0.0243
 8010SOL    HW135492   4.452   3.238   6.850 -0.8529 -2.1961  0.8837
 8010SOL    HW235493   4.343   3.271   6.767 -0.1766  0.0858  0.3686
 8011SOL     OW35494   0.210   1.146   3.886  0.4886  0.1414  0.2254
 8011SOL    HW135495   0.221   1.241   3.888 -1.1564  0.3379 -0.3450
 8011SOL    HW235496   0.115   1.137   3.886  0.5632 -0.5814  1.5240
 8012SOL     OW35497   3.601   0.453  15.396  0.6108 -0.1312  0.5374
 8012SOL    HW135498   3.575   0.398  15.321  0.6926  1.3445 -0.5798
 8012SOL    HW235499   3.647   0.521  15.347 -0.6787  0.4546  0.1389
 8013SOL     OW35500   4.426   3.327   6.154  0.1327  0.4548 -0.1005
 8013SOL    HW135501   4.426   3.323   6.058  2.5802  0.2047 -0.0733
 8013SOL    HW235502   4.494   3.392   6.171 -0.9700  1.8272 -0.9515
 8014SOL     OW35503   3.786   1.744  15.953  0.3014 -0.3187  0.0487
 8014SOL    HW135504   3.767   1.831  15.989 -0.0567  0.2964 -1.6347
 8014SOL    HW235505   3.882   1.751  15.955  0.4396 -1.8243 -1.8932
 8015SOL     OW35506   1.661   2.719  13.433 -0.0141 -0.2774 -0.5766
 8015SOL    HW135507   1.701   2.775  13.500 -2.0724  0.2057  0.2789
 8015SOL    HW235508   1.727   2.653  13.415 -0.2963 -1.0346  1.1985
 8016SOL     OW35509   3.496   0.884  14.032 -0.0861  0.7658 -0.3400
 8016SOL    HW135510   3.459   0.938  14.102  0.7596  0.2966  0.4642
 8016SOL    HW235511   3.470   0.931  13.952  2.4138  1.4036 -0.7669
 8017SOL     OW35512   0.736   2.435   5.422 -0.3981  0.0192  0.3568
 8017SOL    HW135513   0.775   2.495   5.485 -0.2821  0.7259 -0.3821
 8017SOL    HW235514   0.662   2.394   5.468 -0.6799 -0.5105 -0.5662
 8018SOL     OW35515   0.073   0.516  12.363 -0.0199  0.5781  0.4801
 8018SOL    HW135516   4.707   0.534  12.322  0.0922 -2.9651 -1.3720
 8018SOL    HW235517   0.120   0.470  12.293 -1.8429  0.0958 -0.4497
 8019SOL     OW35518   0.137   0.436   7.324 -0.4695  0.3796  0.5585
 8019SOL    HW135519   0.142   0.340   7.328 -1.5082  0.3242  0.4956
 8019SOL    HW235520   0.202   0.456   7.392  0.6495 -1.4326  0.0177
 8020SOL     OW35521   1.934   0.937   5.930 -0.0641 -0.3518 -0.3298
 8020SOL    HW135522   1.861   0.998   5.940 -0.6291 -0.9815 -0.5764
 8020SOL    HW235523   1.904   0.874   5.996  0.2493 -2.6014 -2.3045
 8021SOL     OW35524   4.101   3.262   5.566  0.5952  0.1291 -0.0761
 8021SOL    HW135525   4.096   3.170   5.591 -0.3725  0.6492  1.6471
 8021SOL    HW235526   4.011   3.293   5.570  0.1950 -1.1025  0.2892
 8022SOL     OW35527   2.875   0.845   6.378 -0.3533 -0.1769 -0.5118
 8022SOL    HW135528   2.828   0.886   6.450  1.0987 -1.1138  0.9771
 8022SOL    HW235529   2.915   0.925   6.343 -0.9089  0.3032 -0.0441
 8023SOL     OW35530   2.280   3.821   3.907 -0.0957 -0.1737 -0.8530
 8023SOL    HW135531   2.370   3.837   3.936  0.1037  0.1838 -1.6630
 8023SOL    HW235532   2.292   3.827   3.812 -0.1329  0.1847 -0.8359
 8024SOL     OW35533   0.045   4.512  10.749 -0.0917  0.1071 -0.4473
 8024SOL    HW135534   4.704   4.549  10.813  1.2367  2.0110 -0.2875
 8024SOL    HW235535   0.008   4.424  10.739 -0.9267  0.3074  0.9414
 8025SOL     OW35536   3.714   1.938  12.089  0.1315  0.5394 -0.8152
 8025SOL    HW135537   3.663   1.910  12.013 -0.9532  0.4685 -0.0603
 8025SOL    HW235538   3.646   1.957  12.154 -0.6671 -1.5135 -1.0331
 8026SOL     OW35539   1.527   2.542   1.890  0.3163 -0.3123 -0.3563
 8026SOL    HW135540   1.546   2.523   1.982  0.2553 -1.1646 -0.5123
 8026SOL    HW235541   1.512   2.456   1.849 -1.4732 -0.5236  0.6869
 8027SOL     OW35542   0.050   3.500   8.397  0.2022  0.0317 -0.2582
 8027SOL    HW135543   0.112   3.450   8.449 -0.0557  1.2446  1.2210
 8027SOL    HW235544   0.105   3.534   8.326  0.2408  1.0447  0.2514
 8028SOL     OW35545   1.196   0.098   2.711 -0.3465 -0.2182  0.1436
 8028SOL    HW135546   1.223   0.024   2.766 -0.1968 -1.0002 -0.9796
 8028SOL    HW235547   1.180   0.055   2.627 -1.5543  1.1993 -0.3503
 8029SOL     OW35548   4.615   1.010  15.531 -0.5587  0.1743  0.4412
 8029SOL    HW135549   4.605   0.929  15.581 -1.3300  1.3249  2.1614
 8029SOL    HW235550   4.710   1.017  15.520 -0.4611 -2.1595 -0.2757
 8030SOL     OW35551   2.310   2.875   5.379 -0.1931 -0.1378  0.8713
 8030SOL    HW135552   2.403   2.854   5.380 -0.6012 -1.9891  0.5332
 8030SOL    HW235553   2.297   2.929   5.302  2.1356 -1.9132 -0.7631
 8031SOL     OW35554   3.076   1.948   5.765 -0.0041 -0.1782  0.3469
 8031SOL    HW135555   3.058   1.858   5.739 -2.0329  0.2253  0.3571
 8031SOL    HW235556   2.994   1.992   5.742 -0.2026 -2.3978 -3.1535
 8032SOL     OW35557   1.327   3.529   5.946 -0.0406  0.2889  0.0375
 8032SOL    HW135558   1.355   3.620   5.955 -1.4232  0.8211 -1.0902
 8032SOL    HW235559   1.233   3.530   5.928 -0.0343  0.3433  0.0063
 8033SOL     OW35560   1.993   0.317   4.810 -0.0877 -0.8213 -0.5666
 8033SOL    HW135561   2.018   0.404   4.839  0.2656 -1.1362  0.0654
 8033SOL    HW235562   1.940   0.339   4.733  0.0097  0.9235 -0.1159
 8034SOL     OW35563   2.145   2.153   4.495  0.2453  0.1779  0.7264
 8034SOL    HW135564   2.193   2.072   4.510 -0.2560  0.0107  1.4458
 8034SOL    HW235565   2.078   2.114   4.439  0.3162 -0.4306  1.0678
 8035SOL     OW35566   1.845   2.160   3.020  0.6340  0.0685 -0.5151
 8035SOL    HW135567   1.914   2.221   2.995  0.1505  0.9701  0.3681
 8035SOL    HW235568   1.897   2.080   3.023  0.9911  0.2716 -1.2618
 8036SOL     OW35569   4.040   3.572  14.928 -0.2153  0.3277 -0.1834
 8036SOL    HW135570   3.979   3.644  14.941  1.0512  1.3398  0.1003
 8036SOL    HW235571   4.023   3.514  15.002  0.5833  0.4542  0.0984
 8037SOL     OW35572   2.483   4.244   4.993  0.0461  0.1563 -0.5280
 8037SOL    HW135573   2.503   4.259   5.085 -2.7919  0.2187  0.1024
 8037SOL    HW235574   2.413   4.178   4.995  0.4651 -0.3132 -1.1570
 8038SOL     OW35575   0.892   0.741   4.598 -0.3456  0.2830 -0.2232
 8038SOL    HW135576   0.957   0.703   4.539 -0.0766  0.8455 -0.2826
 8038SOL    HW235577   0.815   0.710   4.551  0.1588 -0.4543 -0.5595
 8039SOL     OW35578   4.217   0.115   5.431 -0.5803  0.3580 -0.0696
 8039SOL    HW135579   4.256   0.034   5.398  1.3161  1.3583 -0.2937
 8039SOL    HW235580   4.148   0.123   5.365 -0.1902  1.9802 -0.2754
 8040SOL     OW35581   4.099   2.329   1.842 -0.1476 -0.4857  0.2514
 8040SOL    HW135582   4.192   2.306   1.842 -0.2720 -0.9957 -0.5526
 8040SOL    HW235583   4.099   2.410   1.791 -0.0914 -0.1256  0.8170
 8041SOL     OW35584   1.151   3.611   9.789 -0.6958  0.8394  0.5367
 8041SOL    HW135585   1.145   3.527   9.835  0.1071 -0.7756 -2.2765
 8041SOL    HW235586   1.143   3.587   9.696  0.1974  0.0147  0.6745
 8042SOL     OW35587   3.894   4.469   8.077 -0.2126 -0.3900 -1.1978
 8042SOL    HW135588   3.859   4.515   8.154  3.0527  2.9454 -1.7253
 8042SOL    HW235589   3.984   4.500   8.082 -0.3836 -0.3861  1.8088
 8043SOL     OW35590   0.085   4.406   9.675  0.8617 -0.2139 -0.4801
 8043SOL    HW135591   0.074   4.314   9.649 -3.4406  0.2571 -0.4670
 8043SOL    HW235592   0.095   4.435   9.584  2.5749 -0.1782 -0.2766
 8044SOL     OW35593   3.178   0.193   4.548  0.3723 -0.5730  1.0837
 8044SOL    HW135594   3.106   0.133   4.529  0.5881 -1.0633  1.7939
 8044SOL    HW235595   3.242   0.135   4.591 -0.8623 -0.8669  2.5473
 8045SOL     OW35596   2.507   1.337   0.454 -0.3806  0.4604  0.2732
 8045SOL    HW135597   2.431   1.306   0.503 -0.9736  2.3706  0.5702
 8045SOL    HW235598   2.578   1.294   0.501  0.7950 -0.2167 -2.1124
 8046SOL     OW35599   0.586   1.483   3.720  0.0434  0.0382 -0.3046
 8046SOL    HW135600   0.497   1.447   3.723 -0.2999  0.9930  1.2436
 8046SOL    HW235601   0.601   1.485   3.626  2.0585 -0.7291  0.0044
 8047SOL     OW35602   2.814   1.284  14.734 -0.7809  0.6067 -0.0332
 8047SOL    HW135603   2.828   1.327  14.818 -0.0846 -1.6914  1.0301
 8047SOL    HW235604   2.900   1.251  14.708 -1.0493  0.0331 -0.2017
 8048SOL     OW35605   1.481   3.164   5.241  0.4026  0.1152 -0.1765
 8048SOL    HW135606   1.577   3.164   5.251  0.1752 -2.8011  2.1851
 8048SOL    HW235607   1.478   3.247   5.193 -0.6879 -0.9686 -1.9581
 8049SOL     OW35608   1.496   2.967  11.793  0.1532 -0.0446 -0.7365
 8049SOL    HW135609   1.446   3.041  11.760  0.9985  0.1201 -1.6841
 8049SOL    HW235610   1.461   2.889  11.749 -0.9052 -0.4223  0.7889
 8050SOL     OW35611   4.115   2.657   8.018  0.2727  0.4652  0.8104
 8050SOL    HW135612   4.121   2.701   7.933  1.3814 -0.7858  0.2245
 8050SOL    HW235613   4.039   2.605   7.992 -0.3095  2.1711 -0.8370
 8051SOL     OW35614   2.256   2.228   4.919 -0.4281  0.2306 -0.0497
 8051SOL    HW135615   2.203   2.307   4.913 -2.5116 -1.2848 -1.6488
 8051SOL    HW235616   2.302   2.245   4.836 -0.4869  0.7272  0.0198
 8052SOL     OW35617   1.377   2.571   0.471 -0.3227  0.0445 -0.6807
 8052SOL    HW135618   1.402   2.608   0.386  2.0637  1.6010  0.6969
 8052SOL    HW235619   1.358   2.478   0.461  0.3126 -0.0516 -1.0207
 8053SOL     OW35620   0.014   1.994   8.743  0.1194 -0.0212 -0.5796
 8053SOL    HW135621   0.059   1.918   8.780  2.2481  1.4316 -0.1582
 8053SOL    HW235622   0.085   2.052   8.714  2.1122 -2.0306  0.2391
 8054SOL     OW35623   1.342   0.954   4.596  0.0489  0.1736  0.6527
 8054SOL    HW135624   1.270   0.908   4.639 -0.0004 -0.5792 -0.2267
 8054SOL    HW235625   1.320   1.045   4.617  0.9160  0.2622  1.1643
 8055SOL     OW35626   1.397   0.864   9.064 -0.0617 -0.2958 -0.0066
 8055SOL    HW135627   1.323   0.844   9.122  1.2823 -1.0835  1.4374
 8055SOL    HW235628   1.430   0.939   9.113  0.1195 -1.2236  1.2917
 8056SOL     OW35629   1.541   3.838   5.317 -0.0851 -0.3607 -0.1819
 8056SOL    HW135630   1.574   3.749   5.306  0.8882  0.1484 -1.4786
 8056SOL    HW235631   1.504   3.853   5.230  0.2592 -0.9813 -0.4398
 8057SOL     OW35632   1.171   4.700  11.835 -0.4638  0.1539  0.4973
 8057SOL    HW135633   1.131   4.633  11.780  1.8283 -0.6506 -0.1794
 8057SOL    HW235634   1.100   0.019  11.888 -0.9784 -2.0124  1.3594
 8058SOL     OW35635   0.648   4.343  11.269 -0.0004 -0.3032 -0.2880
 8058SOL    HW135636   0.635   4.305  11.356  2.7876  1.2060  0.7732
 8058SOL    HW235637   0.734   4.383  11.275 -1.2847  2.0401  2.4129
 8059SOL     OW35638   0.701   2.300   3.553 -0.2526  0.1531  0.1578
 8059SOL    HW135639   0.739   2.253   3.627  1.0947 -0.2002 -0.7723
 8059SOL    HW235640   0.742   2.386   3.549 -1.7210  0.7561 -1.9381
 8060SOL     OW35641   4.563   0.732   0.064  0.3373  0.8353 -0.1934
 8060SOL    HW135642   4.627   0.662   0.051 -3.8973 -2.8941 -0.9046
 8060SOL    HW235643   4.503   0.686   0.123 -0.7954 -0.2329 -2.2064
 8061SOL     OW35644   4.096   1.976   2.553 -0.3459  1.0592 -0.0912
 8061SOL    HW135645   4.104   1.920   2.476  1.1081  0.6934  0.3241
 8061SOL    HW235646   4.089   1.913   2.625 -2.9447 -0.7595 -1.9577
 8062SOL     OW35647   1.558   2.118   5.934 -1.0876  0.9158  0.4222
 8062SOL    HW135648   1.587   2.099   6.023 -0.4050 -2.7869 -0.5839
 8062SOL    HW235649   1.593   2.038   5.894  0.7394  1.8647  0.1315
 8063SOL     OW35650   2.018   3.231   2.600 -0.0147 -0.8985 -0.0842
 8063SOL    HW135651   1.948   3.180   2.559 -1.4929 -0.6614  2.1338
 8063SOL    HW235652   2.062   3.276   2.528 -2.0470  1.2786  0.0504
 8064SOL     OW35653   0.433   2.378   2.259  0.4399  0.0396 -0.5638
 8064SOL    HW135654   0.490   2.402   2.185 -1.3023 -1.2663 -2.3421
 8064SOL    HW235655   0.344   2.387   2.224  0.1210 -1.3755 -0.1148
 8065SOL     OW35656   0.362   3.765   6.792 -0.0393  0.6663 -0.8076
 8065SOL    HW135657   0.312   3.787   6.871 -0.9377  0.3426 -1.2882
 8065SOL    HW235658   0.355   3.845   6.741  0.2117  0.8249 -0.5973
 8066SOL     OW35659   3.863   1.605   5.992  0.3532 -0.4854 -0.2923
 8066SOL    HW135660   3.775   1.613   6.029  2.1365  3.3100  3.1868
 8066SOL    HW235661   3.841   1.613   5.899  1.4017  2.2510 -0.3252
 8067SOL     OW35662   4.556   3.361   8.888  0.0795  0.1168  0.2488
 8067SOL    HW135663   4.537   3.373   8.981 -0.8424  0.0648  0.0747
 8067SOL    HW235664   4.513   3.437   8.849  1.1820  0.8300  0.4180
 8068SOL     OW35665   2.490   3.854  17.333 -0.1158  0.3588 -0.2480
 8068SOL    HW135666   2.476   3.910  17.256  0.9902  2.0585  0.7835
 8068SOL    HW235667   2.411   3.801  17.327  0.9412 -1.1466 -1.0365
 8069SOL     OW35668   1.432   3.229   6.162 -0.0734 -0.2748 -0.3842
 8069SOL    HW135669   1.498   3.165   6.189  2.1075  0.6138 -3.5115
 8069SOL    HW235670   1.358   3.228   6.222 -1.7182 -0.1354 -2.4109
 8070SOL     OW35671   1.249   3.861   6.213 -0.0299 -0.4722  0.5842
 8070SOL    HW135672   1.304   3.801   6.163 -0.8637  1.5687 -2.8093
 8070SOL    HW235673   1.216   3.925   6.150  1.4911 -0.1487  0.1276
 8071SOL     OW35674   0.598   3.023   2.427  0.2334  1.0505  0.6535
 8071SOL    HW135675   0.667   2.963   2.457  0.5027  0.1668 -1.7521
 8071SOL    HW235676   0.516   2.984   2.455 -0.2794  1.2047 -0.6353
 8072SOL     OW35677   3.820   2.886   5.525 -0.5413  0.4223  0.0950
 8072SOL    HW135678   3.849   2.802   5.561 -0.3756  0.9352  1.1478
 8072SOL    HW235679   3.879   2.952   5.559  0.6737 -0.7897  0.3417
 8073SOL     OW35680   2.622   1.386   3.575  0.2195  0.1151  0.5273
 8073SOL    HW135681   2.580   1.447   3.635 -1.0738 -0.0508 -0.2073
 8073SOL    HW235682   2.710   1.423   3.563  0.2336  0.6133  2.2161
 8074SOL     OW35683   1.530   2.952   0.313  0.4849  0.4492 -0.2465
 8074SOL    HW135684   1.526   2.985   0.223  2.4716  0.8415 -0.1807
 8074SOL    HW235685   1.615   2.966   0.354  0.6857 -1.7099  0.0378
 8075SOL     OW35686   2.853   4.593   8.277  0.4067  0.7487 -0.6055
 8075SOL    HW135687   2.837   4.685   8.255 -0.9826  0.5618 -0.3752
 8075SOL    HW235688   2.791   4.572   8.347  0.8207 -1.5299 -0.9395
 8076SOL     OW35689   0.078   0.726   5.034  0.4900 -0.0707  0.0085
 8076SOL    HW135690   0.034   0.710   4.951  0.7050 -1.6782  0.2061
 8076SOL    HW235691   0.019   0.682   5.096 -1.0037  0.0502 -1.3311
 8077SOL     OW35692   4.708   0.221   9.345  0.2202  0.0023 -0.3094
 8077SOL    HW135693   4.633   0.162   9.336  0.6808 -0.8152  1.0930
 8077SOL    HW235694   4.689   0.254   9.433  1.3547 -1.4213  0.4791
 8078SOL     OW35695   1.330   2.341   8.800  0.0409  0.0181  0.1974
 8078SOL    HW135696   1.273   2.287   8.746  0.7846 -0.9553  0.3742
 8078SOL    HW235697   1.272   2.388   8.859 -1.7787 -2.9817  0.8150
 8079SOL     OW35698   1.474   3.637   4.644  0.8004 -0.4757 -0.1032
 8079SOL    HW135699   1.542   3.617   4.580  0.8723  2.2341 -0.8678
 8079SOL    HW235700   1.394   3.657   4.595  0.6769  1.2758  0.8119
 8080SOL     OW35701   1.437   2.144  10.302  0.1122 -0.0539 -0.0429
 8080SOL    HW135702   1.518   2.094  10.315 -0.5235 -1.4216 -1.3641
 8080SOL    HW235703   1.388   2.066  10.276  2.6107 -1.4394 -0.5673
 8081SOL     OW35704   4.589   0.042  11.273  0.7971  0.5448  0.4805
 8081SOL    HW135705   4.567   0.135  11.271 -1.5136 -0.0496 -0.6389
 8081SOL    HW235706   4.655   0.033  11.204 -1.3801  1.8543 -1.7330
 8082SOL     OW35707   4.078   2.296  14.174 -0.2026  0.2143 -0.0156
 8082SOL    HW135708   4.096   2.341  14.256 -2.2982 -0.4486  0.7966
 8082SOL    HW235709   4.069   2.208  14.210 -0.6314  0.4835  0.5409
 8083SOL     OW35710   0.723   3.529   4.240 -0.2803  0.0995  0.3509
 8083SOL    HW135711   0.685   3.544   4.154  1.6141 -0.3376 -0.5701
 8083SOL    HW235712   0.747   3.620   4.258  3.1243 -0.9816  1.3174
 8084SOL     OW35713   4.396   0.049  15.768  0.1042  0.2268  0.3944
 8084SOL    HW135714   4.470   0.030  15.825 -0.0933 -0.4235  0.4390
 8084SOL    HW235715   4.433   0.068  15.681 -0.5840 -0.6520 -0.0912
 8085SOL     OW35716   1.709   1.612   2.925 -0.0508  0.5741 -0.4891
 8085SOL    HW135717   1.656   1.591   2.848  4.0484 -1.9764 -2.6559
 8085SOL    HW235718   1.733   1.524   2.951  2.7175  0.7446 -2.4693
 8086SOL     OW35719   3.309   4.075   9.264 -0.3096 -0.8108 -0.1988
 8086SOL    HW135720   3.215   4.084   9.248 -0.1313  0.9907 -0.2840
 8086SOL    HW235721   3.315   4.017   9.340  1.4050  1.3962  1.3742
 8087SOL     OW35722   3.869   0.791   2.248  0.3236  0.1462 -1.0897
 8087SOL    HW135723   3.810   0.718   2.266 -0.6554  1.0416 -0.7315
 8087SOL    HW235724   3.836   0.862   2.303 -0.8794  0.5302 -2.3098
 8088SOL     OW35725   4.353   0.823   2.555  0.1248  0.1604 -0.2396
 8088SOL    HW135726   4.352   0.814   2.650  0.6121 -2.3870 -0.4642
 8088SOL    HW235727   4.270   0.867   2.535 -0.1458 -0.5782 -0.7314
 8089SOL     OW35728   1.016   1.768  16.712  0.2463  0.1170 -0.2234
 8089SOL    HW135729   0.930   1.802  16.740  0.0889 -0.8886  0.4990
 8089SOL    HW235730   1.070   1.817  16.774  1.6311 -1.3738 -0.2569
 8090SOL     OW35731   2.916   2.176   4.534 -0.4201  0.1845  0.2085
 8090SOL    HW135732   2.995   2.174   4.479 -0.8565  1.0101 -0.4573
 8090SOL    HW235733   2.950   2.118   4.602 -1.2649 -2.3090 -1.4825
 8091SOL     OW35734   3.548   1.213  16.053  0.0983 -0.3341  0.4641
 8091SOL    HW135735   3.543   1.118  16.058  0.7318 -0.5309 -2.4880
 8091SOL    HW235736   3.625   1.225  16.109  1.1822  0.8693 -1.2608
 8092SOL     OW35737   4.379   0.836   4.155  0.2975  0.3145  0.3835
 8092SOL    HW135738   4.380   0.887   4.074  1.8890 -1.4331 -0.7004
 8092SOL    HW235739   4.314   0.878   4.210 -0.0531  0.0885  0.1397
 8093SOL     OW35740   4.110   0.267   6.671 -0.1463 -0.3723  0.0380
 8093SOL    HW135741   4.056   0.263   6.591 -0.1178  1.7565 -0.0944
 8093SOL    HW235742   4.174   0.199   6.649  1.2297  0.3166  1.9593
 8094SOL     OW35743   0.714   2.434   1.073  0.2228  0.1982  0.3353
 8094SOL    HW135744   0.759   2.518   1.065 -0.9261  0.9568  1.8959
 8094SOL    HW235745   0.768   2.385   1.136 -0.3172 -1.9853 -0.8929
 8095SOL     OW35746   3.363   2.194   4.668 -0.0584  0.3675  0.1710
 8095SOL    HW135747   3.331   2.104   4.658 -0.2089  0.4898 -0.4309
 8095SOL    HW235748   3.294   2.250   4.634 -1.0167  0.4309  2.2335
 8096SOL     OW35749   0.902   4.059   2.859  0.4005  0.2467  0.0085
 8096SOL    HW135750   0.807   4.056   2.851  0.5250 -0.1261 -1.2127
 8096SOL    HW235751   0.927   4.144   2.822 -4.0128  1.6484  0.3507
 8097SOL     OW35752   2.297   3.043   4.798  0.2148 -0.2664  0.1958
 8097SOL    HW135753   2.319   3.004   4.713  0.3955 -2.6196  1.3146
 8097SOL    HW235754   2.288   3.136   4.778 -1.5488 -0.4550  0.1469
 8098SOL     OW35755   1.856   3.147   1.971  0.4705  0.1100  0.0990
 8098SOL    HW135756   1.917   3.191   2.031  1.8758 -0.4243 -0.9552
 8098SOL    HW235757   1.906   3.154   1.890 -0.9274  1.6352 -0.6126
 8099SOL     OW35758   3.140   1.294   7.978 -0.5998 -0.6976  0.1714
 8099SOL    HW135759   3.099   1.247   8.051  1.2164 -2.4568  0.0646
 8099SOL    HW235760   3.095   1.253   7.904 -2.3654 -0.6462  1.2178
 8100SOL     OW35761   0.017   1.118   1.332  0.1621 -0.4337 -0.0355
 8100SOL    HW135762   4.645   1.107   1.305 -0.6678  0.4756  2.4673
 8100SOL    HW235763   0.074   1.055   1.288  1.7626 -0.3289  1.9381
 8101SOL     OW35764   2.320   1.107   7.573 -0.1827 -0.6387  0.2047
 8101SOL    HW135765   2.311   1.180   7.512  1.3854 -3.0126 -2.8640
 8101SOL    HW235766   2.411   1.080   7.557 -0.0201 -0.4601  0.8428
 8102SOL     OW35767   0.035   1.150  10.223  0.1772  0.1101  0.2021
 8102SOL    HW135768   0.101   1.110  10.167 -0.5504 -0.9655  0.1097
 8102SOL    HW235769   0.085   1.154  10.304  1.7695  0.0808 -0.7926
 8103SOL     OW35770   3.256   1.017  10.921 -0.4187 -0.0242  0.8578
 8103SOL    HW135771   3.195   0.955  10.961  0.8906 -1.3397  0.8266
 8103SOL    HW235772   3.233   1.009  10.828  2.3283  0.6457  0.1142
 8104SOL     OW35773   1.509   4.026   6.020 -0.2966  0.0074  0.2575
 8104SOL    HW135774   1.456   4.095   5.979 -0.7330  0.7309  2.0338
 8104SOL    HW235775   1.577   4.017   5.954 -0.0343  2.2097  0.2016
 8105SOL     OW35776   0.784   3.190   3.891 -0.0676 -0.3590  0.2850
 8105SOL    HW135777   0.809   3.232   3.809  1.3364 -1.9243 -0.1033
 8105SOL    HW235778   0.720   3.255   3.919 -1.0744 -1.6421  0.9328
 8106SOL     OW35779   0.979   3.902  17.581 -0.0739 -0.3418  0.4789
 8106SOL    HW135780   0.937   3.900  17.667  0.7886  1.1971  0.9508
 8106SOL    HW235781   1.060   3.853  17.590 -0.6315 -1.5921 -1.3029
 8107SOL     OW35782   2.540   2.991   7.880  0.4480  0.0054  0.4882
 8107SOL    HW135783   2.447   3.013   7.874  0.7341  1.3058  0.9338
 8107SOL    HW235784   2.532   2.903   7.918  2.8570  0.0437  1.0783
 8108SOL     OW35785   3.302   2.321  17.219 -0.8941  0.3157 -0.4375
 8108SOL    HW135786   3.288   2.238  17.173 -0.0121  0.4325 -0.9104
 8108SOL    HW235787   3.368   2.356  17.160  1.1128  0.1615  1.7612
 8109SOL     OW35788   2.017   2.665  17.670  0.3145  0.0177 -0.1908
 8109SOL    HW135789   2.042   2.629   0.074 -0.4427 -0.0558 -0.0008
 8109SOL    HW235790   2.088   2.726  17.652 -1.7456  2.0143 -1.5987
 8110SOL     OW35791   2.230   1.763  16.257  0.6764  0.5154 -0.1793
 8110SOL    HW135792   2.298   1.795  16.196 -0.0934  4.4204  0.9767
 8110SOL    HW235793   2.164   1.744  16.191 -0.6494 -1.3050  1.7017
 8111SOL     OW35794   3.321   1.724   8.864  0.0478 -0.3974  0.6315
 8111SOL    HW135795   3.351   1.739   8.774 -2.7407  1.0953 -0.0313
 8111SOL    HW235796   3.386   1.655   8.878 -0.2554 -0.4799  1.6501
 8112SOL     OW35797   2.222   4.401   4.394  0.6274  0.7048 -0.3576
 8112SOL    HW135798   2.252   4.338   4.328 -0.0112  2.0979 -1.9642
 8112SOL    HW235799   2.201   4.351   4.473 -0.1762 -1.1834 -1.7857
 8113SOL     OW35800   4.670   1.872   3.185  0.5081 -0.4422 -0.2793
 8113SOL    HW135801   4.624   1.813   3.126 -1.2594 -0.4278  1.0713
 8113SOL    HW235802   4.710   1.808   3.245  0.2035  0.1811  0.5959
 8114SOL     OW35803   1.023   3.192   6.618 -0.1923 -0.6354  0.3960
 8114SOL    HW135804   0.982   3.106   6.616 -1.4949 -0.0625  2.5733
 8114SOL    HW235805   0.973   3.236   6.549 -1.0950 -1.2843  0.6470
 8115SOL     OW35806   1.641   3.330  12.485 -0.0916 -0.3978 -0.1274
 8115SOL    HW135807   1.712   3.345  12.547  0.1564  0.7757 -0.7059
 8115SOL    HW235808   1.619   3.416  12.450  0.6396 -0.3076 -0.3576
 8116SOL     OW35809   4.514   1.515   8.474 -0.9231  0.4440 -0.2744
 8116SOL    HW135810   4.458   1.477   8.405 -0.6065  1.2609 -0.9803
 8116SOL    HW235811   4.451   1.525   8.545  1.1214  0.6658  1.4762
 8117SOL     OW35812   0.734   3.319   9.154 -0.1198  0.1253 -0.4629
 8117SOL    HW135813   0.809   3.374   9.176 -0.6216 -0.0013  1.5184
 8117SOL    HW235814   0.701   3.383   9.090  1.5483  1.7757  0.3147
 8118SOL     OW35815   0.971   0.652   6.324 -0.1263 -0.4879  0.5547
 8118SOL    HW135816   0.931   0.589   6.264  0.5402 -1.5847  1.2648
 8118SOL    HW235817   1.064   0.641   6.304 -0.3541  0.5132 -1.0600
 8119SOL     OW35818   4.257   3.741   8.623 -0.2912 -0.2684  0.2800
 8119SOL    HW135819   4.340   3.788   8.626 -0.4048  0.0937 -1.8702
 8119SOL    HW235820   4.199   3.798   8.673  0.4746  0.8699 -0.1509
 8120SOL     OW35821   0.214   2.373  10.407  0.4575  0.3200  0.5211
 8120SOL    HW135822   0.160   2.378  10.328 -0.1339 -0.7294  0.8561
 8120SOL    HW235823   0.215   2.468  10.416  0.3027  0.4456 -0.7610
 8121SOL     OW35824   0.242   2.728   5.094  0.0650 -0.1119 -0.1486
 8121SOL    HW135825   0.317   2.725   5.153 -0.3715 -0.1638  0.3969
 8121SOL    HW235826   0.201   2.808   5.127  0.0461  0.3384 -1.2643
 8122SOL     OW35827   2.755   3.607   2.037 -0.3966  0.0697 -0.2325
 8122SOL    HW135828   2.816   3.636   2.105 -1.8544 -0.9273  1.5057
 8122SOL    HW235829   2.810   3.608   1.959  1.8296 -1.1248  1.3006
 8123SOL     OW35830   4.403   4.331  15.759  0.0145 -0.0970 -0.0113
 8123SOL    HW135831   4.433   4.240  15.768  1.1902  0.2739 -0.0959
 8123SOL    HW235832   4.449   4.376  15.831  0.1924  0.8547 -0.7276
 8124SOL     OW35833   0.705   2.866   3.561  0.5957  0.1639 -0.2552
 8124SOL    HW135834   0.649   2.831   3.630 -1.4751 -0.0146 -2.0074
 8124SOL    HW235835   0.689   2.960   3.566  0.0266  0.1006 -0.8504
 8125SOL     OW35836   0.969   1.827   5.432 -0.2564 -0.2232  0.6672
 8125SOL    HW135837   1.027   1.752   5.420 -0.1116 -0.2302  1.4359
 8125SOL    HW235838   1.037   1.895   5.433 -1.3533  0.8831  0.7574
 8126SOL     OW35839   4.491   4.103   7.957  0.0821  0.0877 -0.2293
 8126SOL    HW135840   4.434   4.064   8.023 -2.1498 -0.5727 -2.5421
 8126SOL    HW235841   4.570   4.096   8.010  0.1919  0.9432 -0.2810
 8127SOL     OW35842   4.348   3.190   8.759 -0.0775  0.4517 -0.2746
 8127SOL    HW135843   4.424   3.217   8.810 -0.7594 -0.2958  1.1297
 8127SOL    HW235844   4.379   3.107   8.723  1.0201  0.7120  0.0712
 8128SOL     OW35845   1.879   4.171   5.888 -0.1224  0.0807  0.1352
 8128SOL    HW135846   1.894   4.076   5.890  1.1024  0.2554 -0.9785
 8128SOL    HW235847   1.908   4.199   5.802  1.3728 -1.7184  0.0512
 8129SOL     OW35848   2.286   1.683  11.496  0.4873  0.6890 -0.1176
 8129SOL    HW135849   2.309   1.695  11.588  1.9804  1.7714 -0.6417
 8129SOL    HW235850   2.372   1.675  11.455  0.4626  0.4396 -0.1245
 8130SOL     OW35851   1.694   1.555   4.707 -0.6403  0.3420  0.4379
 8130SOL    HW135852   1.616   1.611   4.704  0.2659  1.5620 -0.5349
 8130SOL    HW235853   1.652   1.469   4.710  2.9740 -1.3832  0.8713
 8131SOL     OW35854   4.535   2.351   7.340  0.4792  0.4947  0.1842
 8131SOL    HW135855   4.613   2.312   7.301 -0.2887 -1.4170  0.5792
 8131SOL    HW235856   4.490   2.383   7.261 -2.7858 -0.3714  1.7097
 8132SOL     OW35857   3.857   4.032   5.049 -0.4143  0.5364 -0.0851
 8132SOL    HW135858   3.869   3.941   5.020 -3.3665  0.6873 -1.7828
 8132SOL    HW235859   3.847   4.016   5.143  0.0590  0.7036 -0.0102
 8133SOL     OW35860   0.322   3.966   3.578  0.4450 -0.3798  0.2011
 8133SOL    HW135861   0.259   4.035   3.600  0.4014 -1.0022  2.0836
 8133SOL    HW235862   0.268   3.910   3.523 -0.9027  1.7758 -0.6272
 8134SOL     OW35863   3.012   2.762   1.755  0.4375 -0.1421  0.7187
 8134SOL    HW135864   2.988   2.810   1.676 -0.7824 -1.1332  0.4833
 8134SOL    HW235865   2.931   2.768   1.806 -1.0148 -1.4871 -1.4317
 8135SOL     OW35866   2.700   1.117  15.825  0.5086 -0.1167 -0.5908
 8135SOL    HW135867   2.693   1.209  15.851 -2.1038 -0.7721  1.0899
 8135SOL    HW235868   2.791   1.100  15.801  1.1597  0.7984  1.2148
 8136SOL     OW35869   0.137   3.952   1.477 -0.4367 -0.2690 -0.2305
 8136SOL    HW135870   0.135   4.041   1.441  0.1297 -0.5749 -0.9878
 8136SOL    HW235871   0.096   3.956   1.564  2.8312  3.5278  1.1845
 8137SOL     OW35872   2.323   2.105  15.983  0.2312 -0.2365 -0.2807
 8137SOL    HW135873   2.270   2.141  15.911 -0.0026 -0.5939 -0.2864
 8137SOL    HW235874   2.260   2.113  16.054 -0.4786 -1.0928 -0.8111
 8138SOL     OW35875   4.340   2.839   3.946  0.0315  0.7988 -0.1170
 8138SOL    HW135876   4.289   2.798   3.876 -0.3154 -0.1568  0.6995
 8138SOL    HW235877   4.315   2.931   3.940 -3.4316 -0.1816 -0.3108
 8139SOL     OW35878   0.830   2.182   1.612  0.1734  0.0843  0.3461
 8139SOL    HW135879   0.807   2.122   1.541  1.4648  0.2000 -0.1637
 8139SOL    HW235880   0.745   2.196   1.654 -1.0965  0.6873 -2.4362
 8140SOL     OW35881   0.722   0.869   2.900  0.6956  0.7526  0.5985
 8140SOL    HW135882   0.650   0.869   2.838  0.0118 -2.6385  1.3874
 8140SOL    HW235883   0.745   0.776   2.897 -0.5454  0.5105 -1.0779
 8141SOL     OW35884   1.767   4.413  12.848  0.2211  0.7239 -0.0232
 8141SOL    HW135885   1.787   4.480  12.914 -0.7231  0.8154  0.1655
 8141SOL    HW235886   1.844   4.357  12.861 -0.2881  0.2944  1.1140
 8142SOL     OW35887   3.451   3.534   4.792  0.0619  0.3606 -0.1006
 8142SOL    HW135888   3.545   3.553   4.801 -0.1163  1.4923 -0.6248
 8142SOL    HW235889   3.450   3.518   4.698  1.5755  1.4229 -0.3043
 8143SOL     OW35890   2.925   2.774   2.107  0.0375 -0.3122 -0.1152
 8143SOL    HW135891   2.875   2.775   2.025 -2.1370  0.3548  1.2247
 8143SOL    HW235892   2.978   2.853   2.094 -1.8440  0.7774 -1.0940
 8144SOL     OW35893   1.463   3.255  14.471  0.1892  0.5361 -0.1699
 8144SOL    HW135894   1.468   3.196  14.396  1.4286 -0.4009  0.6375
 8144SOL    HW235895   1.385   3.306  14.451  0.0846  0.9496  1.2696
 8145SOL     OW35896   2.234   4.398  16.430 -0.4435  0.8907 -0.6715
 8145SOL    HW135897   2.261   4.421  16.519 -2.2654 -1.4005  0.4789
 8145SOL    HW235898   2.224   4.304  16.441 -2.1026  1.0762 -0.5092
 8146SOL     OW35899   2.506   0.532   6.740  0.7731  0.0358  0.4302
 8146SOL    HW135900   2.455   0.606   6.774  0.9814 -0.3766  1.6149
 8146SOL    HW235901   2.593   0.573   6.740  1.2580 -1.0123 -0.0586
 8147SOL     OW35902   1.720   1.866   3.026  0.4110  0.1708  0.0529
 8147SOL    HW135903   1.691   1.778   3.004 -0.8130  0.3636  0.8330
 8147SOL    HW235904   1.799   1.863   2.972  0.3594  1.8619 -0.1291
 8148SOL     OW35905   3.745   3.476   9.969  0.7645 -0.3905 -0.3286
 8148SOL    HW135906   3.813   3.523   9.919  0.9504  2.1510  2.3183
 8148SOL    HW235907   3.792   3.395   9.988  1.9088  0.3780  0.1432
 8149SOL     OW35908   0.650   3.685   0.076 -0.6425 -0.3224 -0.0788
 8149SOL    HW135909   0.657   3.714  17.666 -2.0552 -1.1102 -0.4318
 8149SOL    HW235910   0.714   3.614   0.080  1.7510  1.8135 -0.3265
 8150SOL     OW35911   2.315   3.793   3.643  0.1484  0.1376  0.6988
 8150SOL    HW135912   2.248   3.726   3.658  0.9196 -1.3271 -2.4980
 8150SOL    HW235913   2.368   3.741   3.583 -0.8868  2.1843 -2.0198
 8151SOL     OW35914   4.487   1.376   3.585  0.4007  0.4334 -0.0893
 8151SOL    HW135915   4.511   1.312   3.653  1.3701  0.0465 -0.7929
 8151SOL    HW235916   4.445   1.316   3.524 -0.5904  2.3416 -1.2593
 8152SOL     OW35917   1.884   3.309  11.417 -0.1834 -0.7239 -0.2597
 8152SOL    HW135918   1.917   3.232  11.371  0.0445  0.4099 -2.0062
 8152SOL    HW235919   1.791   3.285  11.425  0.1014 -1.6767  0.2139
 8153SOL     OW35920   1.930   3.606  13.499  0.4599  0.2673 -0.2228
 8153SOL    HW135921   1.983   3.547  13.445  0.8057  1.3949 -1.0921
 8153SOL    HW235922   1.911   3.677  13.439 -2.5455  1.0472  1.6312
 8154SOL     OW35923   4.545   3.564   1.818  0.3693 -0.4722  0.0646
 8154SOL    HW135924   4.630   3.609   1.826 -0.9228  1.9634  0.1069
 8154SOL    HW235925   4.524   3.562   1.725 -0.6039  0.3677  0.2604
 8155SOL     OW35926   3.044   0.302   5.905  0.2764 -0.1877  0.0038
 8155SOL    HW135927   3.135   0.332   5.904  0.2106  0.0172  0.0884
 8155SOL    HW235928   3.026   0.327   5.996  1.3631 -0.7702  0.3859
 8156SOL     OW35929   3.807   1.935   6.508  0.5417  0.1464  0.2613
 8156SOL    HW135930   3.783   1.901   6.421  1.4059  0.6797 -0.1740
 8156SOL    HW235931   3.757   2.015   6.521  1.6339  0.7812  0.5259
 8157SOL     OW35932   0.328   3.928   2.167  0.4306 -0.5682 -0.2870
 8157SOL    HW135933   0.346   3.852   2.112 -0.0497 -0.6109 -0.3832
 8157SOL    HW235934   0.405   3.984   2.165 -0.7156  1.0008 -0.9491
 8158SOL     OW35935   2.815   2.545  15.056 -0.4914 -0.3698  0.5186
 8158SOL    HW135936   2.843   2.466  15.010 -0.6340 -0.2543  0.2352
 8158SOL    HW235937   2.734   2.543  15.005 -1.3548  2.0340  1.7962
 8159SOL     OW35938   1.969   4.686   1.694 -0.1059  0.4437 -0.0939
 8159SOL    HW135939   2.021   0.046   1.706  0.6425  0.2957 -2.4176
 8159SOL    HW235940   1.881   4.715   1.673  0.5320  0.4547 -2.7795
 8160SOL     OW35941   2.895   0.710   3.329  0.3717  0.3751 -0.3944
 8160SOL    HW135942   2.870   0.802   3.328  1.4105  0.6852  1.1111
 8160SOL    HW235943   2.987   0.714   3.304  0.1877 -0.1740 -1.1483
 8161SOL     OW35944   1.315   1.397   0.573 -0.4031  0.0176  0.0194
 8161SOL    HW135945   1.228   1.369   0.544 -1.3011  2.4109  0.4238
 8161SOL    HW235946   1.372   1.325   0.546  0.1340 -0.0850  1.3991
 8162SOL     OW35947   1.024   2.094  12.277  0.4350 -0.7467  0.2291
 8162SOL    HW135948   1.106   2.108  12.230 -0.6394  1.6755 -0.9135
 8162SOL    HW235949   1.039   2.144  12.357 -1.0303 -1.8767  1.2241
 8163SOL     OW35950   4.619   4.600   3.020 -0.2246 -0.1092  0.1919
 8163SOL    HW135951   4.679   4.667   3.051  1.7426 -2.0942  0.6824
 8163SOL    HW235952   4.557   4.590   3.094  0.9787  3.3483  1.6491
 8164SOL     OW35953   0.105   0.204  10.866 -0.0373  0.6030 -0.6616
 8164SOL    HW135954   0.044   0.273  10.891 -0.7782 -0.6653  1.0115
 8164SOL    HW235955   0.171   0.250  10.814  1.2775  0.2164  0.6738
 8165SOL     OW35956   4.335   2.529   3.979 -0.4978 -0.1168 -0.3785
 8165SOL    HW135957   4.356   2.504   3.889 -0.5029 -2.7560  0.3473
 8165SOL    HW235958   4.385   2.609   3.992 -0.5025 -0.2225  0.2810
 8166SOL     OW35959   0.128   3.163   7.022 -0.5856  0.5837  0.4233
 8166SOL    HW135960   0.156   3.154   7.113  0.5659 -1.3485 -0.1141
 8166SOL    HW235961   0.117   3.256   7.003 -0.0444  0.1469 -2.0550
 8167SOL     OW35962   1.315   4.253   1.816 -0.2444  0.4099  0.0111
 8167SOL    HW135963   1.299   4.239   1.910  1.1707 -0.8970  0.0598
 8167SOL    HW235964   1.254   4.189   1.778 -0.6572 -0.2294  1.7449
 8168SOL     OW35965   3.355   0.708   3.502 -0.2047  0.1217 -0.1460
 8168SOL    HW135966   3.366   0.791   3.547  0.0197  0.6703 -1.2164
 8168SOL    HW235967   3.368   0.661   3.585 -1.6072  1.5678  0.8940
 8169SOL     OW35968   1.090   2.294   7.225 -0.0724 -0.2475 -0.2890
 8169SOL    HW135969   1.019   2.236   7.198  0.2316 -0.6698 -0.1948
 8169SOL    HW235970   1.074   2.374   7.174 -0.4852 -0.1776 -0.0455
 8170SOL     OW35971   4.081   3.804   5.243 -0.1730  0.1926 -0.1419
 8170SOL    HW135972   4.168   3.809   5.204  0.2146 -0.0183  0.7036
 8170SOL    HW235973   4.086   3.723   5.293 -0.2422 -0.8965 -1.9104
 8171SOL     OW35974   2.052   2.567   9.920  0.4950  0.1175 -0.3118
 8171SOL    HW135975   2.047   2.602  10.009 -0.9370  1.0688 -0.7636
 8171SOL    HW235976   2.025   2.644   9.871 -2.7132 -0.5501  0.4289
 8172SOL     OW35977   4.155   1.192   8.455  0.3736  0.1463 -0.3356
 8172SOL    HW135978   4.068   1.175   8.492  1.0391 -0.2276  1.0526
 8172SOL    HW235979   4.132   1.246   8.379 -2.3181 -0.8762 -0.2479
 8173SOL     OW35980   3.743   3.392   4.906  0.4733 -0.2131 -0.2232
 8173SOL    HW135981   3.780   3.304   4.918 -0.3852 -0.5645 -0.1188
 8173SOL    HW235982   3.792   3.421   4.830  0.3712  2.3148  0.6940
 8174SOL     OW35983   0.382   1.865   6.627 -0.4096 -0.0061 -0.2507
 8174SOL    HW135984   0.322   1.932   6.660 -1.7121 -1.3642  0.1075
 8174SOL    HW235985   0.393   1.798   6.695  0.4267  1.3255  0.9326
 8175SOL     OW35986   2.330   4.121  11.423  0.6100 -0.0027  0.2497
 8175SOL    HW135987   2.259   4.071  11.382  0.6916 -0.5934  0.8361
 8175SOL    HW235988   2.401   4.083  11.372 -0.1091  1.0085 -1.5062
 8176SOL     OW35989   1.033   0.885   4.362 -0.2978 -0.0765 -0.1675
 8176SOL    HW135990   1.012   0.849   4.448 -1.3232 -1.3865 -0.9697
 8176SOL    HW235991   0.986   0.832   4.298  1.7154 -0.1229 -1.6234
 8177SOL     OW35992   4.036   0.131   5.238 -0.2431  0.2514  0.1970
 8177SOL    HW135993   3.950   0.168   5.260 -0.0642 -0.4448  2.0571
 8177SOL    HW235994   4.019   0.098   5.150  2.5373 -0.3040 -0.1341
 8178SOL     OW35995   2.721   1.864  17.211  0.2265 -0.1312  0.9559
 8178SOL    HW135996   2.664   1.875  17.135 -0.5209 -1.1506  1.3759
 8178SOL    HW235997   2.800   1.910  17.185 -0.1936 -0.2253 -0.4738
 8179SOL     OW35998   1.583   2.525   4.130  0.0627 -0.3366 -0.5467
 8179SOL    HW135999   1.521   2.460   4.099  0.5037 -1.1441  0.2642
 8179SOL    HW236000   1.588   2.582   4.053  1.2120 -0.7481 -0.7724
 8180SOL     OW36001   0.949   0.092   8.770 -0.1458  0.1171  0.5464
 8180SOL    HW136002   0.930   0.099   8.676  3.2560 -0.2509 -0.2008
 8180SOL    HW236003   0.870   0.096   8.822 -0.6562 -0.4587 -0.1878
 8181SOL     OW36004   2.788   2.892   2.615 -0.1122  0.1772 -0.2756
 8181SOL    HW136005   2.792   2.859   2.705  0.1428 -0.3360 -0.4777
 8181SOL    HW236006   2.825   2.813   2.576  2.0886 -0.0555  2.2457
 8182SOL     OW36007   0.527   1.422   6.175 -0.7894  0.3300 -0.3111
 8182SOL    HW136008   0.571   1.480   6.237 -1.0737  0.5450 -0.3116
 8182SOL    HW236009   0.506   1.350   6.234  0.5804  0.2180  0.0296
 8183SOL     OW36010   1.142   0.023   4.267 -0.0460  0.1302 -0.1565
 8183SOL    HW136011   1.068   0.014   4.327  0.3415 -0.0492  0.2960
 8183SOL    HW236012   1.184   4.658   4.282 -0.1586 -0.0780 -1.0232
 8184SOL     OW36013   3.973   2.443   7.924 -0.3725  0.0967 -0.2661
 8184SOL    HW136014   3.925   2.515   7.884  1.6415  1.1398 -0.8495
 8184SOL    HW236015   4.035   2.424   7.854 -0.1293  1.8689 -0.5235
 8185SOL     OW36016   2.183   2.423  14.658 -0.0492 -0.8622  0.1454
 8185SOL    HW136017   2.140   2.451  14.739  0.6095  0.2651  0.1227
 8185SOL    HW236018   2.179   2.507  14.611 -0.6804  0.2118  2.1189
 8186SOL     OW36019   3.768   4.301   8.558 -0.1705 -0.4250 -0.4799
 8186SOL    HW136020   3.831   4.335   8.622 -0.7947  0.9291 -0.5988
 8186SOL    HW236021   3.729   4.385   8.533 -2.8182 -1.5496 -0.1158
 8187SOL     OW36022   0.212   0.981   3.459 -0.4594  0.2329  0.4404
 8187SOL    HW136023   0.277   0.977   3.389 -2.6761  0.3949 -1.6682
 8187SOL    HW236024   0.167   0.896   3.455 -1.0412  0.5251  0.6843
 8188SOL     OW36025   2.016   3.736  14.121  0.3785  0.0318 -0.7852
 8188SOL    HW136026   2.099   3.696  14.096  0.4767 -0.5125  0.3842
 8188SOL    HW236027   1.962   3.715  14.045 -2.7665 -1.6934  1.9089
 8189SOL     OW36028   0.371   3.750   8.021 -0.2736 -0.1110  0.0690
 8189SOL    HW136029   0.413   3.691   7.959  0.9570  0.5555  0.2736
 8189SOL    HW236030   0.435   3.774   8.089  2.0393 -0.3960 -2.0217
 8190SOL     OW36031   3.712   3.301   6.059 -0.3801  0.1941 -0.1114
 8190SOL    HW136032   3.729   3.343   5.975  0.4566 -1.1095 -0.5992
 8190SOL    HW236033   3.767   3.351   6.119 -1.9249 -0.2647  1.6721
 8191SOL     OW36034   4.241   3.343   4.461 -0.2341  0.1206  0.2669
 8191SOL    HW136035   4.200   3.344   4.547 -2.8549  0.1094 -1.0050
 8191SOL    HW236036   4.308   3.412   4.461  1.5720 -1.6001  0.5618
 8192SOL     OW36037   0.137   3.779  13.764  0.3607  0.1447  0.1946
 8192SOL    HW136038   0.191   3.763  13.686  1.1731 -0.2754  0.8340
 8192SOL    HW236039   0.143   3.873  13.782 -1.0433  0.1746  0.4595
 8193SOL     OW36040   0.492   4.004   4.130 -0.1138  0.3213 -0.1209
 8193SOL    HW136041   0.437   3.942   4.081 -0.9506  0.9052  0.0843
 8193SOL    HW236042   0.535   3.948   4.194  0.3154  2.3639  1.3897
 8194SOL     OW36043   1.270   3.305   4.926 -0.2910 -0.4274  0.3180
 8194SOL    HW136044   1.245   3.218   4.896  0.4072 -1.2966  2.2568
 8194SOL    HW236045   1.348   3.320   4.872  0.0582 -1.7362  0.4773
 8195SOL     OW36046   2.750   4.478  15.756 -0.2980  0.0479 -0.1109
 8195SOL    HW136047   2.670   4.527  15.740  1.6540  3.3157  0.2497
 8195SOL    HW236048   2.789   4.478  15.669 -0.3368  0.6790 -0.1275
 8196SOL     OW36049   1.223   3.430   5.317 -0.2124 -0.1338 -0.0674
 8196SOL    HW136050   1.133   3.426   5.349 -0.6525 -4.0943 -1.7564
 8196SOL    HW236051   1.258   3.341   5.329  0.5373  0.0016 -1.1763
 8197SOL     OW36052   4.304   0.336   5.676  0.0568  0.7030 -0.6874
 8197SOL    HW136053   4.279   0.249   5.708 -0.8141  0.6157 -1.6242
 8197SOL    HW236054   4.240   0.388   5.724 -0.6109 -1.5383  0.8430
 8198SOL     OW36055   2.480   1.702  14.316 -0.1854  0.5082 -0.2151
 8198SOL    HW136056   2.561   1.728  14.272 -0.2576 -0.0913 -0.7027
 8198SOL    HW236057   2.413   1.752  14.269 -1.3538 -1.4759 -0.6994
 8199SOL     OW36058   4.341   0.756   2.022  0.6686 -0.0098  0.0900
 8199SOL    HW136059   4.292   0.675   2.035  0.5963 -0.4973 -3.2604
 8199SOL    HW236060   4.294   0.793   1.947 -0.5004  0.1109  0.8800
 8200SOL     OW36061   4.597   3.839   3.054  0.2229 -0.1001 -0.0957
 8200SOL    HW136062   4.617   3.818   2.963  0.7447  0.5409 -0.1325
 8200SOL    HW236063   4.620   3.754   3.092 -1.9232  0.3489  2.1890
 8201SOL     OW36064   0.858   0.135   3.265 -0.1238 -0.4607  0.0729
 8201SOL    HW136065   0.849   0.220   3.223  2.9355  0.4201  1.2234
 8201SOL    HW236066   0.880   0.068   3.200  1.9806 -0.7636  1.1020
 8202SOL     OW36067   4.480   1.095   8.590 -0.1628  0.3996 -0.4763
 8202SOL    HW136068   4.437   1.041   8.524 -0.0470  1.1838 -1.1892
 8202SOL    HW236069   4.399   1.118   8.636  0.3745 -0.6951  1.0136
 8203SOL     OW36070   3.856   2.306  17.562  0.1526  0.1410 -0.9700
 8203SOL    HW136071   3.935   2.342  17.602  0.7475 -1.3634 -0.8172
 8203SOL    HW236072   3.807   2.314  17.645 -0.6517  1.2542 -1.5454
 8204SOL     OW36073   2.873   3.954   9.197 -0.2148 -0.1064 -0.2079
 8204SOL    HW136074   2.843   3.941   9.287  1.3375 -1.4177  0.0963
 8204SOL    HW236075   2.835   3.875   9.158 -1.2367 -0.0606  0.7040
 8205SOL     OW36076   2.942   3.201   3.474  0.1532  0.4642 -0.2732
 8205SOL    HW136077   3.000   3.132   3.508 -2.4148 -0.7422  1.7455
 8205SOL    HW236078   2.928   3.166   3.386 -0.1403 -0.3240  0.0818
 8206SOL     OW36079   0.012   0.436   2.668  0.2603  0.2310  0.4915
 8206SOL    HW136080   0.010   0.373   2.596 -0.9219  0.0021  0.7232
 8206SOL    HW236081   4.643   0.472   2.668 -0.2925 -1.1318  0.1694
 8207SOL     OW36082   3.145   4.216   6.546  0.0740  0.1555 -0.3052
 8207SOL    HW136083   3.208   4.223   6.618  1.7792  0.6064 -1.8295
 8207SOL    HW236084   3.066   4.222   6.599 -0.2850  1.9018 -1.0203
 8208SOL     OW36085   4.541   4.058   3.191  0.5150 -0.0074 -0.2058
 8208SOL    HW136086   4.569   4.129   3.133 -1.5317  0.8828 -0.1039
 8208SOL    HW236087   4.565   3.983   3.137  0.3073 -0.0623 -0.2228
 8209SOL     OW36088   0.593   2.468   3.109 -0.5400  0.2251  0.1625
 8209SOL    HW136089   0.570   2.545   3.160  1.1385 -0.2169  1.5815
 8209SOL    HW236090   0.600   2.409   3.184 -0.0919  0.6236  0.4354
 8210SOL     OW36091   1.847   1.552  10.321 -0.1979  0.5538  0.0274
 8210SOL    HW136092   1.898   1.619  10.366 -0.2182  1.7919 -1.7592
 8210SOL    HW236093   1.908   1.478  10.327 -0.7268  0.2484  1.4965
 8211SOL     OW36094   2.237   4.139   7.711 -0.0411 -0.1739  0.4458
 8211SOL    HW136095   2.281   4.223   7.696 -0.0436 -0.4177 -0.8885
 8211SOL    HW236096   2.304   4.076   7.736  0.6666  0.6754  0.6630
 8212SOL     OW36097   2.579   3.231   4.215 -0.0585 -0.0239 -0.6148
 8212SOL    HW136098   2.667   3.269   4.211 -0.5301  1.0335 -0.9974
 8212SOL    HW236099   2.540   3.277   4.140  1.5957  1.3030 -0.6610
 8213SOL     OW36100   3.713   3.929  10.187  0.1797 -0.3389  0.3190
 8213SOL    HW136101   3.782   3.866  10.208 -0.0614 -1.3405 -1.8245
 8213SOL    HW236102   3.644   3.923  10.253  0.6742 -0.6989  0.8036
 8214SOL     OW36103   3.077   0.430  16.496 -0.6211  0.0662 -0.1272
 8214SOL    HW136104   3.161   0.464  16.464 -0.2889  0.1038  0.7614
 8214SOL    HW236105   3.028   0.439  16.414  0.2628  0.1094 -0.6516
 8215SOL     OW36106   0.461   1.627   6.748  0.0556 -0.8667 -0.1860
 8215SOL    HW136107   0.476   1.551   6.692 -0.9356 -0.3722 -1.1233
 8215SOL    HW236108   0.554   1.651   6.754  0.4809 -2.3405 -1.0352
 8216SOL     OW36109   1.932   4.680  16.646 -0.5582 -0.5188 -0.0156
 8216SOL    HW136110   1.854   4.692  16.591 -0.1414 -0.2175 -0.5396
 8216SOL    HW236111   1.984   0.038  16.626  2.0666 -1.6395  2.5021
 8217SOL     OW36112   1.209   0.821  16.960  0.0981 -0.1607  0.0939
 8217SOL    HW136113   1.166   0.845  17.043 -0.0517  2.5126 -0.7627
 8217SOL    HW236114   1.177   0.891  16.903 -1.6058 -3.3328 -2.8192
 8218SOL     OW36115   0.653   4.544  15.308  0.2657  0.0366 -0.1679
 8218SOL    HW136116   0.633   4.491  15.386  0.0378  0.0516 -0.2172
 8218SOL    HW236117   0.701   4.481  15.254 -2.5916 -1.2800 -1.1318
 8219SOL     OW36118   2.869   1.550  16.568 -0.5587  0.0962  0.5220
 8219SOL    HW136119   2.790   1.505  16.537 -0.9937 -0.3264  2.2580
 8219SOL    HW236120   2.847   1.543  16.661  0.1347  0.6304  0.7199
 8220SOL     OW36121   0.595   4.666  12.421 -0.1211  0.3363  0.3286
 8220SOL    HW136122   0.641   4.712  12.351 -0.6641 -0.2153 -0.3906
 8220SOL    HW236123   0.662   4.659  12.489 -1.3039  1.4023  1.6262
 8221SOL     OW36124   3.664   0.140   6.107  0.0322 -0.3701  0.2633
 8221SOL    HW136125   3.721   0.079   6.061  1.2396  2.4560 -1.9901
 8221SOL    HW236126   3.614   0.075   6.157  0.0035 -1.5460 -1.2871
 8222SOL     OW36127   0.544   3.694  10.369 -0.5509 -0.0567 -0.2129
 8222SOL    HW136128   0.500   3.676  10.452  0.3427  1.7856  0.6851
 8222SOL    HW236129   0.511   3.784  10.363 -0.2347  0.0452 -0.4653
 8223SOL     OW36130   0.536   3.738   8.858  0.3282 -0.3623 -0.4367
 8223SOL    HW136131   0.534   3.750   8.763 -0.5478 -0.9102 -0.4994
 8223SOL    HW236132   0.630   3.732   8.875  0.4419  2.6863  0.0082
 8224SOL     OW36133   1.941   2.874   6.825  0.7559  0.1572 -0.1690
 8224SOL    HW136134   1.955   2.794   6.775 -0.5264 -0.0967 -0.1206
 8224SOL    HW236135   1.995   2.941   6.783  1.6639  0.8063  2.0024
 8225SOL     OW36136   1.503   2.303   3.194  0.1833 -0.6445  0.0719
 8225SOL    HW136137   1.545   2.261   3.118 -0.9066 -3.6374  1.1099
 8225SOL    HW236138   1.535   2.245   3.262  0.5974 -0.5732 -0.0607
 8226SOL     OW36139   1.042   0.366   8.486 -0.3927 -0.6539  0.8335
 8226SOL    HW136140   1.058   0.375   8.580  0.8670  2.9100  0.3072
 8226SOL    HW236141   0.955   0.326   8.482 -1.0016  0.8617 -1.0245
 8227SOL     OW36142   3.663   3.667   0.941  0.0809 -0.1175 -0.1520
 8227SOL    HW136143   3.649   3.613   1.019 -1.6863 -3.2899 -2.7099
 8227SOL    HW236144   3.737   3.623   0.900 -1.3331 -0.9260 -1.8641
 8228SOL     OW36145   0.888   2.664   6.547 -0.2128  0.5768  0.3901
 8228SOL    HW136146   0.857   2.695   6.632 -0.9060  2.1808 -0.4390
 8228SOL    HW236147   0.828   2.591   6.533  0.4033  0.6788 -2.7225
 8229SOL     OW36148   0.609   2.232   1.339  0.0747  0.2550 -0.8440
 8229SOL    HW136149   0.602   2.320   1.376  4.1349  0.8199 -1.4431
 8229SOL    HW236150   0.533   2.229   1.282 -1.3927  0.3112  1.1091
 8230SOL     OW36151   1.312   3.698   6.651  0.0429 -0.1369 -0.0400
 8230SOL    HW136152   1.282   3.757   6.582  0.3169 -0.5765 -0.5364
 8230SOL    HW236153   1.237   3.657   6.693 -1.2010  2.9479  0.7164
 8231SOL     OW36154   0.608   2.193   2.000 -0.1881 -0.2807  0.2814
 8231SOL    HW136155   0.544   2.124   2.015  0.3748 -1.5679 -3.2595
 8231SOL    HW236156   0.577   2.229   1.917  1.5283 -0.5398 -0.4748
 8232SOL     OW36157   1.849   1.020   8.841  0.2210 -0.2121 -0.0976
 8232SOL    HW136158   1.769   0.974   8.868  0.5627 -1.5909 -1.4498
 8232SOL    HW236159   1.862   1.077   8.917 -1.4131 -1.2507  0.9649
 8233SOL     OW36160   3.801   1.058   3.471  0.3130 -0.3666 -0.0257
 8233SOL    HW136161   3.761   1.026   3.552 -1.3016 -0.5722 -0.9033
 8233SOL    HW236162   3.846   0.980   3.439  1.2849 -0.0008  0.4464
 8234SOL     OW36163   4.130   3.241   7.708 -0.3819  0.2653  0.6921
 8234SOL    HW136164   4.182   3.187   7.649  1.0066  2.0563  0.2717
 8234SOL    HW236165   4.042   3.243   7.670 -0.2912  1.1000  0.5271
 8235SOL     OW36166   1.200   1.587   5.702 -0.3486  0.3725 -0.1546
 8235SOL    HW136167   1.154   1.561   5.623 -1.2474  0.4491  0.3411
 8235SOL    HW236168   1.165   1.522   5.764 -1.5623 -0.3977 -1.6542
 8236SOL     OW36169   0.988   2.066  16.610 -0.3823  0.7622 -0.3001
 8236SOL    HW136170   1.053   2.094  16.674  0.3238  0.4494 -0.8850
 8236SOL    HW236171   0.920   2.022  16.661 -0.3257  0.6267 -0.3437
 8237SOL     OW36172   1.654   1.249   7.263  0.3244 -0.2452 -0.2236
 8237SOL    HW136173   1.566   1.271   7.295 -0.0135 -0.4791 -0.9780
 8237SOL    HW236174   1.687   1.213   7.345  0.4395  0.8387  0.2040
 8238SOL     OW36175   4.365   2.067   2.647 -0.4797  0.4317  0.1319
 8238SOL    HW136176   4.438   2.022   2.605 -0.1709  0.5086  0.5875
 8238SOL    HW236177   4.283   2.049   2.600  0.9003 -1.4737 -1.5257
 8239SOL     OW36178   1.573   0.741   1.255 -0.0876  0.2467  0.0495
 8239SOL    HW136179   1.550   0.796   1.180  2.5519 -0.4820 -1.2906
 8239SOL    HW236180   1.656   0.706   1.222 -0.2571  1.3189 -1.5208
 8240SOL     OW36181   3.168   1.969  14.076  0.1779 -0.1522  0.0369
 8240SOL    HW136182   3.264   1.975  14.079  0.1277 -0.2161  1.6095
 8240SOL    HW236183   3.154   1.881  14.110 -0.0131 -0.7736 -1.6502
 8241SOL     OW36184   2.213   0.512  10.213 -0.5949 -0.1271  0.3137
 8241SOL    HW136185   2.261   0.521  10.295 -0.5858  0.4930  0.2428
 8241SOL    HW236186   2.134   0.563  10.230  0.2193  1.3636 -0.3264
 8242SOL     OW36187   3.306   1.394   1.324  0.1395 -0.3382 -0.5009
 8242SOL    HW136188   3.328   1.318   1.378 -0.9154 -0.7401 -0.6345
 8242SOL    HW236189   3.269   1.348   1.249  1.8806 -1.0602 -0.9081
 8243SOL     OW36190   0.636   1.966   6.732 -0.3771 -0.2641 -0.2510
 8243SOL    HW136191   0.628   2.011   6.817 -0.3013  0.5737 -0.6863
 8243SOL    HW236192   0.548   1.980   6.698 -0.3755  0.0801 -0.1124
 8244SOL     OW36193   4.047   0.155   3.030  0.6874  0.0916  0.1408
 8244SOL    HW136194   4.037   0.228   2.968 -2.7317  0.6058  1.3276
 8244SOL    HW236195   4.047   0.087   2.963 -0.6398  1.3231 -1.1014
 8245SOL     OW36196   0.442   0.820   1.219  0.4740  1.0070 -0.2251
 8245SOL    HW136197   0.388   0.810   1.297 -0.7982 -0.4282 -1.3129
 8245SOL    HW236198   0.524   0.842   1.265  1.1570 -0.4885 -0.7309
 8246SOL     OW36199   0.815   4.608  12.578  0.5390  0.0122  0.2003
 8246SOL    HW136200   0.873   4.651  12.515  2.9300 -1.3573  1.4686
 8246SOL    HW236201   0.808   4.670  12.649 -1.0562 -1.1010  1.0167
 8247SOL     OW36202   2.024   3.431   7.319  0.1455 -0.1957  0.1345
 8247SOL    HW136203   2.016   3.525   7.302 -0.5572 -0.3335 -0.3061
 8247SOL    HW236204   1.934   3.404   7.299 -0.5370  1.3196  1.0833
 8248SOL     OW36205   4.685   0.640   9.101 -0.7402  0.1835  0.0361
 8248SOL    HW136206   4.640   0.684   9.173 -1.4844 -1.0825  0.3390
 8248SOL    HW236207   4.692   0.718   9.045 -1.1880  0.5228  0.4537
 8249SOL     OW36208   0.319   3.767   7.280  0.3835 -0.1835 -0.0472
 8249SOL    HW136209   0.326   3.827   7.354  0.9286  1.4282 -1.3861
 8249SOL    HW236210   0.408   3.732   7.289  1.1999  1.4016 -1.7422
 8250SOL     OW36211   1.887   4.407   6.991  0.3202 -0.4430 -0.7602
 8250SOL    HW136212   1.830   4.409   6.914  0.1401 -1.0863 -0.6406
 8250SOL    HW236213   1.927   4.493   6.980 -1.1743  0.2191 -1.1116
 8251SOL     OW36214   4.707   3.545   2.609  0.5262  0.2803 -0.4076
 8251SOL    HW136215   4.626   3.526   2.561 -0.8944 -0.7095  2.4095
 8251SOL    HW236216   0.008   3.452   2.618  1.0807  0.2684 -1.8035
 8252SOL     OW36217   3.023   3.804   2.016 -0.6278  0.4750  0.4082
 8252SOL    HW136218   2.978   3.812   2.100 -2.5369  0.0419 -0.5862
 8252SOL    HW236219   3.036   3.898   2.008  4.5795 -0.3301 -0.8544
 8253SOL     OW36220   1.168   3.351   5.610  0.2764 -0.8179 -0.2060
 8253SOL    HW136221   1.140   3.439   5.635  2.6869 -1.0294  3.1797
 8253SOL    HW236222   1.125   3.296   5.676  0.3980 -0.1314  0.4394
 8254SOL     OW36223   1.533   0.551   4.888 -0.1376 -0.3237  0.0023
 8254SOL    HW136224   1.518   0.516   4.800  0.6124  1.2695 -0.7753
 8254SOL    HW236225   1.627   0.569   4.894 -0.5381  1.8358 -0.1155
 8255SOL     OW36226   2.993   0.667   0.652  0.9075  0.2004 -0.2373
 8255SOL    HW136227   2.927   0.683   0.720  0.6636  0.0664 -0.4443
 8255SOL    HW236228   2.958   0.598   0.596 -0.0511 -0.1502  0.7930
 8256SOL     OW36229   2.158   0.566   5.226  0.4008  0.2723  0.2269
 8256SOL    HW136230   2.172   0.501   5.294 -0.7940  1.3489  1.5001
 8256SOL    HW236231   2.063   0.576   5.233  0.6731  2.2902  1.1890
 8257SOL     OW36232   0.706   0.578   0.579 -0.1548 -0.3361 -0.1703
 8257SOL    HW136233   0.724   0.511   0.513  0.0253  0.1842 -0.6501
 8257SOL    HW236234   0.630   0.627   0.547  1.0638  0.8281 -1.3196
 8258SOL     OW36235   2.742   0.911   3.015  0.2146  0.4638 -0.2854
 8258SOL    HW136236   2.784   0.963   2.946  2.0780  0.8065  1.1153
 8258SOL    HW236237   2.694   0.851   2.958  1.4166 -0.2902 -0.5097
 8259SOL     OW36238   3.228   1.735   4.129  0.6833 -0.6344 -0.6089
 8259SOL    HW136239   3.141   1.709   4.159  1.5557 -2.7351  0.0639
 8259SOL    HW236240   3.254   1.664   4.072  0.4268 -0.7413 -0.5945
 8260SOL     OW36241   4.501   3.778   7.550  0.2597  0.5912 -0.6709
 8260SOL    HW136242   4.444   3.766   7.626  0.5696 -0.0098 -0.5273
 8260SOL    HW236243   4.463   3.729   7.478  0.7823  0.3004 -0.7504
 8261SOL     OW36244   4.574   4.247  13.283 -0.0766 -0.3196  0.4002
 8261SOL    HW136245   4.632   4.239  13.207 -0.2856  1.2130  0.0789
 8261SOL    HW236246   4.620   4.314  13.335  0.2388 -0.3126  0.1162
 8262SOL     OW36247   1.674   2.543  14.341  0.1839  0.1484  0.3691
 8262SOL    HW136248   1.766   2.537  14.366 -0.5773  0.1690  3.1714
 8262SOL    HW236249   1.656   2.454  14.309  1.4720  0.2270 -0.5937
 8263SOL     OW36250   4.173   4.632   7.540 -0.1718 -0.3543 -0.3417
 8263SOL    HW136251   4.193   4.542   7.516  2.2195  0.2837 -0.7793
 8263SOL    HW236252   4.093   4.646   7.490 -0.1467 -1.5896 -0.7137
 8264SOL     OW36253   1.826   0.850   1.507 -0.2716 -0.0733  0.0885
 8264SOL    HW136254   1.899   0.809   1.553  1.1686  2.5408  0.1711
 8264SOL    HW236255   1.761   0.781   1.515  0.9650 -1.2546 -0.0828
 8265SOL     OW36256   3.678   4.540   7.887  1.0354 -0.0565  0.0950
 8265SOL    HW136257   3.725   4.509   7.964  2.3171 -0.4905 -0.8675
 8265SOL    HW236258   3.723   4.497   7.815  2.1014  0.8953  0.1934
 8266SOL     OW36259   0.618   1.455   8.525 -0.2091 -0.0175  0.5929
 8266SOL    HW136260   0.565   1.403   8.465  1.4580 -0.2590 -0.6680
 8266SOL    HW236261   0.575   1.541   8.519  0.4366  0.3852  1.7785
 8267SOL     OW36262   0.301   1.469   2.412 -0.1455 -0.3152 -0.6100
 8267SOL    HW136263   0.309   1.377   2.436  0.2526 -0.3030 -0.6871
 8267SOL    HW236264   0.344   1.517   2.483 -0.3728  0.3624 -0.9366
 8268SOL     OW36265   1.251   2.558   5.941 -0.3606  0.4802 -0.1701
 8268SOL    HW136266   1.228   2.465   5.950  3.0044 -0.1671  2.1771
 8268SOL    HW236267   1.168   2.605   5.935 -1.0680 -0.7681 -0.0857
 8269SOL     OW36268   3.789   2.843   4.350  0.4463 -0.1894 -0.0504
 8269SOL    HW136269   3.793   2.935   4.378  0.4936  0.0372 -0.7884
 8269SOL    HW236270   3.729   2.813   4.418 -0.8599  1.3837 -0.4880
 8270SOL     OW36271   2.628   1.416   2.870  0.7142 -0.4101 -0.5990
 8270SOL    HW136272   2.606   1.391   2.780 -0.9878  0.9909 -0.5538
 8270SOL    HW236273   2.718   1.443   2.851  0.2780  0.9031 -0.7743
 8271SOL     OW36274   3.828   3.319   3.775  0.2651 -0.3369 -0.4533
 8271SOL    HW136275   3.864   3.234   3.799  1.6641  0.5814  0.7080
 8271SOL    HW236276   3.776   3.300   3.697 -3.3162  0.0820  1.8230
 8272SOL     OW36277   2.917   0.196   7.683  0.0683  0.1772 -0.1681
 8272SOL    HW136278   2.910   0.291   7.698 -0.4734 -0.1369  1.6269
 8272SOL    HW236279   2.831   0.155   7.688  0.2407  0.2062  3.1162
 8273SOL     OW36280   3.945   0.016   2.520 -0.3551  0.3353  0.2551
 8273SOL    HW136281   3.961   0.095   2.572  2.9346  0.2640 -0.6498
 8273SOL    HW236282   3.892   4.681   2.579  0.3875  1.0799  1.6238
 8274SOL     OW36283   0.403   1.008   1.654  0.1042 -0.2918  0.4020
 8274SOL    HW136284   0.317   1.012   1.697 -1.5106  1.1202 -2.9424
 8274SOL    HW236285   0.461   1.017   1.730  0.1366  2.5368  0.0307
 8275SOL     OW36286   1.756   3.166  13.720 -0.3685 -0.1178  0.7050
 8275SOL    HW136287   1.778   3.258  13.705 -0.3456 -0.5135 -1.5878
 8275SOL    HW236288   1.839   3.142  13.760 -0.5425 -1.8018  0.0332
 8276SOL     OW36289   0.050   1.813   4.853 -0.5130 -0.1487  0.4001
 8276SOL    HW136290   4.676   1.793   4.845  0.4875 -3.5191 -2.7609
 8276SOL    HW236291   0.060   1.857   4.938 -2.6238 -1.2993  1.2630
 8277SOL     OW36292   2.406   1.365   8.612 -0.3781 -0.6863  0.1295
 8277SOL    HW136293   2.475   1.305   8.583 -0.8574 -1.3241  0.3211
 8277SOL    HW236294   2.431   1.448   8.571 -1.0536  0.5758  2.2826
 8278SOL     OW36295   0.121   3.809   4.592 -0.0043 -0.5057  0.0156
 8278SOL    HW136296   0.073   3.728   4.608  0.7781 -0.6830  1.4489
 8278SOL    HW236297   0.195   3.792   4.650 -0.0553  3.7147  1.3492
 8279SOL     OW36298   3.029   3.478   2.132  0.1782  0.7435  0.0491
 8279SOL    HW136299   3.118   3.444   2.131 -0.3517 -0.6817  1.2244
 8279SOL    HW236300   2.994   3.417   2.068 -1.3766  1.3597  0.3007
 8280SOL     OW36301   2.445   3.435   1.241  0.3297 -0.4644  0.2154
 8280SOL    HW136302   2.453   3.408   1.332 -0.8229  1.0808  0.7738
 8280SOL    HW236303   2.429   3.527   1.261  2.9660 -0.1626  0.9730
 8281SOL     OW36304   4.048   4.693   8.715  0.0247 -0.1208  0.8688
 8281SOL    HW136305   4.044   4.712   8.809  0.1816  1.5174  0.5392
 8281SOL    HW236306   4.128   0.016   8.685 -0.3096 -1.2534 -1.6144
 8282SOL     OW36307   0.172   2.240   5.136  0.2846 -0.3022 -0.9396
 8282SOL    HW136308   0.105   2.307   5.120  0.2116 -0.3236 -0.7224
 8282SOL    HW236309   0.248   2.285   5.101 -0.2023  1.4848  0.3030
 8283SOL     OW36310   2.038   1.309   5.864 -0.2365 -0.0067  0.2712
 8283SOL    HW136311   2.048   1.405   5.863  1.2993 -0.1816 -1.5441
 8283SOL    HW236312   1.953   1.314   5.821 -0.5222  3.6559  1.2436
 8284SOL     OW36313   3.094   0.022   7.324  0.1185  0.0385 -0.9901
 8284SOL    HW136314   2.999   0.035   7.322  0.4153  2.2000 -1.5477
 8284SOL    HW236315   3.115   0.026   7.417  0.1346  0.7919 -1.0244
 8285SOL     OW36316   3.300   1.108  12.916 -0.3148  0.3406 -0.5154
 8285SOL    HW136317   3.322   1.198  12.890  0.4652  0.1310 -0.5760
 8285SOL    HW236318   3.387   1.069  12.907  0.1933  1.3768 -0.0733
 8286SOL     OW36319   0.638   2.614   2.694  0.2195 -0.4268  0.0868
 8286SOL    HW136320   0.581   2.583   2.623 -0.1926 -0.9734  0.6563
 8286SOL    HW236321   0.691   2.537   2.717 -1.1211 -1.3383  0.1378
 8287SOL     OW36322   2.137   2.045   1.370  0.3488  0.3499 -0.1162
 8287SOL    HW136323   2.142   1.992   1.290 -3.6424  1.1959 -0.8896
 8287SOL    HW236324   2.071   2.004   1.425 -1.4465  0.8525 -1.9094
 8288SOL     OW36325   3.561   0.647   5.510  0.5090  0.0480  0.0678
 8288SOL    HW136326   3.622   0.583   5.547  2.0426  0.6572 -1.4104
 8288SOL    HW236327   3.551   0.623   5.418 -1.2915  1.1986 -0.0540
 8289SOL     OW36328   3.259   2.206   6.781  0.2309  0.0389  0.1684
 8289SOL    HW136329   3.171   2.232   6.807  1.1243  2.0551  1.2169
 8289SOL    HW236330   3.284   2.160   6.861  0.1503  1.6853  1.1420
 8290SOL     OW36331   3.229   2.269   7.727  0.4134 -0.4185  0.4032
 8290SOL    HW136332   3.179   2.336   7.772 -1.3269 -0.8228 -0.9325
 8290SOL    HW236333   3.232   2.197   7.790  0.1886 -1.0959 -0.3578
 8291SOL     OW36334   0.165   2.712  15.693 -0.6765 -0.1705 -0.3070
 8291SOL    HW136335   0.243   2.677  15.650 -0.3202  1.0784 -0.6943
 8291SOL    HW236336   0.107   2.641  15.668 -0.2401 -0.6275 -0.0330
 8292SOL     OW36337   1.102   4.019   5.765 -0.1169  0.3826  0.5971
 8292SOL    HW136338   1.163   4.016   5.692 -0.1448 -0.2513  0.5993
 8292SOL    HW236339   1.037   4.084   5.736  1.4164  0.1259 -3.3465
 8293SOL     OW36340   0.705   4.127   9.386  0.5674  0.5681 -0.1969
 8293SOL    HW136341   0.733   4.059   9.325  1.8671  1.2890 -0.3997
 8293SOL    HW236342   0.755   4.200   9.349  0.6104  0.8798  0.4940
 8294SOL     OW36343   3.916   0.784  12.916 -0.2230  0.4424  0.1825
 8294SOL    HW136344   3.846   0.720  12.903 -1.1448  1.3888  0.4625
 8294SOL    HW236345   3.982   0.742  12.972  0.0068 -1.1252 -1.2566
 8295SOL     OW36346   0.089   0.497   5.515 -0.2468  0.4701  0.1489
 8295SOL    HW136347   0.175   0.487   5.473 -0.3923 -1.0208  0.2210
 8295SOL    HW236348   0.127   0.520   5.600 -0.6326  1.8030 -0.0308
 8296SOL     OW36349   3.657   2.393   7.314  0.0504 -0.1221 -0.3656
 8296SOL    HW136350   3.648   2.302   7.342 -0.9038 -0.3197 -1.3187
 8296SOL    HW236351   3.581   2.428   7.360  0.2012  1.8122 -1.6053
 8297SOL     OW36352   1.218   2.886   6.103  0.3777  0.0451 -0.3011
 8297SOL    HW136353   1.155   2.827   6.062  0.2692  1.3906 -2.0522
 8297SOL    HW236354   1.257   2.933   6.030  0.4890 -2.3245 -1.7836
 8298SOL     OW36355   2.636   3.073  17.570 -0.1477  0.3176 -0.3984
 8298SOL    HW136356   2.581   3.152  17.567 -1.3806 -0.5899 -1.7672
 8298SOL    HW236357   2.724   3.094  17.601  0.2052 -3.9332  1.4447
 8299SOL     OW36358   0.572   0.672   6.495 -0.0749 -0.4393  0.1164
 8299SOL    HW136359   0.600   0.630   6.577  3.1071  1.6217  0.0659
 8299SOL    HW236360   0.499   0.616   6.467 -0.3459 -0.3140  0.5738
 8300SOL     OW36361   0.764   1.757   8.348 -0.1572 -0.0224 -0.1049
 8300SOL    HW136362   0.786   1.847   8.370  0.2803 -0.8212  2.7859
 8300SOL    HW236363   0.766   1.725   8.438 -2.2430 -0.7721 -0.3248
 8301SOL     OW36364   3.830   0.144   3.595 -0.0064  0.0486  0.6276
 8301SOL    HW136365   3.902   0.135   3.532 -1.6124  0.7822 -1.3226
 8301SOL    HW236366   3.754   0.110   3.548  1.2152  0.5475 -1.7463
 8302SOL     OW36367   1.122   2.177   7.746 -0.1383 -0.3899  0.3394
 8302SOL    HW136368   1.096   2.136   7.663  0.6851 -0.1563 -0.0351
 8302SOL    HW236369   1.141   2.100   7.800  0.2468 -0.2950  0.3418
 8303SOL     OW36370   0.473   3.919   6.103  0.0754 -0.0291  0.4648
 8303SOL    HW136371   0.515   3.855   6.160 -1.6395 -0.9309  0.7292
 8303SOL    HW236372   0.381   3.912   6.128 -0.0089  0.9929  0.4173
 8304SOL     OW36373   3.562   2.166   7.418 -0.1446 -0.1693 -0.4338
 8304SOL    HW136374   3.529   2.195   7.503 -3.4033 -1.4902 -1.2445
 8304SOL    HW236375   3.622   2.097   7.448  0.7672  0.0926 -1.6613
 8305SOL     OW36376   3.521   1.805   3.030  0.0984  0.6524 -0.2277
 8305SOL    HW136377   3.455   1.823   2.964 -0.2636  0.9868  0.2287
 8305SOL    HW236378   3.568   1.888   3.024  2.6071 -0.7525 -0.2919
 8306SOL     OW36379   1.668   1.538   8.190  0.3615 -0.7188 -0.1933
 8306SOL    HW136380   1.580   1.505   8.208  1.6333 -3.4182  1.0877
 8306SOL    HW236381   1.714   1.529   8.273  1.1127 -0.4471 -0.5806
 8307SOL     OW36382   0.268   1.823   7.442  0.3628 -0.3568  0.0977
 8307SOL    HW136383   0.228   1.908   7.457  0.7695  0.1403 -1.6484
 8307SOL    HW236384   0.259   1.798   7.351  0.4333  1.6313 -0.4516
 8308SOL     OW36385   1.218   2.633   1.539 -0.3954  0.1677 -0.2574
 8308SOL    HW136386   1.225   2.702   1.472  0.4916  0.4974  0.1739
 8308SOL    HW236387   1.277   2.660   1.610 -1.7704 -0.6995  1.2042
 8309SOL     OW36388   2.767   0.235   0.241  0.0620  0.0036 -0.0241
 8309SOL    HW136389   2.730   0.211   0.156 -3.0914 -0.2951  1.4323
 8309SOL    HW236390   2.851   0.276   0.222  0.2539 -0.9775 -1.3372
 8310SOL     OW36391   4.449   3.124   9.369 -0.6161  0.4810  0.0693
 8310SOL    HW136392   4.478   3.202   9.416  0.4761 -0.0450  0.2850
 8310SOL    HW236393   4.436   3.058   9.437  0.5925 -0.7100 -0.8662
 8311SOL     OW36394   4.011   1.136   6.934  0.1152 -0.0585 -0.3597
 8311SOL    HW136395   4.018   1.229   6.911 -1.2439 -0.1152 -1.0485
 8311SOL    HW236396   4.074   1.144   7.006 -0.0018 -1.0662 -0.1411
 8312SOL     OW36397   0.169   4.258   5.165 -0.0616 -0.1671 -0.0871
 8312SOL    HW136398   0.134   4.282   5.250 -0.6001 -0.9997 -0.0745
 8312SOL    HW236399   0.258   4.293   5.168 -0.9257  2.0415 -0.4599
 8313SOL     OW36400   1.769   3.371   9.931  0.0424  0.3927  0.0915
 8313SOL    HW136401   1.777   3.342   9.840 -1.1026 -0.0448  0.1282
 8313SOL    HW236402   1.831   3.444   9.941  1.1807 -0.1848 -2.6194
 8314SOL     OW36403   3.070   0.353   3.542 -0.6401  0.2745 -0.3840
 8314SOL    HW136404   3.003   0.368   3.608  1.2984  1.5421  1.2763
 8314SOL    HW236405   3.023   0.292   3.484 -1.5874  1.2784 -0.6729
 8315SOL     OW36406   3.729   3.004   3.748 -0.3319  0.0049  0.2679
 8315SOL    HW136407   3.655   3.003   3.808 -0.3932 -0.9466  0.1729
 8315SOL    HW236408   3.811   3.020   3.794  0.1740  0.0161 -0.6264
 8316SOL     OW36409   4.350   4.434   1.423 -0.1942 -0.4565  0.2508
 8316SOL    HW136410   4.265   4.431   1.379 -1.0321 -3.0436  2.0701
 8316SOL    HW236411   4.338   4.375   1.497  0.6838 -0.4541  0.3964
 8317SOL     OW36412   3.301   0.465  10.636  0.1678  0.3629  0.1224
 8317SOL    HW136413   3.223   0.508  10.600 -0.4833 -1.0278 -0.1056
 8317SOL    HW236414   3.333   0.528  10.701 -1.6733 -0.0422  1.4162
 8318SOL     OW36415   4.348   1.615  13.423 -1.0127  0.9277  0.3799
 8318SOL    HW136416   4.329   1.542  13.365 -0.0852  0.0493  1.1668
 8318SOL    HW236417   4.271   1.672  13.416 -1.4886  0.1571 -0.5865
 8319SOL     OW36418   1.255   3.773   5.190  0.3810 -0.4352  0.4811
 8319SOL    HW136419   1.310   3.813   5.123 -0.3352  0.0988  0.2103
 8319SOL    HW236420   1.248   3.687   5.149  0.7110 -1.0393  1.6894
 8320SOL     OW36421   2.960   2.195   6.449 -0.3431  0.1224  0.4039
 8320SOL    HW136422   2.919   2.221   6.531  1.7599  0.9547  1.1736
 8320SOL    HW236423   2.960   2.100   6.440 -0.2762  0.0956  0.7173
 8321SOL     OW36424   3.318   4.475   4.807  0.2009  0.4748 -0.1729
 8321SOL    HW136425   3.314   4.493   4.901  2.4485  0.2451 -0.0227
 8321SOL    HW236426   3.355   4.386   4.801  2.0177  1.1890  0.3500
 8322SOL     OW36427   1.260   2.183   0.727 -0.2776 -0.0888  0.0142
 8322SOL    HW136428   1.336   2.229   0.762  0.6726  0.5325 -2.8873
 8322SOL    HW236429   1.258   2.120   0.799  0.4774  2.9123  2.6128
 8323SOL     OW36430   2.385   3.698   5.970  0.2695 -0.2046 -0.1698
 8323SOL    HW136431   2.449   3.709   6.040 -0.6046  0.8266  0.4837
 8323SOL    HW236432   2.379   3.788   5.938  2.4197  0.0969  0.3111
 8324SOL     OW36433   0.306   4.378   6.019 -0.3965 -0.5185 -0.1986
 8324SOL    HW136434   0.239   4.310   6.017 -1.9969  1.1224 -1.5855
 8324SOL    HW236435   0.384   4.327   6.043  0.1938  0.4967  0.0244
 8325SOL     OW36436   1.922   2.269   0.962 -0.1788 -0.0009  0.0139
 8325SOL    HW136437   1.849   2.221   1.001  0.5136 -0.6734  0.4793
 8325SOL    HW236438   1.929   2.241   0.871 -0.3676  1.2594 -0.3895
 8326SOL     OW36439   0.350   2.972   6.408 -0.0398 -0.4358  0.0276
 8326SOL    HW136440   0.295   2.895   6.419 -0.9100  0.1991  0.1705
 8326SOL    HW236441   0.319   3.018   6.329  0.0133 -1.2076 -0.4412
 8327SOL     OW36442   0.467   1.501   0.909  0.5611  0.2617 -0.4578
 8327SOL    HW136443   0.512   1.510   0.993 -0.3605  2.1687 -0.1711
 8327SOL    HW236444   0.378   1.531   0.928  0.4869  0.0120 -0.4097
 8328SOL     OW36445   1.424   4.154   4.104  0.3627 -0.0550  0.3156
 8328SOL    HW136446   1.329   4.146   4.115 -0.0323  3.2241 -0.7069
 8328SOL    HW236447   1.431   4.232   4.049  0.1762  0.2166  0.6828
 8329SOL     OW36448   1.390   2.883  13.563  0.2366  0.6309  0.6099
 8329SOL    HW136449   1.393   2.881  13.659 -2.0257 -0.8415  0.6702
 8329SOL    HW236450   1.478   2.917  13.548  0.6679 -0.8395 -0.2655
 8330SOL     OW36451   4.387   2.709   7.210 -0.2806 -0.5813 -0.4226
 8330SOL    HW136452   4.350   2.771   7.147 -0.9631  1.5342  2.0577
 8330SOL    HW236453   4.477   2.708   7.177 -0.6862  0.6370 -1.5711
 8331SOL     OW36454   4.706   3.265  14.665  0.2686 -0.0002 -0.0966
 8331SOL    HW136455   0.037   3.340  14.698  0.4911  0.0525 -0.5662
 8331SOL    HW236456   4.622   3.296  14.699  0.3431 -0.6392  0.6735
 8332SOL     OW36457   0.372   1.618  17.009 -0.2152 -0.4120  0.0725
 8332SOL    HW136458   0.382   1.534  16.963  2.4452  0.1964 -0.4681
 8332SOL    HW236459   0.309   1.597  17.078 -1.9833 -2.2174 -2.0856
 8333SOL     OW36460   1.114   1.800   8.267  0.2887 -1.0297  0.0609
 8333SOL    HW136461   1.127   1.765   8.355 -0.8560  0.7414  0.9446
 8333SOL    HW236462   1.087   1.724   8.216 -0.6992 -0.7997  0.2383
 8334SOL     OW36463   4.079   2.552   1.219 -0.0619 -0.0952 -0.1357
 8334SOL    HW136464   3.988   2.573   1.198  0.1794  0.6466 -0.4133
 8334SOL    HW236465   4.071   2.459   1.243  2.3994 -0.2319  0.1163
 8335SOL     OW36466   0.283   1.886   5.414  0.4675 -0.8446 -0.3095
 8335SOL    HW136467   0.248   1.842   5.492  2.5960 -0.8236  0.6477
 8335SOL    HW236468   0.223   1.875   5.340  0.1709 -0.1962 -0.1621
 8336SOL     OW36469   2.687   3.171  11.283 -0.1663 -0.0323 -0.1716
 8336SOL    HW136470   2.631   3.136  11.214  0.4542  1.4395 -1.4312
 8336SOL    HW236471   2.720   3.255  11.250 -2.6383  0.8577 -0.3460
 8337SOL     OW36472   4.709   2.622   5.940  0.2535  0.5418  0.1712
 8337SOL    HW136473   0.027   2.537   5.964  0.8103  1.0752  1.1980
 8337SOL    HW236474   4.619   2.592   5.929  0.3763  1.0993 -2.3736
 8338SOL     OW36475   2.572   4.237   8.748  0.0791  0.3880 -0.0107
 8338SOL    HW136476   2.589   4.306   8.812  2.0944  1.5003 -1.7558
 8338SOL    HW236477   2.478   4.239   8.767  0.0657 -0.3188 -0.0074
 8339SOL     OW36478   2.228   2.238   9.481  0.2036  0.1624 -0.0020
 8339SOL    HW136479   2.165   2.304   9.508  1.5669  2.7794 -3.3470
 8339SOL    HW236480   2.177   2.190   9.416  2.5139  0.7171 -2.2068
 8340SOL     OW36481   2.407   4.710  13.636 -0.0501  0.1594  0.0417
 8340SOL    HW136482   2.482   0.042  13.666 -0.5322  0.2215  1.1281
 8340SOL    HW236483   2.447   4.692  13.551  0.5857  1.4361  0.0738
 8341SOL     OW36484   1.486   1.165   5.879  0.9207 -0.7887  0.1327
 8341SOL    HW136485   1.501   1.073   5.899 -0.9039 -1.0423  0.3628
 8341SOL    HW236486   1.556   1.214   5.921  1.0822 -1.0483  0.1683
 8342SOL     OW36487   0.814   4.213  13.813  0.5134 -0.0672 -0.3798
 8342SOL    HW136488   0.775   4.193  13.728 -0.9260  0.0330  0.2674
 8342SOL    HW236489   0.806   4.308  13.817 -1.6855 -0.2670 -0.2365
 8343SOL     OW36490   1.918   3.634   2.953 -0.2895  0.2683  0.4881
 8343SOL    HW136491   1.960   3.554   2.986 -0.0147 -0.9499 -2.7082
 8343SOL    HW236492   1.866   3.594   2.883  0.5289 -0.6312  0.3801
 8344SOL     OW36493   1.512   0.600   1.738 -0.5563 -0.0902  0.0324
 8344SOL    HW136494   1.454   0.669   1.706 -0.7407  0.0513  0.6768
 8344SOL    HW236495   1.583   0.597   1.674  0.2589 -0.2006  0.9387
 8345SOL     OW36496   2.392   4.639   7.394  0.0606  0.6000  0.3968
 8345SOL    HW136497   2.473   4.610   7.353 -0.6087 -1.1960  0.3296
 8345SOL    HW236498   2.374   4.575   7.463  1.1088  1.2564  1.2837
 8346SOL     OW36499   0.531   2.553   0.556  0.1644 -0.3703 -0.3852
 8346SOL    HW136500   0.519   2.458   0.551 -1.2791 -0.0098 -3.7728
 8346SOL    HW236501   0.587   2.557   0.633  0.6941  1.9769 -0.9067
 8347SOL     OW36502   0.766   0.570   4.791  0.0983  0.4742  0.5133
 8347SOL    HW136503   0.794   0.604   4.876  1.0616  2.6584 -0.6812
 8347SOL    HW236504   0.825   0.619   4.734 -0.4736 -0.0658 -0.5426
 8348SOL     OW36505   0.955   4.450   2.573  0.5951  0.1572 -0.1125
 8348SOL    HW136506   0.983   4.358   2.580  0.0108  0.1512  1.8980
 8348SOL    HW236507   0.910   4.446   2.488  0.7310 -0.5495 -0.1523
 8349SOL     OW36508   0.471   3.161   5.455  0.6997 -0.4959  0.1541
 8349SOL    HW136509   0.394   3.213   5.481  0.1629 -1.5270  0.6241
 8349SOL    HW236510   0.487   3.201   5.370 -0.2188 -1.9299 -0.6977
 8350SOL     OW36511   0.752   0.772  10.187 -0.6382 -0.2542  0.7083
 8350SOL    HW136512   0.684   0.827  10.147  0.1397 -0.5321 -0.9673
 8350SOL    HW236513   0.796   0.746  10.107 -0.5984 -0.3461  0.7602
 8351SOL     OW36514   0.103   3.115  11.823  0.7243 -0.3220 -0.0025
 8351SOL    HW136515   0.013   3.081  11.828 -0.1624  1.7390 -2.0614
 8351SOL    HW236516   0.100   3.138  11.730 -2.4348  2.8084  0.8565
 8352SOL     OW36517   0.364   0.165   8.759 -0.3994 -0.1427 -0.0713
 8352SOL    HW136518   0.305   0.230   8.722  0.6832  0.1812 -1.2402
 8352SOL    HW236519   0.334   0.170   8.849  0.9615 -0.8237  0.4157
 8353SOL     OW36520   4.018   2.162   6.269  0.5113 -0.3573  0.0770
 8353SOL    HW136521   4.055   2.076   6.251 -1.0443 -1.0753  0.2821
 8353SOL    HW236522   3.942   2.144   6.213  0.6117 -2.5215  0.6270
 8354SOL     OW36523   1.782   0.733  10.151 -0.2187  0.1686  0.1200
 8354SOL    HW136524   1.814   0.649  10.185 -1.5937 -1.2272 -2.0570
 8354SOL    HW236525   1.863   0.770  10.116 -0.5172  1.3591  0.6979
 8355SOL     OW36526   0.752   0.255   4.246 -0.0609 -0.5505 -0.1459
 8355SOL    HW136527   0.764   0.206   4.327  0.7052 -0.2261 -0.0661
 8355SOL    HW236528   0.735   0.177   4.193  2.5779  0.8729 -3.0841
 8356SOL     OW36529   1.258   2.811   8.108 -0.1008 -0.4610 -0.6496
 8356SOL    HW136530   1.273   2.881   8.045  0.0739 -0.2503 -0.3677
 8356SOL    HW236531   1.184   2.843   8.160  0.1916  1.5719 -1.4849
 8357SOL     OW36532   4.718   4.289   9.248 -0.1674 -0.0599  0.1584
 8357SOL    HW136533   0.049   4.213   9.277 -0.5888  0.4053  2.0744
 8357SOL    HW236534   4.719   4.361   9.310  1.0623 -0.0068  0.0743
 8358SOL     OW36535   2.481   2.132   1.712  0.3215 -0.0488  0.1700
 8358SOL    HW136536   2.558   2.190   1.712 -0.1578  0.5947 -1.1222
 8358SOL    HW236537   2.438   2.167   1.634  0.8500 -1.4274 -0.7368
 8359SOL     OW36538   4.707   1.096  16.790 -0.1649 -0.5743  0.2098
 8359SOL    HW136539   4.631   1.139  16.750  0.9114  0.4208 -0.7957
 8359SOL    HW236540   4.697   1.008  16.754  1.2963  0.0450 -1.7494
 8360SOL     OW36541   3.244   3.945   7.021  0.3023 -0.7804 -0.4274
 8360SOL    HW136542   3.331   3.958   6.983  0.0321 -0.4311 -0.9207
 8360SOL    HW236543   3.195   3.912   6.946  0.6311 -1.8158 -0.1956
 8361SOL     OW36544   2.558   0.591   5.941 -0.4695  0.1748 -0.3188
 8361SOL    HW136545   2.592   0.512   5.983  0.1050 -1.0131 -2.9990
 8361SOL    HW236546   2.536   0.641   6.019  0.6068 -1.7885  1.2515
 8362SOL     OW36547   0.711   3.489   4.811 -0.4680  0.0189 -0.7857
 8362SOL    HW136548   0.741   3.576   4.837 -0.2474 -0.9529  2.1322
 8362SOL    HW236549   0.792   3.446   4.838  0.3001  2.2198  0.3895
 8363SOL     OW36550   3.295   1.818   4.993 -0.2051  0.3599  0.3567
 8363SOL    HW136551   3.358   1.844   4.926 -0.5466  0.3328  0.0241
 8363SOL    HW236552   3.310   1.878   5.066  2.3348  0.6620 -0.4043
 8364SOL     OW36553   1.098   2.330  12.820 -0.2923  0.1797  0.2244
 8364SOL    HW136554   1.085   2.252  12.766 -0.4085 -0.1962  0.8038
 8364SOL    HW236555   1.093   2.292  12.908  0.1146 -0.4129 -0.0117
 8365SOL     OW36556   0.592   1.397   2.627 -0.1252  0.0103 -0.6060
 8365SOL    HW136557   0.674   1.387   2.676 -0.9888 -0.1152  0.7996
 8365SOL    HW236558   0.544   1.461   2.679  0.0924  0.4537 -0.9491
 8366SOL     OW36559   4.647   1.068   6.852 -0.2871  0.4036 -0.0875
 8366SOL    HW136560   4.570   1.052   6.906 -1.3877  2.8112 -0.9259
 8366SOL    HW236561   4.701   1.118   6.914 -1.0196 -1.8638  2.3609
 8367SOL     OW36562   1.513   1.657   3.776 -0.2062  0.5136  0.1669
 8367SOL    HW136563   1.490   1.565   3.788 -0.4323  0.6019  0.4139
 8367SOL    HW236564   1.485   1.687   3.689 -0.2081  0.1177  0.0296
 8368SOL     OW36565   0.477   1.193   3.117  0.1758  0.1089  0.4901
 8368SOL    HW136566   0.540   1.198   3.045  0.5202  2.8227  0.9952
 8368SOL    HW236567   0.470   1.287   3.137 -0.8492 -0.1732  1.4227
 8369SOL     OW36568   1.790   0.138   3.531  0.5347 -0.2143 -0.1120
 8369SOL    HW136569   1.793   0.043   3.542 -1.8031 -0.1085  1.5676
 8369SOL    HW236570   1.695   0.150   3.530  0.5361 -0.2051 -0.1499
 8370SOL     OW36571   4.675   2.006   6.386  0.0618 -0.0376  0.6386
 8370SOL    HW136572   0.035   1.954   6.397 -0.5938 -0.9295  1.2254
 8370SOL    HW236573   4.673   2.008   6.290 -1.9734  1.3413  0.6977
 8371SOL     OW36574   4.688   2.055  11.224 -0.3244 -0.5701  0.5813
 8371SOL    HW136575   0.002   2.137  11.260 -0.8255 -0.2905  0.4209
 8371SOL    HW236576   4.663   2.074  11.134  1.3230  0.0146  0.2513
 8372SOL     OW36577   1.159   2.018   0.973 -0.3559 -0.3699 -0.2200
 8372SOL    HW136578   1.207   2.078   1.029  1.6915 -1.7933 -0.4499
 8372SOL    HW236579   1.070   2.047   0.993  0.6175  0.3336  2.9362
 8373SOL     OW36580   3.682   3.356   6.376 -0.2130  0.1055  0.2927
 8373SOL    HW136581   3.680   3.388   6.467  0.7797  1.5670 -0.1999
 8373SOL    HW236582   3.632   3.275   6.376 -0.2880  0.1528 -0.2532
 8374SOL     OW36583   2.034   4.071   7.463  0.1322  0.2966 -0.3331
 8374SOL    HW136584   2.101   4.078   7.531  0.8847 -0.1539 -1.0167
 8374SOL    HW236585   1.996   4.158   7.450 -0.4921 -0.1496 -1.5595
 8375SOL     OW36586   4.045   2.083   7.752 -0.0182  0.3569  0.2499
 8375SOL    HW136587   4.004   2.167   7.777  0.1068  0.4999 -0.0285
 8375SOL    HW236588   4.117   2.075   7.815  1.2032 -0.1103 -1.2164
 8376SOL     OW36589   0.706   2.775  14.048 -0.3259 -0.1333  0.4989
 8376SOL    HW136590   0.724   2.727  14.129  1.1621 -2.0237 -0.9521
 8376SOL    HW236591   0.716   2.702  13.987  0.9322  1.1983 -0.9176
 8377SOL     OW36592   4.548   0.146   4.010  0.1492 -0.1839  0.2060
 8377SOL    HW136593   4.453   0.147   3.997  0.2607 -0.4992 -0.5842
 8377SOL    HW236594   4.563   0.230   4.053 -1.3176  0.4560 -0.5613
 8378SOL     OW36595   0.637   4.126   2.885 -0.6753 -0.4462 -0.4147
 8378SOL    HW136596   0.593   4.191   2.831  1.2597 -0.3240 -1.8530
 8378SOL    HW236597   0.567   4.070   2.918 -1.7455  2.5338  2.3226
 8379SOL     OW36598   0.155   1.840   2.809 -0.6229  0.8202 -0.6940
 8379SOL    HW136599   0.088   1.783   2.846  1.3024 -1.2270 -0.3672
 8379SOL    HW236600   0.183   1.783   2.738  1.7949 -1.3163  1.9701
 8380SOL     OW36601   1.081   3.067  12.411  0.4965  0.4994 -0.1056
 8380SOL    HW136602   1.022   3.069  12.335  3.5522  1.2031 -2.4877
 8380SOL    HW236603   1.120   3.154  12.401  2.8646 -0.2198  3.1192
 8381SOL     OW36604   1.353   2.710  15.923 -0.8859  0.0322  0.2064
 8381SOL    HW136605   1.357   2.771  15.849 -1.7432  2.1300  1.8686
 8381SOL    HW236606   1.378   2.622  15.897 -0.3041 -0.0972  1.1962
 8382SOL     OW36607   2.907   0.070   6.284 -0.5715 -0.1645  0.1782
 8382SOL    HW136608   2.902   0.043   6.375 -0.8185  1.9451  0.7992
 8382SOL    HW236609   2.994   0.045   6.253 -0.6520  0.5397 -0.6510
 8383SOL     OW36610   3.747   3.585   3.747  0.0019  0.5313 -0.6167
 8383SOL    HW136611   3.766   3.493   3.768 -1.3839  0.5857  0.9043
 8383SOL    HW236612   3.835   3.616   3.727 -0.3768  1.6509 -0.5558
 8384SOL     OW36613   1.547   1.791   2.714 -0.6646  0.2840  0.0213
 8384SOL    HW136614   1.514   1.783   2.804 -1.6169 -0.6434 -0.4128
 8384SOL    HW236615   1.543   1.886   2.706  0.7625  0.2019 -1.6899
 8385SOL     OW36616   3.128   1.603   5.332 -0.0636 -0.1364 -0.0093
 8385SOL    HW136617   3.044   1.559   5.328 -1.2875  2.0661  1.1122
 8385SOL    HW236618   3.144   1.595   5.426 -1.4365  0.7524  0.3017
 8386SOL     OW36619   2.751   3.994   3.517  0.1164  1.1689 -0.1039
 8386SOL    HW136620   2.710   3.922   3.469 -1.0987  1.5967  0.2945
 8386SOL    HW236621   2.833   3.950   3.538 -0.8888  0.8291  3.1434
 8387SOL     OW36622   0.912   3.782   7.437  0.2088  0.0161  0.4171
 8387SOL    HW136623   0.893   3.797   7.530 -0.4272  1.0038  0.1303
 8387SOL    HW236624   0.927   3.867   7.395 -1.2701  1.2197  2.3410
 8388SOL     OW36625   3.710   1.505   3.590 -0.0096 -0.4782  0.1775
 8388SOL    HW136626   3.714   1.442   3.663  3.5347  0.4257  0.7759
 8388SOL    HW236627   3.801   1.534   3.586 -0.1902 -0.0801 -0.8976
 8389SOL     OW36628   2.034   0.454   2.755 -0.3381  0.1780 -0.0345
 8389SOL    HW136629   2.099   0.513   2.719 -0.2155  0.5647  0.8139
 8389SOL    HW236630   2.099   0.424   2.819 -0.7912  1.6301  1.1099
 8390SOL     OW36631   1.317   4.238   5.860 -0.0424 -0.0665 -0.0156
 8390SOL    HW136632   1.321   4.237   5.765 -0.5419  2.6955 -0.0684
 8390SOL    HW236633   1.229   4.202   5.868 -0.4430  0.7780 -0.6280
 8391SOL     OW36634   0.254   3.946   4.306  0.1558  0.9215  0.3576
 8391SOL    HW136635   0.273   3.959   4.399 -0.0019 -0.9866  0.6582
 8391SOL    HW236636   0.312   4.010   4.264 -1.9365  0.3140 -3.5168
 8392SOL     OW36637   3.833   2.402  12.092 -0.2686  0.8583  0.5253
 8392SOL    HW136638   3.861   2.464  12.025  1.1425 -1.2362 -0.8375
 8392SOL    HW236639   3.906   2.343  12.112 -0.6429  0.6558  1.2923
 8393SOL     OW36640   3.887   2.406   7.485  0.2023 -0.1692 -0.1707
 8393SOL    HW136641   3.868   2.496   7.513 -0.9423 -0.6060  0.4556
 8393SOL    HW236642   3.820   2.391   7.419 -0.2935 -1.8315  0.6960
 8394SOL     OW36643   3.419   0.958   3.612  0.2131  0.0450  0.3010
 8394SOL    HW136644   3.506   0.968   3.651  0.8689 -0.3571 -1.0434
 8394SOL    HW236645   3.381   1.046   3.618 -1.9107 -0.8665  0.0806
 8395SOL     OW36646   2.053   0.416   9.985  0.1228 -0.3374 -0.3021
 8395SOL    HW136647   2.093   0.453  10.064  1.3620  0.7551 -1.4364
 8395SOL    HW236648   2.045   0.322   9.999  1.6124 -0.6821 -1.7994
 8396SOL     OW36649   3.248   2.996  16.185 -0.0896 -0.3378  0.0537
 8396SOL    HW136650   3.199   3.078  16.191  1.1821  0.3150  1.5083
 8396SOL    HW236651   3.338   3.028  16.179  0.1178 -0.9236  0.0374
 8397SOL     OW36652   3.024   2.509  16.962 -0.2494 -0.0616  0.1270
 8397SOL    HW136653   3.086   2.559  16.909 -0.4222  2.0836  1.9926
 8397SOL    HW236654   3.074   2.509  17.043 -3.0228  1.2853  1.8027
 8398SOL     OW36655   0.702   4.306  10.997  0.4287  0.0237 -0.2846
 8398SOL    HW136656   0.742   4.388  11.025  2.1849 -1.0860  0.4939
 8398SOL    HW236657   0.650   4.301  11.077 -1.7982  1.4034 -1.6397
 8399SOL     OW36658   4.184   0.088   7.731 -0.8119 -0.2129  0.5793
 8399SOL    HW136659   4.100   0.129   7.710 -1.0048  0.4848  2.7153
 8399SOL    HW236660   4.189   0.031   7.655  0.5628 -1.0895  1.3249
 8400SOL     OW36661   2.631   1.876   9.518  0.3307  0.1515 -0.1625
 8400SOL    HW136662   2.577   1.844   9.446  0.8850 -1.9868  0.3558
 8400SOL    HW236663   2.572   1.934   9.567  0.5125  0.8072 -0.7302
 8401SOL     OW36664   1.385   1.204   7.325 -0.3298 -0.4522  0.3260
 8401SOL    HW136665   1.289   1.202   7.329 -0.3583 -1.7412 -1.2201
 8401SOL    HW236666   1.404   1.111   7.334  1.6259 -0.1291 -0.6341
 8402SOL     OW36667   4.700   4.227  10.813  0.2264  0.6964 -0.4990
 8402SOL    HW136668   4.615   4.210  10.854  1.2505  1.9156  2.0708
 8402SOL    HW236669   0.037   4.222  10.890 -1.1579  1.4865  0.5686
 8403SOL     OW36670   4.237   4.246   3.477  0.0548 -0.0461  0.4708
 8403SOL    HW136671   4.207   4.203   3.397  0.0122  1.8596 -0.5381
 8403SOL    HW236672   4.293   4.317   3.444 -0.6410  0.6358  0.7598
 8404SOL     OW36673   0.691   0.598  16.673  0.5492 -0.3239  0.2598
 8404SOL    HW136674   0.609   0.551  16.663  1.0481 -1.2370  0.3960
 8404SOL    HW236675   0.700   0.630  16.583 -0.7789 -0.3378  0.1292
 8405SOL     OW36676   3.211   0.413   9.273 -0.4309  0.2129  0.1726
 8405SOL    HW136677   3.233   0.415   9.180 -0.2439 -2.4247  0.1532
 8405SOL    HW236678   3.224   0.507   9.286 -0.3284  0.0701  1.0854
 8406SOL     OW36679   3.456   4.387   1.434  0.4910  0.1863  0.4467
 8406SOL    HW136680   3.370   4.361   1.469  0.1571 -0.9154 -1.1809
 8406SOL    HW236681   3.461   4.331   1.357 -2.2754 -1.5755  1.5262
 8407SOL     OW36682   3.381   1.083   4.049 -0.2414 -0.3289 -0.4264
 8407SOL    HW136683   3.294   1.121   4.063  0.5902  1.1496  0.8000
 8407SOL    HW236684   3.363   0.995   4.018 -0.8238 -0.7969  1.2281
 8408SOL     OW36685   2.836   1.237   1.802 -0.4386 -0.2360 -0.2820
 8408SOL    HW136686   2.873   1.154   1.832 -0.8498  0.3455  1.8082
 8408SOL    HW236687   2.743   1.224   1.824  0.2762 -3.7184  0.6719
 8409SOL     OW36688   2.190   4.089  14.569  0.3472 -0.3804 -0.2813
 8409SOL    HW136689   2.117   4.027  14.576  0.8889 -0.9613  0.2811
 8409SOL    HW236690   2.165   4.158  14.507 -1.4908 -1.1757 -0.4378
 8410SOL     OW36691   3.722   3.126   2.420  0.1433 -0.0472  0.3984
 8410SOL    HW136692   3.749   3.087   2.337 -1.2595  0.4625 -0.3035
 8410SOL    HW236693   3.678   3.060   2.474  1.6147  0.7144  2.4929
 8411SOL     OW36694   4.595   0.828   7.720 -0.1143  0.2163  0.1124
 8411SOL    HW136695   4.503   0.832   7.748  0.2630  0.1322  1.3989
 8411SOL    HW236696   4.623   0.743   7.754 -2.0120 -0.7573 -0.7587
 8412SOL     OW36697   0.008   2.918  12.687  0.3383  0.2678 -0.2337
 8412SOL    HW136698   0.068   2.918  12.762  1.7571  0.9001 -1.3893
 8412SOL    HW236699   4.672   2.994  12.705 -0.0781  0.4499 -2.3283
 8413SOL     OW36700   1.051   1.245   2.815 -0.7192  0.2753 -0.2460
 8413SOL    HW136701   1.081   1.260   2.905 -0.9001 -2.5402  0.3037
 8413SOL    HW236702   1.015   1.157   2.826 -0.5411  0.3060  0.6329
 8414SOL     OW36703   1.835   4.407   8.931 -0.3062 -0.1600  0.0481
 8414SOL    HW136704   1.749   4.393   8.892 -1.3611 -1.0774  2.6949
 8414SOL    HW236705   1.880   4.465   8.870  1.0406 -1.4265 -0.1630
 8415SOL     OW36706   0.629   4.191  16.641  0.0274  0.2575 -0.3784
 8415SOL    HW136707   0.711   4.151  16.672  0.7141  2.2873  0.4071
 8415SOL    HW236708   0.628   4.272  16.692  1.6329 -1.1179  1.8337
 8416SOL     OW36709   3.448   2.301   6.363 -0.8788  0.3110  0.6464
 8416SOL    HW136710   3.462   2.388   6.400 -0.8583  0.5394  0.0995
 8416SOL    HW236711   3.377   2.314   6.300  0.2826  0.1105 -0.6866
 8417SOL     OW36712   0.577   1.219   6.443  0.2522  0.3199 -0.5939
 8417SOL    HW136713   0.574   1.145   6.382 -2.8341 -0.7158  0.8034
 8417SOL    HW236714   0.658   1.257   6.409  1.5423 -0.3864  1.6607
 8418SOL     OW36715   3.886   2.582   7.014  0.1257 -0.1051  0.2670
 8418SOL    HW136716   3.966   2.618   6.977 -0.2946 -0.5193 -1.0211
 8418SOL    HW236717   3.845   2.540   6.939  1.1480  0.2554 -0.4786
 8419SOL     OW36718   1.240   0.977   8.169 -0.2082  0.1474 -0.1059
 8419SOL    HW136719   1.225   1.066   8.136 -1.1625  0.1084  0.2204
 8419SOL    HW236720   1.150   0.946   8.163 -0.3166  0.7308 -1.5813
 8420SOL     OW36721   3.211   3.811   9.113 -0.2290 -0.2392  0.3606
 8420SOL    HW136722   3.202   3.876   9.044  0.6170 -0.7034 -0.1856
 8420SOL    HW236723   3.151   3.745   9.078 -0.1957 -0.0835  0.0073
 8421SOL     OW36724   1.753   3.091   0.454  0.0358  0.0652  0.2622
 8421SOL    HW136725   1.795   3.169   0.491  0.8800 -0.9442  1.4583
 8421SOL    HW236726   1.708   3.068   0.536  1.7082  0.0164  1.1717
 8422SOL     OW36727   3.341   1.043   7.944  0.2509 -0.0336 -0.0907
 8422SOL    HW136728   3.407   1.111   7.942  0.1047  0.1150  0.1498
 8422SOL    HW236729   3.336   1.039   7.849  2.5614  0.1874 -0.2094
 8423SOL     OW36730   1.637   0.551  12.836  0.5998  0.2897  0.2910
 8423SOL    HW136731   1.657   0.508  12.753  0.6377 -1.9854  1.4756
 8423SOL    HW236732   1.563   0.607  12.813  0.0985  0.2008  1.7283
 8424SOL     OW36733   3.660   2.353   0.088 -0.4632  0.1718 -0.6532
 8424SOL    HW136734   3.579   2.396   0.060 -0.1913  0.7716 -0.5298
 8424SOL    HW236735   3.700   2.431   0.127 -2.6774  0.7455  0.4591
 8425SOL     OW36736   2.839   0.678   4.334 -0.5705  0.3149  0.6625
 8425SOL    HW136737   2.849   0.773   4.328  1.3345  0.0651 -0.2936
 8425SOL    HW236738   2.851   0.659   4.427  2.3494 -1.7089 -0.1040
 8426SOL     OW36739   3.033   0.379   2.678 -0.5258 -0.4985 -0.2950
 8426SOL    HW136740   2.974   0.367   2.752 -0.4806  0.1593 -0.1535
 8426SOL    HW236741   2.983   0.452   2.640  1.0498  1.0945  0.7141
 8427SOL     OW36742   1.445   2.699  16.183  0.1444  0.3385 -0.5041
 8427SOL    HW136743   1.405   2.729  16.101  1.5554 -0.0923 -1.3473
 8427SOL    HW236744   1.431   2.604  16.174 -0.4514  0.3125  0.6831
 8428SOL     OW36745   1.495   4.121   4.698 -0.6482 -0.0131 -0.3475
 8428SOL    HW136746   1.402   4.121   4.674 -0.7175 -1.3305 -0.0698
 8428SOL    HW236747   1.534   4.069   4.628 -0.6188  1.8764 -1.7479
 8429SOL     OW36748   0.422   1.595   1.240 -0.3101 -0.1197 -0.1220
 8429SOL    HW136749   0.414   1.590   1.335  1.2492  1.3506  0.0908
 8429SOL    HW236750   0.487   1.527   1.226  0.3870  0.2813  1.2157
 8430SOL     OW36751   2.643   3.932  14.952  0.1177  0.2476  0.1380
 8430SOL    HW136752   2.582   3.859  14.940  0.7911 -0.1814 -0.7297
 8430SOL    HW236753   2.727   3.887  14.945 -0.6047 -0.9232 -1.2372
 8431SOL     OW36754   2.207   1.363   2.009  0.9087 -0.2144  0.7930
 8431SOL    HW136755   2.283   1.308   2.029 -2.1561 -4.5022  0.4645
 8431SOL    HW236756   2.248   1.448   1.993  1.7355 -0.8110 -0.2515
 8432SOL     OW36757   0.460   1.132   8.881 -0.0275  0.4733 -0.1745
 8432SOL    HW136758   0.407   1.210   8.863 -0.6886  0.1885  0.5605
 8432SOL    HW236759   0.395   1.083   8.930 -0.5085 -0.5304 -1.8326
 8433SOL     OW36760   0.345   4.268   4.154 -0.0772  0.1153 -0.6118
 8433SOL    HW136761   0.403   4.196   4.129 -0.2834 -0.9330  1.8946
 8433SOL    HW236762   0.313   4.298   4.069  1.7409 -0.0406 -1.3316
 8434SOL     OW36763   4.595   0.316  14.768  0.1681  0.5822 -0.3786
 8434SOL    HW136764   4.670   0.374  14.762  0.8350 -0.2681 -0.1906
 8434SOL    HW236765   4.525   0.379  14.747  0.2166  1.2258  1.4064
 8435SOL     OW36766   2.247   4.129  16.335  0.1261 -0.2958  0.3118
 8435SOL    HW136767   2.178   4.084  16.287  0.4131  2.7313 -2.9949
 8435SOL    HW236768   2.302   4.052  16.347  1.3982  0.7160  1.0340
 8436SOL     OW36769   1.547   0.330  10.603  0.0522 -0.0481 -0.1125
 8436SOL    HW136770   1.572   0.332  10.695 -1.5247  1.7427  0.2777
 8436SOL    HW236771   1.512   0.241  10.601  1.0659 -0.4403  0.0713
 8437SOL     OW36772   4.241   0.402   4.833  0.0120 -0.2705  0.1490
 8437SOL    HW136773   4.191   0.380   4.912  1.7422  0.3180  1.4046
 8437SOL    HW236774   4.223   0.495   4.831 -0.7128 -0.4313 -0.7664
 8438SOL     OW36775   0.530   2.006  13.494  0.3704 -0.1096 -0.2474
 8438SOL    HW136776   0.436   2.022  13.503  0.2322 -1.0425  0.0056
 8438SOL    HW236777   0.546   2.018  13.401  1.5851  2.4326  0.2924
 8439SOL     OW36778   0.081   0.678   8.507  0.0133  0.2566  0.0890
 8439SOL    HW136779   0.053   0.646   8.421 -0.6237  0.4693  0.2106
 8439SOL    HW236780   0.078   0.774   8.501  0.5798  0.1184 -2.2107
 8440SOL     OW36781   1.087   3.358   1.836  0.0971  0.3587  0.0570
 8440SOL    HW136782   0.997   3.333   1.817  0.1682 -0.4423  0.7419
 8440SOL    HW236783   1.094   3.358   1.932 -1.5641 -1.1329  0.1730
 8441SOL     OW36784   1.597   2.575  11.424  0.2148  0.2265 -0.1734
 8441SOL    HW136785   1.597   2.589  11.519 -1.4402  0.3584 -0.1866
 8441SOL    HW236786   1.630   2.487  11.408 -0.3766 -0.4010  2.0001
 8442SOL     OW36787   3.120   3.749   8.453  0.3041  0.2717 -0.3578
 8442SOL    HW136788   3.109   3.758   8.547  1.1609  2.5251 -0.4833
 8442SOL    HW236789   3.214   3.766   8.455  0.2800  0.3948 -0.3014
 8443SOL     OW36790   4.446   2.719   0.778 -0.5639 -0.8837  0.2675
 8443SOL    HW136791   4.502   2.658   0.731 -0.3687  2.1909 -3.5583
 8443SOL    HW236792   4.361   2.696   0.740 -0.4412 -2.4900  0.9761
 8444SOL     OW36793   2.437   1.852   9.742  0.3282 -0.0382  0.3059
 8444SOL    HW136794   2.354   1.896   9.723  1.2214  1.1797 -0.8490
 8444SOL    HW236795   2.492   1.914   9.791 -0.1312  1.8800 -1.5989
 8445SOL     OW36796   1.193   1.885   5.025 -0.2960 -0.0653 -0.0586
 8445SOL    HW136797   1.176   1.966   5.072  2.9609 -0.2676  1.4296
 8445SOL    HW236798   1.181   1.818   5.092 -0.4868  1.1604  1.1159
 8446SOL     OW36799   4.501   1.834   1.633  0.0558  0.3442  0.8279
 8446SOL    HW136800   4.582   1.859   1.589 -0.2301 -1.1163 -0.5411
 8446SOL    HW236801   4.441   1.887   1.581  1.2491  0.5041 -0.3828
 8447SOL     OW36802   3.373   3.763   0.921 -0.0157 -0.4468 -0.6983
 8447SOL    HW136803   3.465   3.786   0.935  0.0083  0.1716 -1.8987
 8447SOL    HW236804   3.333   3.844   0.952  0.6894 -1.2706  2.3504
 8448SOL     OW36805   1.302   2.625   5.656  0.2513 -0.1874 -0.2999
 8448SOL    HW136806   1.253   2.706   5.664  1.4771  0.3940  1.2895
 8448SOL    HW236807   1.285   2.578   5.738  1.6969 -1.3322 -0.6445
 8449SOL     OW36808   2.597   2.537   3.235  0.1616 -0.3075  0.7436
 8449SOL    HW136809   2.591   2.475   3.162 -1.5759 -0.7242  1.2407
 8449SOL    HW236810   2.505   2.527   3.258  0.1949  0.4216  1.1979
 8450SOL     OW36811   4.177   3.720  11.344  0.0569  0.3369 -0.2508
 8450SOL    HW136812   4.261   3.725  11.390  1.0487 -2.8680 -1.6970
 8450SOL    HW236813   4.151   3.812  11.356  1.0391  0.1821  2.9505
 8451SOL     OW36814   0.959   4.460   5.328 -0.5567  0.2059 -0.4596
 8451SOL    HW136815   0.918   4.385   5.285 -1.3612  0.3024  0.1400
 8451SOL    HW236816   0.978   4.512   5.251 -0.8377  1.4084  0.2797
 8452SOL     OW36817   3.110   4.494   1.753  0.2395  0.5818  0.1152
 8452SOL    HW136818   3.131   4.402   1.766 -0.2996  0.5039  0.4339
 8452SOL    HW236819   3.182   4.518   1.695 -0.7605  1.0741 -0.9513
 8453SOL     OW36820   2.402   1.351   5.168 -0.2213  0.1891 -0.4632
 8453SOL    HW136821   2.333   1.416   5.177 -0.8135 -0.1414 -2.6177
 8453SOL    HW236822   2.405   1.337   5.073 -0.5616 -0.7953 -0.3227
 8454SOL     OW36823   4.056   2.791   0.546 -0.6268  0.6409 -0.0215
 8454SOL    HW136824   4.016   2.716   0.588  0.5503 -0.0488 -0.1196
 8454SOL    HW236825   3.982   2.848   0.525 -1.3528 -0.5885 -0.8021
 8455SOL     OW36826   3.791   1.024   4.120  0.2335 -0.2224 -0.1756
 8455SOL    HW136827   3.715   0.978   4.155  2.0609 -1.5599  2.0111
 8455SOL    HW236828   3.858   0.992   4.181  0.6439  1.1146  0.0790
 8456SOL     OW36829   3.041   3.446   4.672  0.2352  0.0946 -0.0402
 8456SOL    HW136830   2.975   3.385   4.703  0.0955  1.1065  1.6911
 8456SOL    HW236831   3.086   3.457   4.756 -0.7587 -0.7817  0.6024
 8457SOL     OW36832   2.085   3.494  13.835 -0.2626  0.9522  0.3114
 8457SOL    HW136833   2.004   3.541  13.853 -1.2970 -1.8499  2.9743
 8457SOL    HW236834   2.043   3.411  13.810  3.0865 -0.6321 -0.1064
 8458SOL     OW36835   3.334   2.633   6.625 -0.0620 -0.1126 -0.3425
 8458SOL    HW136836   3.310   2.619   6.716 -0.1549  2.8907  0.1134
 8458SOL    HW236837   3.247   2.637   6.585  1.4357  1.2942 -3.4803
 8459SOL     OW36838   1.655   1.086   8.648 -0.2868 -0.1458 -0.8757
 8459SOL    HW136839   1.732   1.050   8.691 -0.3254  0.5688 -0.2090
 8459SOL    HW236840   1.622   1.132   8.726  1.0502  0.1458 -0.4868
 8460SOL     OW36841   2.724   4.259   6.889  0.2440  0.6345 -0.0489
 8460SOL    HW136842   2.743   4.328   6.953 -0.8300  1.6467 -0.8321
 8460SOL    HW236843   2.777   4.193   6.934  0.3041  0.5673 -0.2193
 8461SOL     OW36844   2.038   1.383   5.244  0.7946 -0.2984  0.2028
 8461SOL    HW136845   2.053   1.291   5.219 -0.7615 -0.0622 -1.6213
 8461SOL    HW236846   2.043   1.383   5.339 -1.7619 -1.2197  0.3254
 8462SOL     OW36847   2.860   0.202   2.798 -0.0644 -0.3074 -0.0182
 8462SOL    HW136848   2.824   0.284   2.832 -0.4068  0.1204 -1.3764
 8462SOL    HW236849   2.800   0.186   2.725  1.9272 -0.0240 -1.7242
 8463SOL     OW36850   0.634   4.644   3.304  0.1372 -1.0342  0.8554
 8463SOL    HW136851   0.575   4.578   3.266  0.6752 -1.0615  0.0591
 8463SOL    HW236852   0.655   4.709   3.237  2.2986 -0.6606  1.9000
 8464SOL     OW36853   3.748   0.848  13.995 -0.0581 -0.5024 -0.8672
 8464SOL    HW136854   3.769   0.916  14.059 -1.6965 -0.8015  0.0024
 8464SOL    HW236855   3.655   0.827  14.009  0.0336  0.3371  0.9827
 8465SOL     OW36856   3.837   1.816   7.449 -0.0295 -0.1077  0.5945
 8465SOL    HW136857   3.860   1.877   7.378  1.0565  2.2102  2.9315
 8465SOL    HW236858   3.902   1.843   7.513  0.1075  0.8304  0.0607
 8466SOL     OW36859   3.062   1.713  12.199  0.0307 -0.4180 -0.5203
 8466SOL    HW136860   3.148   1.741  12.169  0.2261 -0.3687  0.0917
 8466SOL    HW236861   3.056   1.778  12.269 -2.6038 -0.8416 -0.3529
 8467SOL     OW36862   0.180   1.827   6.412 -0.0468  0.1498  0.4622
 8467SOL    HW136863   0.253   1.848   6.470  0.0182  0.6426  0.2077
 8467SOL    HW236864   0.231   1.802   6.335  0.1949  1.4150  0.2216
 8468SOL     OW36865   0.918   1.935  12.977  0.3691  0.0547  0.0066
 8468SOL    HW136866   0.982   1.920  12.907  1.5598  0.0507  1.0907
 8468SOL    HW236867   0.864   1.998  12.929 -0.9884  0.5193  2.1455
 8469SOL     OW36868   3.188   0.691   9.275  0.3298  0.0918 -0.4153
 8469SOL    HW136869   3.132   0.727   9.344 -3.0324 -1.4586 -2.2944
 8469SOL    HW236870   3.164   0.745   9.199  1.1646  0.0180 -0.7267
 8470SOL     OW36871   2.063   2.141   3.541  0.1369 -0.4174  0.0031
 8470SOL    HW136872   2.028   2.183   3.462 -0.4777 -1.7609 -0.4474
 8470SOL    HW236873   2.063   2.213   3.604  1.8522 -0.5941  0.2027
 8471SOL     OW36874   2.375   0.184   8.748  0.5597 -0.5310 -0.3805
 8471SOL    HW136875   2.339   0.147   8.667  0.0873  0.2494 -0.5263
 8471SOL    HW236876   2.467   0.164   8.730  0.6377  0.1306 -0.7026
 8472SOL     OW36877   0.282   0.406  15.039 -0.4725  0.0860 -0.4408
 8472SOL    HW136878   0.196   0.365  15.027 -1.1385  0.7060  2.2469
 8472SOL    HW236879   0.331   0.344  15.093  1.2873  1.3278 -0.5963
 8473SOL     OW36880   0.400   3.487   2.947 -0.6662  0.2158  0.3084
 8473SOL    HW136881   0.482   3.442   2.967  1.5240  2.1869 -3.9612
 8473SOL    HW236882   0.411   3.505   2.853 -0.1242 -0.4025  0.2488
 8474SOL     OW36883   1.477   2.845   8.305  0.0292 -0.0756 -0.1865
 8474SOL    HW136884   1.399   2.813   8.260 -0.4145 -0.7678  1.0722
 8474SOL    HW236885   1.454   2.823   8.395  0.1591  1.0640  0.1256
 8475SOL     OW36886   1.432   1.470   2.776 -0.0091  0.0058  0.2103
 8475SOL    HW136887   1.419   1.472   2.681 -2.1451 -0.8035  0.4847
 8475SOL    HW236888   1.384   1.548   2.801  0.2713  0.8087 -1.7986
 8476SOL     OW36889   3.838   0.567   1.052 -0.3414 -0.0524 -0.5208
 8476SOL    HW136890   3.749   0.599   1.069  0.1505  0.4477  1.0950
 8476SOL    HW236891   3.836   0.479   1.090 -0.3667  0.8172  1.5037
 8477SOL     OW36892   0.441   1.260   5.853  0.3119 -0.1623  0.0824
 8477SOL    HW136893   0.355   1.244   5.814  0.0766  0.3408  0.3891
 8477SOL    HW236894   0.444   1.354   5.874 -1.7420 -0.6613  2.6007
 8478SOL     OW36895   2.595   2.802   3.228 -0.2540 -0.3972 -0.1620
 8478SOL    HW136896   2.608   2.708   3.222  0.7974 -0.1761 -1.3444
 8478SOL    HW236897   2.650   2.835   3.157  1.4861 -0.3316  1.2157
 8479SOL     OW36898   2.916   0.792   5.133 -0.1540 -0.2553 -0.1912
 8479SOL    HW136899   2.960   0.854   5.191 -0.5354  0.4391 -0.6395
 8479SOL    HW236900   2.886   0.716   5.182  1.4433  0.0594  1.2828
 8480SOL     OW36901   0.365   0.301   5.032  0.0121  0.0599 -0.2657
 8480SOL    HW136902   0.294   0.313   4.969  1.0705 -1.9190 -1.8815
 8480SOL    HW236903   0.333   0.222   5.076  0.4346  0.9230  1.5471
 8481SOL     OW36904   3.372   1.403   3.038 -0.0796  0.5961 -0.8551
 8481SOL    HW136905   3.453   1.380   3.084 -0.1854  0.9807 -0.4797
 8481SOL    HW236906   3.410   1.424   2.952  0.7682  0.3684 -0.5349
 8482SOL     OW36907   2.830   1.756   8.834 -0.0479  0.4169 -0.0403
 8482SOL    HW136908   2.816   1.849   8.812  0.9483  0.4898 -0.3664
 8482SOL    HW236909   2.925   1.760   8.824 -0.1936  0.4567 -1.4162
 8483SOL     OW36910   2.723   1.326   3.881 -0.0373  0.0454 -0.2589
 8483SOL    HW136911   2.721   1.230   3.880  1.1074  0.0072  1.0623
 8483SOL    HW236912   2.817   1.343   3.869 -0.1035  0.0976 -0.7194
 8484SOL     OW36913   4.019   3.057   0.281 -0.2195  0.1674 -0.1320
 8484SOL    HW136914   4.108   3.025   0.268 -0.2804 -0.0894  0.0791
 8484SOL    HW236915   3.977   3.008   0.352  0.1803  1.2653  0.8558
 8485SOL     OW36916   1.187   1.008  10.379 -0.7719 -0.0325  0.2231
 8485SOL    HW136917   1.185   0.914  10.398  1.2863 -0.3285 -1.0687
 8485SOL    HW236918   1.095   1.032  10.364 -0.3250  3.3429  2.8044
 8486SOL     OW36919   3.857   3.713   9.257  0.2975  0.0188 -0.1794
 8486SOL    HW136920   3.800   3.773   9.305  0.1561 -1.1868  1.1478
 8486SOL    HW236921   3.848   3.644   9.323  2.4573  0.4441  0.5634
 8487SOL     OW36922   1.956   1.713  17.674  0.0620  0.4692  0.2124
 8487SOL    HW136923   1.925   1.666   0.071 -0.4054  0.1385 -0.1762
 8487SOL    HW236924   1.926   1.674  17.592  0.8562  0.0882  0.1071
 8488SOL     OW36925   2.202   1.168   4.160 -0.2405  0.1962 -0.2361
 8488SOL    HW136926   2.159   1.221   4.092  1.4133  3.2328  1.1055
 8488SOL    HW236927   2.139   1.175   4.231 -1.6137 -2.4581 -1.1822
 8489SOL     OW36928   3.549   0.026  14.765 -0.1650  0.6175 -0.5294
 8489SOL    HW136929   3.460   0.048  14.739 -1.0698 -2.5833 -0.0714
 8489SOL    HW236930   3.588   0.014  14.678 -0.3552  3.0281 -0.9347
 8490SOL     OW36931   2.822   0.496  11.336 -0.4033  0.1959  0.1348
 8490SOL    HW136932   2.877   0.421  11.311 -1.9586 -1.4542  1.6937
 8490SOL    HW236933   2.859   0.571  11.289 -0.6591  0.0065 -0.3742
 8491SOL     OW36934   1.488   2.667   6.006  0.1415  0.0996  0.1589
 8491SOL    HW136935   1.408   2.616   6.017  0.2327  0.4856  2.5879
 8491SOL    HW236936   1.520   2.665   6.096 -0.1024 -0.6001  0.2275
 8492SOL     OW36937   1.308   3.144   6.537 -0.1249  0.1071 -0.2519
 8492SOL    HW136938   1.302   3.105   6.449 -2.2173  2.2539 -1.0732
 8492SOL    HW236939   1.218   3.125   6.565  0.6958 -1.6332  1.2189
 8493SOL     OW36940   0.660   3.538   6.047  0.2061 -0.6763  0.2850
 8493SOL    HW136941   0.702   3.556   6.131  1.5714  1.4802 -0.8437
 8493SOL    HW236942   0.688   3.450   6.021  1.6001  0.0912 -0.8263
 8494SOL     OW36943   4.659   3.479  16.535  0.7275 -0.5561  0.0011
 8494SOL    HW136944   4.628   3.530  16.610  1.4414 -1.0003  0.5935
 8494SOL    HW236945   0.012   3.534  16.504 -0.1342  0.0011 -1.0578
 8495SOL     OW36946   4.399   4.642   4.862 -0.2336  0.4604  0.3023
 8495SOL    HW136947   4.487   4.624   4.897  1.0306  2.6970 -1.6616
 8495SOL    HW236948   4.359   4.563   4.897 -0.5576  0.1223 -0.8414
 8496SOL     OW36949   1.521   3.776  13.932 -0.8372 -0.2766  0.2312
 8496SOL    HW136950   1.455   3.741  13.992  0.8117 -0.0474  2.1907
 8496SOL    HW236951   1.577   3.701  13.915 -0.6912  0.2062 -1.3470
 8497SOL     OW36952   1.148   0.859   4.743  0.2319  0.8529  0.2902
 8497SOL    HW136953   1.055   0.871   4.759  0.2760  1.7468 -0.1457
 8497SOL    HW236954   1.178   0.860   4.834  0.2125 -0.0141  0.3149
 8498SOL     OW36955   4.059   1.467  14.906  0.0875  0.2222  0.4319
 8498SOL    HW136956   4.026   1.556  14.893 -0.0770  0.0539 -0.2844
 8498SOL    HW236957   3.990   1.411  14.871  0.6021 -0.6787  0.8421
 8499SOL     OW36958   1.597   2.765   4.396 -0.1555  0.4646  0.1101
 8499SOL    HW136959   1.546   2.684   4.398  0.3470  0.2130  2.1601
 8499SOL    HW236960   1.648   2.744   4.474  1.4441  0.6636 -0.8829
 8500SOL     OW36961   3.874   1.711   0.005 -0.4527 -0.0480  0.0210
 8500SOL    HW136962   3.801   1.763   0.039 -0.7778 -1.4709  1.5290
 8500SOL    HW236963   3.866   1.622   0.042 -1.0761  0.8190  1.9860
 8501SOL     OW36964   3.543   1.385   8.082 -0.2085  0.1130 -0.0666
 8501SOL    HW136965   3.576   1.441   8.151 -1.7248 -0.8138  1.4055
 8501SOL    HW236966   3.594   1.413   8.006 -0.3956  0.8628  0.0825
 8502SOL     OW36967   0.863   3.780   4.090  0.7925 -0.1183 -0.4205
 8502SOL    HW136968   0.958   3.786   4.075  1.0138 -0.0265  1.0440
 8502SOL    HW236969   0.834   3.851   4.033 -0.7456  1.4613  2.3546
 8503SOL     OW36970   4.607   4.100   2.794  0.6425 -0.3294  0.3310
 8503SOL    HW136971   4.520   4.063   2.782  1.4396 -2.5289  1.3038
 8503SOL    HW236972   4.650   4.081   2.711 -1.7073 -1.1726 -0.6751
 8504SOL     OW36973   1.282   2.938  17.649 -0.7472 -0.4031  0.3559
 8504SOL    HW136974   1.353   2.893  17.603 -0.6005  1.3186 -1.1298
 8504SOL    HW236975   1.209   2.941  17.586  0.2898  0.0091 -0.8328
 8505SOL     OW36976   0.450   1.206   9.867  0.0535  0.3008 -0.3493
 8505SOL    HW136977   0.363   1.245   9.879  0.4369  0.7858  0.8560
 8505SOL    HW236978   0.422   1.115   9.855  2.5631 -0.4552 -0.5727
 8506SOL     OW36979   1.008   0.068   6.375 -0.3108  0.3366 -0.1131
 8506SOL    HW136980   1.103   0.058   6.384 -0.2887 -0.1463 -0.9013
 8506SOL    HW236981   1.000   0.061   6.280 -2.8494  0.0926  0.1114
 8507SOL     OW36982   4.133   0.802   1.068  0.9887  0.2583  0.1293
 8507SOL    HW136983   4.099   0.716   1.043  1.1093  0.4604 -0.7403
 8507SOL    HW236984   4.213   0.779   1.114  2.3092 -0.1181 -2.3646
 8508SOL     OW36985   4.191   1.882  13.084  0.4935  0.3849  0.7588
 8508SOL    HW136986   4.118   1.827  13.057  1.5078 -0.6373  0.1050
 8508SOL    HW236987   4.159   1.959  13.130  2.0667  1.6377 -0.2303
 8509SOL     OW36988   1.271   0.489   6.404 -0.0075  0.0642 -0.2684
 8509SOL    HW136989   1.252   0.560   6.343  0.5040 -0.1917 -0.7262
 8509SOL    HW236990   1.265   0.545   6.482 -0.6305 -0.3868  0.0097
 8510SOL     OW36991   3.727   4.380   5.847  0.3347  0.4492  0.2373
 8510SOL    HW136992   3.775   4.329   5.913 -1.4012 -2.3498 -0.6846
 8510SOL    HW236993   3.727   4.464   5.893 -1.8683 -0.4578  1.8907
 8511SOL     OW36994   3.772   4.175   0.287 -0.1478  0.1305  0.6614
 8511SOL    HW136995   3.782   4.188   0.381  0.2368 -0.1434  0.6560
 8511SOL    HW236996   3.696   4.232   0.271 -1.5899 -1.9233  0.2559
 8512SOL     OW36997   0.088   4.583   8.725 -0.5621  0.3228 -0.5013
 8512SOL    HW136998   0.082   4.677   8.709  0.7592  0.5656  0.3952
 8512SOL    HW236999   0.009   4.562   8.776 -0.1273 -1.1863 -0.4316
 8513SOL     OW37000   1.797   2.501   5.175  0.0510  0.0212  0.0888
 8513SOL    HW137001   1.739   2.542   5.111  0.9519 -0.0848 -0.8091
 8513SOL    HW237002   1.767   2.410   5.176 -2.7568  0.9835  0.6560
 8514SOL     OW37003   1.252   1.780   1.681  0.2544  0.6311  0.2909
 8514SOL    HW137004   1.219   1.829   1.606  2.7554 -0.0491 -1.2461
 8514SOL    HW237005   1.294   1.844   1.738  2.4622 -1.1417  0.6468
 8515SOL     OW37006   1.982   2.920   5.454  0.3332  0.3993  0.1045
 8515SOL    HW137007   1.986   2.865   5.376  0.1672  0.3271  0.1451
 8515SOL    HW237008   1.887   2.922   5.470  0.6237 -0.5101  1.8703
 8516SOL     OW37009   2.985   0.880   2.096 -0.0107 -0.0136  0.4311
 8516SOL    HW137010   3.044   0.819   2.140  0.8934  0.7644  0.3154
 8516SOL    HW237011   3.051   0.948   2.078 -0.2264  0.1070  0.0891
 8517SOL     OW37012   3.311   1.403   5.322  0.2761  0.1007  0.0908
 8517SOL    HW137013   3.221   1.408   5.353  0.6292 -2.0003  1.4430
 8517SOL    HW237014   3.317   1.453   5.241  0.3633 -1.3224 -0.7855
 8518SOL     OW37015   1.247   1.832   2.627 -0.1950 -0.1753 -0.7255
 8518SOL    HW137016   1.178   1.848   2.692  0.2726  0.1317 -0.3079
 8518SOL    HW237017   1.314   1.890   2.664 -0.7063 -0.4885  0.7251
 8519SOL     OW37018   2.875   1.468   3.540 -0.5186 -0.0483  0.6574
 8519SOL    HW137019   2.873   1.563   3.530 -1.6450  0.0045  1.4368
 8519SOL    HW237020   2.952   1.437   3.492 -0.3058  0.9266  0.3673
 8520SOL     OW37021   0.693   4.170  10.499 -0.2696 -0.4965 -0.1646
 8520SOL    HW137022   0.711   4.187  10.592  1.3987 -1.2497 -0.3565
 8520SOL    HW237023   0.753   4.224  10.447  0.1637 -0.0843  0.7577
 8521SOL     OW37024   0.572   1.442  12.068  0.7773 -0.3325  0.3726
 8521SOL    HW137025   0.581   1.350  12.042 -1.0387 -0.1292 -0.9630
 8521SOL    HW237026   0.551   1.474  11.980 -0.0189 -1.3155  0.2036
 8522SOL     OW37027   2.277   2.156  13.300 -0.4865  0.2299 -0.2567
 8522SOL    HW137028   2.370   2.139  13.315 -0.7539  0.6851  1.9020
 8522SOL    HW237029   2.278   2.199  13.215 -0.4423  1.0011  0.1251
 8523SOL     OW37030   0.157   1.609   2.639  0.1163 -0.3554  0.1226
 8523SOL    HW137031   0.170   1.521   2.674 -0.3632 -1.3936 -2.3263
 8523SOL    HW237032   0.091   1.637   2.702 -2.0234  1.0295 -2.6969
 8524SOL     OW37033   3.138   2.332   2.844 -0.0939  0.2069 -0.2515
 8524SOL    HW137034   3.052   2.346   2.805 -0.9501  1.2694  2.0620
 8524SOL    HW237035   3.153   2.241   2.818  0.4630 -0.3103  1.8631
 8525SOL     OW37036   0.795   2.858   7.228 -0.6807  0.3833  0.3589
 8525SOL    HW137037   0.790   2.933   7.169  1.2509 -0.1191 -0.4349
 8525SOL    HW237038   0.813   2.897   7.314  1.4949  1.5993 -0.6369
 8526SOL     OW37039   2.476   1.076  15.684 -0.2403 -0.5870 -0.4877
 8526SOL    HW137040   2.557   1.092  15.732  0.9078  0.1908 -2.6907
 8526SOL    HW237041   2.468   1.156  15.633  0.1390 -0.6187 -0.5956
 8527SOL     OW37042   0.923   2.294   4.405  0.8262 -0.1148 -0.0401
 8527SOL    HW137043   0.866   2.220   4.386 -1.3546  0.8899  2.6075
 8527SOL    HW237044   0.984   2.286   4.332  1.0016  1.3441 -0.0568
 8528SOL     OW37045   1.336   0.668   8.514 -0.1317  0.2050 -0.3333
 8528SOL    HW137046   1.344   0.741   8.453 -1.3365  0.7047  0.1170
 8528SOL    HW237047   1.320   0.714   8.596  3.0952 -0.7364  0.8186
 8529SOL     OW37048   0.740   2.085  15.552 -0.8229 -0.1201  0.4466
 8529SOL    HW137049   0.725   2.038  15.470 -0.5201  0.7644 -0.1204
 8529SOL    HW237050   0.702   2.172  15.538 -0.9037 -0.2643 -0.2013
 8530SOL     OW37051   1.489   3.404   8.670  0.0174 -0.3244 -0.2737
 8530SOL    HW137052   1.395   3.385   8.672 -0.0880  0.3426  1.7609
 8530SOL    HW237053   1.478   3.469   8.740  3.9056 -0.4478  0.4516
 8531SOL     OW37054   4.387   0.723   1.189 -0.2986 -0.6418 -0.6165
 8531SOL    HW137055   4.404   0.661   1.118 -0.5199 -2.2129  0.7216
 8531SOL    HW237056   4.367   0.661   1.259 -0.8172 -0.1292 -0.3122
 8532SOL     OW37057   0.145   0.608   4.722  0.3373 -0.4267  0.8532
 8532SOL    HW137058   0.172   0.543   4.658 -3.6745 -0.9102 -0.3101
 8532SOL    HW237059   0.225   0.632   4.770  1.1671 -0.6984 -0.3906
 8533SOL     OW37060   1.551   4.237   8.890 -0.3168 -0.1303  0.3692
 8533SOL    HW137061   1.535   4.237   8.984 -0.7935 -2.5761  0.2693
 8533SOL    HW237062   1.542   4.332   8.880  1.5157 -0.0327 -0.2402
 8534SOL     OW37063   1.859   1.329  15.086  0.1327  0.1989  0.1102
 8534SOL    HW137064   1.799   1.260  15.116 -1.8236  1.4839 -0.8407
 8534SOL    HW237065   1.807   1.409  15.090  0.9350  0.8084 -1.7276
 8535SOL     OW37066   3.082   1.122   8.673  0.4240 -0.8061 -0.0778
 8535SOL    HW137067   3.089   1.081   8.586  0.7862 -2.8339  0.8922
 8535SOL    HW237068   3.088   1.214   8.647 -3.2659  0.3558  3.1190
 8536SOL     OW37069   4.246   3.205   1.766 -0.3587 -0.0041 -0.4736
 8536SOL    HW137070   4.237   3.273   1.699  0.1839  0.8196  0.2845
 8536SOL    HW237071   4.338   3.226   1.783 -0.2841  1.2762 -2.3510
 8537SOL     OW37072   0.338   3.606   6.311 -0.5620 -0.1346 -0.1178
 8537SOL    HW137073   0.414   3.663   6.302 -1.9461  1.5543 -0.9047
 8537SOL    HW237074   0.290   3.604   6.228 -0.5966  1.9264 -0.1373
 8538SOL     OW37075   3.088   0.937   2.462 -0.2052 -0.4590  0.4485
 8538SOL    HW137076   3.071   0.886   2.383 -0.3750  1.2795 -0.6291
 8538SOL    HW237077   3.031   0.894   2.526 -0.6500 -1.9181 -0.9213
 8539SOL     OW37078   3.877   2.950  15.615 -0.9073 -0.5301 -0.3418
 8539SOL    HW137079   3.911   2.920  15.531  3.4097  1.3161  0.7560
 8539SOL    HW237080   3.851   3.039  15.594 -1.5948 -0.3776  1.1433
 8540SOL     OW37081   2.724   3.049  16.466  0.0092  0.0817 -0.3802
 8540SOL    HW137082   2.677   3.064  16.384 -0.6019  1.2847  0.2083
 8540SOL    HW237083   2.754   3.137  16.488 -2.4361  0.3379  1.8615
 8541SOL     OW37084   3.536   2.765   3.468  0.2326 -0.7511 -0.1096
 8541SOL    HW137085   3.452   2.720   3.480 -0.3444  0.1560 -0.7226
 8541SOL    HW237086   3.504   2.827   3.402  0.4362  0.6099  1.0937
 8542SOL     OW37087   1.148   2.399   0.269  0.0614  0.6650  0.4283
 8542SOL    HW137088   1.121   2.487   0.242 -0.1361  0.2367 -0.7427
 8542SOL    HW237089   1.064   2.372   0.306 -0.4378  0.9898 -0.4681
 8543SOL     OW37090   0.811   0.135   8.504  0.4357  0.3848  0.2005
 8543SOL    HW137091   0.817   0.097   8.416  0.1228  1.3544 -0.2442
 8543SOL    HW237092   0.719   0.130   8.528  0.4417 -1.3324 -0.1045
 8544SOL     OW37093   0.331   1.306   4.684 -0.9437 -0.2214  0.3089
 8544SOL    HW137094   0.424   1.315   4.704 -1.1376  2.5005  0.0483
 8544SOL    HW237095   0.303   1.395   4.660  1.0072  0.3002 -0.0273
 8545SOL     OW37096   0.692   0.468  10.628  0.1070 -0.4632  0.4765
 8545SOL    HW137097   0.613   0.492  10.675  0.3574 -0.4221  0.8772
 8545SOL    HW237098   0.676   0.492  10.537  0.5270  0.2835  0.6050
 8546SOL     OW37099   0.553   3.365   2.076 -0.0501 -0.2783 -0.2886
 8546SOL    HW137100   0.556   3.276   2.112  1.6402 -0.9339 -2.0427
 8546SOL    HW237101   0.536   3.351   1.983 -0.6149  0.2554 -0.2633
 8547SOL     OW37102   3.495   2.406  17.050  0.4283  0.2627 -0.0591
 8547SOL    HW137103   3.573   2.358  17.081 -0.1664 -0.0763  0.9140
 8547SOL    HW237104   3.529   2.472  16.989 -0.3899  1.8389  1.2042
 8548SOL     OW37105   2.137   0.123   2.356 -0.3680 -0.6605 -0.2699
 8548SOL    HW137106   2.147   0.043   2.407  0.8132  0.2652  0.9326
 8548SOL    HW237107   2.196   0.180   2.405  0.8629 -3.2489  1.2787
 8549SOL     OW37108   3.603   2.771   1.003 -0.7957  0.1987  0.1294
 8549SOL    HW137109   3.542   2.831   1.047 -1.8565 -0.6665 -0.1671
 8549SOL    HW237110   3.560   2.731   0.927 -1.3033  0.5372  0.2366
 8550SOL     OW37111   4.634   0.446   3.259 -0.8320 -0.5403  0.2226
 8550SOL    HW137112   4.599   0.527   3.297 -0.0309 -0.2975  0.4402
 8550SOL    HW237113   4.678   0.392   3.324 -0.1589  0.8901  0.9464
 8551SOL     OW37114   1.284   1.232   2.641 -0.3026 -0.4530  0.8102
 8551SOL    HW137115   1.287   1.307   2.583 -2.3205 -0.4657  0.6946
 8551SOL    HW237116   1.215   1.259   2.702  0.3607  2.6643  0.1781
 8552SOL     OW37117   0.474   0.771   5.128  0.4291 -0.2456  0.5319
 8552SOL    HW137118   0.423   0.804   5.203  2.2112  2.6096  0.4990
 8552SOL    HW237119   0.474   0.676   5.135 -1.4525 -0.1982  1.1690
 8553SOL     OW37120   0.787   0.557  15.568  0.1890 -0.1569  0.1080
 8553SOL    HW137121   0.792   0.475  15.520  0.1066  0.5584 -1.1156
 8553SOL    HW237122   0.867   0.552  15.620  0.6865 -1.0374 -0.7376
 8554SOL     OW37123   0.341   0.005   2.711  0.1440  0.0643 -0.1565
 8554SOL    HW137124   0.426   4.682   2.708 -0.8681 -1.8348 -1.7566
 8554SOL    HW237125   0.308   4.712   2.622  0.1887 -0.1669 -0.1401
 8555SOL     OW37126   3.744   3.579   6.228 -0.4572 -0.2841  0.2842
 8555SOL    HW137127   3.830   3.540   6.240  0.4085  1.2108 -1.0341
 8555SOL    HW237128   3.681   3.524   6.274 -2.5830 -0.5198 -2.8805
 8556SOL     OW37129   1.124   2.618  11.529  0.0724  0.0630 -0.7455
 8556SOL    HW137130   1.125   2.653  11.618 -2.0475  0.5737 -0.9312
 8556SOL    HW237131   1.161   2.690  11.478 -0.3509 -0.2427 -1.4807
 8557SOL     OW37132   2.948   0.490   9.138  0.4882 -0.0076  0.4662
 8557SOL    HW137133   3.027   0.528   9.175  0.1822  0.9899  0.1024
 8557SOL    HW237134   2.886   0.512   9.207  4.0248 -0.0568  3.6044
 8558SOL     OW37135   2.582   3.642   3.920  0.5867  0.3862 -0.1128
 8558SOL    HW137136   2.569   3.737   3.923 -1.3313  0.1914 -1.5734
 8558SOL    HW237137   2.569   3.631   3.825  1.8934  2.1352 -0.5076
 8559SOL     OW37138   4.221   1.246  15.581  0.1770  0.6395  1.0988
 8559SOL    HW137139   4.227   1.220  15.488 -1.2363  1.3945  0.8078
 8559SOL    HW237140   4.265   1.171  15.621 -0.7560 -0.3074  0.3703
 8560SOL     OW37141   4.676   3.487   4.866  0.4828 -0.6383  0.0383
 8560SOL    HW137142   0.034   3.431   4.870  1.4955  0.7126 -0.5959
 8560SOL    HW237143   0.004   3.569   4.850 -1.5349  0.7897  1.5112
 8561SOL     OW37144   1.177   1.444   7.004  0.2111  0.5495 -0.7288
 8561SOL    HW137145   1.171   1.387   7.080 -2.4549 -0.2875 -1.5527
 8561SOL    HW237146   1.086   1.442   6.974 -0.3009 -0.0895  0.8490
 8562SOL     OW37147   1.853   0.763   6.376 -0.0956 -0.2860 -0.3662
 8562SOL    HW137148   1.899   0.817   6.441  0.1790 -1.2421  0.2354
 8562SOL    HW237149   1.886   0.674   6.393  0.0574 -0.7330 -3.0453
 8563SOL     OW37150   0.912   4.310   3.815  0.3062 -0.8079  0.4557
 8563SOL    HW137151   0.822   4.277   3.817 -0.1115  0.2151 -1.2343
 8563SOL    HW237152   0.892   4.404   3.806  1.6468 -0.5649 -0.0442
 8564SOL     OW37153   2.205   4.002  13.432  0.9191 -0.3792  0.1213
 8564SOL    HW137154   2.143   4.055  13.481  2.0533  1.1596 -0.0932
 8564SOL    HW237155   2.288   4.051  13.434  1.4173 -1.1709 -0.8286
 8565SOL     OW37156   2.134   1.906   6.815 -0.4973  0.3030 -0.0097
 8565SOL    HW137157   2.136   1.830   6.872  2.5935  0.4458  0.0922
 8565SOL    HW237158   2.053   1.897   6.766 -1.0503 -1.4749  1.2571
 8566SOL     OW37159   3.461   4.350  17.516  0.0770  0.2501  0.2518
 8566SOL    HW137160   3.450   4.417  17.584 -1.4940  0.9939 -0.7251
 8566SOL    HW237161   3.556   4.334  17.516  0.2721  1.3706 -0.1480
 8567SOL     OW37162   3.558   4.111   5.289  0.2660 -0.2717 -0.3042
 8567SOL    HW137163   3.489   4.083   5.229 -0.3644 -0.8111  0.6597
 8567SOL    HW237164   3.522   4.196   5.313  0.8864 -0.2603  0.6131
 8568SOL     OW37165   2.823   1.956   3.567 -0.2063 -0.3770 -0.1324
 8568SOL    HW137166   2.810   2.006   3.486  0.2658  0.0649  0.0598
 8568SOL    HW237167   2.854   2.022   3.629 -0.2524  2.0846 -2.7281
 8569SOL     OW37168   3.519   3.294  16.852  0.0203 -0.4251  0.4168
 8569SOL    HW137169   3.544   3.347  16.927 -3.5159 -0.0796  1.3213
 8569SOL    HW237170   3.570   3.333  16.781  0.6700  0.4571  1.3672
 8570SOL     OW37171   2.474   2.544  17.094  0.2341 -0.2432  0.1568
 8570SOL    HW137172   2.554   2.524  17.045  1.7419  0.8466  2.1794
 8570SOL    HW237173   2.493   2.530  17.187  3.0177  0.9692 -0.2141
 8571SOL     OW37174   2.211   3.176   1.279 -0.3354  0.0332  0.3566
 8571SOL    HW137175   2.299   3.156   1.247 -0.5733 -0.0095 -0.2769
 8571SOL    HW237176   2.203   3.271   1.287  1.4227  0.0686  1.7136
 8572SOL     OW37177   3.196   2.260  13.440 -0.1654 -0.0101  0.2311
 8572SOL    HW137178   3.255   2.261  13.365 -1.8035  0.3114 -1.0486
 8572SOL    HW237179   3.128   2.215  13.391 -0.9655  1.4665 -0.0103
 8573SOL     OW37180   1.536   2.013   6.241 -0.2401  0.0799  0.2383
 8573SOL    HW137181   1.493   2.035   6.323  1.1156 -0.8098  1.1769
 8573SOL    HW237182   1.557   1.924   6.268  1.5980  0.3584 -0.2992
 8574SOL     OW37183   3.535   0.019   1.640  0.0357  0.5289 -0.0208
 8574SOL    HW137184   3.589   4.692   1.577  0.0687  2.9779 -1.7950
 8574SOL    HW237185   3.584   0.098   1.662  0.6292  0.3442 -0.7154
 8575SOL     OW37186   4.276   0.925   6.759  0.3753  0.0960 -0.2552
 8575SOL    HW137187   4.243   0.881   6.838  0.7461  1.3140  0.5921
 8575SOL    HW237188   4.369   0.931   6.780 -0.0853  0.4030  1.7519
 8576SOL     OW37189   0.841   3.881   5.937 -0.4513 -0.1981 -0.3622
 8576SOL    HW137190   0.870   3.813   5.876 -0.1492 -2.4476  2.2929
 8576SOL    HW237191   0.752   3.848   5.944 -0.0981 -1.1466 -0.3277
 8577SOL     OW37192   2.774   2.011   8.305  0.1584  0.3188  0.4158
 8577SOL    HW137193   2.852   2.041   8.257  1.1901 -0.8195  1.3812
 8577SOL    HW237194   2.819   1.949   8.362  0.2985 -0.2649 -0.3337
 8578SOL     OW37195   1.299   2.356   1.502 -0.2374  0.3047  0.3947
 8578SOL    HW137196   1.249   2.437   1.504  1.0290  1.0633  1.2190
 8578SOL    HW237197   1.384   2.400   1.510  0.8800 -1.7019 -0.3377
 8579SOL     OW37198   1.334   0.558  11.652  0.3099 -0.0433 -0.5746
 8579SOL    HW137199   1.324   0.532  11.561 -0.0053 -0.8731 -0.3096
 8579SOL    HW237200   1.357   0.651  11.646 -0.9517  0.3797  1.0320
 8580SOL     OW37201   3.853   3.735  14.995 -0.5412  0.6585 -0.7442
 8580SOL    HW137202   3.821   3.743  14.905 -0.9093 -3.7345 -1.0169
 8580SOL    HW237203   3.766   3.738  15.036 -0.5410  0.6783 -0.7455
 8581SOL     OW37204   0.402   4.068   8.416  0.5179 -0.3877 -0.1285
 8581SOL    HW137205   0.433   4.036   8.501  1.2157  0.3199 -0.1167
 8581SOL    HW237206   0.352   3.999   8.373 -0.5422 -0.4665  1.2362
 8582SOL     OW37207   2.202   3.768   2.534  0.3343  0.3804 -0.0782
 8582SOL    HW137208   2.170   3.809   2.453 -4.0120 -2.3140  0.2686
 8582SOL    HW237209   2.281   3.727   2.500  0.0411  0.3681 -0.7466
 8583SOL     OW37210   2.492   3.950   0.712  0.2134  0.3548  0.1750
 8583SOL    HW137211   2.457   3.872   0.668  0.9128 -0.4057  0.9616
 8583SOL    HW237212   2.502   4.011   0.640 -0.9956 -3.3406 -3.1638
 8584SOL     OW37213   0.960   2.111   5.978 -0.6121 -0.2636 -0.7338
 8584SOL    HW137214   1.009   2.158   5.911  0.5483  0.4800  0.6408
 8584SOL    HW237215   0.878   2.082   5.937 -1.1363 -0.2709  0.3175
 8585SOL     OW37216   3.529   2.309  14.971  0.0852  0.1056  1.1437
 8585SOL    HW137217   3.555   2.293  15.062 -0.1706 -2.4278  0.7725
 8585SOL    HW237218   3.574   2.233  14.933 -0.3700  1.4472 -2.0430
 8586SOL     OW37219   3.077   0.845   9.101 -0.3377 -0.4300 -0.5585
 8586SOL    HW137220   2.985   0.857   9.078  0.9041  4.6762 -2.7391
 8586SOL    HW237221   3.118   0.874   9.020 -2.1330  0.1531 -1.2668
 8587SOL     OW37222   0.352   0.365   8.976 -0.0450 -0.6564 -0.1041
 8587SOL    HW137223   0.274   0.395   9.023  0.3845  0.4209 -0.0873
 8587SOL    HW237224   0.409   0.348   9.052 -0.8259 -0.7485  0.4652
 8588SOL     OW37225   0.323   0.133   2.997 -0.0220  0.2509  0.4462
 8588SOL    HW137226   0.303   0.087   2.916  1.4620 -0.5977  0.5605
 8588SOL    HW237227   0.333   0.056   3.052 -0.1270  0.4440  0.7378
 8589SOL     OW37228   0.852   1.768   5.685 -0.7051 -0.4631 -0.2795
 8589SOL    HW137229   0.823   1.680   5.708 -0.1261 -0.4738  0.3817
 8589SOL    HW237230   0.839   1.775   5.590  0.6554  0.5476 -0.3914
 8590SOL     OW37231   0.368   4.494  16.924  0.2997  0.3792  0.8522
 8590SOL    HW137232   0.328   4.465  17.006 -2.1468 -1.9215 -1.1615
 8590SOL    HW237233   0.316   4.572  16.905 -0.6579  0.1564  2.6228
 8591SOL     OW37234   1.217   0.983   1.287 -0.0969 -0.3515  0.2642
 8591SOL    HW137235   1.190   0.962   1.198 -0.9888  1.4822  0.0979
 8591SOL    HW237236   1.159   1.056   1.307  1.2489  0.2730  1.8513
 8592SOL     OW37237   3.473   3.212   3.325  0.4067  0.5779  0.8600
 8592SOL    HW137238   3.521   3.269   3.264  1.2374 -1.1921 -0.1444
 8592SOL    HW237239   3.394   3.263   3.343  0.0959 -0.2533  1.8642
 8593SOL     OW37240   1.435   1.326  12.965 -0.1721  0.2649 -0.7020
 8593SOL    HW137241   1.463   1.400  13.017 -3.4336  1.6100 -0.8417
 8593SOL    HW237242   1.340   1.333  12.970 -0.0753 -0.0353  1.6397
 8594SOL     OW37243   1.344   2.723   1.789  0.1220  0.9777  0.2618
 8594SOL    HW137244   1.264   2.696   1.834  1.1754 -4.7440 -1.2492
 8594SOL    HW237245   1.411   2.683   1.843  0.6783 -0.7422 -1.7188
 8595SOL     OW37246   0.638   2.576  16.713 -0.2969 -0.1217 -0.3132
 8595SOL    HW137247   0.620   2.625  16.794 -0.4951 -2.6128  1.1255
 8595SOL    HW237248   0.612   2.642  16.649  2.7789 -0.4374 -1.9102
 8596SOL     OW37249   2.595   3.969  16.158 -0.5924  0.4771  0.0332
 8596SOL    HW137250   2.656   3.939  16.225 -1.2223  0.1511  0.4613
 8596SOL    HW237251   2.528   3.976  16.226 -1.5323  0.3643 -0.8759
 8597SOL     OW37252   2.319   0.381   8.148  0.5639 -0.2515  0.3835
 8597SOL    HW137253   2.291   0.321   8.218 -1.0078  1.8295  1.5455
 8597SOL    HW237254   2.337   0.463   8.193 -1.9721 -0.8043  2.4121
 8598SOL     OW37255   3.667   0.457   8.221 -0.0384  0.0440  0.0691
 8598SOL    HW137256   3.602   0.393   8.193 -0.1058  0.0894  0.1189
 8598SOL    HW237257   3.723   0.399   8.272  1.7672 -0.4755 -2.5474
 8599SOL     OW37258   0.912   1.446   6.978 -0.1199  0.2131 -0.4368
 8599SOL    HW137259   0.893   1.537   6.955 -0.5877  0.0132 -0.8404
 8599SOL    HW237260   0.900   1.400   6.895 -2.1336  0.5237 -0.3272
 8600SOL     OW37261   1.831   4.599   2.204  0.0967 -0.6691  0.3732
 8600SOL    HW137262   1.770   4.655   2.156  0.8792 -1.3299 -1.3864
 8600SOL    HW237263   1.895   4.566   2.141 -0.5600  1.7772 -1.5413
 8601SOL     OW37264   1.262   4.619   8.476  0.2052  0.1137 -0.3708
 8601SOL    HW137265   1.248   4.702   8.430  0.4982  1.4484  1.9044
 8601SOL    HW237266   1.357   4.606   8.485  0.0807 -1.3023 -1.1049
 8602SOL     OW37267   4.345   3.574   0.406  0.3539  0.8118  0.0400
 8602SOL    HW137268   4.256   3.539   0.413 -0.1638  1.9530 -0.6869
 8602SOL    HW237269   4.317   3.666   0.401 -0.7554  0.5896  2.1235
 8603SOL     OW37270   2.302   1.059   3.010  0.0651  0.3258  0.3128
 8603SOL    HW137271   2.354   1.126   2.966 -0.5739  0.9382  0.4814
 8603SOL    HW237272   2.222   1.109   3.026 -0.2147  0.5102 -1.7019
 8604SOL     OW37273   3.949   1.632   2.229  0.0824  0.3178 -0.2903
 8604SOL    HW137274   3.890   1.688   2.179 -1.3063  0.0854  1.1332
 8604SOL    HW237275   4.025   1.650   2.173  0.0482 -2.7838 -1.3415
 8605SOL     OW37276   4.382   1.483  16.534 -0.3303 -0.5732 -0.0523
 8605SOL    HW137277   4.353   1.494  16.625 -1.6850  2.1271 -0.7884
 8605SOL    HW237278   4.471   1.520  16.530  0.3989 -2.2665  0.8380
 8606SOL     OW37279   3.488   4.547   3.031 -0.4479 -0.2599 -0.5343
 8606SOL    HW137280   3.507   4.635   3.063 -2.5356  0.4311 -1.2696
 8606SOL    HW237281   3.405   4.524   3.071 -0.0194  2.5770  1.9559
 8607SOL     OW37282   0.486   3.456  10.760 -0.1721 -0.1048 -0.3685
 8607SOL    HW137283   0.579   3.452  10.737 -0.0543  1.2146 -0.1051
 8607SOL    HW237284   0.472   3.509  10.681 -0.4169  1.1365  0.5097
 8608SOL     OW37285   1.072   0.079   3.445 -0.4266 -0.4727  0.4861
 8608SOL    HW137286   1.070   4.703   3.433 -0.3792 -0.3784 -0.2683
 8608SOL    HW237287   1.015   0.115   3.377  0.5784 -0.6883 -0.4670
 8609SOL     OW37288   1.682   3.544   9.312 -0.0905  0.0015 -0.4011
 8609SOL    HW137289   1.697   3.550   9.406  2.9506  0.1946 -0.9187
 8609SOL    HW237290   1.752   3.484   9.286  0.9766  1.8563 -1.8120
 8610SOL     OW37291   0.296   0.131  12.001 -0.2515 -0.0940  0.3210
 8610SOL    HW137292   0.362   0.157  11.937  0.1503 -1.6448  0.1021
 8610SOL    HW237293   0.324   0.040  12.007 -1.1532 -0.4831 -1.5281
 8611SOL     OW37294   4.463   3.529   6.601  0.0975 -0.5811  0.2321
 8611SOL    HW137295   4.387   3.476   6.625 -0.2690 -0.5451 -0.8919
 8611SOL    HW237296   4.517   3.462   6.561  0.6681 -0.4253  0.7310
 8612SOL     OW37297   3.989   4.644  16.343 -0.3010  0.1482  0.1750
 8612SOL    HW137298   4.061   4.636  16.280 -2.5694 -1.3481 -2.2617
 8612SOL    HW237299   3.994   4.555  16.377  1.2923 -0.7709 -2.5124
 8613SOL     OW37300   2.459   4.116   3.389  0.2236  0.0508 -0.4566
 8613SOL    HW137301   2.388   4.168   3.350 -1.9597 -1.4935  1.4006
 8613SOL    HW237302   2.437   4.025   3.367  0.7607 -1.1271  3.8727
 8614SOL     OW37303   2.175   0.883   7.618 -0.0965  0.2221 -0.1072
 8614SOL    HW137304   2.193   0.885   7.712  0.8964 -0.4185 -0.2758
 8614SOL    HW237305   2.217   0.964   7.590 -1.0023  0.3077 -1.1741
 8615SOL     OW37306   2.049   0.641   9.827  0.2371 -0.0331 -0.8728
 8615SOL    HW137307   2.056   0.586   9.748  0.5833  0.8606 -1.4655
 8615SOL    HW237308   2.044   0.569   9.890  0.3817 -0.1878 -1.0342
 8616SOL     OW37309   3.708   2.326   3.006  0.0210  0.2073 -0.0820
 8616SOL    HW137310   3.745   2.376   3.079  0.1789  1.0755 -0.7620
 8616SOL    HW237311   3.780   2.344   2.945 -0.8244  3.3565 -0.1226
 8617SOL     OW37312   3.166   2.887   5.347 -0.1399  0.0422 -0.7466
 8617SOL    HW137313   3.222   2.964   5.339 -0.3353  0.3944  1.1473
 8617SOL    HW237314   3.133   2.882   5.258 -0.3734  0.1070 -0.6637
 8618SOL     OW37315   3.085   3.559   8.260 -0.0916 -0.5533 -0.1184
 8618SOL    HW137316   3.089   3.603   8.344 -1.3653 -2.5465  1.0035
 8618SOL    HW237317   3.089   3.632   8.198  0.1825  0.4249  1.0679
 8619SOL     OW37318   1.911   2.849   0.410 -0.3505 -0.1695 -0.0353
 8619SOL    HW137319   1.944   2.864   0.322 -0.4484 -0.6200 -0.1458
 8619SOL    HW237320   1.837   2.910   0.414 -0.8671 -0.8478  0.9369
 8620SOL     OW37321   0.283   4.488   5.525 -0.5450 -0.7796  0.2114
 8620SOL    HW137322   0.270   4.575   5.563  0.7662 -0.5974  0.2160
 8620SOL    HW237323   0.336   4.448   5.594  2.4956  0.5550 -1.3594
 8621SOL     OW37324   2.325   0.216   2.543  0.2019  0.4351  0.4463
 8621SOL    HW137325   2.268   0.199   2.618  0.1715  0.9710  0.5474
 8621SOL    HW237326   2.387   0.255   2.605 -0.4411 -0.0127  1.3669
 8622SOL     OW37327   2.421   0.185   7.906 -0.2276 -0.1627 -0.3832
 8622SOL    HW137328   2.390   0.095   7.913  1.1152 -0.7799 -2.4976
 8622SOL    HW237329   2.369   0.244   7.961 -1.4844 -1.0018 -0.6842
 8623SOL     OW37330   2.458   0.755   4.855 -0.2847  0.2382 -0.4286
 8623SOL    HW137331   2.528   0.818   4.839  1.1549 -1.2390 -0.0307
 8623SOL    HW237332   2.491   0.703   4.928  0.8231 -0.2712 -1.2912
 8624SOL     OW37333   2.941   2.551  12.322  0.1545  0.0450 -0.1595
 8624SOL    HW137334   2.875   2.509  12.377 -0.2639  1.4426  0.4133
 8624SOL    HW237335   2.988   2.470  12.303 -1.0631 -0.9882  1.2470
 8625SOL     OW37336   4.676   1.304   8.522 -0.1949 -0.0900  0.2894
 8625SOL    HW137337   4.619   1.379   8.509 -0.8966 -0.2445  2.3794
 8625SOL    HW237338   4.612   1.236   8.545 -1.3359  1.2730  1.1224
 8626SOL     OW37339   4.326   2.093   9.358 -0.1069  0.4761  0.3510
 8626SOL    HW137340   4.325   2.087   9.263  1.5092 -1.6016  0.4669
 8626SOL    HW237341   4.407   2.141   9.376  0.2952  0.1750 -0.6652
 8627SOL     OW37342   0.809   2.696   2.964  0.0210  0.2352 -0.3286
 8627SOL    HW137343   0.717   2.676   2.948 -0.5572  3.0732 -0.6061
 8627SOL    HW237344   0.848   2.687   2.877  0.0402 -0.4792 -0.2456
 8628SOL     OW37345   0.244   1.599   6.922 -0.4470 -0.0681  0.1900
 8628SOL    HW137346   0.277   1.520   6.964  0.5062 -0.4699 -1.2963
 8628SOL    HW237347   0.327   1.618   6.878 -1.3259 -2.2102 -2.4069
 8629SOL     OW37348   2.061   1.656  10.717  0.1607 -0.0021  0.0638
 8629SOL    HW137349   2.025   1.739  10.747 -0.9966  0.0673 -1.4911
 8629SOL    HW237350   2.115   1.684  10.643 -0.8197 -0.1409 -0.7025
 8630SOL     OW37351   4.353   4.563   5.704 -0.0157  0.4951  0.4025
 8630SOL    HW137352   4.431   4.592   5.657 -1.3007  0.4892 -1.7223
 8630SOL    HW237353   4.369   4.470   5.723  1.4631  0.1814 -2.3321
 8631SOL     OW37354   2.819   2.861  14.233  0.6208 -0.0626  0.0517
 8631SOL    HW137355   2.795   2.780  14.188  2.7790 -0.6205 -0.0739
 8631SOL    HW237356   2.914   2.869  14.227  0.4229  2.1933 -0.0797
 8632SOL     OW37357   2.583   4.372   5.224 -0.0214 -0.1848  0.8889
 8632SOL    HW137358   2.665   4.368   5.273  0.8111  0.6292 -0.4215
 8632SOL    HW237359   2.532   4.368   5.305  0.7254  3.9783  1.5640
 8633SOL     OW37360   2.296   1.519   5.510 -0.2182  0.3576 -0.5966
 8633SOL    HW137361   2.217   1.467   5.522  1.1129 -1.5407  0.0180
 8633SOL    HW237362   2.258   1.597   5.470  0.1884  1.0869  0.4484
 8634SOL     OW37363   1.826   1.739   4.309  0.1836 -0.0232  0.1186
 8634SOL    HW137364   1.795   1.651   4.288  0.6843 -0.2859  0.4799
 8634SOL    HW237365   1.747   1.772   4.350 -0.4293 -0.9899 -0.2874
 8635SOL     OW37366   0.590   2.613  11.254 -0.5794 -0.4649  0.5116
 8635SOL    HW137367   0.509   2.641  11.296  0.0726  0.9828  0.8180
 8635SOL    HW237368   0.563   2.644  11.168  2.5644  0.7664 -0.0573
 8636SOL     OW37369   1.886   2.146   2.149  0.9817  0.8243  1.2161
 8636SOL    HW137370   1.975   2.130   2.116 -0.2921 -0.0797 -1.8242
 8636SOL    HW237371   1.863   2.220   2.093  1.5395  0.8730  1.0565
 8637SOL     OW37372   3.094   4.243   8.041 -0.0645  0.9525 -0.1775
 8637SOL    HW137373   3.074   4.289   7.960 -0.3377  1.2494  0.0559
 8637SOL    HW237374   3.076   4.311   8.106  0.0610  0.8974 -0.0859
 8638SOL     OW37375   3.599   1.572   5.515  0.2042 -0.4811 -0.7844
 8638SOL    HW137376   3.526   1.634   5.514  0.4962 -0.0959  2.0202
 8638SOL    HW237377   3.630   1.575   5.425 -1.2190 -0.5637 -1.2660
 8639SOL     OW37378   1.503   0.358   1.450  0.1652 -0.2778  0.5765
 8639SOL    HW137379   1.502   0.352   1.355  2.0500 -1.2718  0.6343
 8639SOL    HW237380   1.443   0.430   1.470  0.8623 -0.1179  2.1206
 8640SOL     OW37381   1.817   0.389   3.440 -0.3621  0.1822 -0.3397
 8640SOL    HW137382   1.738   0.366   3.390  0.8337 -1.7501 -1.3334
 8640SOL    HW237383   1.792   0.336   3.517  0.9759 -1.3705 -0.9669
 8641SOL     OW37384   3.766   4.350   0.853 -0.0517 -0.5927  0.2575
 8641SOL    HW137385   3.678   4.375   0.883  0.4543  0.4337  0.8700
 8641SOL    HW237386   3.799   4.317   0.936 -0.0262  0.0566  0.5089
 8642SOL     OW37387   2.098   2.262  10.030 -0.6987 -0.7989  0.5291
 8642SOL    HW137388   2.097   2.357  10.023 -1.5452 -0.6683  2.3654
 8642SOL    HW237389   2.100   2.242   9.937 -3.0845 -1.4586  0.6268
 8643SOL     OW37390   1.100   4.564   8.688 -0.4051  0.5121 -0.9581
 8643SOL    HW137391   1.149   4.583   8.608  2.1290  0.7890  0.6548
 8643SOL    HW237392   1.097   4.654   8.721 -0.9265 -0.4845  1.7244
 8644SOL     OW37393   4.373   0.450  16.320 -0.4032 -0.4098  0.2345
 8644SOL    HW137394   4.289   0.465  16.365 -0.0495 -2.5628  1.6128
 8644SOL    HW237395   4.408   0.381  16.377 -0.1842 -0.6263 -0.1601
 8645SOL     OW37396   1.793   1.299  14.480 -0.0322  0.9003  0.2909
 8645SOL    HW137397   1.848   1.271  14.406 -1.7638  0.6121 -0.8853
 8645SOL    HW237398   1.855   1.349  14.533  1.0094 -1.7944  1.6440
 8646SOL     OW37399   2.092   0.242   3.834  0.1502  0.4614  0.8708
 8646SOL    HW137400   2.041   0.189   3.895  2.0764  0.3465  2.3617
 8646SOL    HW237401   2.150   0.293   3.890  1.6050 -0.4279  0.1949
 8647SOL     OW37402   3.148   2.870   8.126  0.2063  0.1871  0.1321
 8647SOL    HW137403   3.239   2.890   8.106 -0.5075  4.0712  0.7608
 8647SOL    HW237404   3.140   2.917   8.209  0.5319  0.6378 -0.0967
 8648SOL     OW37405   2.964   1.677  17.215 -0.0509 -0.3186 -0.3051
 8648SOL    HW137406   2.971   1.694  17.121 -0.8199 -0.0904 -0.3230
 8648SOL    HW237407   2.885   1.728  17.231 -0.9441 -1.2925 -1.5819
 8649SOL     OW37408   4.464   4.522   2.808 -0.1088  0.0500  0.2244
 8649SOL    HW137409   4.400   4.460   2.843  0.0457  0.0676  0.5388
 8649SOL    HW237410   4.500   4.566   2.886  0.5528 -1.5805  0.8317
 8650SOL     OW37411   2.470   1.990   7.467  0.5759 -0.3556 -0.3908
 8650SOL    HW137412   2.467   2.082   7.441  0.8909  0.2539  1.6792
 8650SOL    HW237413   2.389   1.954   7.432 -0.1636  2.2330 -1.3680
 8651SOL     OW37414   2.824   1.166   4.259 -0.2647  0.6280  0.1617
 8651SOL    HW137415   2.735   1.177   4.225 -1.1260 -2.2682  1.4321
 8651SOL    HW237416   2.856   1.256   4.255  3.4129 -0.5803  2.1887
 8652SOL     OW37417   0.601   2.495  10.756 -0.0805  0.0986 -0.1992
 8652SOL    HW137418   0.606   2.430  10.687 -2.3665 -0.0036 -0.2959
 8652SOL    HW237419   0.524   2.544  10.724 -0.6529 -0.5874  0.1248
 8653SOL     OW37420   1.047   2.968   7.949  0.0651  0.0966  0.6458
 8653SOL    HW137421   1.008   3.025   8.015 -0.9061 -0.4286  0.5297
 8653SOL    HW237422   1.008   2.993   7.865 -0.5247 -0.8474  0.6356
 8654SOL     OW37423   3.689   3.253  16.171  0.2375  0.0328 -0.1000
 8654SOL    HW137424   3.730   3.292  16.249  1.8177  0.4929 -1.1664
 8654SOL    HW237425   3.747   3.290  16.104  1.1190 -1.2377 -0.0376
 8655SOL     OW37426   0.078   0.370  13.036  0.1689  0.3000 -0.1497
 8655SOL    HW137427   0.039   0.449  13.074  0.5298  0.5397 -0.2714
 8655SOL    HW237428   0.058   0.299  13.097  0.1640  0.0894 -0.3984
 8656SOL     OW37429   3.810   4.074  11.979  0.3812 -0.6902 -0.5277
 8656SOL    HW137430   3.735   4.022  12.008 -1.1062  1.4485 -0.5790
 8656SOL    HW237431   3.881   4.010  11.983  2.3300  1.4813 -0.7489
 8657SOL     OW37432   0.739   2.650   6.882  0.3638  0.3848  0.3877
 8657SOL    HW137433   0.652   2.634   6.920 -0.1078  0.3758 -0.7092
 8657SOL    HW237434   0.800   2.637   6.954  0.2311 -1.8616  0.0935
 8658SOL     OW37435   4.292   0.751   8.338 -0.1057  0.4294  0.4541
 8658SOL    HW137436   4.317   0.841   8.358 -1.0230  1.3839 -2.7444
 8658SOL    HW237437   4.372   0.704   8.363  1.5360  2.4665 -1.0138
 8659SOL     OW37438   1.518   1.526   5.012  0.3297 -0.1380 -0.0467
 8659SOL    HW137439   1.433   1.515   4.968  0.1301  0.3625  0.2188
 8659SOL    HW237440   1.573   1.469   4.958 -0.6142 -1.0330 -0.0815
 8660SOL     OW37441   3.232   3.181   8.833  0.6526 -0.3206  0.1308
 8660SOL    HW137442   3.268   3.126   8.764  0.6810  1.4812 -1.2897
 8660SOL    HW237443   3.273   3.267   8.819  1.4779 -1.0909 -2.2027
 8661SOL     OW37444   1.372   4.438  11.913 -0.5141 -0.2080 -0.4478
 8661SOL    HW137445   1.385   4.491  11.834  0.2863 -0.6919 -0.6380
 8661SOL    HW237446   1.392   4.507  11.976 -0.3541  2.2284 -3.1722
 8662SOL     OW37447   1.633   2.030  15.813 -0.7529 -0.4489  0.1819
 8662SOL    HW137448   1.633   1.995  15.902  0.5452  2.1697  1.2080
 8662SOL    HW237449   1.711   2.085  15.818 -1.5572  0.5548  1.7260
 8663SOL     OW37450   3.586   1.420   0.209  0.0863 -0.0682  0.7349
 8663SOL    HW137451   3.633   1.396   0.129 -0.3503  1.0764  0.1295
 8663SOL    HW237452   3.628   1.349   0.257 -0.5502 -1.1974 -0.3701
 8664SOL     OW37453   4.454   3.681   5.258 -0.3767 -0.2224 -0.5998
 8664SOL    HW137454   4.484   3.591   5.267  0.1189  0.0700  0.5775
 8664SOL    HW237455   4.396   3.698   5.332 -0.3432 -0.7935 -0.4431
 8665SOL     OW37456   1.668   3.969   2.082  0.1760 -0.3078 -0.1820
 8665SOL    HW137457   1.635   4.058   2.065 -1.6582 -1.0896 -0.6655
 8665SOL    HW237458   1.598   3.912   2.049 -0.4644 -0.3974  1.3217
 8666SOL     OW37459   4.338   2.049   6.620  0.1224 -0.4967  0.1173
 8666SOL    HW137460   4.243   2.056   6.627  0.0133 -0.9677 -0.8785
 8666SOL    HW237461   4.333   2.006   6.534  2.0906 -1.7724  0.6384
 8667SOL     OW37462   0.298   0.117   4.186  0.0260 -0.3548 -0.7071
 8667SOL    HW137463   0.313   0.023   4.189  0.6969 -0.2535 -0.7034
 8667SOL    HW237464   0.272   0.113   4.094  2.3067 -1.7282 -1.3017
 8668SOL     OW37465   2.100   0.166  16.614 -0.3764  0.0145 -0.2722
 8668SOL    HW137466   2.184   0.127  16.636 -0.7089 -1.2277 -1.1886
 8668SOL    HW237467   2.145   0.223  16.552 -0.6269 -2.0014 -2.3336
 8669SOL     OW37468   0.640   2.382   0.331 -0.3899  0.4485  0.2882
 8669SOL    HW137469   0.582   2.449   0.293 -1.0212 -1.6047 -2.4116
 8669SOL    HW237470   0.615   2.307   0.276  1.1857  0.0646  0.0977
 8670SOL     OW37471   3.558   1.223  14.585 -0.5388 -0.2488  0.1139
 8670SOL    HW137472   3.622   1.189  14.646  0.4134  1.1724 -0.0902
 8670SOL    HW237473   3.596   1.193  14.502  1.5209 -2.2227  1.7901
 8671SOL     OW37474   3.863   3.284   4.312 -0.2641  0.2805  0.2932
 8671SOL    HW137475   3.797   3.298   4.244 -0.7163 -0.9315  0.4731
 8671SOL    HW237476   3.828   3.227   4.381 -0.0976  0.0789  0.2128
 8672SOL     OW37477   1.599   1.418   1.503  0.1719  0.1764 -0.3785
 8672SOL    HW137478   1.527   1.471   1.539 -0.9674 -2.1474  0.7315
 8672SOL    HW237479   1.633   1.379   1.583 -1.0679 -0.6937 -0.2660
 8673SOL     OW37480   0.518   2.786   4.517 -0.2952 -0.1260  0.2867
 8673SOL    HW137481   0.521   2.696   4.550  1.0478  1.0862  3.4733
 8673SOL    HW237482   0.570   2.841   4.577  0.9301 -2.3820  1.3072
 8674SOL     OW37483   2.141   1.184  13.293 -0.4262  0.1484 -0.2589
 8674SOL    HW137484   2.074   1.204  13.226  0.5241 -2.1859 -1.9129
 8674SOL    HW237485   2.219   1.170  13.239  0.4165  1.1438  0.7281
 8675SOL     OW37486   4.532   3.906   1.165 -0.9611 -0.2023  0.2448
 8675SOL    HW137487   4.560   3.864   1.246  1.1083  0.9631  0.1462
 8675SOL    HW237488   4.476   3.973   1.203  1.4587  1.5146  0.7714
 8676SOL     OW37489   3.392   4.302   7.348  0.0671  0.0399 -0.2680
 8676SOL    HW137490   3.373   4.394   7.328  1.5266  0.4543  0.2885
 8676SOL    HW237491   3.326   4.288   7.416 -0.7015  1.8384 -0.6259
 8677SOL     OW37492   4.084   3.769   4.837  0.4443  0.0874  0.6347
 8677SOL    HW137493   4.106   3.858   4.808 -0.1123  0.4238  1.2352
 8677SOL    HW237494   4.143   3.711   4.789 -1.5924 -2.3566  1.0617
 8678SOL     OW37495   1.504   3.595  10.719  0.7935 -0.3523  0.2234
 8678SOL    HW137496   1.582   3.541  10.708  0.7636 -0.3285 -0.1156
 8678SOL    HW237497   1.528   3.651  10.793  0.5304 -0.3112  0.2789
 8679SOL     OW37498   4.425   1.337   8.806  0.0665 -0.0695  0.3413
 8679SOL    HW137499   4.399   1.369   8.892  1.4140  1.1310  0.3103
 8679SOL    HW237500   4.503   1.283   8.823 -0.2094  0.1635  2.3068
 8680SOL     OW37501   3.495   0.342   6.583  0.1854  0.1704  0.5547
 8680SOL    HW137502   3.464   0.391   6.507 -1.4789 -0.1823  0.9944
 8680SOL    HW237503   3.561   0.282   6.549  0.5442  0.7162  0.2839
 8681SOL     OW37504   1.367   4.626   4.009 -0.0315 -0.4051 -0.0042
 8681SOL    HW137505   1.423   4.625   4.087 -0.3768 -1.1456  0.2280
 8681SOL    HW237506   1.377   4.535   3.983  2.4432 -0.4425  1.0170
 8682SOL     OW37507   3.907   0.636   5.205 -0.8238 -0.0418 -0.7343
 8682SOL    HW137508   3.859   0.557   5.181 -0.1972 -0.7048  0.1835
 8682SOL    HW237509   3.889   0.633   5.299  0.7301 -1.8200 -0.4860
 8683SOL     OW37510   0.087   2.082   8.396  0.5704  0.0214 -0.1263
 8683SOL    HW137511   0.117   1.991   8.405  2.3077  0.4845 -1.2933
 8683SOL    HW237512   0.150   2.111   8.330 -0.6772  0.1951 -1.2436
 8684SOL     OW37513   0.901   2.500   6.025  0.1163  0.1011  0.4836
 8684SOL    HW137514   0.941   2.421   5.988 -0.4742  0.4119 -0.8438
 8684SOL    HW237515   0.870   2.461   6.106  0.5462 -1.3091 -0.0445
 8685SOL     OW37516   1.663   4.142   8.649 -0.0198 -0.2081  0.2626
 8685SOL    HW137517   1.595   4.099   8.596  1.9956 -1.6241 -1.1498
 8685SOL    HW237518   1.606   4.156   8.725  1.5239 -0.0844  1.3988
 8686SOL     OW37519   0.666   2.496   6.492 -0.2623  0.5330  0.4880
 8686SOL    HW137520   0.582   2.540   6.497 -1.1196 -0.8633 -1.8275
 8686SOL    HW237521   0.641   2.414   6.451  1.3439 -0.5138  1.5894
 8687SOL     OW37522   3.469   0.762   0.652 -0.6558  0.1699  0.3355
 8687SOL    HW137523   3.494   0.848   0.684 -2.1977  0.8390 -0.2699
 8687SOL    HW237524   3.519   0.707   0.712  0.0611 -1.3696 -1.6556
 8688SOL     OW37525   3.512   1.121   0.385  0.4614  0.6005 -0.1752
 8688SOL    HW137526   3.460   1.046   0.411 -1.3792  1.6085 -0.9278
 8688SOL    HW237527   3.572   1.084   0.320  1.6276 -0.0239  1.2555
 8689SOL     OW37528   3.959   1.093   0.066 -0.4570  0.1202 -0.6454
 8689SOL    HW137529   4.054   1.099   0.053 -0.6377 -0.6466 -2.2879
 8689SOL    HW237530   3.943   1.011   0.020  1.2766  0.6899 -2.3118
 8690SOL     OW37531   1.565   3.039   6.312  0.2358 -0.3014  0.0192
 8690SOL    HW137532   1.586   3.114   6.367 -0.5135 -0.7189  0.8810
 8690SOL    HW237533   1.647   2.990   6.316 -1.0487 -2.5269 -0.2727
 8691SOL     OW37534   3.850   0.964   5.624 -0.0107  0.2100 -0.4282
 8691SOL    HW137535   3.862   1.059   5.634  0.6625  0.1037 -0.2228
 8691SOL    HW237536   3.755   0.954   5.631  0.0422 -0.6947 -1.1452
 8692SOL     OW37537   0.932   0.900   5.346 -0.0732  0.2644 -0.7131
 8692SOL    HW137538   0.881   0.892   5.266 -3.1991 -0.3380  1.3110
 8692SOL    HW237539   0.890   0.837   5.405 -0.8176  2.4291  1.0639
 8693SOL     OW37540   1.784   2.037   1.060 -0.1046 -0.3599  0.6642
 8693SOL    HW137541   1.764   1.966   1.121  1.0670 -0.1542  1.2826
 8693SOL    HW237542   1.727   2.014   0.986  0.3610  3.2682 -0.8281
 8694SOL     OW37543   2.738   2.827   6.337  0.4141 -0.7012  0.4311
 8694SOL    HW137544   2.646   2.845   6.356  0.3796 -0.2188 -0.2053
 8694SOL    HW237545   2.777   2.913   6.346  0.0239 -0.5280  0.4534
 8695SOL     OW37546   4.339   3.385   3.517 -0.1602 -0.5274 -0.5257
 8695SOL    HW137547   4.358   3.310   3.461  1.3705  0.1730 -0.9452
 8695SOL    HW237548   4.359   3.342   3.600 -1.3628  3.4774  1.8593
 8696SOL     OW37549   0.614   4.342   9.816 -0.3246 -0.3277  0.2504
 8696SOL    HW137550   0.548   4.293   9.866  1.2642 -0.8302  1.8597
 8696SOL    HW237551   0.626   4.290   9.737 -1.4348  1.2621 -0.9671
 8697SOL     OW37552   3.777   0.039  16.514  0.1139  0.0428 -0.7321
 8697SOL    HW137553   3.742   4.714  16.591 -0.3374 -0.0067 -0.9596
 8697SOL    HW237554   3.804   4.688  16.455  0.6684  1.2000 -1.8762
 8698SOL     OW37555   1.169   0.515   2.510  0.4577  0.2775 -0.3591
 8698SOL    HW137556   1.221   0.472   2.578 -1.0064  0.7025  1.0421
 8698SOL    HW237557   1.228   0.581   2.472  2.4452 -1.1789  0.1809
 8699SOL     OW37558   0.755   3.914   5.077 -0.1534  0.0854  0.5223
 8699SOL    HW137559   0.819   3.984   5.063  0.2891 -0.2060  1.0597
 8699SOL    HW237560   0.686   3.958   5.126  0.0698  1.5291 -0.4742
 8700SOL     OW37561   0.542   3.565   3.495  0.3374  0.4257  0.5693
 8700SOL    HW137562   0.579   3.598   3.577 -1.0185 -0.3673  1.4986
 8700SOL    HW237563   0.512   3.480   3.528  0.0943  1.0042  1.8476
 8701SOL     OW37564   0.850   2.513   3.953  0.4113 -0.2968 -0.0960
 8701SOL    HW137565   0.840   2.593   4.004  0.4171 -1.1342  1.2193
 8701SOL    HW237566   0.921   2.477   4.005  0.8649  1.4147  0.4392
 8702SOL     OW37567   4.162   2.155   9.942 -0.0818  0.1252 -0.3480
 8702SOL    HW137568   4.256   2.151   9.928 -0.2197 -0.7086 -1.0178
 8702SOL    HW237569   4.139   2.064   9.923 -0.9110  0.0267  1.1236
 8703SOL     OW37570   0.520   2.250   5.508 -0.4323  0.1971  0.4054
 8703SOL    HW137571   0.441   2.252   5.454 -1.1298  0.4472  1.4333
 8703SOL    HW237572   0.579   2.192   5.460  0.9772  2.6817 -0.8627
 8704SOL     OW37573   4.034   0.596   2.117 -0.6046  0.0895  0.0378
 8704SOL    HW137574   4.006   0.582   2.026  1.7214  0.8649 -0.8250
 8704SOL    HW237575   3.966   0.656   2.145  1.2013  1.0747  2.2605
 8705SOL     OW37576   1.027   1.229   9.723  0.0238  0.0371  0.2366
 8705SOL    HW137577   1.030   1.180   9.641  1.5594 -0.2159  0.4348
 8705SOL    HW237578   1.117   1.261   9.722 -0.1556  0.4691 -2.7366
 8706SOL     OW37579   0.951   2.044   6.579  0.4092 -0.1893  0.4579
 8706SOL    HW137580   1.007   2.112   6.543 -0.6348  1.1990  1.4743
 8706SOL    HW237581   1.019   1.978   6.593  1.1596  0.6395  0.7162
 8707SOL     OW37582   3.081   2.881  14.194  0.0548 -0.4670  0.2656
 8707SOL    HW137583   3.097   2.876  14.099 -0.7599  0.5936  0.0769
 8707SOL    HW237584   3.153   2.938  14.218  0.5406 -0.6020 -0.8396
 8708SOL     OW37585   1.260   2.417  12.265  0.6246  0.7247  0.0841
 8708SOL    HW137586   1.302   2.445  12.183 -0.8798 -2.9939 -1.9561
 8708SOL    HW237587   1.264   2.325  12.241 -3.2926  0.0382  2.0979
 8709SOL     OW37588   0.458   2.467   3.481  0.2540  0.1370 -0.0483
 8709SOL    HW137589   0.541   2.425   3.456 -1.1713 -3.1515  0.8401
 8709SOL    HW237590   0.481   2.558   3.461  0.3488 -0.1871 -1.4331
 8710SOL     OW37591   4.193   3.952   7.873  0.3918  0.5266 -0.2195
 8710SOL    HW137592   4.196   4.047   7.870  0.0308  0.5273 -0.6012
 8710SOL    HW237593   4.139   3.932   7.949 -1.1046 -2.1978 -1.9842
 8711SOL     OW37594   3.810   2.021  17.458 -0.3218 -0.0242  0.0168
 8711SOL    HW137595   3.715   2.029  17.469 -0.4288 -2.6648  1.0651
 8711SOL    HW237596   3.835   2.104  17.418 -2.6653  0.4248 -0.5592
 8712SOL     OW37597   2.149   1.714   0.219 -0.5295 -0.0047  0.0171
 8712SOL    HW137598   2.229   1.765   0.204 -2.8756  3.1104 -1.7703
 8712SOL    HW237599   2.178   1.654   0.288 -1.2969 -0.4418 -0.0490
 8713SOL     OW37600   3.904   1.447  13.850 -0.4391 -0.4994 -0.1979
 8713SOL    HW137601   3.956   1.488  13.781  1.3968 -2.4969 -0.0117
 8713SOL    HW237602   3.964   1.442  13.925  0.2909 -1.2603 -0.8437
 8714SOL     OW37603   4.316   1.046   3.994  0.5604  0.3465  0.5851
 8714SOL    HW137604   4.232   1.089   4.014 -1.1400 -1.7305 -2.1125
 8714SOL    HW237605   4.296   1.022   3.904  2.4866 -2.6428  0.9871
 8715SOL     OW37606   2.750   4.222   7.808  0.1383  0.3989 -0.2785
 8715SOL    HW137607   2.836   4.195   7.777  0.5285  1.1548  0.1553
 8715SOL    HW237608   2.765   4.252   7.897  0.7060  0.3007 -0.3437
 8716SOL     OW37609   3.903   0.896   0.976 -0.2354  0.7146  0.3062
 8716SOL    HW137610   3.994   0.874   0.993 -0.5250 -1.2075 -0.5987
 8716SOL    HW237611   3.857   0.863   1.054 -0.9811  0.4732 -0.2368
 8717SOL     OW37612   1.054   0.749  15.501  0.4743 -0.2439  0.1612
 8717SOL    HW137613   1.035   0.665  15.459  1.5910 -1.5474  2.1978
 8717SOL    HW237614   0.984   0.802  15.464  1.6450  0.5430 -0.8998
 8718SOL     OW37615   0.422   3.433   8.261  0.3659  0.2416  0.4706
 8718SOL    HW137616   0.484   3.492   8.303  0.6415 -0.0481  0.4664
 8718SOL    HW237617   0.379   3.494   8.201  0.1211 -0.0368  0.3610
 8719SOL     OW37618   4.675   2.338   6.834  0.1924 -0.0229  0.2174
 8719SOL    HW137619   4.674   2.433   6.833  0.0516 -0.0149  1.2711
 8719SOL    HW237620   4.611   2.314   6.766 -0.1649  1.4532  0.0335
 8720SOL     OW37621   2.316   1.078   2.339  0.2389  0.2107  0.0267
 8720SOL    HW137622   2.365   0.996   2.342  0.6895  0.5287  1.2696
 8720SOL    HW237623   2.348   1.118   2.258 -1.0910 -1.2128 -1.2088
 8721SOL     OW37624   0.816   2.347   4.801 -0.0737 -0.0094 -0.3554
 8721SOL    HW137625   0.899   2.394   4.794 -1.5016  2.8293  1.7663
 8721SOL    HW237626   0.774   2.418   4.754  0.7533  0.8995  0.2861
 8722SOL     OW37627   3.167   2.104   5.536  0.4930  0.3486  0.3219
 8722SOL    HW137628   3.144   2.069   5.622  1.1101 -0.3089  0.2153
 8722SOL    HW237629   3.122   2.189   5.534  2.4886  1.4345  1.3198
 8723SOL     OW37630   2.469   2.025   4.301 -0.2854  0.2668 -0.0274
 8723SOL    HW137631   2.464   2.071   4.217  1.7148 -0.0534 -0.3237
 8723SOL    HW237632   2.554   2.064   4.323  0.7674 -2.0604 -0.0545
 8724SOL     OW37633   1.082   2.272   1.647 -0.4467 -0.4419 -0.1184
 8724SOL    HW137634   0.999   2.229   1.625 -0.8971  0.7816 -0.7625
 8724SOL    HW237635   1.145   2.256   1.577  0.0504 -0.7267  0.3891
 8725SOL     OW37636   1.099   0.674   8.032 -0.1355  0.2179  0.1008
 8725SOL    HW137637   1.144   0.754   8.059 -1.0295  0.8021 -0.1636
 8725SOL    HW237638   1.121   0.619   8.107 -1.8614 -1.1068 -0.3646
 8726SOL     OW37639   1.738   1.500   8.444  0.2480  0.1217  0.1131
 8726SOL    HW137640   1.804   1.529   8.506 -0.5775  1.7294  0.2320
 8726SOL    HW237641   1.672   1.466   8.504 -0.5526  0.3502 -0.6313
 8727SOL     OW37642   3.755   1.212  13.942  0.1663  0.0537  0.3853
 8727SOL    HW137643   3.773   1.173  13.856  0.8594  0.2612  0.4376
 8727SOL    HW237644   3.810   1.290  13.938 -1.5016  1.1882  0.0624
 8728SOL     OW37645   1.965   2.268   7.026 -0.2887  0.1451 -0.1108
 8728SOL    HW137646   1.923   2.301   7.106  0.0478 -3.0907  1.3925
 8728SOL    HW237647   1.913   2.316   6.962 -1.7480 -0.0337  0.9346
 8729SOL     OW37648   2.250   4.644   4.019 -0.2218  0.1652  0.2611
 8729SOL    HW137649   2.238   4.633   3.925  1.1177  2.3527 -0.1776
 8729SOL    HW237650   2.343   4.631   4.036  0.0126  1.0692 -0.3607
 8730SOL     OW37651   0.665   1.086  14.915  0.5152 -0.0920 -0.2842
 8730SOL    HW137652   0.687   1.093  14.822  2.5712  1.1001  0.2740
 8730SOL    HW237653   0.657   0.992  14.934 -1.1859  0.2554  0.6859
 8731SOL     OW37654   0.009   0.961   2.697  0.2352 -0.1806 -0.1381
 8731SOL    HW137655   4.638   0.980   2.722 -0.0859 -2.6520  0.5770
 8731SOL    HW237656   0.040   0.913   2.774  0.2989 -0.4138 -0.3113
 8732SOL     OW37657   0.755   4.105   3.382  0.3876 -0.3279  0.3287
 8732SOL    HW137658   0.687   4.041   3.360  0.5812 -0.6506  0.6533
 8732SOL    HW237659   0.739   4.172   3.316  0.7311 -0.6417 -0.0778
 8733SOL     OW37660   0.975   2.937   6.483 -0.1393 -0.5434  0.6100
 8733SOL    HW137661   1.052   2.969   6.435 -2.3145  1.2611 -1.6822
 8733SOL    HW237662   0.971   2.851   6.441  0.3618 -0.5588  0.5940
 8734SOL     OW37663   1.089   2.271  14.678 -0.4300  0.2179 -0.2245
 8734SOL    HW137664   1.048   2.191  14.711 -0.7716  0.8834  0.9528
 8734SOL    HW237665   1.057   2.272  14.588  2.5516  0.8884 -1.2844
 8735SOL     OW37666   3.267   4.315   2.746 -0.1441 -0.8638 -0.0891
 8735SOL    HW137667   3.247   4.341   2.836 -1.3573  0.3713 -0.7151
 8735SOL    HW237668   3.180   4.287   2.719 -0.5299 -1.2582  1.6150
 8736SOL     OW37669   3.281   3.282   7.905 -0.8757  0.4612  0.1059
 8736SOL    HW137670   3.205   3.231   7.878 -0.7462 -1.0283  2.5743
 8736SOL    HW237671   3.350   3.215   7.905  1.0903  2.4978 -0.8700
 8737SOL     OW37672   4.389   1.248   3.363  0.2808 -0.1508  0.0296
 8737SOL    HW137673   4.466   1.196   3.343  1.2709  1.7380 -1.1071
 8737SOL    HW237674   4.329   1.222   3.293 -2.1251  0.9216  1.7114
 8738SOL     OW37675   2.286   1.245   4.525 -0.4591  0.2664 -0.0323
 8738SOL    HW137676   2.199   1.219   4.496 -0.3356  0.3583 -0.4816
 8738SOL    HW237677   2.297   1.329   4.480  0.7877  0.5205  0.7518
 8739SOL     OW37678   1.346   2.258   0.399 -0.4641  0.1444 -1.1954
 8739SOL    HW137679   1.275   2.283   0.340  0.4959  2.4990 -1.3523
 8739SOL    HW237680   1.337   2.166   0.424  2.9398  0.2653  0.5380
 8740SOL     OW37681   1.885   4.063   8.796 -0.0753 -0.4071  0.0440
 8740SOL    HW137682   1.891   3.983   8.743  2.6465  0.7689 -1.3788
 8740SOL    HW237683   1.810   4.104   8.754  1.0490  0.5068 -1.0448
 8741SOL     OW37684   3.454   3.842  17.316 -0.3596 -0.0111 -0.3514
 8741SOL    HW137685   3.547   3.861  17.329  0.0010 -2.2634  0.3875
 8741SOL    HW237686   3.414   3.884  17.392 -1.8987  1.6651 -2.0983
 8742SOL     OW37687   1.353   0.653   2.371  0.7418 -0.5233 -0.1965
 8742SOL    HW137688   1.321   0.690   2.289  0.7347  0.7672  0.3886
 8742SOL    HW237689   1.375   0.729   2.424  2.4132 -0.8765 -0.3748
 8743SOL     OW37690   3.389   2.732  16.437  0.5916  0.0752  0.0209
 8743SOL    HW137691   3.294   2.734  16.443  0.4589  0.7353 -2.2981
 8743SOL    HW237692   3.381   2.723  16.342  0.5405  2.0674 -0.1714
 8744SOL     OW37693   2.343   2.244  13.047  0.4250 -0.0624 -0.0112
 8744SOL    HW137694   2.395   2.166  13.028  2.0134  0.8922  0.4118
 8744SOL    HW237695   2.317   2.279  12.962  0.2195 -1.2437 -0.4245
 8745SOL     OW37696   0.569   1.007   6.270 -0.1663  0.2284  0.2540
 8745SOL    HW137697   0.615   0.923   6.274  0.1774  0.3311 -1.4612
 8745SOL    HW237698   0.589   1.049   6.186  1.8965 -1.0990  0.0708
 8746SOL     OW37699   2.142   4.102   4.353 -0.1101  0.0669 -0.0958
 8746SOL    HW137700   2.166   4.027   4.298 -2.4999 -0.9572  0.2623
 8746SOL    HW237701   2.111   4.149   4.275 -0.7736 -2.4251 -1.3455
 8747SOL     OW37702   4.013   1.408   9.496  0.9095 -0.4388 -0.1152
 8747SOL    HW137703   3.970   1.461   9.564  0.9091  1.5770 -1.7024
 8747SOL    HW237704   4.106   1.421   9.509  0.7461  0.3512  0.2332
 8748SOL     OW37705   3.363   2.200   5.986 -0.4918 -0.4672  0.1389
 8748SOL    HW137706   3.310   2.127   6.019 -0.2047 -0.6239  0.2453
 8748SOL    HW237707   3.444   2.154   5.965  1.5272  2.7454  0.9878
 8749SOL     OW37708   0.822   2.569   0.468  0.1545  0.4567 -0.0274
 8749SOL    HW137709   0.787   2.504   0.407  0.5877  0.3295 -0.1474
 8749SOL    HW237710   0.759   2.641   0.463  1.1733  1.5560  3.0934
 8750SOL     OW37711   0.867   2.726  11.153 -0.3301  0.3834 -0.2774
 8750SOL    HW137712   0.930   2.655  11.167  0.5203  1.2292  0.1223
 8750SOL    HW237713   0.790   2.698  11.203 -1.5421  1.1195 -1.6954
 8751SOL     OW37714   2.561   3.065  13.811  0.0716 -0.0393  0.1089
 8751SOL    HW137715   2.580   3.156  13.830 -0.3887  0.0224  0.2814
 8751SOL    HW237716   2.493   3.055  13.878 -1.4898 -1.6520 -1.6801
 8752SOL     OW37717   3.990   1.544   6.633 -0.0801  0.2870  0.2275
 8752SOL    HW137718   3.929   1.573   6.701 -1.2214  0.3213 -0.8024
 8752SOL    HW237719   3.962   1.453   6.625 -0.1034  0.2362  0.9016
 8753SOL     OW37720   3.631   1.823   9.127  0.1955  0.0019  0.4542
 8753SOL    HW137721   3.544   1.782   9.131  0.5055 -0.7855 -1.2350
 8753SOL    HW237722   3.615   1.914   9.101  0.8480 -0.1299 -0.4007
 8754SOL     OW37723   1.303   1.297   3.279 -0.3248  0.8401 -0.2689
 8754SOL    HW137724   1.355   1.377   3.278 -1.7164  1.7233 -2.1048
 8754SOL    HW237725   1.365   1.238   3.237 -1.7838 -0.2397 -0.9074
 8755SOL     OW37726   1.325   1.657   7.205  0.6777 -0.1637 -0.0313
 8755SOL    HW137727   1.317   1.583   7.145 -1.0171 -0.1131  0.1452
 8755SOL    HW237728   1.237   1.693   7.212  1.9782  2.9649 -0.0005
 8756SOL     OW37729   0.346   2.928   2.064 -0.3793 -0.8848 -0.1710
 8756SOL    HW137730   0.406   3.002   2.066 -0.1979 -1.0529  0.6446
 8756SOL    HW237731   0.289   2.944   1.989  1.2613  1.0858 -0.9670
 8757SOL     OW37732   3.034   3.258  14.982  0.4578  0.1342 -0.2406
 8757SOL    HW137733   2.974   3.265  14.908  0.1419  1.4300  0.1440
 8757SOL    HW237734   3.078   3.175  14.966  1.9155  0.7829  0.3657
 8758SOL     OW37735   2.039   4.500   6.439  0.1796  0.7638 -0.7239
 8758SOL    HW137736   1.967   4.497   6.376 -1.3112 -1.3893  1.0677
 8758SOL    HW237737   2.031   4.429   6.503 -2.7644 -0.0849 -2.0404
 8759SOL     OW37738   0.768   2.577  12.582  0.2322  0.0108 -0.0924
 8759SOL    HW137739   0.742   2.502  12.636  2.5156 -1.3928 -0.9641
 8759SOL    HW237740   0.682   2.581  12.540 -0.0981  2.2075  0.7793
 8760SOL     OW37741   3.066   0.058   2.677  0.2047 -0.2528  0.4675
 8760SOL    HW137742   3.040   0.090   2.591  1.2653  2.5486  1.1863
 8760SOL    HW237743   2.991   0.097   2.722  1.1723  0.4054  1.5344
 8761SOL     OW37744   0.173   4.706  10.609  0.0233 -0.2808  0.1007
 8761SOL    HW137745   0.120   4.634  10.643 -0.8681 -1.0097 -2.8467
 8761SOL    HW237746   0.260   4.673  10.635  0.4864  2.0146  1.4450
 8762SOL     OW37747   4.577   2.837   5.058 -0.2457 -0.0558  0.3846
 8762SOL    HW137748   4.665   2.809   5.085  0.4724  1.1065 -0.7753
 8762SOL    HW237749   4.604   2.910   5.003  0.6854  0.8435  2.0279
 8763SOL     OW37750   3.656   1.547   4.538  0.2615  0.4300  0.3699
 8763SOL    HW137751   3.635   1.544   4.632 -1.4978 -1.4506 -0.0732
 8763SOL    HW237752   3.731   1.606   4.539  0.8541 -0.3223 -2.4930
 8764SOL     OW37753   3.506   3.135  12.372 -0.3865  0.0622 -0.8972
 8764SOL    HW137754   3.557   3.215  12.361 -0.2641  0.1975  0.6506
 8764SOL    HW237755   3.580   3.075  12.386 -0.9881 -1.1624 -3.0454
 8765SOL     OW37756   0.046   3.738   1.874  0.0127 -0.5707  0.4678
 8765SOL    HW137757   0.024   3.791   1.797  2.7798 -1.8322 -1.1951
 8765SOL    HW237758   0.046   3.806   1.941 -1.5311  0.0679 -0.1852
 8766SOL     OW37759   1.539   1.527  13.126 -0.0166  0.3497  0.0542
 8766SOL    HW137760   1.590   1.556  13.050  2.1633 -1.9961  0.6211
 8766SOL    HW237761   1.602   1.535  13.197  1.6620 -0.1506 -1.3671
 8767SOL     OW37762   0.037   1.962  14.670 -0.1932  0.1289 -0.0614
 8767SOL    HW137763   0.041   1.900  14.597  0.4823  0.6366 -0.4647
 8767SOL    HW237764   0.044   2.050  14.632  1.3185 -0.3401 -0.8816
 8768SOL     OW37765   4.710   4.214  13.064  0.5089  0.4794 -0.2094
 8768SOL    HW137766   4.691   4.143  13.003 -1.3144  0.1351  0.7937
 8768SOL    HW237767   4.659   4.285  13.024 -0.8350 -1.6353 -2.1877
 8769SOL     OW37768   4.099   1.912   3.372  0.3008 -0.5307 -0.0473
 8769SOL    HW137769   4.148   1.833   3.349  1.3468 -0.1148  0.7656
 8769SOL    HW237770   4.024   1.912   3.312  0.1927  2.8448  0.0742
 8770SOL     OW37771   2.687   2.549   7.485  0.1715 -0.2666 -0.5668
 8770SOL    HW137772   2.607   2.546   7.433 -1.2917 -0.8507  1.7229
 8770SOL    HW237773   2.744   2.489   7.438  1.4751 -0.4841  1.2733
 8771SOL     OW37774   0.727   0.982  11.640  0.0982 -0.2841  0.0000
 8771SOL    HW137775   0.774   1.059  11.671  0.6300 -0.6507  0.1031
 8771SOL    HW237776   0.709   1.015  11.552 -0.0044  1.0923  0.5418
 8772SOL     OW37777   1.973   2.583   5.514 -0.7831  0.2666 -0.6151
 8772SOL    HW137778   2.024   2.598   5.594  0.3938 -1.4964 -1.0231
 8772SOL    HW237779   2.035   2.611   5.448 -0.2353 -0.6944 -0.5153
 8773SOL     OW37780   1.997   0.475   2.432  0.2562 -0.3431  0.0131
 8773SOL    HW137781   2.069   0.517   2.385 -0.6150  0.8441 -0.2635
 8773SOL    HW237782   2.006   0.514   2.519  0.4260 -0.0973 -0.1159
 8774SOL     OW37783   0.527   2.117   6.094 -0.4615  0.1318  0.2622
 8774SOL    HW137784   0.528   2.027   6.062  1.5340 -0.0036  0.6860
 8774SOL    HW237785   0.515   2.099   6.187 -0.3725 -1.8920 -0.1148
 8775SOL     OW37786   4.338   3.038   3.104 -0.0417  0.6626  0.4725
 8775SOL    HW137787   4.374   2.975   3.043 -1.8531  1.5121 -1.4839
 8775SOL    HW237788   4.260   3.066   3.056 -0.2373  1.0994  1.0353
 8776SOL     OW37789   0.545   3.937  16.494 -0.0237  0.2042  0.3626
 8776SOL    HW137790   0.556   4.021  16.538  0.4864 -0.5279  1.6216
 8776SOL    HW237791   0.454   3.957  16.472  1.1709  2.6101 -2.3917
 8777SOL     OW37792   3.563   3.878   1.926  0.3321  0.0363  0.1164
 8777SOL    HW137793   3.631   3.811   1.925  2.0996  1.8339  2.1352
 8777SOL    HW237794   3.538   3.868   1.833  1.3999  1.5840 -0.3335
 8778SOL     OW37795   3.814   2.606   3.539 -0.1248 -0.2976 -0.1623
 8778SOL    HW137796   3.819   2.688   3.489 -1.5001 -0.0151  0.1703
 8778SOL    HW237797   3.896   2.565   3.509 -0.8654 -0.6288 -1.7546
 8779SOL     OW37798   0.261   0.034  16.754 -0.2897 -0.4312  0.1298
 8779SOL    HW137799   0.210   0.114  16.742  0.0829 -0.5820 -2.4438
 8779SOL    HW237800   0.272   0.030  16.849 -0.4624  1.2803  0.2151
 8780SOL     OW37801   4.521   1.511   4.739  0.3253  0.2679  0.1302
 8780SOL    HW137802   4.568   1.466   4.808 -0.5215  2.8218  2.3783
 8780SOL    HW237803   4.570   1.477   4.664 -0.2396 -0.8287  0.2551
 8781SOL     OW37804   3.721   0.233   7.972  0.0116  0.2194  0.4444
 8781SOL    HW137805   3.749   0.168   7.908  0.7016 -0.8443  1.8139
 8781SOL    HW237806   3.767   0.203   8.051  0.1341 -0.1004  0.2492
 8782SOL     OW37807   3.948   4.314   7.639 -0.3945 -0.0959 -0.1068
 8782SOL    HW137808   3.855   4.336   7.645  0.0061  0.6766  2.7899
 8782SOL    HW237809   3.952   4.313   7.543  0.2834  3.3080 -0.0949
 8783SOL     OW37810   4.377   4.579   8.422 -0.5457 -0.2302 -0.3637
 8783SOL    HW137811   4.422   4.630   8.491 -1.3999  1.4300 -1.0345
 8783SOL    HW237812   4.320   4.520   8.471 -1.5484  1.1623  0.1342
 8784SOL     OW37813   1.873   4.538   3.815  0.4412  0.8341 -0.2157
 8784SOL    HW137814   1.962   4.511   3.835  0.5973  1.7155  0.2969
 8784SOL    HW237815   1.884   4.564   3.724  0.0973 -0.6387 -0.6793
 8785SOL     OW37816   1.661   3.269   7.058  0.2361  0.3419 -0.3521
 8785SOL    HW137817   1.593   3.202   7.074  0.2563  0.1877 -0.8892
 8785SOL    HW237818   1.712   3.235   6.984 -0.5250 -1.7566  0.0683
 8786SOL     OW37819   2.299   2.204   7.663  0.5730  0.6395 -0.3448
 8786SOL    HW137820   2.361   2.276   7.673  1.7248 -0.1982 -1.3954
 8786SOL    HW237821   2.232   2.215   7.731  0.4062  2.1290 -0.7502
 8787SOL     OW37822   2.271   2.075   3.759  0.3435  0.0294 -0.5926
 8787SOL    HW137823   2.194   2.097   3.706 -0.2041 -0.5252 -0.0264
 8787SOL    HW237824   2.267   1.980   3.751  1.1827 -0.2837  2.7109
 8788SOL     OW37825   4.277   0.580   8.107  0.1588  0.2304 -0.2251
 8788SOL    HW137826   4.288   0.658   8.052 -2.8647  0.9654  0.2045
 8788SOL    HW237827   4.285   0.617   8.195  1.5426  0.6404 -0.5240
 8789SOL     OW37828   3.938   3.438   7.236  0.3366  0.4892  0.3044
 8789SOL    HW137829   3.973   3.451   7.324  0.3291 -1.4261  0.5712
 8789SOL    HW237830   3.992   3.363   7.211 -1.9840 -1.3937  0.9062
 8790SOL     OW37831   2.275   3.978   5.997 -0.5950 -0.1604  0.0784
 8790SOL    HW137832   2.215   3.968   6.071 -3.2461 -0.4526 -2.0977
 8790SOL    HW237833   2.309   4.066   6.016  1.8938 -1.4505  1.5608
 8791SOL     OW37834   4.617   2.390   8.326  0.2501  0.4970  0.2438
 8791SOL    HW137835   4.704   2.369   8.358  1.0645  3.2340 -0.1980
 8791SOL    HW237836   4.624   2.410   8.233 -2.0132 -0.4916 -0.1402
 8792SOL     OW37837   0.931   3.270   7.834  0.4142 -0.4652  0.5766
 8792SOL    HW137838   0.889   3.293   7.752  1.8781 -0.2700 -0.1265
 8792SOL    HW237839   1.023   3.256   7.810  0.9285  0.0008  2.2408
 8793SOL     OW37840   3.651   2.312   4.160 -0.3693  0.2895 -0.1832
 8793SOL    HW137841   3.714   2.245   4.134 -0.7315 -0.6372  1.3548
 8793SOL    HW237842   3.589   2.305   4.087 -0.0479  1.7059 -0.6004
 8794SOL     OW37843   3.854   0.727   9.136 -0.9060  0.3767  0.6550
 8794SOL    HW137844   3.813   0.809   9.165 -0.0984  1.7999 -2.2472
 8794SOL    HW237845   3.785   0.684   9.087  0.0612  0.4815 -0.7936
 8795SOL     OW37846   0.487   2.054  12.694  0.0816  0.4547 -0.5605
 8795SOL    HW137847   0.566   2.002  12.680  0.0737 -0.3646  2.5799
 8795SOL    HW237848   0.450   1.993  12.757  3.1835  0.1419  0.9376
 8796SOL     OW37849   1.499   0.337  12.078  0.2665  0.0597 -0.3075
 8796SOL    HW137850   1.559   0.268  12.049 -0.2931  0.0042 -1.3150
 8796SOL    HW237851   1.425   0.320  12.020  2.3057 -1.4116 -2.4576
 8797SOL     OW37852   0.863   4.106  16.719 -0.1256 -0.0622  0.2622
 8797SOL    HW137853   0.907   4.027  16.686 -1.2210 -0.5165 -0.1121
 8797SOL    HW237854   0.929   4.174  16.707 -0.9374  0.0434 -3.4999
 8798SOL     OW37855   0.653   3.114   3.564  0.2953 -0.4173 -0.5210
 8798SOL    HW137856   0.581   3.119   3.626 -0.3317  0.5557 -1.3330
 8798SOL    HW237857   0.692   3.201   3.570 -0.9715  0.1313 -0.2336
 8799SOL     OW37858   4.428   2.220   1.923 -0.6855 -0.2194 -0.8484
 8799SOL    HW137859   4.374   2.173   1.987 -1.0151  1.3091  0.0062
 8799SOL    HW237860   4.517   2.188   1.938 -1.8958 -2.9731  0.4413
 8800SOL     OW37861   0.603   3.209   8.384  0.2541 -0.6468 -0.5815
 8800SOL    HW137862   0.514   3.224   8.415  2.0679  1.9555  3.3478
 8800SOL    HW237863   0.628   3.300   8.372 -0.1681 -0.6232 -1.3105
 8801SOL     OW37864   1.153   1.701   3.502  0.2532 -0.1336  0.2301
 8801SOL    HW137865   1.147   1.643   3.578  1.3457 -1.6857 -0.8690
 8801SOL    HW237866   1.063   1.726   3.481  0.3890  0.9027  0.8902
 8802SOL     OW37867   3.196   0.124  12.657  0.4878  0.7443 -0.4062
 8802SOL    HW137868   3.262   0.060  12.682 -0.1150  0.1641 -0.2974
 8802SOL    HW237869   3.171   0.093  12.570 -0.7815  0.9666 -0.1161
 8803SOL     OW37870   1.831   3.137   6.901  0.3319  0.1180  0.0632
 8803SOL    HW137871   1.922   3.163   6.915  0.1966  0.7801 -0.2785
 8803SOL    HW237872   1.845   3.049   6.867 -0.1490 -1.8005  4.8147
 8804SOL     OW37873   3.308   4.655   2.164 -0.3245 -0.5252 -0.0730
 8804SOL    HW137874   3.364   4.618   2.232  0.7282  1.2637  0.0196
 8804SOL    HW237875   3.223   4.615   2.184 -1.4922  2.1537  0.3132
 8805SOL     OW37876   0.054   4.096   7.432 -0.1648  0.9024  0.1959
 8805SOL    HW137877   0.100   4.144   7.362 -0.5488  1.4234  0.2981
 8805SOL    HW237878   0.130   4.098   7.490  0.3101  0.4663 -0.4185
 8806SOL     OW37879   4.668   4.190  11.755  0.0004  0.1130  0.5249
 8806SOL    HW137880   4.574   4.173  11.747  0.1754  0.2597 -1.8389
 8806SOL    HW237881   4.696   4.170  11.666 -2.2959 -1.1697  0.0853
 8807SOL     OW37882   0.175   2.423  13.142  0.0338 -0.1484  0.0623
 8807SOL    HW137883   0.235   2.374  13.086 -0.4221  0.3975 -0.8909
 8807SOL    HW237884   0.213   2.510  13.126 -0.7857 -0.2243 -2.3074
 8808SOL     OW37885   1.740   0.961   6.253 -0.1225  0.1484  0.3771
 8808SOL    HW137886   1.794   1.040   6.254  1.2573 -0.7769 -1.6948
 8808SOL    HW237887   1.799   0.899   6.295  1.1312  1.8077  1.0969
 8809SOL     OW37888   3.303   1.579   3.598  0.3971  0.4014 -0.1965
 8809SOL    HW137889   3.373   1.631   3.559  1.8296 -1.3306  0.0715
 8809SOL    HW237890   3.281   1.511   3.534 -1.5272 -0.6797  1.6064
 8810SOL     OW37891   3.698   0.542   2.312  0.4763  0.1175  0.0492
 8810SOL    HW137892   3.611   0.517   2.345 -0.3439 -0.3378 -2.4777
 8810SOL    HW237893   3.742   0.463   2.280  0.2357  0.0834 -0.1911
 8811SOL     OW37894   1.318   3.519  10.537 -0.4973 -0.2774  0.0844
 8811SOL    HW137895   1.375   3.581  10.583 -1.7244 -0.3235  1.6475
 8811SOL    HW237896   1.230   3.556  10.526 -1.6509 -2.0053  3.5621
 8812SOL     OW37897   0.674   0.694  12.881  0.2947  0.1225 -0.3784
 8812SOL    HW137898   0.657   0.673  12.973  1.7649  0.3687 -0.0475
 8812SOL    HW237899   0.752   0.750  12.882  0.6624 -0.3988  0.6370
 8813SOL     OW37900   1.108   4.440   9.978  0.1788  0.3768 -0.0335
 8813SOL    HW137901   1.075   4.432  10.068 -0.0250 -0.8645 -0.2203
 8813SOL    HW237902   1.126   4.534   9.973  2.1731 -0.1302 -2.2950
 8814SOL     OW37903   4.524   2.537   3.088 -0.6495  0.6379 -0.1645
 8814SOL    HW137904   4.460   2.545   3.018 -0.3918  2.5606 -0.1805
 8814SOL    HW237905   4.483   2.475   3.149 -0.7589 -1.1466 -2.0582
 8815SOL     OW37906   0.705   1.626  13.203 -0.1196  0.6155 -0.0825
 8815SOL    HW137907   0.677   1.650  13.115 -0.5915 -0.6226 -0.2663
 8815SOL    HW237908   0.626   1.592  13.245 -0.0765  1.1733  0.4522
 8816SOL     OW37909   3.741   2.075  11.743 -0.1159 -0.7477  0.5579
 8816SOL    HW137910   3.818   2.019  11.740 -0.7787 -1.6122 -0.0910
 8816SOL    HW237911   3.746   2.115  11.830  2.9877 -0.0710  0.0585
 8817SOL     OW37912   1.597   2.107   2.984  0.5652 -0.1016 -0.1352
 8817SOL    HW137913   1.689   2.129   2.998  0.8081 -0.2058 -1.6065
 8817SOL    HW237914   1.609   2.013   2.971  2.2677  0.2053 -0.7284
 8818SOL     OW37915   3.347   4.456   3.673  0.1355  0.1153 -0.0736
 8818SOL    HW137916   3.291   4.383   3.699  2.1885 -1.0093  1.1745
 8818SOL    HW237917   3.435   4.421   3.661 -0.0085  0.4023 -1.8836
 8819SOL     OW37918   1.746   0.182   9.858 -0.2378  0.1674 -0.3681
 8819SOL    HW137919   1.667   0.131   9.878 -0.4932  1.0878  1.0094
 8819SOL    HW237920   1.805   0.120   9.815 -2.9906 -1.9970 -1.0189
 8820SOL     OW37921   0.419   2.486   5.373  0.4746  0.1247  0.4677
 8820SOL    HW137922   0.461   2.474   5.458  1.2902 -1.0734 -0.0905
 8820SOL    HW237923   0.484   2.452   5.310  0.4174  0.7719  0.0568
 8821SOL     OW37924   4.458   0.364   5.028  0.1331 -0.4799 -0.4262
 8821SOL    HW137925   4.422   0.348   4.941 -1.7101  0.5549  0.1247
 8821SOL    HW237926   4.405   0.299   5.072 -0.1097  0.2524  0.3647
 8822SOL     OW37927   1.830   0.969  15.377  0.4626  0.0572 -0.3906
 8822SOL    HW137928   1.761   0.929  15.431  0.1853 -0.0284 -0.8024
 8822SOL    HW237929   1.772   1.019  15.319 -2.9673 -0.7209  2.3925
 8823SOL     OW37930   2.942   0.553  11.592  0.2680  0.4358  0.6648
 8823SOL    HW137931   2.882   0.562  11.518  1.4582 -0.3012 -0.3733
 8823SOL    HW237932   2.881   0.588  11.657 -0.9414 -2.5617  1.1750
 8824SOL     OW37933   3.307   2.285   8.900 -0.2247 -0.4305  0.7303
 8824SOL    HW137934   3.391   2.323   8.926 -0.1559 -0.2992  0.3179
 8824SOL    HW237935   3.229   2.323   8.940  2.2624  3.6795  1.6115
 8825SOL     OW37936   0.245   3.446   4.833 -0.3353 -0.2440  1.2942
 8825SOL    HW137937   0.273   3.537   4.821 -3.3794  0.8714  2.5103
 8825SOL    HW237938   0.238   3.417   4.742 -0.6316 -0.3457  1.3479
 8826SOL     OW37939   1.399   1.657   8.849  0.3510  0.3797  0.2377
 8826SOL    HW137940   1.342   1.730   8.825 -0.6422 -0.6509 -0.5296
 8826SOL    HW237941   1.474   1.669   8.790 -0.1769 -1.1336 -0.7333
 8827SOL     OW37942   1.818   3.967  15.406 -0.3922 -0.1723 -1.0735
 8827SOL    HW137943   1.813   3.884  15.453 -3.7232  0.3047 -0.6322
 8827SOL    HW237944   1.913   3.971  15.395 -0.2740  1.1200  0.4989
 8828SOL     OW37945   1.404   3.160   1.507  0.0771  0.2090  0.1857
 8828SOL    HW137946   1.440   3.081   1.547 -2.2043 -0.2469  1.3682
 8828SOL    HW237947   1.334   3.169   1.572  1.2789 -1.5724  1.7503
 8829SOL     OW37948   2.777   0.262   7.081  0.3568 -0.4316 -0.4280
 8829SOL    HW137949   2.809   0.352   7.088  0.8381 -0.7477  1.4264
 8829SOL    HW237950   2.725   0.267   7.000 -1.2357 -0.9859  0.5636
 8830SOL     OW37951   1.189   3.345   4.543 -0.0209 -0.2788 -0.3872
 8830SOL    HW137952   1.224   3.399   4.613  0.1806  1.1130 -1.5574
 8830SOL    HW237953   1.258   3.356   4.477  0.3560 -2.4997 -0.3641
 8831SOL     OW37954   1.481   1.165   4.958  0.2474  0.5228 -0.1477
 8831SOL    HW137955   1.399   1.132   4.996  0.8845 -0.5421  0.3080
 8831SOL    HW237956   1.529   1.147   5.039  0.9239  0.4075 -0.5714
 8832SOL     OW37957   1.541   0.714   2.929 -0.0839  0.0259 -0.2327
 8832SOL    HW137958   1.473   0.747   2.870  0.3558 -1.9713 -1.8641
 8832SOL    HW237959   1.611   0.775   2.906  1.4804 -1.8531 -0.4841
 8833SOL     OW37960   0.903   4.718   3.043  0.4745 -0.4458 -0.1924
 8833SOL    HW137961   0.986   0.012   2.997  0.2529  3.1302  0.4795
 8833SOL    HW237962   0.844   0.012   2.968 -2.3393 -0.4377  2.0145
 8834SOL     OW37963   0.238   2.808   3.548 -0.1289  0.3925  0.4100
 8834SOL    HW137964   0.308   2.758   3.591 -1.0635 -1.2069  0.0853
 8834SOL    HW237965   0.245   2.781   3.457 -0.0316  0.6065  0.3558
 8835SOL     OW37966   4.105   4.108   2.900 -0.0029  0.1513  0.4936
 8835SOL    HW137967   4.051   4.160   2.960 -0.9570  0.4448 -0.6130
 8835SOL    HW237968   4.042   4.094   2.830  0.8070 -2.8707  0.4077
 8836SOL     OW37969   2.837   1.528   7.568 -0.2315  0.7104  0.0578
 8836SOL    HW137970   2.820   1.612   7.611  0.4129 -0.1777  2.0813
 8836SOL    HW237971   2.760   1.515   7.513 -0.4954 -2.9901  1.2932
 8837SOL     OW37972   2.555   3.701   6.169  0.0956  0.3482 -0.6742
 8837SOL    HW137973   2.595   3.787   6.178  1.5141 -0.4701  0.7654
 8837SOL    HW237974   2.556   3.676   6.262  0.7109  1.9604 -0.2474
 8838SOL     OW37975   0.848   2.813   5.610  0.6243  0.0420 -0.5548
 8838SOL    HW137976   0.881   2.724   5.622 -1.2131 -0.5237  0.3498
 8838SOL    HW237977   0.760   2.807   5.648  0.6813  0.9377 -0.2816
 8839SOL     OW37978   0.325   3.272   4.525 -0.0928 -0.2568  0.0810
 8839SOL    HW137979   0.277   3.341   4.480  0.4417 -1.2170 -2.0083
 8839SOL    HW237980   0.418   3.297   4.527 -0.3850  1.0402 -2.2439
 8840SOL     OW37981   1.818   4.330   3.214 -0.0135  0.0740 -0.1610
 8840SOL    HW137982   1.867   4.323   3.132 -0.8650 -1.0692 -0.5719
 8840SOL    HW237983   1.789   4.421   3.208 -0.8036 -0.3144 -2.4499
 8841SOL     OW37984   0.045   2.646  16.355  0.7032  0.8775  0.0900
 8841SOL    HW137985   4.691   2.703  16.332  0.5639  0.4770 -0.4574
 8841SOL    HW237986   0.013   2.561  16.383 -0.0414  0.5469 -1.7437
 8842SOL     OW37987   1.723   0.096   1.635 -0.3100 -0.2523 -0.2103
 8842SOL    HW137988   1.695   0.083   1.544  1.2695  2.4754 -1.1116
 8842SOL    HW237989   1.652   0.047   1.677 -0.7328  2.4730  2.2411
 8843SOL     OW37990   0.822   3.584   3.730 -0.8174 -0.1827 -0.1479
 8843SOL    HW137991   0.867   3.648   3.674 -0.6702 -0.7257 -0.6469
 8843SOL    HW237992   0.734   3.621   3.740  0.0061  0.9676  2.7124
 8844SOL     OW37993   3.263   3.973   3.332 -0.1744 -0.4016  0.4309
 8844SOL    HW137994   3.357   3.971   3.314 -0.3692 -3.3214 -0.2841
 8844SOL    HW237995   3.254   4.068   3.331 -1.3497 -0.5206  0.0820
 8845SOL     OW37996   2.255   4.576   2.098  0.4223  0.0369  0.0074
 8845SOL    HW137997   2.175   4.627   2.088  1.3101  1.6919  1.3170
 8845SOL    HW237998   2.301   4.627   2.165 -1.5287  0.7108  0.8341
 8846SOL     OW37999   0.329   4.512  12.308 -0.0594  0.0541  0.0121
 8846SOL    HW138000   0.327   4.423  12.345  0.0544 -0.2442 -0.7114
 8846SOL    HW238001   0.391   4.553  12.369 -0.3917 -0.4456  0.6950
 8847SOL     OW38002   4.107   4.018  11.369 -0.0502 -0.1159  0.6382
 8847SOL    HW138003   4.091   4.070  11.290 -2.3063 -0.2950  0.9668
 8847SOL    HW238004   4.159   4.082  11.418 -0.9921  0.3247  1.0710
 8848SOL     OW38005   4.424   4.590   9.995 -0.1568  0.6508  0.5514
 8848SOL    HW138006   4.505   4.622  10.033  0.6851 -0.9560  0.1162
 8848SOL    HW238007   4.446   4.610   9.904  0.5511 -1.2286  0.3102
 8849SOL     OW38008   2.394   4.154  10.630 -0.0432 -0.1015 -0.0221
 8849SOL    HW138009   2.353   4.162  10.544 -0.3231  0.8026  0.1886
 8849SOL    HW238010   2.487   4.175  10.623 -0.1573 -0.2375 -2.0000
 8850SOL     OW38011   4.122   1.429   8.719  0.3816 -0.0350 -0.5416
 8850SOL    HW138012   4.076   1.474   8.790  2.5896 -3.1695  2.8411
 8850SOL    HW238013   4.123   1.494   8.648 -0.7154 -0.7209 -1.1885
 8851SOL     OW38014   3.084   3.747   8.073  0.2018  0.2859 -0.2256
 8851SOL    HW138015   3.003   3.757   8.022  1.1649  0.7319 -1.6760
 8851SOL    HW238016   3.085   3.841   8.092 -0.9886  0.3890 -0.6571
 8852SOL     OW38017   3.066   1.118  14.737 -0.6144 -0.5535 -0.4473
 8852SOL    HW138018   3.133   1.158  14.792 -0.7770 -1.7060  0.5863
 8852SOL    HW238019   3.045   1.046  14.796 -0.7056 -0.7213 -0.6815
 8853SOL     OW38020   3.737   4.606   8.253 -0.9221 -0.1347 -0.1426
 8853SOL    HW138021   3.788   4.677   8.290  0.0150  1.3453 -4.3292
 8853SOL    HW238022   3.703   4.572   8.336  0.0656  1.2388  0.8145
 8854SOL     OW38023   3.547   2.115   9.353 -0.1633 -0.4719  0.3506
 8854SOL    HW138024   3.484   2.148   9.289  0.8727  1.3184  0.2619
 8854SOL    HW238025   3.505   2.050   9.409  1.0120 -0.4006  1.3114
 8855SOL     OW38026   1.683   3.667   4.310 -0.4742 -0.1202  0.1867
 8855SOL    HW138027   1.670   3.587   4.259  0.8435 -0.1887 -0.0499
 8855SOL    HW238028   1.772   3.686   4.281 -0.7914  2.0057  0.6219
 8856SOL     OW38029   1.415   1.452   9.040  0.0770 -0.2637  0.3551
 8856SOL    HW138030   1.391   1.524   8.982  0.7304  0.3079  0.8009
 8856SOL    HW238031   1.450   1.498   9.116  1.4755 -0.9409  0.1189
 8857SOL     OW38032   2.287   3.951   7.294  0.3532  0.3998 -0.2086
 8857SOL    HW138033   2.345   3.876   7.305 -0.5392  0.0516  2.0344
 8857SOL    HW238034   2.240   3.945   7.376  2.1206  0.9284  0.8444
 8858SOL     OW38035   2.700   1.157   1.557 -0.2937 -1.1933 -0.3116
 8858SOL    HW138036   2.623   1.160   1.613  0.4115 -0.1342  0.5908
 8858SOL    HW238037   2.766   1.200   1.611 -0.0531  1.2001 -2.4921
 8859SOL     OW38038   0.229   0.510  16.753 -0.3350 -0.2344 -0.2699
 8859SOL    HW138039   0.270   0.452  16.817 -2.0074 -1.7769 -0.6191
 8859SOL    HW238040   0.283   0.589  16.761  1.3145 -1.4699  0.9224
 8860SOL     OW38041   1.650   0.123   1.364 -0.5381  0.2382 -0.5984
 8860SOL    HW138042   1.638   0.206   1.410 -1.5790 -1.4470  2.1524
 8860SOL    HW238043   1.570   0.110   1.313 -1.4696  2.3993  0.2873
 8861SOL     OW38044   4.522   0.605   8.592  0.5306 -0.5279 -0.1867
 8861SOL    HW138045   4.526   0.622   8.686 -1.3671 -0.1953 -0.1601
 8861SOL    HW238046   4.614   0.610   8.570  0.4690 -1.0509 -0.5745
 8862SOL     OW38047   4.555   2.520  15.014 -0.1688  0.2044 -0.2484
 8862SOL    HW138048   4.606   2.561  14.944 -0.0178  1.4349  0.5791
 8862SOL    HW238049   4.595   2.434  15.004 -1.1258 -0.0540 -1.6941
 8863SOL     OW38050   2.679   2.104   0.561  0.2873 -0.4362 -0.0301
 8863SOL    HW138051   2.700   2.086   0.652  0.4562 -1.1542 -0.2147
 8863SOL    HW238052   2.712   2.023   0.522  0.1319 -0.7811  0.5490
 8864SOL     OW38053   0.817   3.086   8.808 -0.5790 -0.0644 -0.4582
 8864SOL    HW138054   0.870   3.110   8.884 -2.5832  1.7695  0.3804
 8864SOL    HW238055   0.781   2.998   8.817 -0.7265  0.2308  1.7911
 8865SOL     OW38056   4.039   3.990  13.003  0.8589  0.0202  0.4880
 8865SOL    HW138057   4.028   4.052  13.076 -0.1759  0.9176 -0.4399
 8865SOL    HW238058   4.082   3.921  13.053  2.4365  0.3663 -0.3828
 8866SOL     OW38059   0.620   2.447   1.492  0.0667 -0.4452  0.3103
 8866SOL    HW138060   0.587   2.537   1.494  0.2313 -0.3426 -1.9090
 8866SOL    HW238061   0.667   2.436   1.575  1.5097 -0.3956 -0.4952
 8867SOL     OW38062   4.065   1.789  15.898  0.1182 -0.5756  0.1482
 8867SOL    HW138063   4.069   1.764  15.806 -4.9138 -1.2983  0.1143
 8867SOL    HW238064   4.142   1.846  15.896 -0.7199  0.5333 -0.3180
 8868SOL     OW38065   1.942   0.085   1.377  0.0725 -0.1687  0.5652
 8868SOL    HW138066   1.849   0.089   1.355  0.2182 -0.9557 -0.1822
 8868SOL    HW238067   1.974   0.072   1.288 -0.2744 -0.3752  0.4677
 8869SOL     OW38068   3.247   0.160   3.678  0.4309  0.2230 -0.6140
 8869SOL    HW138069   3.229   0.220   3.606 -1.2305  0.0581 -0.3271
 8869SOL    HW238070   3.163   0.161   3.724  0.3836 -0.4608 -0.6788
 8870SOL     OW38071   3.342   2.637  17.383  0.0560 -0.2971 -0.4132
 8870SOL    HW138072   3.306   2.665  17.467  0.3516 -1.3768  0.0831
 8870SOL    HW238073   3.427   2.605  17.413  0.0906  0.3093  0.1445
 8871SOL     OW38074   2.251   4.313   2.750  0.5269 -0.4747 -0.3418
 8871SOL    HW138075   2.182   4.379   2.758  0.1131 -0.6720 -2.4893
 8871SOL    HW238076   2.208   4.230   2.770  0.0166 -0.3225 -0.8178
 8872SOL     OW38077   2.048   3.099   6.310 -0.2100  0.0244  0.1020
 8872SOL    HW138078   1.960   3.131   6.329 -0.2019  0.5377 -0.7378
 8872SOL    HW238079   2.030   3.062   6.223 -0.5815 -2.5845  1.2867
 8873SOL     OW38080   0.336   0.585   3.541  0.4835  0.1380  0.6842
 8873SOL    HW138081   0.361   0.626   3.624 -0.0132 -1.0308  1.4065
 8873SOL    HW238082   0.416   0.562   3.494 -0.0078 -0.3031  0.0630
 8874SOL     OW38083   3.019   4.430   6.826 -0.6649  0.5844 -0.2575
 8874SOL    HW138084   3.017   4.384   6.910 -0.6254 -1.2770 -1.2591
 8874SOL    HW238085   3.111   4.449   6.806 -0.6615  2.3178  1.4609
 8875SOL     OW38086   3.769   0.568   2.988  0.1441  0.2836  0.0297
 8875SOL    HW138087   3.719   0.585   2.908 -0.2278  0.3303  0.2695
 8875SOL    HW238088   3.741   0.478   3.006  1.9205 -0.3727 -0.5289
 8876SOL     OW38089   4.322   4.325  10.372  0.0949 -0.1098 -0.7693
 8876SOL    HW138090   4.285   4.393  10.315 -0.3211  0.7772  0.5593
 8876SOL    HW238091   4.346   4.251  10.316 -1.2583 -0.4139 -0.9361
 8877SOL     OW38092   1.095   1.841   6.955  0.5987 -0.5358  0.6179
 8877SOL    HW138093   1.135   1.768   6.907  0.1230  1.0660 -2.2417
 8877SOL    HW238094   1.162   1.909   6.963 -0.6599  0.7174  0.4887
 8878SOL     OW38095   0.776   4.081   0.311  0.4142  0.1594  0.7498
 8878SOL    HW138096   0.811   4.006   0.263  0.6416  0.2497  0.7738
 8878SOL    HW238097   0.827   4.077   0.392  1.9148  3.9621  0.0328
 8879SOL     OW38098   3.341   1.433  14.755 -0.6611 -0.6038 -0.0104
 8879SOL    HW138099   3.389   1.475  14.683  0.5584 -1.4883  0.2973
 8879SOL    HW238100   3.419   1.401  14.800 -0.8670 -1.8424 -0.5468
 8880SOL     OW38101   3.145   4.046   5.011 -0.0256 -0.3647  0.0145
 8880SOL    HW138102   3.146   4.016   5.102 -0.9265  1.9155  0.7680
 8880SOL    HW238103   3.241   4.043   5.004  0.2144  2.8206  1.7159
 8881SOL     OW38104   1.027   1.949   4.783  0.0510  0.3635 -0.3403
 8881SOL    HW138105   1.080   1.919   4.857  0.8916 -0.3397 -1.2385
 8881SOL    HW238106   1.091   1.977   4.718  1.7024  1.0602  1.5903
 8882SOL     OW38107   3.396   2.017   9.809  0.2157  0.0892 -0.2687
 8882SOL    HW138108   3.349   2.032   9.890  0.2584 -0.9009 -0.0551
 8882SOL    HW238109   3.418   1.924   9.818 -2.6070 -0.6761 -1.1350
 8883SOL     OW38110   1.297   1.389   5.215  0.2986  0.4113 -0.2718
 8883SOL    HW138111   1.359   1.447   5.170  0.5805  0.1937 -0.1637
 8883SOL    HW238112   1.282   1.331   5.140  1.3525 -0.3153  0.0832
 8884SOL     OW38113   3.215   2.163   2.557  0.2149 -0.2514 -0.3860
 8884SOL    HW138114   3.287   2.223   2.576 -0.6137  0.3183  0.9547
 8884SOL    HW238115   3.146   2.222   2.527  1.0137  1.0368  0.2835
 8885SOL     OW38116   1.657   2.710  16.349 -0.5056  0.0524 -0.4382
 8885SOL    HW138117   1.578   2.759  16.327 -1.5389 -2.0055 -1.3504
 8885SOL    HW238118   1.718   2.717  16.276 -2.1559 -0.0984 -1.8326
 8886SOL     OW38119   3.674   0.939   1.175  0.2252  0.0243  0.2238
 8886SOL    HW138120   3.650   1.026   1.143  1.6283  0.4124  0.2425
 8886SOL    HW238121   3.730   0.964   1.249 -0.2895 -0.4710  0.7922
 8887SOL     OW38122   1.151   0.441  17.528 -0.0507  0.1685 -0.2163
 8887SOL    HW138123   1.188   0.355  17.512  0.5346  0.7674 -2.1107
 8887SOL    HW238124   1.065   0.439  17.486 -0.1663 -0.6667  0.0643
 8888SOL     OW38125   4.027   2.072   1.904 -0.0767  0.5393  0.4308
 8888SOL    HW138126   4.023   2.164   1.877 -0.9126  0.4168  0.1445
 8888SOL    HW238127   4.065   2.035   1.825 -0.5763  3.3371 -1.1086
 8889SOL     OW38128   4.526   3.697  16.407  0.2734 -0.2349 -0.6704
 8889SOL    HW138129   4.449   3.644  16.387  0.7857 -1.1823 -0.1137
 8889SOL    HW238130   4.522   3.719  16.500  2.4131 -0.2009 -0.5831
 8890SOL     OW38131   2.462   1.964   1.910 -0.4495 -0.0337 -0.0375
 8890SOL    HW138132   2.396   1.907   1.872 -0.2671 -0.3145  0.0633
 8890SOL    HW238133   2.471   2.013   1.829  1.9194  0.6654  0.6343
 8891SOL     OW38134   4.306   3.096   2.761  0.3841  1.0399 -0.3624
 8891SOL    HW138135   4.400   3.106   2.774  0.4562 -1.6407  1.2572
 8891SOL    HW238136   4.302   3.133   2.672 -0.7198 -0.6534 -1.0200
 8892SOL     OW38137   2.359   4.431  15.020 -0.4620 -0.1279  0.9353
 8892SOL    HW138138   2.441   4.477  15.036 -0.7688  1.0805 -0.9346
 8892SOL    HW238139   2.383   4.340  15.038  2.1771  0.1533 -1.1909
 8893SOL     OW38140   2.323   3.426  16.856 -0.1634  0.2225  0.8208
 8893SOL    HW138141   2.296   3.488  16.924 -1.7306 -0.6004  0.9465
 8893SOL    HW238142   2.281   3.449  16.774  0.2613 -0.4164  0.4191
 8894SOL     OW38143   3.450   0.536   3.705 -0.8913  0.2216 -0.3378
 8894SOL    HW138144   3.401   0.454   3.711  0.1827 -0.7485 -4.8652
 8894SOL    HW238145   3.438   0.569   3.794 -2.2256 -1.4644  0.1216
 8895SOL     OW38146   4.642   0.432  14.475 -0.5597  0.0376  0.2119
 8895SOL    HW138147   4.552   0.444  14.505 -0.8782 -1.4645 -0.1271
 8895SOL    HW238148   4.694   0.463  14.549  1.3538  1.1197 -1.5968
 8896SOL     OW38149   4.047   0.174   5.924 -0.4469 -0.1322 -0.1745
 8896SOL    HW138150   4.114   0.126   5.876 -0.4786  1.3649 -1.7055
 8896SOL    HW238151   4.042   0.114   5.999  0.8734 -0.7915 -0.6136
 8897SOL     OW38152   2.624   2.774  15.466 -0.0845 -0.3495  0.1012
 8897SOL    HW138153   2.641   2.739  15.378  0.5294  0.7202 -0.2051
 8897SOL    HW238154   2.549   2.717  15.481  0.6578 -1.3704 -0.0256
 8898SOL     OW38155   4.367   1.875   7.432  0.3790  0.1380 -0.4169
 8898SOL    HW138156   4.439   1.928   7.467  1.0176 -0.9254 -0.1002
 8898SOL    HW238157   4.294   1.937   7.432 -0.0746 -0.3809  3.1001
 8899SOL     OW38158   4.536   0.788   4.847  0.3141  0.1888 -0.0132
 8899SOL    HW138159   4.535   0.864   4.906 -0.7418 -0.5627  0.9404
 8899SOL    HW238160   4.462   0.735   4.876 -0.6876  0.9847 -1.1280
 8900SOL     OW38161   2.601   4.071   4.141  0.2872  0.2944  0.3259
 8900SOL    HW138162   2.527   4.088   4.199 -0.1945 -0.3751 -0.0887
 8900SOL    HW238163   2.678   4.081   4.196 -0.6563  0.1876  1.6456
 8901SOL     OW38164   3.557   0.141   8.414 -0.2617  0.3024  0.1445
 8901SOL    HW138165   3.488   0.207   8.428 -0.1557  0.0145  1.9396
 8901SOL    HW238166   3.638   0.191   8.429 -0.9013  1.3539  0.1344
 8902SOL     OW38167   0.679   0.383  14.284  0.3485 -0.1346  0.0286
 8902SOL    HW138168   0.768   0.349  14.277  0.1155 -0.3420 -1.8710
 8902SOL    HW238169   0.684   0.459  14.225  1.4935 -1.2330 -1.2816
 8903SOL     OW38170   3.099   0.599   1.251  0.7468  0.0294 -0.0140
 8903SOL    HW138171   3.105   0.694   1.237  0.1585  0.1449  0.4946
 8903SOL    HW238172   3.142   0.572   1.171  1.2520  1.1709 -0.1282
 8904SOL     OW38173   0.633   2.776  15.513  0.1919 -0.2276 -0.1115
 8904SOL    HW138174   0.651   2.864  15.478  0.9882  0.0124  0.8826
 8904SOL    HW238175   0.670   2.779  15.601  1.6159 -0.8448 -0.6974
 8905SOL     OW38176   3.667   2.920   8.184  0.1561 -0.3421  0.2951
 8905SOL    HW138177   3.679   2.972   8.264  2.6830  0.7815 -0.8231
 8905SOL    HW238178   3.599   2.864   8.220 -2.2679  1.4188 -1.5744
 8906SOL     OW38179   0.815   4.027   9.135 -0.2636 -0.4144 -0.0840
 8906SOL    HW138180   0.901   4.039   9.096  0.5723 -0.8352  1.6170
 8906SOL    HW238181   0.767   4.080   9.071 -0.8773 -3.1450 -1.9013
 8907SOL     OW38182   0.551   0.952  10.111 -0.0339  0.1013  0.3377
 8907SOL    HW138183   0.614   1.020  10.086  0.0466 -0.0797  0.0440
 8907SOL    HW238184   0.508   0.934  10.027 -1.0602 -1.1730  1.1460
 8908SOL     OW38185   1.827   1.647   5.286 -0.0377 -0.3347 -0.9854
 8908SOL    HW138186   1.772   1.638   5.364  0.8026 -1.8684 -0.5714
 8908SOL    HW238187   1.903   1.600   5.320 -0.1082  0.6994  0.5960
 8909SOL     OW38188   0.501   3.178   4.057 -0.7832  0.2607  0.1716
 8909SOL    HW138189   0.571   3.173   4.122 -0.8158 -1.7406  0.0558
 8909SOL    HW238190   0.445   3.115   4.101  1.2948 -2.3872 -0.9347
 8910SOL     OW38191   2.430   3.545  17.477  0.4573  0.5088  0.0387
 8910SOL    HW138192   2.449   3.452  17.488 -0.3054  0.2425 -0.9378
 8910SOL    HW238193   2.386   3.570  17.559  0.2587 -2.7383  0.9312
 8911SOL     OW38194   3.257   3.431  13.852 -0.2817 -0.3331 -0.4132
 8911SOL    HW138195   3.219   3.518  13.867  2.9271  1.4274 -2.4401
 8911SOL    HW238196   3.202   3.407  13.777  1.9002 -1.0297 -1.7975
 8912SOL     OW38197   0.247   0.700   1.085  0.8852 -0.6181  0.4840
 8912SOL    HW138198   0.169   0.735   1.126 -1.0169 -1.9622 -1.9577
 8912SOL    HW238199   0.313   0.743   1.139  0.3701  1.3061 -0.4227
 8913SOL     OW38200   0.600   2.724   1.419  0.5407  0.2997 -0.3296
 8913SOL    HW138201   0.576   2.668   1.345  0.1975 -0.5940  0.4541
 8913SOL    HW238202   0.694   2.733   1.407  0.3265  1.3143 -1.2372
 8914SOL     OW38203   0.503   2.108   2.356  0.1869 -0.6317  0.1810
 8914SOL    HW138204   0.502   2.200   2.332  1.4208 -0.7825 -0.4879
 8914SOL    HW238205   0.486   2.062   2.273 -1.3506 -2.0171  1.2679
 8915SOL     OW38206   0.206   0.798   6.889 -0.0207  0.4308  0.2431
 8915SOL    HW138207   0.210   0.762   6.800  0.4056 -0.2804  0.5526
 8915SOL    HW238208   0.111   0.810   6.888 -0.3661 -2.3171  0.6654
 8916SOL     OW38209   0.180   0.036   4.736  0.3378 -0.3311 -0.6167
 8916SOL    HW138210   0.273   0.013   4.740  0.4225  0.2140  0.6619
 8916SOL    HW238211   0.161   4.693   4.665 -3.3980 -1.8266  1.7031
 8917SOL     OW38212   2.755   0.417   6.294  0.2689  0.4877  0.1510
 8917SOL    HW138213   2.748   0.432   6.389 -0.5139 -0.0248  0.1791
 8917SOL    HW238214   2.662   0.408   6.274  1.3357 -4.0210 -2.5920
 8918SOL     OW38215   4.268   0.453   3.432  0.4379 -0.4946  0.0156
 8918SOL    HW138216   4.303   0.367   3.410  1.9844  0.1018  0.1026
 8918SOL    HW238217   4.235   0.437   3.520 -0.1561 -0.4617 -0.1992
 8919SOL     OW38218   3.511   0.179   9.130 -0.3975 -0.2745 -0.1348
 8919SOL    HW138219   3.505   0.132   9.046  1.3470  0.9821 -0.9569
 8919SOL    HW238220   3.602   0.202   9.147 -0.4555  0.2247 -0.4997
 8920SOL     OW38221   1.643   3.670   7.806  0.2152  0.1600 -0.2317
 8920SOL    HW138222   1.665   3.719   7.885 -0.1527 -0.4210  0.2368
 8920SOL    HW238223   1.715   3.698   7.750  0.4926  0.3407  0.2157
 8921SOL     OW38224   2.672   1.351   5.160  0.1706  0.6317 -0.3380
 8921SOL    HW138225   2.586   1.389   5.178  0.1564 -0.6885  2.2433
 8921SOL    HW238226   2.640   1.263   5.141  0.4896 -0.0020  2.0817
 8922SOL     OW38227   3.380   3.085   7.274  0.1331  0.2935 -0.5280
 8922SOL    HW138228   3.321   3.137   7.328 -0.1901 -1.3890  0.7446
 8922SOL    HW238229   3.392   2.996   7.306 -0.5140 -0.1250 -1.4527
 8923SOL     OW38230   3.335   2.997  16.750  0.4250  0.0330  0.2582
 8923SOL    HW138231   3.348   2.916  16.700  2.6964 -0.3455  1.4629
 8923SOL    HW238232   3.318   3.058  16.679  0.0831  1.6744  1.7659
 8924SOL     OW38233   0.761   2.971   5.151 -0.0782  0.1544  0.1841
 8924SOL    HW138234   0.712   2.951   5.231  0.6580  1.4760  0.9580
 8924SOL    HW238235   0.815   3.048   5.165 -0.7605  0.6443  0.1152
 8925SOL     OW38236   3.237   4.579   9.476  0.2859 -0.6939 -0.8774
 8925SOL    HW138237   3.178   4.647   9.505  1.3121  0.0863 -0.6150
 8925SOL    HW238238   3.320   4.605   9.517 -0.3945  0.4805 -0.2563
 8926SOL     OW38239   3.684   4.506   4.006  0.2755 -0.8313 -0.7586
 8926SOL    HW138240   3.593   4.534   4.018  1.6864  2.9417  1.2285
 8926SOL    HW238241   3.712   4.519   3.916 -0.4286 -2.0279 -1.1377
 8927SOL     OW38242   3.803   0.421  16.286  0.0908 -0.2708 -0.1177
 8927SOL    HW138243   3.822   0.378  16.369  1.9746 -0.9031 -0.8788
 8927SOL    HW238244   3.732   0.472  16.325  1.4473  0.0540  1.9320
 8928SOL     OW38245   1.606   3.322   1.775  0.0193 -0.2331 -0.2926
 8928SOL    HW138246   1.639   3.283   1.695  0.1988  0.1418 -0.4012
 8928SOL    HW238247   1.551   3.390   1.736  1.7815  0.5517 -1.3668
 8929SOL     OW38248   3.940   4.065   7.206 -0.2596  0.5613  0.3408
 8929SOL    HW138249   3.958   3.977   7.238 -3.6466  0.2462  1.3563
 8929SOL    HW238250   3.894   4.050   7.123 -0.6648 -0.2880  0.7281
 8930SOL     OW38251   1.443   0.708  16.807  0.2127  0.0261  0.0767
 8930SOL    HW138252   1.377   0.644  16.834 -0.0532 -0.0128 -0.6836
 8930SOL    HW238253   1.416   0.784  16.859  3.3692  0.5274  1.0142
 8931SOL     OW38254   3.661   3.268  13.803  0.4355 -0.5696 -0.1712
 8931SOL    HW138255   3.753   3.278  13.826  0.6278 -0.2998 -1.0328
 8931SOL    HW238256   3.654   3.347  13.749  1.5285  0.2952  0.9694
 8932SOL     OW38257   1.064   1.730   6.671  0.2831  0.1483  0.4431
 8932SOL    HW138258   1.107   1.690   6.747 -1.2858 -1.2626  0.5968
 8932SOL    HW238259   1.116   1.690   6.602 -0.6636 -2.2193  1.1001
 8933SOL     OW38260   2.824   2.530   4.497 -0.3336 -0.0558 -0.4638
 8933SOL    HW138261   2.754   2.520   4.433 -1.2222  0.0654  0.4840
 8933SOL    HW238262   2.886   2.483   4.441 -0.4807 -2.4025  1.3354
 8934SOL     OW38263   2.275   4.163  10.343 -0.3521 -0.8059  0.1252
 8934SOL    HW138264   2.255   4.072  10.323  0.4968 -1.2324  1.2493
 8934SOL    HW238265   2.186   4.194  10.357  0.3450  0.8399  0.9234
 8935SOL     OW38266   4.266   0.957   3.755  0.2762 -0.5183 -0.0847
 8935SOL    HW138267   4.209   0.986   3.684  0.5215  2.3620  0.8917
 8935SOL    HW238268   4.255   0.865   3.731 -2.9758  0.5720 -2.8002
 8936SOL     OW38269   3.274   2.712   1.757  0.5882  0.1354  0.0941
 8936SOL    HW138270   3.251   2.660   1.681  1.6940 -0.7311  0.3609
 8936SOL    HW238271   3.186   2.746   1.776  0.7617  1.4134 -1.3850
 8937SOL     OW38272   1.374   3.150   3.683 -0.6291 -0.0358  0.1782
 8937SOL    HW138273   1.376   3.232   3.634  1.6824 -1.0686 -1.5011
 8937SOL    HW238274   1.353   3.178   3.771 -1.8025 -1.6148  0.4001
 8938SOL     OW38275   3.396   4.431   8.709 -0.3770  0.0996 -0.0182
 8938SOL    HW138276   3.414   4.357   8.651  2.2686 -0.1743  1.1856
 8938SOL    HW238277   3.376   4.388   8.792  1.5588 -0.9338 -0.0988
 8939SOL     OW38278   0.994   0.666   2.115 -0.5999  0.2176 -0.6589
 8939SOL    HW138279   1.065   0.722   2.147 -1.6715  0.8435  0.6554
 8939SOL    HW238280   0.925   0.699   2.174 -0.1252 -2.8085  1.5737
 8940SOL     OW38281   0.160   1.773   5.617  0.1507 -0.1152  0.5407
 8940SOL    HW138282   0.101   1.701   5.596 -0.8704  0.8347  0.1029
 8940SOL    HW238283   0.119   1.826   5.685 -1.2002  0.0665 -0.4013
 8941SOL     OW38284   1.397   1.108   3.854 -0.6531 -0.4581  0.3279
 8941SOL    HW138285   1.419   1.186   3.803 -1.6260  0.4894  1.3596
 8941SOL    HW238286   1.329   1.073   3.797  1.3577 -2.0269 -1.1006
 8942SOL     OW38287   0.460   0.953  11.841  0.0429  0.2915  0.7250
 8942SOL    HW138288   0.555   0.956  11.857  0.5367  0.3945 -2.2135
 8942SOL    HW238289   0.459   1.028  11.782  0.4626 -0.7247 -0.5939
 8943SOL     OW38290   2.201   2.878  16.276 -0.0883 -0.2734 -0.0221
 8943SOL    HW138291   2.212   2.916  16.189  0.0991 -1.1090 -0.3542
 8943SOL    HW238292   2.290   2.887  16.309  0.4078 -2.9672 -0.6401
 8944SOL     OW38293   0.506   2.146   4.112  0.5394  0.2446  0.1149
 8944SOL    HW138294   0.530   2.134   4.020 -0.5419 -0.5661 -0.0633
 8944SOL    HW238295   0.526   2.059   4.146 -1.3825  0.3105  1.4162
 8945SOL     OW38296   2.561   3.547   7.779  0.1412  0.7361 -0.6886
 8945SOL    HW138297   2.538   3.509   7.864  1.4757 -0.8280 -1.0300
 8945SOL    HW238298   2.587   3.465   7.736 -3.0892 -2.2006  2.8649
 8946SOL     OW38299   3.375   4.562   2.628 -0.0710 -0.1218 -0.1642
 8946SOL    HW138300   3.295   4.595   2.588  0.3520 -0.4700 -1.3077
 8946SOL    HW238301   3.350   4.477   2.663  0.2560 -0.1307  0.0432
 8947SOL     OW38302   0.553   1.421   7.854 -0.0697 -0.4035 -0.2023
 8947SOL    HW138303   0.501   1.379   7.786 -0.8372  1.5514 -0.8425
 8947SOL    HW238304   0.555   1.354   7.922 -1.9463  2.1140  2.3679
 8948SOL     OW38305   3.717   0.957   3.716 -0.1210 -0.2183 -0.1351
 8948SOL    HW138306   3.672   0.907   3.784 -0.5429  0.3721  0.0260
 8948SOL    HW238307   3.806   0.937   3.746  0.3281 -0.5405 -1.7188
 8949SOL     OW38308   3.720   0.590   6.655 -0.7871 -0.0831 -0.1676
 8949SOL    HW138309   3.701   0.660   6.592 -1.5477  0.3875  0.5851
 8949SOL    HW238310   3.815   0.588   6.651 -0.7179 -1.2669  1.7461
 8950SOL     OW38311   1.820   3.238   8.067  0.7237 -0.4567 -0.0542
 8950SOL    HW138312   1.905   3.200   8.044  1.6564  2.0924 -0.8132
 8950SOL    HW238313   1.830   3.259   8.160  0.2300 -0.4095 -0.0110
 8951SOL     OW38314   4.672   1.133  12.673  0.3340  0.1244 -0.0172
 8951SOL    HW138315   4.670   1.041  12.648  0.2465 -0.0118  0.5129
 8951SOL    HW238316   4.667   1.169  12.584 -2.7109  2.9397  1.2977
 8952SOL     OW38317   4.640   3.327   5.100 -0.1014 -0.0443 -0.2475
 8952SOL    HW138318   4.629   3.398   5.037  0.1846 -0.8682 -1.2271
 8952SOL    HW238319   4.591   3.361   5.175 -1.3709 -0.0810 -1.0599
 8953SOL     OW38320   3.179   2.460  14.747  0.3856 -0.0321 -0.3095
 8953SOL    HW138321   3.101   2.451  14.802 -0.3423 -0.5430 -1.4349
 8953SOL    HW238322   3.156   2.532  14.688 -0.6937  0.2832  0.4829
 8954SOL     OW38323   1.709   1.395   3.903  0.4705 -0.6130 -0.1429
 8954SOL    HW138324   1.728   1.315   3.952  1.5153 -0.6177 -0.5475
 8954SOL    HW238325   1.621   1.373   3.873  0.8284  0.4531 -1.9986
 8955SOL     OW38326   3.222   0.952   8.166  0.4187 -0.1933 -0.0557
 8955SOL    HW138327   3.251   1.009   8.095 -0.6506 -2.2527 -2.1263
 8955SOL    HW238328   3.182   0.880   8.117 -0.3325 -0.1587  0.4925
 8956SOL     OW38329   4.473   2.306  12.493  0.5266  0.2227  0.2689
 8956SOL    HW138330   4.490   2.309  12.587  1.3351 -0.3845  0.1488
 8956SOL    HW238331   4.566   2.291  12.475  0.7251  2.3098 -0.4372
 8957SOL     OW38332   3.495   1.894   4.828  0.5145  0.1614  0.4187
 8957SOL    HW138333   3.529   1.892   4.739 -1.3054  1.5764 -0.3053
 8957SOL    HW238334   3.567   1.945   4.865 -0.7880  1.9648  0.4554
 8958SOL     OW38335   2.136   0.844   5.150 -0.4963  0.2625 -0.6089
 8958SOL    HW138336   2.060   0.797   5.115 -0.3492  0.8119 -1.6615
 8958SOL    HW238337   2.173   0.771   5.199  0.2427 -0.0252 -1.5905
 8959SOL     OW38338   3.393   0.341  13.801  0.5245 -0.3679 -0.3747
 8959SOL    HW138339   3.446   0.413  13.836  1.2457 -0.3982 -1.4100
 8959SOL    HW238340   3.347   0.392  13.734 -0.3269  0.9804  1.2449
 8960SOL     OW38341   2.505   4.475   3.273 -0.3157 -0.1965 -0.1232
 8960SOL    HW138342   2.543   4.420   3.204  0.4186 -1.0341  0.9353
 8960SOL    HW238343   2.565   4.471   3.347  0.1313 -0.2560 -0.4908
 8961SOL     OW38344   0.346   4.479   4.965  0.2184  0.5706 -1.0055
 8961SOL    HW138345   0.382   4.422   4.897 -2.1587  0.3569 -2.0677
 8961SOL    HW238346   0.301   4.405   5.005 -0.0242  1.4529  0.3575
 8962SOL     OW38347   1.366   3.722  11.045  0.2888  0.1162 -0.0093
 8962SOL    HW138348   1.402   3.800  11.001  1.7621 -1.9850 -2.5558
 8962SOL    HW238349   1.441   3.691  11.097 -0.4389  0.1985  1.0751
 8963SOL     OW38350   1.751   2.019   2.435  0.3578  0.3366  0.3716
 8963SOL    HW138351   1.838   1.984   2.453  1.3326  1.7084 -1.6016
 8963SOL    HW238352   1.775   2.102   2.393  1.4139 -0.6278 -0.9122
 8964SOL     OW38353   1.230   1.211   4.153 -0.3512 -0.2307 -0.1799
 8964SOL    HW138354   1.164   1.274   4.124  2.1576  2.3315 -0.3995
 8964SOL    HW238355   1.272   1.183   4.072  1.1391  0.5881  0.3037
 8965SOL     OW38356   2.356   1.989   2.351  0.0841 -0.0884 -0.0964
 8965SOL    HW138357   2.423   1.967   2.416  0.2362  1.7690  0.3553
 8965SOL    HW238358   2.399   2.057   2.300  0.3166  1.5574  2.3260
 8966SOL     OW38359   1.472   2.132   7.586 -0.2385 -0.0586 -0.1728
 8966SOL    HW138360   1.422   2.138   7.667  3.3553  1.4429  1.9291
 8966SOL    HW238361   1.558   2.166   7.611 -0.3806  0.4705 -0.4156
 8967SOL     OW38362   4.010   0.579   8.907  0.4123 -0.7677  0.5889
 8967SOL    HW138363   4.014   0.673   8.924 -0.0937 -0.2961 -1.8666
 8967SOL    HW238364   4.098   0.572   8.871 -0.0178  2.1628 -1.0382
 8968SOL     OW38365   3.993   3.337   0.249  0.5748  0.5283 -0.1898
 8968SOL    HW138366   3.985   3.242   0.247 -0.6372  0.6344 -0.6000
 8968SOL    HW238367   3.914   3.343   0.304  1.7018 -0.2321  1.5185
 8969SOL     OW38368   3.560   3.322  11.344 -0.5009 -0.3037  0.1689
 8969SOL    HW138369   3.651   3.304  11.367 -0.1250  0.0760 -1.0360
 8969SOL    HW238370   3.509   3.316  11.425 -0.0444 -0.1319  0.4684
 8970SOL     OW38371   3.951   4.045   0.104  0.2735 -0.4055  0.0263
 8970SOL    HW138372   4.028   4.065   0.157 -0.6544 -1.5154  1.8118
 8970SOL    HW238373   3.878   4.049   0.166  0.8567  2.6290  0.5013
 8971SOL     OW38374   4.258   3.816  17.075  0.3926  0.2938 -0.7997
 8971SOL    HW138375   4.320   3.825  17.147  1.0204  0.2920 -1.3278
 8971SOL    HW238376   4.230   3.725  17.087  3.3766 -0.6438 -0.8921
 8972SOL     OW38377   0.479   0.818   2.780  0.2965  0.1760  0.6964
 8972SOL    HW138378   0.441   0.736   2.810  0.9432 -0.1705  0.5651
 8972SOL    HW238379   0.431   0.883   2.831  0.5252 -0.0907  1.2471
 8973SOL     OW38380   3.155   4.710  13.826 -0.4383 -0.7921  0.4392
 8973SOL    HW138381   3.157   0.009  13.920  0.3579  2.2989 -0.1694
 8973SOL    HW238382   3.174   4.617  13.820 -0.5474 -0.8050  0.2744
 8974SOL     OW38383   2.144   2.686   3.310  0.2622 -0.2005  0.3719
 8974SOL    HW138384   2.079   2.757   3.313  2.3673  1.6837  2.0217
 8974SOL    HW238385   2.214   2.739   3.271  0.0109  0.2261  0.4914
 8975SOL     OW38386   4.422   0.737   4.485 -0.2247  0.3429 -0.6975
 8975SOL    HW138387   4.400   0.830   4.480 -1.2624  0.2060  1.4059
 8975SOL    HW238388   4.511   0.751   4.517  0.2909 -0.2073 -1.8988
 8976SOL     OW38389   2.606   3.721   6.479 -0.3738 -0.3910  0.1396
 8976SOL    HW138390   2.681   3.762   6.521 -1.0210  1.2295 -0.2913
 8976SOL    HW238391   2.538   3.752   6.538 -1.3123 -1.3704 -0.4047
 8977SOL     OW38392   3.002   1.282   1.378 -0.4266  0.1483 -0.2977
 8977SOL    HW138393   3.036   1.241   1.298 -2.1739  0.1312 -1.0332
 8977SOL    HW238394   2.923   1.317   1.338  0.1054  1.1654 -0.4377
 8978SOL     OW38395   2.100   0.792  17.297 -0.4322  0.0801 -0.2866
 8978SOL    HW138396   2.021   0.779  17.349 -0.5225  2.0492  0.0771
 8978SOL    HW238397   2.085   0.866  17.238  0.5407 -0.6792 -1.4907
 8979SOL     OW38398   4.700   0.270  17.280  0.0334  0.5506 -0.1793
 8979SOL    HW138399   4.703   0.336  17.350 -0.9582 -1.6421  1.9220
 8979SOL    HW238400   4.612   0.303  17.264 -0.3715 -1.3194 -1.7967
 8980SOL     OW38401   1.646   4.656   6.378 -0.2584  0.3599  0.3119
 8980SOL    HW138402   1.733   4.686   6.352 -0.4919 -0.5728 -1.5607
 8980SOL    HW238403   1.647   4.673   6.472 -0.1510  1.1510  0.1680
 8981SOL     OW38404   3.823   3.182   9.595  0.2977 -0.1649 -0.0597
 8981SOL    HW138405   3.750   3.214   9.648 -0.8097  0.6847 -2.0813
 8981SOL    HW238406   3.866   3.129   9.662  0.1640  2.3571  2.0460
 8982SOL     OW38407   0.139   2.488   1.406 -0.0213  0.4349 -0.2820
 8982SOL    HW138408   0.199   2.422   1.442 -0.8148 -0.7252 -1.1132
 8982SOL    HW238409   0.057   2.456   1.443 -0.0303  1.2329  0.3780
 8983SOL     OW38410   4.038   2.345   8.805  0.8174  0.3855 -0.0290
 8983SOL    HW138411   4.091   2.420   8.833  1.2545  0.3145 -0.6674
 8983SOL    HW238412   3.953   2.384   8.823 -0.4205 -1.2479 -2.3460
 8984SOL     OW38413   3.198   0.501  16.053 -0.0724 -0.7715 -0.9063
 8984SOL    HW138414   3.180   0.559  16.127  0.7605 -1.6083 -0.0540
 8984SOL    HW238415   3.106   0.477  16.039 -1.1318  2.3163  0.9174
 8985SOL     OW38416   0.385   0.488   6.451  0.3105  0.5816  0.0519
 8985SOL    HW138417   0.418   0.404   6.483 -1.4723 -1.2086 -2.8588
 8985SOL    HW238418   0.344   0.462   6.369 -0.2560 -0.7465  0.7483
 8986SOL     OW38419   3.834   1.229  15.146 -0.5682 -0.2476  0.6373
 8986SOL    HW138420   3.753   1.279  15.142  0.1206  1.0628  2.7926
 8986SOL    HW238421   3.863   1.252  15.057 -1.1401  0.4635  0.6363
 8987SOL     OW38422   1.355   1.928   9.903 -0.0629  0.5797 -0.8450
 8987SOL    HW138423   1.380   2.006   9.853  0.2033 -0.3205 -2.1401
 8987SOL    HW238424   1.369   1.852   9.846 -1.6619 -0.0634 -0.3794
 8988SOL     OW38425   0.648   2.963   4.679  0.3025 -0.4194 -0.0109
 8988SOL    HW138426   0.718   2.948   4.742 -0.4492  0.4342  1.0286
 8988SOL    HW238427   0.688   3.010   4.606  0.7600 -0.6592  0.0896
 8989SOL     OW38428   3.208   2.585   3.865 -0.3497 -0.0571 -0.2944
 8989SOL    HW138429   3.302   2.579   3.880 -0.2742  1.2178 -0.2200
 8989SOL    HW238430   3.191   2.498   3.831  0.5950 -0.5250  0.4456
 8990SOL     OW38431   1.812   0.712   6.072  0.3333 -0.7183 -0.6019
 8990SOL    HW138432   1.795   0.762   6.151 -0.9468  1.3336 -2.1781
 8990SOL    HW238433   1.764   0.632   6.095  0.8131 -0.3717  1.5955
 8991SOL     OW38434   1.198   3.461   2.833 -0.4908 -0.5701  0.1007
 8991SOL    HW138435   1.143   3.504   2.899 -1.0778 -0.4096 -0.4915
 8991SOL    HW238436   1.193   3.367   2.849  1.6873 -0.9370 -1.4754
 8992SOL     OW38437   4.463   0.929   2.818  0.0637  0.2265  0.0864
 8992SOL    HW138438   4.485   0.874   2.894 -0.0597  0.5745  0.3776
 8992SOL    HW238439   4.388   0.979   2.851  1.4145 -0.1986  3.9022
 8993SOL     OW38440   3.955   3.957   8.104  0.1890 -0.4569  0.2662
 8993SOL    HW138441   3.876   3.941   8.053  1.7461 -1.5509 -1.8095
 8993SOL    HW238442   3.914   3.996   8.181 -1.0445  0.2605 -0.7593
 8994SOL     OW38443   4.191   0.005   4.542  0.1472  0.3704  0.3628
 8994SOL    HW138444   4.268   0.061   4.530 -0.6143  1.2597 -0.4535
 8994SOL    HW238445   4.225   4.647   4.498 -1.4156 -1.3391  2.2211
 8995SOL     OW38446   1.270   3.483   7.016 -0.5022 -0.4626  0.3067
 8995SOL    HW138447   1.355   3.496   7.057 -0.3389  1.4743 -0.6700
 8995SOL    HW238448   1.282   3.546   6.945 -1.0959 -0.6343  0.0517
 8996SOL     OW38449   0.181   3.256  17.142  0.0338 -0.0187 -0.1005
 8996SOL    HW138450   0.240   3.199  17.092  1.4305  0.8331  0.5820
 8996SOL    HW238451   0.160   3.321  17.076  0.7613  1.0643  0.7359
 8997SOL     OW38452   2.057   2.830   2.433  0.0351 -0.2998 -0.9564
 8997SOL    HW138453   2.001   2.770   2.384 -0.9780  0.7356 -1.0961
 8997SOL    HW238454   1.991   2.897   2.454  0.3612 -0.5010  0.6748
 8998SOL     OW38455   1.870   1.403  11.624  0.7717 -0.0542  0.3306
 8998SOL    HW138456   1.790   1.455  11.633  1.7419  1.7206 -1.2337
 8998SOL    HW238457   1.906   1.435  11.541  0.0926 -0.1897 -0.0257
 8999SOL     OW38458   0.553   0.218   0.445  0.0102 -0.1432  0.2355
 8999SOL    HW138459   0.563   0.132   0.403  0.9314  0.6693 -1.1863
 8999SOL    HW238460   0.634   0.261   0.417 -0.4863  2.0281  2.1656
 9000SOL     OW38461   2.006   1.474  12.175  0.0860  0.4114 -0.0796
 9000SOL    HW138462   2.041   1.449  12.089  0.8564 -2.8713  1.1882
 9000SOL    HW238463   2.036   1.564  12.187  1.0626  0.3399 -1.8963
 9001SOL     OW38464   0.348   2.722   0.689  0.0489 -0.1524  0.0611
 9001SOL    HW138465   0.432   2.694   0.653  0.4946 -0.2925  1.2028
 9001SOL    HW238466   0.356   2.815   0.712 -1.1205  0.0810 -0.5054
 9002SOL     OW38467   1.114   3.959   4.215 -0.1758 -0.4473 -0.6321
 9002SOL    HW138468   1.169   3.912   4.277 -1.4018  0.7850  1.3974
 9002SOL    HW238469   1.105   3.899   4.141 -1.1548 -0.0105 -0.8690
 9003SOL     OW38470   2.073   2.017   4.951 -0.3678  0.2631  0.4053
 9003SOL    HW138471   2.140   2.085   4.944 -0.1916  0.0625  0.1243
 9003SOL    HW238472   2.028   2.037   4.869  0.4369  0.3895 -0.0026
 9004SOL     OW38473   3.451   3.032   9.153 -0.1262  0.4442 -0.2144
 9004SOL    HW138474   3.459   2.942   9.121  2.4205  0.6062 -0.0355
 9004SOL    HW238475   3.451   3.014   9.247 -0.2064  1.7912  0.0319
 9005SOL     OW38476   1.045   2.366   3.734  0.1359 -0.3354 -0.3831
 9005SOL    HW138477   0.984   2.438   3.717 -1.6846 -1.6789  0.5412
 9005SOL    HW238478   0.985   2.295   3.752 -0.5393  0.9074  2.2456
 9006SOL     OW38479   4.514   4.070  10.631  0.0811 -0.1757  0.1681
 9006SOL    HW138480   4.560   3.997  10.590  1.3482 -0.8925  2.9065
 9006SOL    HW238481   4.582   4.106  10.688  0.6090  1.0595 -1.2246
 9007SOL     OW38482   4.314   4.569   6.157  0.2476  0.2621  0.1349
 9007SOL    HW138483   4.367   4.622   6.098  0.8004 -1.5948 -1.0317
 9007SOL    HW238484   4.376   4.527   6.216 -1.6835  0.2161  2.1144
 9008SOL     OW38485   4.165   1.236  16.801 -0.3929 -0.0217  0.3463
 9008SOL    HW138486   4.118   1.283  16.732  0.7654 -0.5669 -0.8054
 9008SOL    HW238487   4.096   1.177  16.831 -2.0325  1.5437 -0.3571
 9009SOL     OW38488   1.033   2.740   6.304  0.5618  0.3622  0.0411
 9009SOL    HW138489   1.112   2.719   6.255  2.2127  3.5869  1.2701
 9009SOL    HW238490   1.024   2.674   6.373 -0.1040 -0.4055 -0.7921
 9010SOL     OW38491   3.459   2.383  15.845  0.0950  0.2544  0.8106
 9010SOL    HW138492   3.541   2.374  15.893  0.6261  1.6105  0.1431
 9010SOL    HW238493   3.420   2.450  15.902 -0.9139 -2.0962  2.8972
 9011SOL     OW38494   0.166   2.687  10.492 -1.0201 -0.2433  0.0431
 9011SOL    HW138495   0.152   2.780  10.477 -0.8940 -0.9024 -4.0603
 9011SOL    HW238496   0.078   2.652  10.503  0.1762 -2.3881  2.8062
 9012SOL     OW38497   3.176   0.704   3.304  0.4456  0.2680  0.1819
 9012SOL    HW138498   3.237   0.725   3.375  2.8349  0.1571 -1.8569
 9012SOL    HW238499   3.240   0.669   3.242 -1.1560 -1.1472 -0.6790
 9013SOL     OW38500   1.262   1.140   7.868  0.4800  0.0506  0.2309
 9013SOL    HW138501   1.357   1.140   7.853  1.0461 -3.0669  3.7039
 9013SOL    HW238502   1.249   1.193   7.947  0.6490  0.6468 -0.1374
 9014SOL     OW38503   4.617   2.353   4.393  0.6288 -0.1589  0.4777
 9014SOL    HW138504   4.691   2.410   4.370  0.6972 -0.3828  0.1398
 9014SOL    HW238505   4.621   2.277   4.335 -0.2686  0.4969 -0.4526
 9015SOL     OW38506   3.554   4.683   7.234  0.0341 -0.0241  0.2077
 9015SOL    HW138507   3.531   4.620   7.165  2.3061  0.7665 -1.2697
 9015SOL    HW238508   3.469   0.008   7.235 -0.5002 -1.0755  1.6141
 9016SOL     OW38509   0.725   2.533   7.617 -0.1104  0.1151 -0.0207
 9016SOL    HW138510   0.779   2.556   7.693 -0.8129 -1.2856  0.8891
 9016SOL    HW238511   0.658   2.602   7.619  1.1124  1.3475 -1.4804
 9017SOL     OW38512   2.979   0.807  10.629 -0.3204 -0.2618  0.4603
 9017SOL    HW138513   2.903   0.861  10.606  0.2748 -0.8074 -2.8517
 9017SOL    HW238514   2.959   0.789  10.720 -1.0915 -2.0146 -0.0610
 9018SOL     OW38515   1.550   3.257   2.355 -0.0914 -0.1423  0.4722
 9018SOL    HW138516   1.482   3.268   2.289 -0.8356  0.2693  1.3147
 9018SOL    HW238517   1.619   3.312   2.317  0.1056 -0.9195 -0.2943
 9019SOL     OW38518   0.847   2.535   3.665  0.2767 -0.0006 -0.2408
 9019SOL    HW138519   0.888   2.621   3.671  2.0293 -0.8449 -0.2300
 9019SOL    HW238520   0.810   2.542   3.753 -1.0499  1.0205 -0.8776
 9020SOL     OW38521   1.391   2.438   4.616  0.4472  0.0751 -0.2038
 9020SOL    HW138522   1.431   2.475   4.537  0.4462  1.0074  0.2366
 9020SOL    HW238523   1.307   2.406   4.585  0.7250  0.0553 -0.9405
 9021SOL     OW38524   0.875   1.366  12.983 -0.2945 -0.4141  0.4849
 9021SOL    HW138525   0.883   1.461  12.981  0.4914 -0.4742  0.7340
 9021SOL    HW238526   0.839   1.340  12.898 -0.0585 -0.1236  0.2978
 9022SOL     OW38527   4.112   0.394   5.472  0.0960  0.1829 -0.0256
 9022SOL    HW138528   4.169   0.339   5.525 -1.5792 -2.2589 -0.7722
 9022SOL    HW238529   4.174   0.435   5.412 -0.6968  0.4474 -0.6747
 9023SOL     OW38530   0.858   3.096   8.447  0.2280 -0.0093 -0.0333
 9023SOL    HW138531   0.834   3.028   8.510 -0.2781 -0.1116 -0.3460
 9023SOL    HW238532   0.773   3.127   8.416 -0.2043 -0.0774  1.0713
 9024SOL     OW38533   4.702   1.024   3.741 -0.1868  0.3036 -0.1282
 9024SOL    HW138534   0.003   1.011   3.649  0.6095 -0.1181  0.1152
 9024SOL    HW238535   0.046   0.964   3.780 -2.2108 -0.9634  1.2027
 9025SOL     OW38536   0.681   2.220  10.152  0.6459 -0.2469 -0.3947
 9025SOL    HW138537   0.646   2.167  10.224 -0.2443  2.7903  1.4113
 9025SOL    HW238538   0.753   2.263  10.199 -0.0462 -1.3593  1.7299
 9026SOL     OW38539   4.361   3.538   2.861 -0.1926 -0.2626 -0.3058
 9026SOL    HW138540   4.356   3.466   2.923 -0.1407  0.5160  0.5947
 9026SOL    HW238541   4.356   3.614   2.920 -0.6147  1.5345 -2.6440
 9027SOL     OW38542   3.321   4.115   7.970 -0.2822 -0.2776  0.2470
 9027SOL    HW138543   3.397   4.174   7.971 -1.0118  0.6653  0.3347
 9027SOL    HW238544   3.250   4.172   8.000 -0.2470  0.9841 -2.0232
 9028SOL     OW38545   2.662   3.799   1.407  0.4713 -0.2235  0.0787
 9028SOL    HW138546   2.626   3.887   1.416  0.6916 -0.1657  0.4025
 9028SOL    HW238547   2.690   3.787   1.498 -1.1442  1.3304  0.7751
 9029SOL     OW38548   4.407   3.914   1.587 -0.8708  0.7455 -0.3288
 9029SOL    HW138549   4.322   3.916   1.543 -0.3415 -0.2469 -1.4244
 9029SOL    HW238550   4.390   3.984   1.649 -1.4124  0.0752  0.2716
 9030SOL     OW38551   1.600   4.491   8.809  0.2003  0.2203 -0.0823
 9030SOL    HW138552   1.607   4.501   8.714  1.0176  0.3457 -0.0035
 9030SOL    HW238553   1.575   4.579   8.835  0.0526 -0.0526  0.6963
 9031SOL     OW38554   3.531   0.102   3.134 -0.1145 -0.1715 -0.7313
 9031SOL    HW138555   3.469   0.124   3.064 -0.8478 -0.6282 -0.2323
 9031SOL    HW238556   3.513   0.172   3.197  2.6645 -2.4140  2.5954
 9032SOL     OW38557   1.492   2.734   2.721 -0.4728 -0.1269 -0.3174
 9032SOL    HW138558   1.421   2.732   2.785 -0.0626  1.7812  0.2015
 9032SOL    HW238559   1.482   2.658   2.664 -0.2342 -0.2749 -0.1637
 9033SOL     OW38560   1.233   3.331   8.710  0.5806  0.4652 -0.5034
 9033SOL    HW138561   1.201   3.265   8.649 -0.4606  0.0847  0.4304
 9033SOL    HW238562   1.152   3.378   8.730  1.4925  1.5345  0.6630
 9034SOL     OW38563   2.840   4.323   5.353  0.3971  0.0751  0.7699
 9034SOL    HW138564   2.880   4.315   5.266  2.3433 -0.9327  1.7838
 9034SOL    HW238565   2.847   4.418   5.357  0.9174  0.0139  1.2493
 9035SOL     OW38566   1.143   2.592   7.073 -0.2339  0.2254 -0.1972
 9035SOL    HW138567   1.133   2.612   7.166 -1.0636 -0.1629 -0.2041
 9035SOL    HW238568   1.087   2.662   7.038  1.5547  2.1517  0.8387
 9036SOL     OW38569   1.123   4.695   7.465 -0.5792 -0.6496 -0.0920
 9036SOL    HW138570   1.194   0.011   7.412  1.1486 -2.2892  1.1468
 9036SOL    HW238571   1.102   4.624   7.404 -0.4393  0.2820 -1.2220
 9037SOL     OW38572   0.339   3.200  13.060 -0.3645 -0.1502  0.1349
 9037SOL    HW138573   0.364   3.112  13.087 -1.6878  0.0206  1.8769
 9037SOL    HW238574   0.295   3.214  13.143 -1.7807  0.9947 -0.7960
 9038SOL     OW38575   1.285   0.731  13.922  0.0125  0.5157 -0.0405
 9038SOL    HW138576   1.205   0.747  13.973 -0.2606 -0.6163 -0.1017
 9038SOL    HW238577   1.360   0.760  13.974  0.7001  0.1067 -0.8045
 9039SOL     OW38578   1.771   2.353  15.098 -0.1342 -0.1796  0.5826
 9039SOL    HW138579   1.683   2.334  15.064  1.4243 -3.9963 -1.3380
 9039SOL    HW238580   1.783   2.263  15.129  0.6762 -0.5789 -0.8833
 9040SOL     OW38581   1.996   1.009   4.006  0.2479  0.7569 -0.3718
 9040SOL    HW138582   2.028   0.967   3.926 -1.4334  2.0794 -1.7345
 9040SOL    HW238583   1.988   1.094   3.963 -2.1393  0.4229 -0.5946
 9041SOL     OW38584   1.225   0.865   3.167  0.3221 -0.4085 -0.3591
 9041SOL    HW138585   1.195   0.795   3.109  1.3261 -1.4917  0.4295
 9041SOL    HW238586   1.252   0.930   3.102 -0.3047  0.8540  0.6473
 9042SOL     OW38587   3.266   4.346   5.521 -0.5274 -0.1605 -1.1371
 9042SOL    HW138588   3.305   4.390   5.597  0.1522 -1.4149 -0.7682
 9042SOL    HW238589   3.260   4.264   5.569 -0.9631 -0.2390 -1.3266
 9043SOL     OW38590   4.379   3.769  11.524  0.5117  0.2158 -0.1415
 9043SOL    HW138591   4.438   3.815  11.584  1.0288 -0.0772 -0.4221
 9043SOL    HW238592   4.298   3.777  11.574  0.8630  1.9448  0.1584
 9044SOL     OW38593   4.105   2.149  11.709  0.4428  0.6170  0.1475
 9044SOL    HW138594   4.167   2.149  11.636 -0.5075  2.6707 -0.6387
 9044SOL    HW238595   4.100   2.244  11.725 -0.2146  0.6302 -0.1555
 9045SOL     OW38596   1.958   2.140   4.013 -0.3720 -0.0820  0.3127
 9045SOL    HW138597   1.886   2.190   3.975 -0.4317  1.0265  1.8963
 9045SOL    HW238598   2.024   2.209   4.016 -1.8504  1.4013 -1.0668
 9046SOL     OW38599   0.835   3.292   0.610  0.3495 -0.0251  0.4765
 9046SOL    HW138600   0.930   3.305   0.615  0.2454  1.2712 -1.0741
 9046SOL    HW238601   0.809   3.363   0.668 -0.8509  0.2838 -0.4604
 9047SOL     OW38602   2.499   3.659   4.552  0.1731 -0.0937 -0.4098
 9047SOL    HW138603   2.440   3.636   4.481 -2.4789  0.1433  1.6986
 9047SOL    HW238604   2.535   3.741   4.519  0.1689  1.0321  2.3850
 9048SOL     OW38605   3.923   3.776   2.768 -0.0277  0.1982  0.2241
 9048SOL    HW138606   3.909   3.738   2.681  1.4096 -2.0642  0.9926
 9048SOL    HW238607   3.948   3.859   2.728 -0.5265 -0.3484 -1.2453
 9049SOL     OW38608   4.365   0.952  16.896 -0.3268  0.6489 -0.1661
 9049SOL    HW138609   4.405   1.033  16.928  0.4573 -0.3211  1.2669
 9049SOL    HW238610   4.352   0.981  16.806  0.6518 -1.3808 -0.9498
 9050SOL     OW38611   0.696   3.909   6.486  0.3275 -0.1471  0.4397
 9050SOL    HW138612   0.790   3.923   6.499  1.0714 -2.1040 -3.0108
 9050SOL    HW238613   0.677   3.855   6.563 -0.7083 -1.3950 -0.7024
 9051SOL     OW38614   0.813   1.206  16.879  0.0125  0.2022  0.3506
 9051SOL    HW138615   0.768   1.278  16.923 -2.9733 -1.0723 -0.6030
 9051SOL    HW238616   0.740   1.144  16.886  0.9806 -0.7356  1.9925
 9052SOL     OW38617   2.138   3.918   6.991 -0.2189 -0.7039  0.2389
 9052SOL    HW138618   2.169   3.922   7.081 -1.6247  2.1005  0.6084
 9052SOL    HW238619   2.199   3.969   6.938 -0.9539  0.4809  0.5398
 9053SOL     OW38620   0.354   3.186   6.766 -0.3029 -0.1274  0.1933
 9053SOL    HW138621   0.413   3.117   6.797 -0.2347  0.7637  2.0636
 9053SOL    HW238622   0.383   3.251   6.830 -0.7953  0.5007 -0.2307
 9054SOL     OW38623   4.529   1.198   6.570 -0.2969  0.3539  0.0067
 9054SOL    HW138624   4.436   1.209   6.590  0.4439  1.8846  2.6188
 9054SOL    HW238625   4.572   1.250   6.638 -1.4540  0.9836  0.2653
 9055SOL     OW38626   4.274   2.285   8.096  0.0281 -0.4736 -0.6191
 9055SOL    HW138627   4.299   2.235   8.174 -0.7404 -0.5720 -0.4381
 9055SOL    HW238628   4.210   2.340   8.141  2.2204 -0.3921  2.4125
 9056SOL     OW38629   3.459   4.056   6.862  0.0921 -0.3087  0.5195
 9056SOL    HW138630   3.524   4.062   6.933 -0.4168 -1.4441  1.0837
 9056SOL    HW238631   3.520   4.051   6.789 -1.7967  0.1432 -1.0824
 9057SOL     OW38632   2.638   1.028   2.079  0.6010 -0.3462  0.0120
 9057SOL    HW138633   2.672   0.996   1.996 -3.4435  0.4424 -1.9327
 9057SOL    HW238634   2.587   0.951   2.103 -2.9223  1.6274 -1.0980
 9058SOL     OW38635   2.792   1.775   8.477  0.4422  0.1010 -0.0531
 9058SOL    HW138636   2.852   1.723   8.531  0.4044  0.5663  0.4424
 9058SOL    HW238637   2.765   1.837   8.545  0.0504 -0.1357  0.0059
 9059SOL     OW38638   2.780   3.640   2.458 -0.6533  0.0369 -0.2098
 9059SOL    HW138639   2.742   3.705   2.400 -0.9300  0.0045 -0.0653
 9059SOL    HW238640   2.749   3.558   2.419 -1.1840 -0.1739  0.6565
 9060SOL     OW38641   0.885   0.509   3.390  0.6923  0.4493 -0.0569
 9060SOL    HW138642   0.974   0.531   3.361  1.7963 -2.1359  1.3875
 9060SOL    HW238643   0.857   0.584   3.442 -0.2011  0.8014 -1.0423
 9061SOL     OW38644   0.109   0.204   6.011  0.1370  0.7584  0.2641
 9061SOL    HW138645   0.150   0.226   5.928  2.2851  1.2627  1.4579
 9061SOL    HW238646   0.016   0.201   5.986  0.6712 -1.2331 -1.5795
 9062SOL     OW38647   0.935   4.031   6.539  0.4250  0.3194  0.4431
 9062SOL    HW138648   0.930   4.038   6.634 -0.4125 -1.0330  0.4982
 9062SOL    HW238649   0.979   4.115   6.526  0.6312  0.1711  0.1842
 9063SOL     OW38650   4.232   0.174  14.097 -0.2955  0.1722 -0.2995
 9063SOL    HW138651   4.224   0.086  14.061 -2.1005 -1.3558  3.8113
 9063SOL    HW238652   4.173   0.171  14.172 -1.2798 -0.5350 -1.1041
 9064SOL     OW38653   0.872   2.476  16.799 -0.2124  0.1811 -0.2510
 9064SOL    HW138654   0.931   2.499  16.727 -0.5731 -0.0194 -0.6106
 9064SOL    HW238655   0.786   2.502  16.767 -0.7680 -2.5048 -0.9278
 9065SOL     OW38656   3.005   0.869   7.324 -0.1368  0.0190 -0.2632
 9065SOL    HW138657   3.050   0.953   7.320  0.6198 -0.4674 -1.9290
 9065SOL    HW238658   2.924   0.892   7.278 -0.7129 -0.2349  0.6187
 9066SOL     OW38659   4.304   3.148  16.695 -0.1891 -0.1373 -0.7012
 9066SOL    HW138660   4.299   3.084  16.624  0.4597  1.2312 -1.9822
 9066SOL    HW238661   4.354   3.218  16.653 -0.8218  1.2700  0.8899
 9067SOL     OW38662   1.383   0.867  17.530 -0.1099  0.1599  0.4676
 9067SOL    HW138663   1.460   0.826  17.489 -0.1259 -0.5801  1.1733
 9067SOL    HW238664   1.342   0.906  17.452 -0.9214 -0.4555  0.5884
 9068SOL     OW38665   0.083   2.095   2.763 -0.7948  0.1336 -0.2243
 9068SOL    HW138666   0.055   2.065   2.677  1.2810 -3.5872  0.3485
 9068SOL    HW238667   0.119   2.012   2.794  1.6061  1.0218 -0.6339
 9069SOL     OW38668   0.795   4.320   7.295 -0.9380 -0.4140 -0.6253
 9069SOL    HW138669   0.769   4.378   7.367  2.5169 -0.2979  0.5522
 9069SOL    HW238670   0.780   4.377   7.220  0.4391  0.3939 -0.2786
 9070SOL     OW38671   0.352   1.838  12.781 -0.1004  0.3221 -0.5102
 9070SOL    HW138672   0.331   1.761  12.728  0.9034  0.7432 -1.5300
 9070SOL    HW238673   0.303   1.814  12.860 -0.0072 -0.3955 -0.6719
 9071SOL     OW38674   1.673   2.326   2.403  0.2175  0.1007  0.6769
 9071SOL    HW138675   1.657   2.388   2.332 -2.2150 -0.4520  0.7260
 9071SOL    HW238676   1.615   2.254   2.378 -1.3127  1.0935  1.3864
 9072SOL     OW38677   1.253   1.756   0.857 -0.4782 -0.0066 -0.0781
 9072SOL    HW138678   1.223   1.831   0.909  0.7603 -0.8823  1.9058
 9072SOL    HW238679   1.232   1.795   0.772  1.8021  2.8335  0.6869
 9073SOL     OW38680   2.861   2.067   5.837  0.5249  0.0172 -0.2790
 9073SOL    HW138681   2.836   2.155   5.808  2.3235  1.0147  1.2312
 9073SOL    HW238682   2.845   2.077   5.930  0.7545 -0.8539 -0.1415
 9074SOL     OW38683   2.210   4.221   1.861  0.3089  0.0169  0.0590
 9074SOL    HW138684   2.167   4.151   1.911  0.3824 -0.8575 -1.0980
 9074SOL    HW238685   2.136   4.268   1.822  0.3069 -0.6186 -0.7120
 9075SOL     OW38686   4.619   4.115   2.417 -0.6579  0.0826  0.2627
 9075SOL    HW138687   4.645   4.023   2.427  0.9304  0.6340  1.2334
 9075SOL    HW238688   4.696   4.144   2.466 -0.2447 -0.6358  0.0445
 9076SOL     OW38689   4.552   2.987  10.617 -0.0583 -0.8562 -0.1835
 9076SOL    HW138690   4.615   3.008  10.686  1.3394  0.1915 -1.7568
 9076SOL    HW238691   4.475   3.033  10.650  1.7142  1.5545  0.5961
 9077SOL     OW38692   2.991   4.400  11.886  0.0357 -0.4137  0.0497
 9077SOL    HW138693   3.077   4.421  11.849 -0.0999  0.8348  0.4583
 9077SOL    HW238694   2.932   4.406  11.812  0.1881  0.9444  0.0470
 9078SOL     OW38695   0.976   1.080   9.959 -0.4940 -0.3886 -0.1026
 9078SOL    HW138696   1.061   1.056   9.996  0.0485 -0.4264 -1.3784
 9078SOL    HW238697   1.005   1.137   9.888 -0.4228  0.2452  0.4378
 9079SOL     OW38698   2.262   4.552   1.728 -0.1859  0.2908 -0.1844
 9079SOL    HW138699   2.338   4.610   1.738  1.6386 -2.1549  0.1677
 9079SOL    HW238700   2.277   4.486   1.796 -1.8977  0.2656  0.1769
 9080SOL     OW38701   1.704   1.792   8.349  0.1933 -0.1455  0.2375
 9080SOL    HW138702   1.723   1.716   8.293  1.0608  0.1294  0.1614
 9080SOL    HW238703   1.644   1.840   8.291  0.2288  1.2309  1.3591
 9081SOL     OW38704   3.834   3.563   6.795 -0.1299  0.3693  0.6883
 9081SOL    HW138705   3.874   3.486   6.755 -0.7296 -0.1091  1.0074
 9081SOL    HW238706   3.796   3.519   6.871  2.0374 -0.7611  1.1038
 9082SOL     OW38707   3.823   1.098   9.484 -0.1098 -0.7629  0.1349
 9082SOL    HW138708   3.769   1.086   9.563 -1.7055 -0.9326 -0.9782
 9082SOL    HW238709   3.835   1.190   9.506 -0.8984 -0.7696  0.6169
 9083SOL     OW38710   4.024   0.267   3.256 -0.3533 -0.1287 -0.0454
 9083SOL    HW138711   4.045   0.225   3.173 -0.3985 -0.2793  0.0189
 9083SOL    HW238712   4.089   0.225   3.312 -0.9170  0.5748  1.1463
 9084SOL     OW38713   3.979   1.617   7.860  0.0085 -0.7299 -0.4292
 9084SOL    HW138714   4.072   1.625   7.839  0.3263 -2.4198  0.3817
 9084SOL    HW238715   3.945   1.657   7.780  2.5717  1.0630 -0.5991
 9085SOL     OW38716   1.576   4.135   9.160 -0.2419  0.3580  0.4519
 9085SOL    HW138717   1.669   4.142   9.182  0.1866 -1.0167 -0.9155
 9085SOL    HW238718   1.578   4.044   9.131  0.0349  0.9709 -1.5039
 9086SOL     OW38719   1.898   4.333  12.396 -0.6147 -0.2869  0.0120
 9086SOL    HW138720   1.978   4.323  12.346 -0.7002  0.7026 -0.3202
 9086SOL    HW238721   1.834   4.315  12.327 -0.5619 -0.5039  0.0186
 9087SOL     OW38722   0.311   0.180   5.771  0.3871  0.0453  0.5969
 9087SOL    HW138723   0.294   0.147   5.683 -0.2899  1.6372  0.1276
 9087SOL    HW238724   0.308   0.099   5.823  1.0423 -0.2580  0.1569
 9088SOL     OW38725   3.612   2.364   8.585  0.6237  0.3912  0.1860
 9088SOL    HW138726   3.674   2.369   8.512 -0.3995  1.4794 -0.6137
 9088SOL    HW238727   3.676   2.349   8.655  0.9134  3.5228  0.6065
 9089SOL     OW38728   4.321   3.637   7.162 -0.1074  0.2657  0.4287
 9089SOL    HW138729   4.320   3.686   7.245 -0.6287 -0.9555  1.1458
 9089SOL    HW238730   4.322   3.548   7.197  2.1571 -0.4988 -1.6029
 9090SOL     OW38731   4.522   0.119   9.833 -0.1299  0.2283 -0.4628
 9090SOL    HW138732   4.562   0.038   9.802 -0.8070 -1.0678  2.1568
 9090SOL    HW238733   4.444   0.116   9.778 -1.7219  1.0910  1.7663
 9091SOL     OW38734   1.387   2.455   6.258  0.0267 -0.2691 -0.0059
 9091SOL    HW138735   1.300   2.482   6.286  0.2201 -0.5526  0.8813
 9091SOL    HW238736   1.368   2.363   6.237  0.3689 -0.6383  1.3095
 9092SOL     OW38737   4.068   0.618   6.313 -0.3014  0.5325 -0.1225
 9092SOL    HW138738   4.163   0.623   6.299  0.0952  2.3078  3.3275
 9092SOL    HW238739   4.030   0.592   6.229  1.3756  0.0939 -0.7517
 9093SOL     OW38740   3.343   3.580   2.463  0.1422  0.2413 -0.2281
 9093SOL    HW138741   3.268   3.545   2.415 -0.0005  0.4842 -0.1819
 9093SOL    HW238742   3.311   3.569   2.552 -2.1704 -0.6576 -1.1746
 9094SOL     OW38743   2.549   1.823   6.881 -0.7769 -0.0274  0.4671
 9094SOL    HW138744   2.533   1.827   6.975  0.6122 -0.4974  0.7151
 9094SOL    HW238745   2.643   1.838   6.881 -0.6150 -1.0112 -1.8165
 9095SOL     OW38746   0.898   3.047   1.327  0.0755  0.4543 -0.1940
 9095SOL    HW138747   0.838   3.093   1.385 -0.3786 -2.5420  1.6781
 9095SOL    HW238748   0.879   2.956   1.348 -0.2448  0.4310 -0.5717
 9096SOL     OW38749   2.522   3.996   6.998 -0.6036 -0.3597  0.1061
 9096SOL    HW138750   2.501   3.904   6.984  1.0853 -0.6590 -0.4624
 9096SOL    HW238751   2.456   4.050   6.956 -0.2627  0.8322  1.0916
 9097SOL     OW38752   3.515   1.784   4.241  0.5019 -0.0121  0.5635
 9097SOL    HW138753   3.565   1.862   4.265  0.1418  0.1576  0.7571
 9097SOL    HW238754   3.449   1.803   4.174  0.4418  0.4836  0.7630
 9098SOL     OW38755   2.200   4.710  16.305 -0.6102  0.1537  0.1604
 9098SOL    HW138756   2.221   0.081  16.325  1.3635 -0.3171  0.3074
 9098SOL    HW238757   2.276   4.688  16.250 -2.2572  0.9033 -2.4054
 9099SOL     OW38758   3.961   0.651   6.862 -0.1960 -0.1941 -0.0389
 9099SOL    HW138759   3.965   0.648   6.766 -0.3075 -1.3481 -0.0017
 9099SOL    HW238760   4.041   0.601   6.881  0.6866  1.2393  0.0172
 9100SOL     OW38761   3.216   4.485   7.535  0.0650  0.3714 -0.4078
 9100SOL    HW138762   3.181   4.567   7.571  1.4537 -0.2856  2.4111
 9100SOL    HW238763   3.142   4.424   7.530 -0.8347  1.4029  0.3794
 9101SOL     OW38764   2.863   1.460   2.508 -0.0407 -0.0480  0.2935
 9101SOL    HW138765   2.793   1.397   2.524 -0.1585  1.0020  4.1999
 9101SOL    HW238766   2.816   1.504   2.437 -1.2009 -0.1110  1.0156
 9102SOL     OW38767   0.598   0.458   3.394  0.7286 -0.3427  0.0096
 9102SOL    HW138768   0.688   0.451   3.362 -0.1459  1.2552 -2.7465
 9102SOL    HW238769   0.608   0.485   3.486 -1.0247 -0.4253  0.2241
 9103SOL     OW38770   3.323   1.004  15.129 -0.1227 -0.7728  0.0687
 9103SOL    HW138771   3.303   0.966  15.215 -0.1975  1.2125  0.9165
 9103SOL    HW238772   3.419   1.003  15.136 -0.0815  0.2390 -0.5019
 9104SOL     OW38773   1.574   1.396  12.616  0.1493  0.4140  0.2712
 9104SOL    HW138774   1.482   1.395  12.640  0.1502  2.3843  0.3940
 9104SOL    HW238775   1.567   1.372  12.524  1.0550 -2.0791  0.8585
 9105SOL     OW38776   1.820   1.727   7.091 -0.3578  0.1141  0.0900
 9105SOL    HW138777   1.838   1.821   7.092  0.7687 -0.0893 -3.9892
 9105SOL    HW238778   1.761   1.719   7.167  1.9420 -0.2088  1.8286
 9106SOL     OW38779   0.737   2.829   2.556  0.3237 -0.3700 -0.8586
 9106SOL    HW138780   0.710   2.764   2.620 -0.8443  1.8035  0.8444
 9106SOL    HW238781   0.783   2.767   2.499 -0.4301  0.1044 -1.9842
 9107SOL     OW38782   2.597   0.605   7.244 -0.0576 -0.6697  0.0312
 9107SOL    HW138783   2.513   0.633   7.208 -0.2264  0.8987  1.6217
 9107SOL    HW238784   2.565   0.539   7.306  0.8226 -0.3147  0.8616
 9108SOL     OW38785   3.844   0.819   8.755 -0.3518  0.2663  0.5765
 9108SOL    HW138786   3.836   0.725   8.773  0.4541 -0.1579 -1.2957
 9108SOL    HW238787   3.786   0.866   8.814  1.9541  0.7010  2.5034
 9109SOL     OW38788   0.984   2.769   6.022  0.3261 -0.2371  0.6240
 9109SOL    HW138789   0.919   2.822   6.068 -0.2861 -0.1254 -0.3838
 9109SOL    HW238790   0.950   2.681   6.006  1.0169 -0.3738 -0.1301
 9110SOL     OW38791   4.373   1.888   6.859  0.2840  0.0192 -0.7598
 9110SOL    HW138792   4.407   1.949   6.794 -0.9638  2.1939  0.6399
 9110SOL    HW238793   4.304   1.845   6.809  1.3515 -1.4300 -0.9873
 9111SOL     OW38794   3.349   0.307   9.565 -0.1822  0.1527 -0.1033
 9111SOL    HW138795   3.310   0.384   9.607  0.0992  0.6263 -0.7163
 9111SOL    HW238796   3.431   0.345   9.536  0.1120  0.1953  0.7750
 9112SOL     OW38797   0.505   2.715   2.095  0.1162  0.1045  0.1280
 9112SOL    HW138798   0.438   2.651   2.072 -3.3012  3.7306  0.0168
 9112SOL    HW238799   0.456   2.797   2.086 -0.9451 -0.2980  2.1235
 9113SOL     OW38800   4.640   0.200   7.284 -0.0315  0.1820 -0.2364
 9113SOL    HW138801   4.620   0.281   7.332  1.5166 -0.0210  0.7561
 9113SOL    HW238802   4.590   0.213   7.204 -2.3658 -0.9268  1.0528
 9114SOL     OW38803   1.757   1.998   5.084  0.4959 -0.0207  0.6464
 9114SOL    HW138804   1.829   1.952   5.042 -1.1755 -1.8973 -0.2056
 9114SOL    HW238805   1.692   1.928   5.099  2.0030 -2.2686 -3.2979
 9115SOL     OW38806   3.622   2.161   1.831  0.0779  0.0947  0.1713
 9115SOL    HW138807   3.609   2.132   1.741 -0.2046  3.8746 -1.0076
 9115SOL    HW238808   3.535   2.151   1.869 -0.0444  0.3361 -0.0462
 9116SOL     OW38809   0.244   4.523   9.223  0.1200 -0.1627 -0.1505
 9116SOL    HW138810   0.198   4.516   9.140 -0.0566  3.1357 -0.3333
 9116SOL    HW238811   0.301   4.594   9.193  2.0181 -0.9986  1.4415
 9117SOL     OW38812   4.004   2.070   3.681 -1.2110  0.1163  0.4715
 9117SOL    HW138813   3.953   2.139   3.640 -0.1258 -0.5844 -2.0363
 9117SOL    HW238814   3.965   1.994   3.639 -0.1433 -1.6262  2.6137
 9118SOL     OW38815   2.008   3.886  14.577  0.1123 -0.5253  0.2431
 9118SOL    HW138816   2.061   3.806  14.579 -1.1499 -1.3736 -0.6623
 9118SOL    HW238817   1.923   3.864  14.616 -1.0553 -0.9843 -2.5646
 9119SOL     OW38818   1.052   3.627   2.598 -0.0397 -0.3536 -0.3003
 9119SOL    HW138819   1.115   3.581   2.652 -0.5147  0.3130  0.8146
 9119SOL    HW238820   0.979   3.573   2.625 -0.8784  1.0342  0.2238
 9120SOL     OW38821   4.645   2.976  13.433 -0.2825  0.2002 -0.3444
 9120SOL    HW138822   4.603   2.905  13.482 -1.3883  0.5819 -0.7450
 9120SOL    HW238823   0.012   2.935  13.423 -0.2566  0.0219  0.5857
 9121SOL     OW38824   1.667   0.624   1.502 -0.5656 -0.2048  0.1786
 9121SOL    HW138825   1.650   0.661   1.415 -0.7555 -0.3679  0.1478
 9121SOL    HW238826   1.658   0.531   1.483  1.9136 -0.7694  1.6655
 9122SOL     OW38827   2.984   0.861  17.295  0.4886  0.2220  0.0764
 9122SOL    HW138828   2.950   0.946  17.268 -2.1631 -0.8251  0.1529
 9122SOL    HW238829   2.903   0.815  17.271  1.4317 -0.7904 -1.2288
 9123SOL     OW38830   2.452   0.696  16.308  0.6079 -0.5238 -0.6545
 9123SOL    HW138831   2.431   0.747  16.386 -0.2423  0.3016 -1.4276
 9123SOL    HW238832   2.434   0.754  16.234  0.7496  0.5210  0.1265
 9124SOL     OW38833   2.401   4.158  15.001 -0.2438  0.1599  0.1304
 9124SOL    HW138834   2.481   4.106  15.009 -0.7599 -0.8349 -1.1646
 9124SOL    HW238835   2.352   4.101  14.942  0.7686  0.1189 -0.6627
 9125SOL     OW38836   1.965   2.774   7.436  0.1300  0.3296  0.3230
 9125SOL    HW138837   1.881   2.736   7.408 -0.7646  2.4121  0.2319
 9125SOL    HW238838   1.961   2.864   7.406  0.2737  0.7946  1.7122
 9126SOL     OW38839   1.734   4.222   5.105  0.5698 -0.2796  0.4171
 9126SOL    HW138840   1.676   4.296   5.082  1.3393  0.7143  1.6944
 9126SOL    HW238841   1.813   4.275   5.119  0.9795 -0.8990  0.4142
 9127SOL     OW38842   2.380   4.618  16.539  0.2103  0.4044  0.8107
 9127SOL    HW138843   2.357   4.655  16.625 -0.9196  1.7348 -0.0612
 9127SOL    HW238844   2.319   4.667  16.485  1.5543  0.7426 -0.3880
 9128SOL     OW38845   0.063   2.689  10.037  0.3427 -0.8757 -0.8859
 9128SOL    HW138846   4.712   2.736  10.082 -1.7275 -4.0890 -0.7900
 9128SOL    HW238847   0.116   2.753   9.991  0.7920 -0.8061 -0.2815
 9129SOL     OW38848   3.535   3.150   6.383  0.5076  0.1679  0.0801
 9129SOL    HW138849   3.481   3.108   6.315 -0.5702  1.2384  0.2849
 9129SOL    HW238850   3.473   3.165   6.454 -0.1233 -2.4696  0.1006
 9130SOL     OW38851   0.255   2.669   3.888  0.5611 -0.3990 -0.0981
 9130SOL    HW138852   0.264   2.585   3.935  0.7415 -0.9958 -1.2008
 9130SOL    HW238853   0.328   2.659   3.826  1.1082 -2.2401  0.8148
 9131SOL     OW38854   1.121   1.063   5.596 -0.5436  0.3236 -0.3131
 9131SOL    HW138855   1.087   1.028   5.514  0.1024 -3.3108  0.9571
 9131SOL    HW238856   1.174   1.141   5.579 -1.3985  0.6960 -1.2138
 9132SOL     OW38857   2.507   0.052  14.581 -0.4104  0.3630  0.3845
 9132SOL    HW138858   2.454   0.124  14.615 -1.5076 -0.4816  0.4490
 9132SOL    HW238859   2.443   4.716  14.537  1.7997 -1.5300 -0.3889
 9133SOL     OW38860   0.518   2.091   3.841  0.2888  0.8985  0.2585
 9133SOL    HW138861   0.444   2.098   3.781  0.2661  2.3325  0.4488
 9133SOL    HW238862   0.552   2.019   3.788 -1.0960 -0.6947  1.5144
 9134SOL     OW38863   4.692   0.861   5.328  0.1127  0.2373  0.0676
 9134SOL    HW138864   4.709   0.767   5.337 -1.4968 -0.0252  0.3849
 9134SOL    HW238865   4.646   0.872   5.411 -0.8951  2.8506 -0.8583
 9135SOL     OW38866   3.184   4.287   0.673  0.7313  0.1579  0.1703
 9135SOL    HW138867   3.238   4.208   0.672  0.6189  0.0524  4.1043
 9135SOL    HW238868   3.107   4.257   0.721 -0.3135  1.6158 -0.5836
 9136SOL     OW38869   2.283   1.434   2.500 -0.1129  0.3836 -0.1099
 9136SOL    HW138870   2.305   1.514   2.453 -2.8508  0.6224 -0.9901
 9136SOL    HW238871   2.271   1.476   2.586 -1.7290 -0.1560 -0.0724
 9137SOL     OW38872   1.907   4.671   5.219  0.4507  0.3327  0.1296
 9137SOL    HW138873   1.939   0.037   5.190 -1.4198  1.0702  0.2443
 9137SOL    HW238874   1.815   4.689   5.240 -0.0949 -1.7420 -0.5213
 9138SOL     OW38875   2.318   1.103   8.923  0.2539  0.5319  0.3680
 9138SOL    HW138876   2.272   1.162   8.863 -1.7203  0.3820  1.7590
 9138SOL    HW238877   2.261   1.027   8.928  1.2017 -0.1705  0.5755
 9139SOL     OW38878   4.408   0.693  10.878 -0.2507 -0.3582  0.2529
 9139SOL    HW138879   4.357   0.772  10.892  0.9754  1.0185 -2.9688
 9139SOL    HW238880   4.356   0.656  10.807 -1.0515 -0.7957  1.0691
 9140SOL     OW38881   1.827   3.114  11.950 -1.0034 -0.0838 -0.1265
 9140SOL    HW138882   1.766   3.188  11.943 -0.9856 -0.2972 -2.3795
 9140SOL    HW238883   1.901   3.160  11.988  0.0115  0.0123 -2.2721
 9141SOL     OW38884   2.779   3.648   4.876  0.1206 -0.3278 -0.0104
 9141SOL    HW138885   2.826   3.672   4.956  0.7462 -0.7645 -0.2501
 9141SOL    HW238886   2.828   3.706   4.817 -0.2848  0.7936  0.7477
 9142SOL     OW38887   3.148   1.064  13.123  1.0796  0.6485 -0.0603
 9142SOL    HW138888   3.190   1.063  13.037 -2.2753  0.0839 -1.6834
 9142SOL    HW238889   3.189   1.146  13.150 -1.6765  2.1113 -0.3455
 9143SOL     OW38890   3.755   3.752   5.416  0.1830  0.0259 -0.3101
 9143SOL    HW138891   3.748   3.681   5.352 -0.6098 -1.3336  1.2579
 9143SOL    HW238892   3.754   3.832   5.365  3.6910  0.4284  0.3190
 9144SOL     OW38893   0.041   2.375  10.898 -0.0864  0.2292 -0.1731
 9144SOL    HW138894   4.708   2.326  10.962 -1.1615 -0.2265 -1.3825
 9144SOL    HW238895   0.023   2.322  10.820  0.6849  2.4419 -1.8518
 9145SOL     OW38896   1.504   2.705   7.863  0.2931 -0.1239  0.2173
 9145SOL    HW138897   1.554   2.653   7.926 -1.6265 -2.3593 -0.0827
 9145SOL    HW238898   1.426   2.650   7.870 -1.1398  2.0970  1.4388
 9146SOL     OW38899   4.346   2.080   2.272  0.4767  0.1942 -0.2358
 9146SOL    HW138900   4.311   2.015   2.211  0.0350  0.4229 -0.2230
 9146SOL    HW238901   4.340   2.039   2.358  0.0709 -2.9678 -1.7583
 9147SOL     OW38902   1.950   3.726   5.139  0.4371  0.5188 -0.3994
 9147SOL    HW138903   1.919   3.813   5.164  1.1561  0.8717 -0.7499
 9147SOL    HW238904   1.904   3.715   5.056  0.8942 -1.4561 -0.3843
 9148SOL     OW38905   0.094   3.017   2.615 -0.2467 -0.0786 -0.0490
 9148SOL    HW138906   0.105   2.988   2.706  0.7540  0.7351  0.0856
 9148SOL    HW238907   0.021   2.958   2.597 -0.5353 -0.1911  1.4556
 9149SOL     OW38908   1.072   4.173   9.430 -0.2233 -0.4764 -0.2487
 9149SOL    HW138909   1.024   4.132   9.502  0.1768 -0.0341  0.2666
 9149SOL    HW238910   1.008   4.231   9.388  0.1812  1.3459  1.6555
 9150SOL     OW38911   1.534   0.779   6.329  0.4711  0.5505 -0.3870
 9150SOL    HW138912   1.617   0.826   6.328  0.5423  0.3711 -2.5118
 9150SOL    HW238913   1.548   0.708   6.391 -1.4021  0.2119 -0.3321
 9151SOL     OW38914   2.530   0.639   8.702  0.1951  0.2893 -0.0582
 9151SOL    HW138915   2.613   0.603   8.669  0.1321  1.5942 -1.6523
 9151SOL    HW238916   2.500   0.571   8.762  1.7245  0.5207  0.9628
 9152SOL     OW38917   1.729   2.486   1.729 -0.1976 -0.0362  0.5544
 9152SOL    HW138918   1.806   2.479   1.786 -1.1308  0.2381  1.8395
 9152SOL    HW238919   1.658   2.522   1.782  0.3143  0.1116  1.1497
 9153SOL     OW38920   1.537   0.859   3.176  0.4686 -0.6393  0.0656
 9153SOL    HW138921   1.528   0.815   3.091  0.7599 -2.4574  0.9885
 9153SOL    HW238922   1.459   0.915   3.181  0.5341 -0.3020 -2.4955
 9154SOL     OW38923   0.815   2.355  14.227  0.3271  0.2293 -0.3189
 9154SOL    HW138924   0.725   2.362  14.195 -0.6129 -0.9600  2.0527
 9154SOL    HW238925   0.806   2.260  14.234  2.1301  0.0632 -0.2844
 9155SOL     OW38926   1.861   2.493   1.482  0.6028  0.8097 -0.1954
 9155SOL    HW138927   1.825   2.492   1.571 -2.0142 -0.1946 -1.2938
 9155SOL    HW238928   1.896   2.582   1.470  0.1831  1.0147  0.0967
 9156SOL     OW38929   2.029   3.209   3.691  0.3078  0.0149  0.6837
 9156SOL    HW138930   2.061   3.178   3.606 -0.8509 -0.2617  0.3487
 9156SOL    HW238931   2.102   3.179   3.744  0.3301 -0.8524  0.1598
 9157SOL     OW38932   1.706   0.674  12.503  0.3678 -0.5804  0.0286
 9157SOL    HW138933   1.726   0.681  12.410  2.2556  1.1588  0.5465
 9157SOL    HW238934   1.753   0.592  12.519  0.1619 -0.2941  2.2050
 9158SOL     OW38935   3.244   2.817   4.263  0.1784  0.4484  0.4229
 9158SOL    HW138936   3.181   2.766   4.313 -0.8062  1.7164  0.4713
 9158SOL    HW238937   3.269   2.871   4.338  0.4454  1.4550 -0.3848
 9159SOL     OW38938   0.223   2.668   8.059  0.9741  0.0183 -0.4502
 9159SOL    HW138939   0.128   2.674   8.046  1.0468 -0.5100 -1.2167
 9159SOL    HW238940   0.215   2.645   8.152  2.1677  1.8567  0.1149
 9160SOL     OW38941   4.591   1.998   2.172 -0.3790 -0.7724  0.1295
 9160SOL    HW138942   4.571   1.911   2.206 -2.3723 -0.1839  0.4309
 9160SOL    HW238943   4.520   2.055   2.203 -0.1268 -0.8041  0.7547
 9161SOL     OW38944   0.648   1.514   7.046  0.7083 -0.0453 -0.2534
 9161SOL    HW138945   0.690   1.598   7.065  1.0012 -0.1834 -0.2848
 9161SOL    HW238946   0.719   1.460   7.079 -0.0698 -0.8938  0.0181
 9162SOL     OW38947   1.965   0.359   1.142  0.0233 -0.0552  0.1018
 9162SOL    HW138948   2.054   0.378   1.172 -0.2034  1.3324 -0.1093
 9162SOL    HW238949   1.968   0.264   1.133  0.7487 -0.1773  1.6279
 9163SOL     OW38950   0.863   3.090   2.601  0.7135 -0.3908  0.0072
 9163SOL    HW138951   0.850   2.996   2.591 -1.1879  0.2090 -3.1396
 9163SOL    HW238952   0.789   3.108   2.659  1.5303  1.8125  0.3721
 9164SOL     OW38953   3.014   3.049   4.574 -0.1329  0.0981  0.1464
 9164SOL    HW138954   2.966   2.967   4.574  0.6042 -0.3294 -0.6340
 9164SOL    HW238955   2.960   3.096   4.511 -0.8257 -0.5451  0.2635
 9165SOL     OW38956   2.018   3.395   6.891  0.4740 -0.1211  0.1199
 9165SOL    HW138957   1.927   3.407   6.864  0.1270 -2.3972  0.2787
 9165SOL    HW238958   2.064   3.406   6.808  0.0379  0.0614 -0.0996
 9166SOL     OW38959   1.036   2.392  10.530 -0.8931 -0.2158  0.7293
 9166SOL    HW138960   1.128   2.386  10.505 -0.2700  1.7572  2.5745
 9166SOL    HW238961   1.036   2.310  10.578 -0.1131 -0.7144 -0.1159
 9167SOL     OW38962   2.819   0.755   8.877  0.0192  0.5122 -0.0075
 9167SOL    HW138963   2.892   0.800   8.834  0.5292 -0.2655  0.0395
 9167SOL    HW238964   2.758   0.827   8.893 -1.1063 -0.6691  0.9182
 9168SOL     OW38965   1.613   3.153  17.504  0.5752 -0.9038  0.4848
 9168SOL    HW138966   1.635   3.075  17.556  2.9528 -0.2021  0.5486
 9168SOL    HW238967   1.521   3.142  17.483  0.4200  0.4879  0.4776
 9169SOL     OW38968   0.717   1.624   1.753  0.3533  0.3050  0.5893
 9169SOL    HW138969   0.685   1.592   1.668  0.7305 -4.3760  2.1983
 9169SOL    HW238970   0.637   1.609   1.802 -0.6828  0.1409 -1.1520
 9170SOL     OW38971   4.521   3.219   7.920  0.1227  0.2938  0.4030
 9170SOL    HW138972   4.586   3.200   7.853 -3.9662  0.4225 -3.5416
 9170SOL    HW238973   4.518   3.314   7.910 -1.6435  0.2412  0.4820
 9171SOL     OW38974   3.146   2.158   4.397 -0.1511  0.2857  0.1379
 9171SOL    HW138975   3.224   2.195   4.355  0.3246 -0.3384  0.4692
 9171SOL    HW238976   3.133   2.069   4.362 -0.6228 -1.0406  3.6713
 9172SOL     OW38977   1.716   4.446   6.783 -0.3754  0.1328 -0.0238
 9172SOL    HW138978   1.714   4.515   6.716  2.5628 -1.2640 -1.5762
 9172SOL    HW238979   1.628   4.449   6.819  0.4067  0.5302  1.8368
 9173SOL     OW38980   1.424   1.779   7.913 -0.1455  0.4908 -0.2536
 9173SOL    HW138981   1.346   1.778   7.858  0.9266  2.2202 -1.7835
 9173SOL    HW238982   1.480   1.832   7.857 -0.8049  2.3063  0.8100
 9174SOL     OW38983   3.154   1.739   7.073 -0.4535 -0.2254 -0.6572
 9174SOL    HW138984   3.090   1.768   7.137  1.3956  1.4160  0.4544
 9174SOL    HW238985   3.220   1.690   7.122  1.3955  1.6846 -1.2345
 9175SOL     OW38986   1.373   3.715  10.158  0.0464  0.2613  0.1016
 9175SOL    HW138987   1.371   3.790  10.218  0.4035  1.2447 -1.1244
 9175SOL    HW238988   1.280   3.693  10.163  0.1370  0.4416  2.8065
 9176SOL     OW38989   2.416   0.975  10.359 -0.1005  0.3896 -0.1181
 9176SOL    HW138990   2.448   0.890  10.329 -0.3708  0.7697 -1.4951
 9176SOL    HW238991   2.414   0.970  10.454 -1.3264 -0.7409 -0.2067
 9177SOL     OW38992   4.187   0.719   7.226  0.2357  0.1459  0.0003
 9177SOL    HW138993   4.149   0.803   7.251  0.2952 -0.0185  0.6495
 9177SOL    HW238994   4.105   0.669   7.226  0.2545  0.1256 -1.3616
 9178SOL     OW38995   2.282   1.240   9.410 -0.1331  0.1462 -0.0576
 9178SOL    HW138996   2.321   1.300   9.473 -1.6239  1.6867 -0.5890
 9178SOL    HW238997   2.280   1.161   9.463 -2.4158 -1.1489 -2.0511
 9179SOL     OW38998   1.848   4.590   7.629 -0.2430  0.0967 -0.6600
 9179SOL    HW138999   1.870   4.660   7.568 -1.1560  0.3518 -0.7046
 9179SOL    HW239000   1.803   4.634   7.702  0.7457  0.8213 -0.4810
 9180SOL     OW39001   0.831   0.358   3.092 -0.3451  0.2347 -0.2964
 9180SOL    HW139002   0.868   0.329   3.009  0.1833 -1.1022  0.4204
 9180SOL    HW239003   0.738   0.340   3.080  0.2499 -1.2834 -2.4399
 9181SOL     OW39004   3.608   2.806   2.018  0.6930 -0.3176 -0.1498
 9181SOL    HW139005   3.702   2.818   2.009  0.8583 -0.6926  1.0230
 9181SOL    HW239006   3.608   2.712   1.998  0.5708 -0.2200 -0.6219
 9182SOL     OW39007   2.529   4.020  16.433 -0.4256  0.3874 -0.4891
 9182SOL    HW139008   2.556   4.082  16.501 -1.5099 -0.2675  0.5276
 9182SOL    HW239009   2.453   3.982  16.477  0.9519 -0.2476  1.2982
 9183SOL     OW39010   1.887   0.412   4.546 -0.0603  0.3341  0.1743
 9183SOL    HW139011   1.951   0.410   4.475 -1.4706 -0.6226 -1.0376
 9183SOL    HW239012   1.893   0.506   4.567  1.3599  0.2217  0.3149
 9184SOL     OW39013   4.468   1.836   7.759  0.3918  0.1964  0.1148
 9184SOL    HW139014   4.485   1.924   7.793  0.2209 -0.0856  0.9349
 9184SOL    HW239015   4.521   1.839   7.679  0.9426 -0.0307  0.4699
 9185SOL     OW39016   4.124   3.526   0.744 -0.4633 -0.3172 -0.0998
 9185SOL    HW139017   4.173   3.528   0.826  1.1546  0.6600 -1.0909
 9185SOL    HW239018   4.163   3.455   0.695 -0.2449  1.2151 -2.1463
 9186SOL     OW39019   1.073   2.824   4.345  0.0821 -0.1719  0.4494
 9186SOL    HW139020   1.096   2.916   4.332  0.2045 -0.0537  1.5027
 9186SOL    HW239021   1.161   2.787   4.340  0.9086  1.4370  3.2859
 9187SOL     OW39022   3.343   0.376   7.448  0.0133 -0.4498  0.2320
 9187SOL    HW139023   3.317   0.335   7.530  0.8699  0.2145  0.8373
 9187SOL    HW239024   3.316   0.306   7.388 -0.9927  0.1431  0.0010
 9188SOL     OW39025   3.377   0.841   0.399 -0.1569  0.3057 -0.0420
 9188SOL    HW139026   3.289   0.815   0.426 -0.0263  0.4459  0.5116
 9188SOL    HW239027   3.428   0.829   0.478  0.2951 -0.0927 -0.3919
 9189SOL     OW39028   0.768   0.460   6.812  0.2574 -1.1123  0.1592
 9189SOL    HW139029   0.697   0.441   6.750  0.8027 -0.0683 -0.7652
 9189SOL    HW239030   0.841   0.470   6.752 -0.0044 -1.6104 -0.2491
 9190SOL     OW39031   1.281   0.882   5.753 -0.5197 -0.3832 -0.8294
 9190SOL    HW139032   1.232   0.940   5.695  1.3249  0.0659 -1.9496
 9190SOL    HW239033   1.366   0.877   5.708 -1.0771 -0.0402 -1.9092
 9191SOL     OW39034   1.783   3.763   6.022  0.0230 -0.1872  0.5880
 9191SOL    HW139035   1.825   3.681   6.046  0.6249  0.2045  0.8753
 9191SOL    HW239036   1.850   3.819   5.982  0.9468 -2.0091 -0.4101
 9192SOL     OW39037   3.386   3.160  13.994  0.0588  0.4979 -0.2523
 9192SOL    HW139038   3.326   3.145  13.921  1.0727  2.0848 -1.4282
 9192SOL    HW239039   3.341   3.114  14.065 -0.5783  0.6351 -0.5631
 9193SOL     OW39040   2.948   3.147   8.720 -0.4992  0.1521 -1.0461
 9193SOL    HW139041   3.030   3.121   8.760 -0.9095  3.2488  1.8281
 9193SOL    HW239042   2.938   3.240   8.738 -1.5415 -0.3616  1.0513
 9194SOL     OW39043   1.308   0.485   5.237 -0.1530 -0.9162 -0.2313
 9194SOL    HW139044   1.250   0.494   5.161 -1.3487  1.0844  0.8987
 9194SOL    HW239045   1.335   0.394   5.237 -0.2157 -0.9362  1.3971
 9195SOL     OW39046   1.421   0.346  15.559 -0.3568  0.8480 -0.0876
 9195SOL    HW139047   1.457   0.434  15.546 -0.8037  0.9672 -0.5020
 9195SOL    HW239048   1.330   0.376  15.558 -0.4305  0.6768  1.5913
 9196SOL     OW39049   3.929   2.660   1.520  0.0059 -0.4814 -0.4449
 9196SOL    HW139050   3.855   2.624   1.470  0.6804 -1.8724 -0.4443
 9196SOL    HW239051   3.966   2.712   1.448  1.2355  0.2584  0.7217
 9197SOL     OW39052   4.358   2.911   4.562 -0.4551 -0.0449 -1.0748
 9197SOL    HW139053   4.439   2.874   4.526 -0.4225 -0.8890 -0.1060
 9197SOL    HW239054   4.348   2.978   4.494 -2.6493  0.6201 -0.0770
 9198SOL     OW39055   2.308   4.184   2.296 -0.1787 -0.1546 -0.3349
 9198SOL    HW139056   2.262   4.216   2.219 -0.1624 -2.7329 -1.4259
 9198SOL    HW239057   2.235   4.138   2.337 -0.9805  2.2434  0.8676
 9199SOL     OW39058   1.559   0.440   8.275 -0.0717  0.2309  0.9413
 9199SOL    HW139059   1.561   0.477   8.186  1.4124  1.5758  1.5407
 9199SOL    HW239060   1.467   0.452   8.298 -0.3893 -3.1967  1.4063
 9200SOL     OW39061   2.600   4.255   0.125  0.0422 -0.4361 -0.3229
 9200SOL    HW139062   2.679   4.252   0.178 -1.0293 -2.7787  1.1223
 9200SOL    HW239063   2.539   4.307   0.177  1.9536  0.7467  0.7277
 9201SOL     OW39064   2.301   2.930  15.015 -0.5031 -0.6570  0.3892
 9201SOL    HW139065   2.315   3.018  14.980 -0.1453 -0.4829  0.9726
 9201SOL    HW239066   2.276   2.884  14.935  3.2150 -0.3880 -0.9318
 9202SOL     OW39067   3.935   3.397   2.735  0.3323  0.4640 -0.2525
 9202SOL    HW139068   3.875   3.430   2.667 -1.0344  0.3258  0.8954
 9202SOL    HW239069   3.967   3.327   2.678  0.6132  0.7615 -0.4651
 9203SOL     OW39070   2.683   1.736   2.489  0.1966 -0.4011  0.2665
 9203SOL    HW139071   2.777   1.727   2.505  0.4068  1.5252  0.1471
 9203SOL    HW239072   2.675   1.663   2.427  0.8683 -0.0428 -0.2503
 9204SOL     OW39073   4.233   0.394   4.562  0.1967 -0.0389  0.0330
 9204SOL    HW139074   4.234   0.377   4.656 -0.8606  0.3111  0.1029
 9204SOL    HW239075   4.181   0.474   4.563  1.7736  0.9815  0.9983
 9205SOL     OW39076   1.158   1.704  13.070  0.0349 -0.8047 -0.3518
 9205SOL    HW139077   1.212   1.782  13.068  0.1307 -0.8389  0.7504
 9205SOL    HW239078   1.165   1.676  13.162  2.4551  2.7863  0.5289
 9206SOL     OW39079   4.032   2.216  11.312  0.4454 -0.2559 -0.8466
 9206SOL    HW139080   4.122   2.232  11.339  0.7112 -0.4060 -1.6439
 9206SOL    HW239081   4.001   2.302  11.281 -1.8122 -0.2642  1.3483
 9207SOL     OW39082   3.102   3.403  16.932  0.1890  0.0090 -0.2054
 9207SOL    HW139083   3.049   3.477  16.959  0.5035  0.5628 -1.1300
 9207SOL    HW239084   3.122   3.427  16.842  0.3768  0.7960  0.0428
 9208SOL     OW39085   1.416   2.596   2.477  0.4538  0.6746  0.1312
 9208SOL    HW139086   1.410   2.562   2.388 -0.3854 -1.9590  1.1843
 9208SOL    HW239087   1.446   2.686   2.468 -1.6436  1.6043  2.4192
 9209SOL     OW39088   3.979   0.386   3.996  0.2503  0.0342 -0.7130
 9209SOL    HW139089   3.978   0.300   4.036 -1.2003 -0.2178 -1.3165
 9209SOL    HW239090   4.053   0.428   4.041  0.0317  1.1626 -1.4044
 9210SOL     OW39091   4.569   3.761   6.177  0.1434 -0.2954  0.2485
 9210SOL    HW139092   4.592   3.802   6.261 -2.9505 -0.2474  1.0690
 9210SOL    HW239093   4.474   3.764   6.190 -0.1442 -0.9530 -1.6552
 9211SOL     OW39094   0.091   2.814  13.858 -0.4260 -0.3096  0.0536
 9211SOL    HW139095   0.086   2.739  13.799  0.1563 -0.4143  0.1396
 9211SOL    HW239096   0.011   2.856  13.827  0.2878  0.6782 -0.4411
 9212SOL     OW39097   4.461   0.179  14.501  0.5025 -0.6768  0.0854
 9212SOL    HW139098   4.539   0.168  14.445  0.7753  1.0381  0.1399
 9212SOL    HW239099   4.402   0.118  14.457  2.1526  0.2548 -3.4388
 9213SOL     OW39100   2.342   4.053  13.770  0.1960  0.3376  0.7678
 9213SOL    HW139101   2.282   3.979  13.785 -0.4662  0.2188 -2.5250
 9213SOL    HW239102   2.287   4.120  13.730  2.5938  2.0196  0.3306
 9214SOL     OW39103   3.630   0.623  12.854 -0.0679 -0.2025  0.3780
 9214SOL    HW139104   3.577   0.610  12.776  0.1646 -0.0341  0.1953
 9214SOL    HW239105   3.588   0.572  12.924  0.4518  1.5228  1.9423
 9215SOL     OW39106   2.074   1.827   5.711 -0.3211  0.5164  0.2354
 9215SOL    HW139107   1.991   1.789   5.683 -0.5749  1.0849  0.2261
 9215SOL    HW239108   2.053   1.917   5.687  1.0698  0.9555  0.6499
 9216SOL     OW39109   2.631   3.892  13.610  0.8079  0.0468  0.1922
 9216SOL    HW139110   2.565   3.853  13.666 -3.7567  3.7621 -2.6457
 9216SOL    HW239111   2.580   3.952  13.556  1.4955  0.8162  0.3919
 9217SOL     OW39112   3.470   4.620   4.317 -0.5008  0.1174  0.2219
 9217SOL    HW139113   3.459   4.714   4.306 -0.0850 -0.0089 -1.2198
 9217SOL    HW239114   3.453   4.584   4.230 -1.1833  0.8016  0.0709
 9218SOL     OW39115   3.957   0.751   5.782  0.5596 -0.6308 -0.3576
 9218SOL    HW139116   3.936   0.811   5.711  2.8299  0.2899 -0.2560
 9218SOL    HW239117   4.043   0.715   5.762  0.1907 -0.3653 -2.4021
 9219SOL     OW39118   1.143   3.028  10.960  0.1479  0.4785 -0.2220
 9219SOL    HW139119   1.220   3.052  10.908  0.6567 -0.1487  0.2391
 9219SOL    HW239120   1.157   2.940  10.997  1.4425  0.9030  0.3011
 9220SOL     OW39121   2.064   1.756   5.097 -0.1681 -0.3304 -0.0808
 9220SOL    HW139122   2.085   1.815   5.025  1.4418 -0.4046  0.3379
 9220SOL    HW239123   1.990   1.718   5.049  0.0544 -2.8252  1.5569
 9221SOL     OW39124   2.631   3.392   3.721  0.2972  0.0095  0.0864
 9221SOL    HW139125   2.673   3.315   3.761  2.2810  0.0424 -1.9287
 9221SOL    HW239126   2.540   3.364   3.716  0.2954  0.0044  0.1448
 9222SOL     OW39127   4.086   2.954  15.822  0.0925  0.0763 -0.1278
 9222SOL    HW139128   4.078   2.955  15.726  1.1241  0.0217 -0.2124
 9222SOL    HW239129   4.007   2.904  15.845 -0.3536  0.9382  0.1908
 9223SOL     OW39130   3.387   3.456   7.699  1.2010  0.2972 -0.2132
 9223SOL    HW139131   3.359   3.408   7.776  1.2297 -1.4092 -1.2475
 9223SOL    HW239132   3.332   3.531   7.718  0.5375 -0.8128  2.2519
 9224SOL     OW39133   4.115   1.848   8.214  0.3046  0.3935 -0.2385
 9224SOL    HW139134   4.093   1.941   8.216 -1.2316 -0.0129  2.0850
 9224SOL    HW239135   4.087   1.815   8.300  1.3156  1.1307  0.3848
 9225SOL     OW39136   2.983   3.022   3.694  0.0519  0.1104  0.1167
 9225SOL    HW139137   3.033   3.091   3.736 -0.1543 -0.9936  2.1290
 9225SOL    HW239138   3.030   2.940   3.705  0.6494  0.3866 -0.3763
 9226SOL     OW39139   0.599   3.594   5.122  0.4213  0.3123  0.3052
 9226SOL    HW139140   0.545   3.672   5.132  2.1757  1.0617  3.8577
 9226SOL    HW239141   0.558   3.552   5.046 -1.6220  0.1387  1.4918
 9227SOL     OW39142   2.879   1.828  15.270 -0.6672  0.0404 -0.9350
 9227SOL    HW139143   2.948   1.894  15.259 -1.5339  1.0542 -0.2623
 9227SOL    HW239144   2.871   1.771  15.194 -0.0363 -0.6505 -0.4884
 9228SOL     OW39145   3.511   3.535   5.246 -0.8780  0.5767 -0.2990
 9228SOL    HW139146   3.478   3.468   5.186 -0.8867  0.4548 -0.1582
 9228SOL    HW239147   3.604   3.541   5.223 -0.9366  0.8405 -0.4748
 9229SOL     OW39148   1.822   0.610  17.213 -0.0211  0.0191  0.3651
 9229SOL    HW139149   1.874   0.643  17.286  0.4364  2.0413 -0.8662
 9229SOL    HW239150   1.737   0.586  17.249 -0.7565 -0.4456 -1.6563
 9230SOL     OW39151   0.625   0.151   7.459 -0.1100 -0.5342 -0.5818
 9230SOL    HW139152   0.611   0.245   7.452  0.6733 -0.5632 -2.8462
 9230SOL    HW239153   0.588   0.121   7.375 -0.5093 -3.1333  0.5405
 9231SOL     OW39154   3.456   1.453   2.752 -0.4947 -0.2455  0.4830
 9231SOL    HW139155   3.396   1.391   2.710 -0.3896  0.9846 -1.4902
 9231SOL    HW239156   3.531   1.428   2.698 -0.3135 -2.0485  1.5601
 9232SOL     OW39157   1.380   0.818   7.761 -0.3024  0.4421  0.3125
 9232SOL    HW139158   1.408   0.826   7.852 -0.0434  0.9902  0.1893
 9232SOL    HW239159   1.466   0.836   7.723  0.0042 -1.3141  0.1970
 9233SOL     OW39160   0.524   1.441   3.193  0.1704 -0.6252 -0.2615
 9233SOL    HW139161   0.613   1.469   3.169 -0.3237  1.9397  0.8873
 9233SOL    HW239162   0.521   1.457   3.288 -0.3962  0.7121 -0.5071
 9234SOL     OW39163   0.574   0.008   4.054  0.4619  0.2934 -0.1314
 9234SOL    HW139164   0.531   0.093   4.044  1.4626  0.6192 -1.7718
 9234SOL    HW239165   0.520   4.671   3.998 -0.7371  1.2727  0.0416
 9235SOL     OW39166   0.555   3.656  13.030 -0.6559  0.1877 -0.6910
 9235SOL    HW139167   0.472   3.647  12.983 -1.6190  1.2738  0.8224
 9235SOL    HW239168   0.604   3.608  12.964 -1.7744 -0.3717 -1.1138
 9236SOL     OW39169   1.523   1.576  10.952  0.4565  0.2565 -0.4855
 9236SOL    HW139170   1.611   1.610  10.938  0.6627 -1.0143 -2.2991
 9236SOL    HW239171   1.487   1.558  10.865 -2.6154  0.8174  0.6706
 9237SOL     OW39172   2.993   0.159   3.834  0.5169 -0.0560  0.1248
 9237SOL    HW139173   2.954   0.246   3.839  0.9446  0.3746 -3.8238
 9237SOL    HW239174   2.955   0.115   3.910 -0.1134  1.3496  0.6214
 9238SOL     OW39175   0.262   1.406   7.745 -0.2622  0.5877  0.0104
 9238SOL    HW139176   0.196   1.364   7.690 -1.9765  0.3508  2.2609
 9238SOL    HW239177   0.239   1.495   7.715  0.7193  0.5117 -0.9576
 9239SOL     OW39178   0.326   3.162   7.790 -0.0217  0.3622 -0.0142
 9239SOL    HW139179   0.266   3.221   7.834  0.2059 -0.7607  1.8140
 9239SOL    HW239180   0.410   3.197   7.819  0.7098 -1.6168  0.2637
 9240SOL     OW39181   4.224   1.710   4.604 -0.1995  0.2214 -0.4365
 9240SOL    HW139182   4.204   1.626   4.563 -1.2613 -0.4039  1.3639
 9240SOL    HW239183   4.216   1.778   4.536 -0.5580  0.8406  0.2235
 9241SOL     OW39184   1.866   4.341   4.156 -0.1367  0.3900 -0.2312
 9241SOL    HW139185   1.815   4.262   4.141  0.0447  0.2885 -0.3062
 9241SOL    HW239186   1.859   4.341   4.252  0.2382 -1.2522 -0.2164
 9242SOL     OW39187   4.110   3.579  17.097  0.6301 -0.1959  0.2432
 9242SOL    HW139188   4.140   3.518  17.164 -0.2050  0.7228  1.4627
 9242SOL    HW239189   4.021   3.598  17.125  1.8187  1.6188  2.8404
 9243SOL     OW39190   4.013   0.580   8.116 -0.5628 -0.1841 -0.0051
 9243SOL    HW139191   4.102   0.568   8.086 -1.7293  0.6679 -3.7919
 9243SOL    HW239192   3.976   0.640   8.051 -0.9657  0.7545  1.0735
 9244SOL     OW39193   1.968   2.278   6.317 -0.3758  0.2277 -0.1728
 9244SOL    HW139194   2.059   2.285   6.290  0.2929  1.2672  2.3372
 9244SOL    HW239195   1.926   2.270   6.231  0.4998 -0.3121 -0.5472
 9245SOL     OW39196   2.988   4.190   7.701 -0.1420 -0.2157 -0.0104
 9245SOL    HW139197   3.005   4.285   7.700 -1.2995 -0.0097  0.1014
 9245SOL    HW239198   3.053   4.172   7.769  1.1659  0.3675 -1.0879
 9246SOL     OW39199   1.094   1.361   8.746 -0.4133  0.2882 -0.3469
 9246SOL    HW139200   1.003   1.333   8.736 -0.4000 -1.2141  3.6756
 9246SOL    HW239201   1.097   1.416   8.824 -0.2595  1.1768 -0.9754
 9247SOL     OW39202   1.160   1.838  15.804  0.6236 -0.4036 -0.1321
 9247SOL    HW139203   1.252   1.841  15.832  0.1081  0.2670  1.5183
 9247SOL    HW239204   1.139   1.746  15.817  0.2402 -0.4352 -1.0161
 9248SOL     OW39205   0.547   1.291   9.350  0.0316 -0.0076  0.1588
 9248SOL    HW139206   0.491   1.311   9.425 -1.4097  0.3537 -1.0329
 9248SOL    HW239207   0.587   1.376   9.334 -0.8224  0.3844  0.1482
 9249SOL     OW39208   2.154   0.453   3.628  0.6445  0.1990  0.8274
 9249SOL    HW139209   2.129   0.541   3.656 -1.3007 -0.4672  1.1832
 9249SOL    HW239210   2.101   0.401   3.688 -0.5895 -0.5582 -0.9535
 9250SOL     OW39211   1.474   2.814  15.530 -0.0777  0.1845  0.1055
 9250SOL    HW139212   1.568   2.797  15.529  0.7292  4.5515 -1.6485
 9250SOL    HW239213   1.457   2.831  15.437 -2.5953  2.1728  0.9219
 9251SOL     OW39214   2.489   1.475   3.833 -0.0643  0.0598 -0.0067
 9251SOL    HW139215   2.441   1.416   3.890  1.1358 -0.2217  0.7312
 9251SOL    HW239216   2.582   1.450   3.837  0.0367  0.3044 -0.9789
 9252SOL     OW39217   1.761   3.233   5.253  0.1737  0.2336 -0.4558
 9252SOL    HW139218   1.754   3.219   5.347  1.1727 -2.8702 -0.8385
 9252SOL    HW239219   1.823   3.305   5.262  1.2500 -0.6851 -0.5503
 9253SOL     OW39220   0.751   1.654   3.039 -0.3059  0.0821 -0.1175
 9253SOL    HW139221   0.789   1.668   3.126 -1.1051 -1.6963  0.5189
 9253SOL    HW239222   0.784   1.734   2.999 -0.1998  0.2499  0.2990
 9254SOL     OW39223   2.226   1.074   0.848 -0.0138  0.4851  0.4587
 9254SOL    HW139224   2.258   1.057   0.937 -0.1509 -0.0906  0.3961
 9254SOL    HW239225   2.233   0.986   0.812 -1.9261 -0.4795  2.4418
 9255SOL     OW39226   2.950   2.158   4.133 -0.2151 -0.1392 -0.0291
 9255SOL    HW139227   3.026   2.118   4.090 -0.4860 -0.0100 -0.6283
 9255SOL    HW239228   2.875   2.111   4.097 -2.4018  3.0757  0.3695
 9256SOL     OW39229   3.415   4.328   8.255  0.0313 -0.0613  0.2252
 9256SOL    HW139230   3.325   4.305   8.275 -0.1196  0.4420  0.1204
 9256SOL    HW239231   3.415   4.340   8.160 -1.2027  0.9960  0.3575
 9257SOL     OW39232   3.046   3.144   5.873 -0.1242 -0.4553 -0.0236
 9257SOL    HW139233   3.128   3.119   5.830 -0.0671  1.1910 -0.8755
 9257SOL    HW239234   3.007   3.060   5.897  0.6317 -0.8369 -0.1439
 9258SOL     OW39235   3.777   2.878   5.917  0.3114 -0.6245  0.1795
 9258SOL    HW139236   3.825   2.826   5.853 -0.7128 -1.2426 -0.0937
 9258SOL    HW239237   3.845   2.939   5.944 -0.6333  0.7112 -0.4643
 9259SOL     OW39238   0.623   4.152   9.628  0.0526  0.1031 -0.1549
 9259SOL    HW139239   0.598   4.062   9.645 -0.4924  0.0697 -1.1429
 9259SOL    HW239240   0.653   4.148   9.537 -0.4343 -0.2558 -0.2959
 9260SOL     OW39241   3.662   1.891   2.537  0.3081 -0.4464 -0.2384
 9260SOL    HW139242   3.732   1.826   2.527  0.5252  0.1341 -2.6837
 9260SOL    HW239243   3.585   1.855   2.494 -0.3882  1.3847 -0.5168
 9261SOL     OW39244   0.613   2.314  15.506  0.4803 -0.3287  0.5655
 9261SOL    HW139245   0.634   2.365  15.585  0.4387 -0.1012  0.4273
 9261SOL    HW239246   0.535   2.353  15.467  0.6429  1.1034  1.6585
 9262SOL     OW39247   0.719   1.772   5.389  0.2546 -0.3225 -0.2870
 9262SOL    HW139248   0.730   1.778   5.294  0.6648 -0.3815 -0.2421
 9262SOL    HW239249   0.808   1.795   5.414 -0.6128  1.3779  1.2329
 9263SOL     OW39250   0.234   0.291  10.542  0.4316  0.1532 -0.4143
 9263SOL    HW139251   0.289   0.271  10.618  0.1846 -1.1816 -0.5957
 9263SOL    HW239252   0.298   0.327  10.479 -0.1424 -0.7446 -1.5152
 9264SOL     OW39253   4.448   4.292   9.157  0.4405 -0.1423 -0.0607
 9264SOL    HW139254   4.393   4.279   9.234  0.8137 -0.1110  0.2033
 9264SOL    HW239255   4.536   4.272   9.187 -0.5251  1.0188  3.4950
 9265SOL     OW39256   0.995   4.316   6.410 -0.3195 -0.1133 -0.8669
 9265SOL    HW139257   1.070   4.262   6.381 -0.2571 -0.5981  0.2218
 9265SOL    HW239258   0.971   4.385   6.348  1.3885 -0.3969 -1.8564
 9266SOL     OW39259   0.114   0.819   9.308 -0.5037 -0.2864  0.1964
 9266SOL    HW139260   0.022   0.798   9.322 -0.5292 -0.1843  0.1825
 9266SOL    HW239261   0.167   0.778   9.376 -0.5091 -1.4494 -0.5043
 9267SOL     OW39262   3.316   1.484   6.652 -0.2841  0.1634  0.5682
 9267SOL    HW139263   3.291   1.395   6.625 -2.1304  0.4028  1.4557
 9267SOL    HW239264   3.254   1.492   6.725  0.0469 -0.1751  0.8888
 9268SOL     OW39265   1.181   1.260   4.438 -0.6627 -0.3370  0.3175
 9268SOL    HW139266   1.221   1.223   4.359  1.1995 -0.6960  1.4196
 9268SOL    HW239267   1.236   1.228   4.510 -1.1807 -1.0146  0.4076
 9269SOL     OW39268   3.247   2.420   0.468  0.2861 -0.1987  0.2911
 9269SOL    HW139269   3.258   2.509   0.434 -1.2700  0.6046  1.8446
 9269SOL    HW239270   3.299   2.420   0.548 -0.6801  1.2219  0.9347
 9270SOL     OW39271   3.514   0.527   8.609 -0.6556 -0.2364  0.5078
 9270SOL    HW139272   3.594   0.483   8.640  0.4859  0.5637 -1.2774
 9270SOL    HW239273   3.548   0.582   8.538 -1.0705 -0.0849  0.4292
 9271SOL     OW39274   3.498   2.414  11.267  0.3088  0.2049 -0.4482
 9271SOL    HW139275   3.540   2.467  11.200 -0.4726  1.7635  0.3068
 9271SOL    HW239276   3.432   2.469  11.308  0.7418  1.0100 -0.8427
 9272SOL     OW39277   0.134   3.833   3.165 -0.2249 -0.3809 -0.4221
 9272SOL    HW139278   0.055   3.781   3.150  0.1765 -0.7599 -1.2310
 9272SOL    HW239279   0.180   3.827   3.081  3.2697  0.4443  1.4202
 9273SOL     OW39280   3.141   2.507  13.567 -0.5370 -0.4647  0.0212
 9273SOL    HW139281   3.167   2.467  13.649 -0.2338 -0.3361 -0.0103
 9273SOL    HW239282   3.153   2.434  13.506  0.5845 -0.0066 -0.3199
 9274SOL     OW39283   4.204   2.647   2.462  0.4038 -1.0826 -0.2366
 9274SOL    HW139284   4.161   2.638   2.377  1.7963  1.1600 -1.1964
 9274SOL    HW239285   4.214   2.742   2.459 -1.5272 -0.9036 -0.4896
 9275SOL     OW39286   0.581   0.029   7.021  0.3469 -0.1282  0.4606
 9275SOL    HW139287   0.555   0.063   6.936 -1.4427 -3.7421 -0.4662
 9275SOL    HW239288   0.670   0.062   7.028 -0.4739  2.2157 -0.2128
 9276SOL     OW39289   0.890   1.083   7.605  0.1482 -0.0439 -0.4086
 9276SOL    HW139290   0.859   1.040   7.685 -2.1776  1.2690 -0.6144
 9276SOL    HW239291   0.915   1.003   7.558 -0.7418 -0.6851  0.2246
 9277SOL     OW39292   0.404   3.537   7.176 -0.4184  0.3224 -0.0962
 9277SOL    HW139293   0.450   3.613   7.140  0.1284  0.5541  1.1118
 9277SOL    HW239294   0.314   3.568   7.189 -0.4769 -0.5539  1.6297
 9278SOL     OW39295   2.091   4.037  15.413  0.0109  0.1898 -0.3484
 9278SOL    HW139296   2.144   4.025  15.334 -1.2706 -2.3639 -0.8093
 9278SOL    HW239297   2.153   4.032  15.486 -1.7768 -1.9250  1.0098
 9279SOL     OW39298   1.182   4.104   3.379 -0.1555 -0.1539 -0.1415
 9279SOL    HW139299   1.142   4.127   3.295  0.9675  3.4987  0.2948
 9279SOL    HW239300   1.120   4.113   3.451 -0.7517  1.7248 -0.8624
 9280SOL     OW39301   3.544   3.967   8.048  0.1246  0.0769 -0.6001
 9280SOL    HW139302   3.536   3.871   8.045 -1.6854  0.2095  0.0289
 9280SOL    HW239303   3.456   3.996   8.026 -0.8239  0.1381  3.1306
 9281SOL     OW39304   4.341   3.733   8.983 -0.5617  0.1098  0.8911
 9281SOL    HW139305   4.340   3.825   9.007 -2.0644  0.5816 -0.9574
 9281SOL    HW239306   4.271   3.699   9.040  0.3180  0.2749  2.0839
 9282SOL     OW39307   3.900   3.636  12.192  0.0249 -0.4775  0.0338
 9282SOL    HW139308   3.876   3.721  12.230  2.7892  0.9191 -1.3586
 9282SOL    HW239309   3.822   3.583  12.210  0.8430 -1.8387 -0.4773
 9283SOL     OW39310   2.546   0.426   0.326  0.1747  0.5832 -0.2674
 9283SOL    HW139311   2.565   0.490   0.258  1.6020 -0.2100 -0.6067
 9283SOL    HW239312   2.579   0.342   0.296  0.9220  0.1821  1.6616
 9284SOL     OW39313   1.706   3.780   7.361  0.5577  0.0734 -0.9146
 9284SOL    HW139314   1.654   3.752   7.436  2.2159 -0.2628  0.1197
 9284SOL    HW239315   1.638   3.831   7.317 -0.1669 -0.1683 -0.0778
 9285SOL     OW39316   0.510   2.886   2.837 -0.1799  0.3504  0.1912
 9285SOL    HW139317   0.514   2.809   2.781  1.7219 -1.9027  3.3813
 9285SOL    HW239318   0.477   2.933   2.761  3.5881  0.5380 -1.3153
 9286SOL     OW39319   1.280   4.610  16.112  0.1663 -0.0838  0.1308
 9286SOL    HW139320   1.339   4.635  16.041 -0.3345 -0.9866 -0.6038
 9286SOL    HW239321   1.209   4.576  16.058 -0.4295 -1.4685  1.7550
 9287SOL     OW39322   4.215   1.621   1.582 -0.7571 -0.9285  0.1654
 9287SOL    HW139323   4.259   1.544   1.620  1.0642  0.6772  1.3078
 9287SOL    HW239324   4.253   1.639   1.496 -1.4970 -3.1622 -0.6351
 9288SOL     OW39325   3.770   2.940  10.632  0.3561  0.0303 -0.1820
 9288SOL    HW139326   3.739   3.023  10.669  1.0148 -0.5849  1.7580
 9288SOL    HW239327   3.814   2.898  10.707 -3.5727 -2.7856  0.5127
 9289SOL     OW39328   4.639   0.571   5.915  0.5361  0.6689  0.5542
 9289SOL    HW139329   4.624   0.658   5.951 -1.8912  1.2881 -1.9941
 9289SOL    HW239330   4.675   0.523   5.989 -0.6053 -0.4876  0.3658
 9290SOL     OW39331   0.206   4.168   6.931  0.3801 -0.3871 -0.4559
 9290SOL    HW139332   0.260   4.213   6.996 -0.2654 -0.2673  0.0013
 9290SOL    HW239333   0.127   4.219   6.947  0.3119 -0.9732  1.0447
 9291SOL     OW39334   1.797   0.528  13.077 -0.5657 -0.2423 -0.2574
 9291SOL    HW139335   1.736   0.524  13.004 -1.6500 -0.0684  0.6392
 9291SOL    HW239336   1.837   0.441  13.074  0.5545  0.2828 -0.5343
 9292SOL     OW39337   3.287   2.892   5.918 -0.4255 -0.4996  0.1746
 9292SOL    HW139338   3.372   2.892   5.962  1.0587  0.1037 -2.7181
 9292SOL    HW239339   3.311   2.969   5.867 -0.0540  0.4060  1.7157
 9293SOL     OW39340   3.495   2.917   7.485 -0.2180  0.8248 -0.7092
 9293SOL    HW139341   3.495   2.883   7.396 -0.7101  0.3346 -0.5186
 9293SOL    HW239342   3.484   2.833   7.528 -1.0235  0.8341 -0.9027
 9294SOL     OW39343   1.287   0.733   6.243  0.2921  0.9116 -0.0329
 9294SOL    HW139344   1.294   0.732   6.147  0.3157 -2.2775  0.0115
 9294SOL    HW239345   1.375   0.760   6.266  0.3718 -0.6174  1.3732
 9295SOL     OW39346   3.553   3.964   8.347 -0.2127 -0.4947 -0.2062
 9295SOL    HW139347   3.543   3.960   8.252 -0.9842  2.2727 -0.2563
 9295SOL    HW239348   3.641   4.000   8.350 -1.7082  3.0470  0.8162
 9296SOL     OW39349   3.107   1.122   7.383 -0.3810 -0.3419 -0.0991
 9296SOL    HW139350   3.106   1.210   7.420  0.5788  0.0195 -0.9301
 9296SOL    HW239351   3.201   1.102   7.380  0.2485  2.4681  0.3227
 9297SOL     OW39352   0.516   0.463   8.792 -0.2257 -0.4611 -0.5901
 9297SOL    HW139353   0.456   0.423   8.856 -0.8622 -0.6032 -1.2711
 9297SOL    HW239354   0.450   0.520   8.753  1.5456  2.1505  0.2877
 9298SOL     OW39355   0.166   0.673   1.742  0.2047  0.1583 -1.2951
 9298SOL    HW139356   0.211   0.625   1.673  2.8480  0.4786  0.2281
 9298SOL    HW239357   0.077   0.655   1.710  0.6949 -4.3040 -0.1744
 9299SOL     OW39358   1.136   3.514   6.725  0.1015 -0.4008 -0.0276
 9299SOL    HW139359   1.041   3.519   6.737 -0.0134 -1.5164 -0.4996
 9299SOL    HW239360   1.154   3.424   6.750  0.3576  0.8926  4.4662
 9300SOL     OW39361   2.081   2.676   4.273 -0.6465 -0.0981  0.9123
 9300SOL    HW139362   2.128   2.625   4.207  0.2427  1.2624  0.4883
 9300SOL    HW239363   2.019   2.608   4.299  0.2888 -0.6774  1.6466
 9301SOL     OW39364   0.291   4.258   3.868  0.0363  0.5511 -0.6052
 9301SOL    HW139365   0.220   4.209   3.825 -0.7311 -2.2907  3.9577
 9301SOL    HW239366   0.242   4.337   3.893  0.6482  0.2380  1.5780
 9302SOL     OW39367   1.126   1.192   7.137 -0.6019 -0.3243 -0.0511
 9302SOL    HW139368   1.100   1.198   7.229 -2.2626 -0.4081 -0.5114
 9302SOL    HW239369   1.133   1.097   7.129 -0.5124 -0.2484 -0.8635
 9303SOL     OW39370   1.965   0.128  11.252  0.4886  0.0488 -0.2564
 9303SOL    HW139371   1.993   0.116  11.342 -1.2760 -3.3091 -0.1373
 9303SOL    HW239372   1.870   0.122  11.268  1.0869 -2.2738  2.3953
 9304SOL     OW39373   4.489   0.189   7.044  0.1100 -0.5432  0.6146
 9304SOL    HW139374   4.485   0.093   7.042 -1.6995 -0.4959  1.9439
 9304SOL    HW239375   4.523   0.204   6.956 -2.0941 -1.1388 -0.3563
 9305SOL     OW39376   0.541   4.127   4.895 -0.6940 -0.0126  0.1356
 9305SOL    HW139377   0.495   4.092   4.972 -0.6669  0.2713  0.2828
 9305SOL    HW239378   0.466   4.158   4.844 -0.0504 -0.6150 -1.1588
 9306SOL     OW39379   1.785   4.486  10.426  0.0461  0.0591  0.3057
 9306SOL    HW139380   1.719   4.475  10.495  0.5686  0.1861  0.8318
 9306SOL    HW239381   1.739   4.562  10.391  1.7443  2.8057  4.0281
 9307SOL     OW39382   1.224   4.355   5.161  0.1009  0.3044  0.6231
 9307SOL    HW139383   1.268   4.285   5.209 -0.9230 -1.6507 -1.2933
 9307SOL    HW239384   1.143   4.308   5.143 -0.7840  2.0248  0.1418
 9308SOL     OW39385   0.308   2.494   1.938  0.5490  0.6181  0.0218
 9308SOL    HW139386   0.253   2.441   1.994  0.3051  0.7139 -0.1255
 9308SOL    HW239387   0.251   2.553   1.888  1.0009 -0.7389 -2.0790
 9309SOL     OW39388   0.810   2.163   3.767 -0.3136 -0.3322  0.0811
 9309SOL    HW139389   0.792   2.175   3.861  0.1441 -0.0642  0.1346
 9309SOL    HW239390   0.759   2.084   3.751  0.5885 -1.0375  0.6974
 9310SOL     OW39391   2.578   2.406   3.508 -0.4935 -0.1610  0.1798
 9310SOL    HW139392   2.514   2.474   3.489 -2.0022 -1.1322  1.8004
 9310SOL    HW239393   2.542   2.372   3.590 -2.2198  0.7620 -0.2014
 9311SOL     OW39394   0.285   0.228   3.466 -0.3634 -0.2623  0.6104
 9311SOL    HW139395   0.317   0.143   3.436 -0.0556  0.0339  0.1202
 9311SOL    HW239396   0.263   0.196   3.554 -4.1993  1.0738  0.1523
 9312SOL     OW39397   2.321   1.642   9.594 -0.2165 -0.0627  0.3696
 9312SOL    HW139398   2.369   1.712   9.638 -0.4590 -0.9006  1.9907
 9312SOL    HW239399   2.243   1.686   9.561  2.0041  2.6038 -1.2421
 9313SOL     OW39400   2.436   0.836   6.057 -0.1018  0.0449  1.0226
 9313SOL    HW139401   2.434   0.919   6.010 -0.2462  0.2098  1.3239
 9313SOL    HW239402   2.467   0.863   6.143  2.7218  1.4694 -0.4429
 9314SOL     OW39403   4.691   2.889   0.567 -0.2573  0.2275 -0.0912
 9314SOL    HW139404   4.693   2.828   0.641  1.7267 -0.2706 -0.5661
 9314SOL    HW239405   4.667   2.964   0.623 -1.8227 -1.2255  1.1751
 9315SOL     OW39406   1.893   1.423   1.061  0.0187 -0.1047  0.2623
 9315SOL    HW139407   1.957   1.471   1.112 -0.1381 -0.3627  0.7025
 9315SOL    HW239408   1.850   1.394   1.141  0.4130  1.8806  1.1987
 9316SOL     OW39409   4.715   1.963  11.891  0.7919 -0.6146  0.2759
 9316SOL    HW139410   0.042   2.033  11.846  1.3775 -0.5771  0.9404
 9316SOL    HW239411   4.708   1.891  11.828 -2.9615 -0.4642  0.5215
 9317SOL     OW39412   1.746   1.699   1.221  0.3215  0.3369 -0.4727
 9317SOL    HW139413   1.823   1.692   1.164 -0.1920 -2.4781 -0.8303
 9317SOL    HW239414   1.779   1.741   1.300  0.9672 -1.2760  0.1132
 9318SOL     OW39415   2.646   3.754   2.689 -0.3838  0.0152 -0.8308
 9318SOL    HW139416   2.699   3.822   2.730  2.2306 -0.8717 -2.6981
 9318SOL    HW239417   2.697   3.730   2.611 -0.7317 -0.7035 -0.8376
 9319SOL     OW39418   4.201   0.497   9.208  0.5110 -0.0045  0.6888
 9319SOL    HW139419   4.225   0.520   9.298  0.8467  0.8592  0.3818
 9319SOL    HW239420   4.285   0.477   9.167  1.1859 -1.2884  2.6678
 9320SOL     OW39421   1.242   2.356   9.675 -0.2631  0.3424  0.5732
 9320SOL    HW139422   1.302   2.330   9.605 -0.2354  0.7855  0.4271
 9320SOL    HW239423   1.156   2.342   9.635 -0.8343  2.9525  0.8535
 9321SOL     OW39424   1.919   2.697   2.233 -0.1543 -0.1231 -0.4569
 9321SOL    HW139425   1.832   2.712   2.195 -0.4001  0.5265  0.3669
 9321SOL    HW239426   1.960   2.647   2.163 -0.5097 -2.5786  1.0772
 9322SOL     OW39427   1.812   4.467  15.189 -0.3155  0.5877 -0.2265
 9322SOL    HW139428   1.811   4.373  15.208  0.6068  0.5114 -0.5393
 9322SOL    HW239429   1.793   4.467  15.095 -0.6662  2.6902 -0.1486
 9323SOL     OW39430   2.824   2.738   4.783  0.1151  0.2356 -0.5327
 9323SOL    HW139431   2.905   2.694   4.810  0.2162  0.2568 -0.8050
 9323SOL    HW239432   2.837   2.767   4.693 -1.7404  0.8659 -0.6043
 9324SOL     OW39433   2.207   0.214   8.957  0.7110  0.6556 -0.1130
 9324SOL    HW139434   2.266   0.218   8.882 -0.6286 -1.8134 -1.3042
 9324SOL    HW239435   2.234   0.281   9.019  0.4902  0.2365  0.4376
 9325SOL     OW39436   3.491   0.437  16.868 -0.4591 -0.1616 -0.1682
 9325SOL    HW139437   3.419   0.487  16.830 -0.3388 -0.0435 -0.2383
 9325SOL    HW239438   3.502   0.477  16.955 -0.6532 -0.2495 -0.1010
 9326SOL     OW39439   0.721   0.010   4.990 -0.6183 -0.0574 -0.0422
 9326SOL    HW139440   0.670   4.659   4.949 -0.1859 -1.2589  1.4912
 9326SOL    HW239441   0.665   0.034   5.064 -3.0860  0.8836 -2.2142
 9327SOL     OW39442   4.596   1.921  13.904 -0.3782  0.0155  0.0782
 9327SOL    HW139443   4.669   1.956  13.955  0.6831 -3.4465  0.9281
 9327SOL    HW239444   4.564   1.857  13.967 -0.8294  1.0344  0.8965
 9328SOL     OW39445   0.473   2.267   7.926  0.4927 -0.2967 -0.5635
 9328SOL    HW139446   0.525   2.347   7.914  0.8758 -0.4180  0.3128
 9328SOL    HW239447   0.431   2.256   7.841  1.7455 -1.3618 -1.0537
 9329SOL     OW39448   1.184   1.405  12.980  0.3091  0.0847  0.1996
 9329SOL    HW139449   1.191   1.498  13.003 -0.9492  0.3323 -0.4583
 9329SOL    HW239450   1.090   1.389  12.972  0.4892 -1.9680  2.0631
 9330SOL     OW39451   0.268   3.533  14.277  0.2765  0.2322 -0.3424
 9330SOL    HW139452   0.241   3.597  14.343  1.7744  2.0991 -1.5290
 9330SOL    HW239453   0.192   3.476  14.269  2.4053 -2.0836 -3.8787
 9331SOL     OW39454   2.087   1.420   6.882 -0.0459 -0.6320 -0.5317
 9331SOL    HW139455   2.135   1.347   6.920  0.6395 -0.5574 -1.2537
 9331SOL    HW239456   2.141   1.430   6.804  1.5290 -2.3395  0.3451
 9332SOL     OW39457   2.861   2.392   2.426  0.4746  0.2761 -0.5967
 9332SOL    HW139458   2.829   2.364   2.340 -0.9553 -0.5210  0.1904
 9332SOL    HW239459   2.949   2.356   2.420  0.3736 -0.3131  1.4851
 9333SOL     OW39460   4.349   0.262   4.257  0.2234  0.4777 -0.6436
 9333SOL    HW139461   4.292   0.276   4.333 -0.8864 -0.0757 -1.3765
 9333SOL    HW239462   4.398   0.343   4.273  0.7638  0.6127 -3.0391
 9334SOL     OW39463   3.024   2.140  13.272  0.0187  0.1630  0.0454
 9334SOL    HW139464   3.049   2.052  13.301 -0.6385  0.2798  0.9490
 9334SOL    HW239465   3.028   2.136  13.176  1.9601  2.3137  0.0599
 9335SOL     OW39466   4.223   1.716   7.761 -0.0965 -0.2249 -0.4401
 9335SOL    HW139467   4.297   1.766   7.726  1.5408 -1.1278  1.7347
 9335SOL    HW239468   4.257   1.710   7.850 -3.3986  2.1593  0.9950
 9336SOL     OW39469   1.926   3.992  17.470 -0.1184 -0.6373  1.0148
 9336SOL    HW139470   1.931   3.966  17.562 -1.7067 -1.1349  0.9570
 9336SOL    HW239471   1.839   3.957  17.451  0.2178 -2.0370  2.0566
 9337SOL     OW39472   3.566   2.049   4.310 -0.0174 -0.2873 -0.3442
 9337SOL    HW139473   3.537   2.124   4.363  0.4083 -0.6750  0.4363
 9337SOL    HW239474   3.523   2.062   4.225  1.1067 -1.0972 -1.0319
 9338SOL     OW39475   3.059   4.001   8.144  0.0945  0.2611  0.7551
 9338SOL    HW139476   3.087   4.079   8.097 -1.5702  0.4358  0.0283
 9338SOL    HW239477   2.972   4.023   8.178 -0.0087  0.8057  0.1331
 9339SOL     OW39478   1.239   3.409   3.531 -0.2781  0.1247  0.1998
 9339SOL    HW139479   1.291   3.478   3.573 -0.8493  0.4870  0.3162
 9339SOL    HW239480   1.279   3.397   3.445 -2.1048 -1.1028 -0.4718
 9340SOL     OW39481   2.517   4.018  11.259 -0.0607  0.2661  0.1090
 9340SOL    HW139482   2.587   3.967  11.299 -1.9456 -0.0683  2.9734
 9340SOL    HW239483   2.565   4.097  11.236  0.7978  0.5295  2.8027
 9341SOL     OW39484   4.062   2.859  11.071  0.2131 -0.1501 -0.7739
 9341SOL    HW139485   4.048   2.799  10.997 -1.2800 -0.6308 -0.1221
 9341SOL    HW239486   4.130   2.920  11.045  1.0441 -1.4732 -1.7183
 9342SOL     OW39487   4.507   4.479   0.990 -0.0831  0.1862 -0.3044
 9342SOL    HW139488   4.544   4.519   0.912  0.8752 -2.4678 -1.2087
 9342SOL    HW239489   4.424   4.527   0.995 -0.1552 -0.1808  2.3482
 9343SOL     OW39490   1.153   3.604  14.643  0.3857  0.4031 -0.0044
 9343SOL    HW139491   1.202   3.614  14.724  1.1059 -1.1403 -0.2640
 9343SOL    HW239492   1.159   3.689  14.599  1.9279  0.9876  1.3305
 9344SOL     OW39493   1.473   3.853   5.587  0.1114 -0.1371 -0.4387
 9344SOL    HW139494   1.410   3.781   5.584 -0.7585  0.5272  2.1523
 9344SOL    HW239495   1.515   3.838   5.502 -0.8897 -0.8439 -0.8166
 9345SOL     OW39496   3.352   4.057   6.462  0.2509  0.1756  0.7010
 9345SOL    HW139497   3.284   4.123   6.474 -0.0197  0.3033 -1.4433
 9345SOL    HW239498   3.425   4.065   6.523 -0.0257 -0.0784  1.0655
 9346SOL     OW39499   3.225   4.629   9.155 -0.2234 -0.4383  0.0542
 9346SOL    HW139500   3.134   4.644   9.131  0.8954  2.2393 -2.4222
 9346SOL    HW239501   3.242   4.699   9.218  1.5729  0.1147 -1.0195
 9347SOL     OW39502   0.119   0.078   6.921 -0.5765  0.1082 -0.2102
 9347SOL    HW139503   0.178   0.075   6.845  0.3842  0.4178  0.5321
 9347SOL    HW239504   0.064   0.148   6.883 -0.5858  1.1899  1.8098
 9348SOL     OW39505   1.849   3.039   5.786 -0.0312  0.0531  0.3452
 9348SOL    HW139506   1.867   3.105   5.719  0.0020  0.3829  0.6796
 9348SOL    HW239507   1.761   3.017   5.757 -1.2353  2.3834  2.2666
 9349SOL     OW39508   2.296   0.331   5.379 -0.4870  0.0830  0.9023
 9349SOL    HW139509   2.374   0.304   5.331  0.1796 -0.7689  2.4878
 9349SOL    HW239510   2.328   0.389   5.448  0.6810  1.7434 -1.0509
 9350SOL     OW39511   0.481   4.628  13.771 -0.1469 -0.0866  0.9699
 9350SOL    HW139512   0.552   4.681  13.734 -0.3644 -1.6807 -1.7410
 9350SOL    HW239513   0.448   4.693  13.833  1.2391  0.8871  0.6800
 9351SOL     OW39514   0.303   1.458   1.767 -0.0310  0.0955 -0.5502
 9351SOL    HW139515   0.213   1.486   1.783  0.3191  1.4189 -0.8740
 9351SOL    HW239516   0.322   1.417   1.851  1.0095  1.2320 -0.2290
 9352SOL     OW39517   3.813   1.923   3.594  0.2144 -0.6686  0.4466
 9352SOL    HW139518   3.854   1.838   3.576 -0.1048 -0.2042 -2.4486
 9352SOL    HW239519   3.764   1.905   3.675 -0.5294 -2.9653 -0.5056
 9353SOL     OW39520   1.975   1.413   9.015  0.0374  0.0140 -0.0581
 9353SOL    HW139521   2.066   1.431   8.994  0.0908  0.1738  0.3085
 9353SOL    HW239522   1.983   1.351   9.088  0.3591  0.5678  0.3771
 9354SOL     OW39523   2.350   1.710   2.841  0.4107  0.2081  0.3728
 9354SOL    HW139524   2.409   1.784   2.826  0.1763 -0.1281 -2.1433
 9354SOL    HW239525   2.325   1.731   2.931 -1.1277 -1.0244  0.2392
 9355SOL     OW39526   4.708   2.886  15.057  0.4114 -0.5006 -0.3886
 9355SOL    HW139527   0.060   2.893  15.121  0.8161 -1.7488 -0.7163
 9355SOL    HW239528   4.685   2.978  15.043 -1.3625 -0.5411  2.3355
 9356SOL     OW39529   2.535   2.179  12.674 -0.0512  0.2749  0.3673
 9356SOL    HW139530   2.592   2.171  12.751  0.0518  1.2790  0.3856
 9356SOL    HW239531   2.454   2.218  12.708  0.2886 -0.0224  1.5258
 9357SOL     OW39532   2.413   2.597   4.516 -0.0480  0.0691  0.1819
 9357SOL    HW139533   2.369   2.520   4.480  4.5298 -2.1109 -0.7909
 9357SOL    HW239534   2.497   2.587   4.471 -1.0352 -3.6796 -0.8522
 9358SOL     OW39535   2.038   1.214   4.410 -0.4418  0.2795  0.1191
 9358SOL    HW139536   1.999   1.282   4.465 -0.5008  0.4667 -0.1561
 9358SOL    HW239537   1.951   1.187   4.381 -0.2445  0.3791 -0.5693
 9359SOL     OW39538   3.402   4.670  12.299 -0.5838  0.0460  0.2650
 9359SOL    HW139539   3.475   4.617  12.269  1.3085  1.2077  2.7849
 9359SOL    HW239540   3.431   4.668  12.391 -0.9360 -0.4811  0.3671
 9360SOL     OW39541   1.321   4.083   5.579  0.2956 -0.2539  0.2860
 9360SOL    HW139542   1.373   4.009   5.608 -0.0641 -0.7910 -0.4556
 9360SOL    HW239543   1.334   4.083   5.484 -0.4026  2.4499  0.1690
 9361SOL     OW39544   4.545   3.155   2.829 -0.3625  0.3975  0.0581
 9361SOL    HW139545   4.559   3.246   2.856 -2.7129  0.7896 -0.0212
 9361SOL    HW239546   4.634   3.129   2.806  0.8702  4.6923 -0.0370
 9362SOL     OW39547   2.926   0.023   3.005 -0.3831  0.2322 -0.2812
 9362SOL    HW139548   3.018   4.717   2.998 -1.1358 -2.4300 -0.3952
 9362SOL    HW239549   2.918   0.088   2.935 -0.6626  1.1193  0.5739
 9363SOL     OW39550   3.393   1.187   5.882  0.2650 -0.5027 -0.5953
 9363SOL    HW139551   3.373   1.108   5.832  1.7935 -1.3802  0.1856
 9363SOL    HW239552   3.411   1.144   5.965 -0.2929  1.7339  0.6805
 9364SOL     OW39553   3.471   2.079   8.230  0.7831 -0.0809  0.3278
 9364SOL    HW139554   3.484   1.985   8.221 -1.3576 -0.3900  0.6442
 9364SOL    HW239555   3.479   2.097   8.324  1.8966 -2.5739  0.6985
 9365SOL     OW39556   2.509   4.600   4.100  0.1054  0.2035 -0.0928
 9365SOL    HW139557   2.481   4.608   4.191  1.4411 -0.6648  0.3815
 9365SOL    HW239558   2.513   4.505   4.088 -0.4082  0.2698 -0.8709
 9366SOL     OW39559   4.292   1.229   6.680 -0.0452 -0.4425 -0.3829
 9366SOL    HW139560   4.267   1.244   6.771  1.0234 -2.1509  0.1884
 9366SOL    HW239561   4.230   1.162   6.653  0.5708 -0.3734 -2.0067
 9367SOL     OW39562   3.607   0.882   3.172  0.0310 -0.6084 -0.0096
 9367SOL    HW139563   3.610   0.803   3.227  0.6389  0.6159  1.7244
 9367SOL    HW239564   3.566   0.939   3.238 -1.2469 -2.0861  0.4770
 9368SOL     OW39565   3.553   0.285  13.376  0.1491 -0.2070 -0.5113
 9368SOL    HW139566   3.553   0.255  13.285 -0.4957 -0.9839 -0.2547
 9368SOL    HW239567   3.624   0.225  13.399 -0.2325 -1.2735 -2.1689
 9369SOL     OW39568   3.683   1.467  14.456 -0.3834  0.3640  0.2100
 9369SOL    HW139569   3.613   1.404  14.474 -0.1908  0.2832  0.6844
 9369SOL    HW239570   3.654   1.483  14.366  0.6925 -0.1178 -0.2229
 9370SOL     OW39571   0.547   1.638  10.593 -0.2775  0.1047  0.5223
 9370SOL    HW139572   0.551   1.543  10.582 -2.0832  0.1159 -0.1257
 9370SOL    HW239573   0.478   1.654  10.529  0.9236 -0.9776 -1.0623
 9371SOL     OW39574   0.534   0.579  15.666 -0.0147  0.3130 -0.5004
 9371SOL    HW139575   0.523   0.509  15.731  1.5481  1.0266  0.5427
 9371SOL    HW239576   0.624   0.564  15.636 -0.6268 -0.7416 -1.7916
 9372SOL     OW39577   3.900   3.840  13.423 -0.4767  0.1038 -0.3005
 9372SOL    HW139578   3.931   3.765  13.473 -1.3867  0.6497  1.1092
 9372SOL    HW239579   3.839   3.877  13.487  0.2690  1.9127 -0.6509
 9373SOL     OW39580   1.530   3.152   3.250  0.2853 -0.0925 -0.2503
 9373SOL    HW139581   1.440   3.185   3.247  0.0920 -0.5367  0.5307
 9373SOL    HW239582   1.557   3.171   3.160 -0.8163 -0.2660 -0.6155
 9374SOL     OW39583   1.534   1.087   8.403  0.5293 -0.6717 -0.2163
 9374SOL    HW139584   1.504   1.176   8.383 -1.1846 -1.5283 -1.4618
 9374SOL    HW239585   1.576   1.100   8.488  0.3152  0.0427 -0.2142
 9375SOL     OW39586   2.153   2.763   6.061 -0.3317  0.1848 -0.0632
 9375SOL    HW139587   2.196   2.839   6.023  0.5601 -0.4089 -0.2205
 9375SOL    HW239588   2.075   2.756   6.006 -1.2799 -0.2669  1.3337
 9376SOL     OW39589   3.597   1.115   1.767 -0.1561 -0.1201 -0.0719
 9376SOL    HW139590   3.605   1.021   1.751 -0.8934  0.0540 -1.5465
 9376SOL    HW239591   3.665   1.154   1.712  0.3912 -1.3833 -0.2832
 9377SOL     OW39592   2.290   3.896  10.290 -0.0608 -0.6014  0.6875
 9377SOL    HW139593   2.252   3.812  10.316  1.1023 -1.3609 -0.0869
 9377SOL    HW239594   2.337   3.868  10.211  0.8928 -0.7430  1.3062
 9378SOL     OW39595   4.676   2.314   4.897  0.6652 -0.1332  0.1159
 9378SOL    HW139596   0.009   2.385   4.934  1.0324 -0.3620  0.0375
 9378SOL    HW239597   4.672   2.329   4.803 -0.0234  0.4485  0.2327
 9379SOL     OW39598   4.629   0.843   8.138 -0.4803 -0.0860 -0.3873
 9379SOL    HW139599   4.664   0.926   8.106  1.2217 -0.6564  0.0201
 9379SOL    HW239600   4.541   0.846   8.099 -0.5350 -0.4962 -0.2945
 9380SOL     OW39601   4.662   1.396   4.550  0.2105 -0.1366 -0.4203
 9380SOL    HW139602   4.632   1.419   4.462 -0.3813 -2.0220 -0.6906
 9380SOL    HW239603   0.009   1.330   4.532  0.4504  0.5456 -1.9849
 9381SOL     OW39604   1.232   3.381  14.407  0.0617 -0.0189 -0.0328
 9381SOL    HW139605   1.136   3.381  14.406  0.0638  0.9198 -0.2415
 9381SOL    HW239606   1.248   3.451  14.345  2.2723 -0.0029  0.5761
 9382SOL     OW39607   1.623   2.549   4.799  0.7996 -0.2984 -0.0673
 9382SOL    HW139608   1.638   2.462   4.836 -1.9151 -0.8320 -0.2281
 9382SOL    HW239609   1.529   2.557   4.815  0.6188  0.1924 -1.3908
 9383SOL     OW39610   1.786   0.051   4.800 -0.1944 -0.4699 -0.2194
 9383SOL    HW139611   1.835   0.089   4.873 -1.8396  1.7037 -0.2230
 9383SOL    HW239612   1.744   0.130   4.765  2.1849  1.5913  1.5879
 9384SOL     OW39613   0.425   2.733  15.204  0.5177 -0.8497 -0.4610
 9384SOL    HW139614   0.416   2.666  15.271  0.2344 -0.3354  0.0146
 9384SOL    HW239615   0.514   2.714  15.171  0.6229 -1.8823  0.4117
 9385SOL     OW39616   3.959   3.846  13.730 -0.2952 -0.2920  0.0973
 9385SOL    HW139617   3.895   3.898  13.681 -0.1050  0.6890  0.8833
 9385SOL    HW239618   4.004   3.917  13.775 -2.0114  0.6487  0.3202
 9386SOL     OW39619   2.462   4.440   2.015  0.2849  0.3229 -0.4765
 9386SOL    HW139620   2.385   4.490   2.041 -0.4985 -0.4590 -1.2553
 9386SOL    HW239621   2.512   4.444   2.096 -1.9256  0.0131  0.8985
 9387SOL     OW39622   1.479   1.866   8.168  0.1409 -0.3700  0.0248
 9387SOL    HW139623   1.445   1.809   8.100  1.0123 -1.0201  0.1430
 9387SOL    HW239624   1.457   1.951   8.130  0.7382  0.6647  1.9872
 9388SOL     OW39625   2.214   1.203   8.685 -0.1281 -0.3920  0.1727
 9388SOL    HW139626   2.273   1.276   8.665  0.8224 -0.6437  2.1040
 9388SOL    HW239627   2.129   1.247   8.675  1.0117  2.0691  1.4481
 9389SOL     OW39628   1.572   0.605   3.440  0.0211 -0.3052  0.3565
 9389SOL    HW139629   1.657   0.561   3.429  2.3865  3.9043  2.1387
 9389SOL    HW239630   1.542   0.591   3.350  1.2712 -0.0322 -0.1117
 9390SOL     OW39631   1.186   4.233   6.975  0.0537 -0.5210  0.7222
 9390SOL    HW139632   1.172   4.312   7.028  1.4809 -1.6250  2.7562
 9390SOL    HW239633   1.231   4.178   7.040  0.8945 -2.7862 -1.7632
 9391SOL     OW39634   3.550   1.938  14.642 -0.0688 -0.2397 -0.3000
 9391SOL    HW139635   3.510   1.906  14.561 -2.2672  0.1756  0.6313
 9391SOL    HW239636   3.549   2.032  14.627  1.6803 -0.3175 -0.9462
 9392SOL     OW39637   4.421   0.807  11.882 -0.0083  0.1181 -0.1557
 9392SOL    HW139638   4.485   0.736  11.892  0.0707  0.3963  1.2496
 9392SOL    HW239639   4.451   0.845  11.799 -1.4558  1.9653  0.1614
 9393SOL     OW39640   1.011   3.599   8.500  0.2285  0.1452 -0.2182
 9393SOL    HW139641   1.011   3.548   8.581  1.2537  0.3254 -0.1043
 9393SOL    HW239642   0.928   3.645   8.507 -1.1284 -2.4742  1.0298
 9394SOL     OW39643   3.974   1.167  14.396  0.1771  0.1532 -0.3677
 9394SOL    HW139644   4.002   1.170  14.488 -0.7823  1.3057 -0.1131
 9394SOL    HW239645   4.025   1.239  14.360 -0.2810  0.4745 -0.3778
 9395SOL     OW39646   4.346   2.943  10.393  0.5697 -0.0698  0.2666
 9395SOL    HW139647   4.399   2.863  10.389  0.0868 -0.4116  0.8246
 9395SOL    HW239648   4.256   2.912  10.403  1.1976 -1.5947  1.2945
 9396SOL     OW39649   0.532   4.468   9.209  0.6768  0.0418  0.5654
 9396SOL    HW139650   0.523   4.397   9.272  0.6113 -1.2131 -0.8762
 9396SOL    HW239651   0.445   4.474   9.171  0.3210 -2.4886  1.0386
 9397SOL     OW39652   0.341   2.342   3.045  0.4224  0.0471 -0.0092
 9397SOL    HW139653   0.350   2.404   2.973 -0.8085 -0.5435 -0.6646
 9397SOL    HW239654   0.420   2.372   3.090 -1.1790  0.6531  2.4196
 9398SOL     OW39655   1.754   3.076  11.686 -0.6218 -0.0695  0.1398
 9398SOL    HW139656   1.706   3.159  11.682  0.2309  0.3939 -0.4401
 9398SOL    HW239657   1.828   3.091  11.745 -2.0676  2.6585  1.2752
 9399SOL     OW39658   0.373   0.760  16.562  0.3520 -0.5311 -0.0593
 9399SOL    HW139659   0.395   0.722  16.647 -0.9344 -0.5060  0.2783
 9399SOL    HW239660   0.446   0.736  16.504  0.5590  0.7441 -0.3154
 9400SOL     OW39661   3.899   3.253   8.040 -0.2060 -0.5719  0.1702
 9400SOL    HW139662   3.867   3.268   8.129  1.1207  0.4300  0.4794
 9400SOL    HW239663   3.984   3.297   8.030 -1.2359  1.0970 -1.1251
 9401SOL     OW39664   1.048   1.105   3.386 -0.3549 -0.1277  0.2668
 9401SOL    HW139665   0.996   1.025   3.381 -0.0783 -0.2213 -1.0900
 9401SOL    HW239666   1.126   1.080   3.435 -0.8463 -1.3142  0.4431
 9402SOL     OW39667   2.610   2.950   6.750  0.2846 -0.6377 -0.2773
 9402SOL    HW139668   2.557   3.027   6.770 -1.7923 -2.4440  1.1110
 9402SOL    HW239669   2.541   2.891   6.721  1.4850 -0.8367 -2.7344
 9403SOL     OW39670   3.619   1.480  13.883 -0.1126 -0.0565  0.1487
 9403SOL    HW139671   3.596   1.387  13.889 -1.3354  0.4017  2.4677
 9403SOL    HW239672   3.715   1.479  13.881 -0.0689  2.5815  0.8116
 9404SOL     OW39673   2.288   3.562   4.664  0.3275  0.0709 -0.0149
 9404SOL    HW139674   2.266   3.591   4.753  0.5811 -1.1513  0.4394
 9404SOL    HW239675   2.365   3.613   4.638  0.6916 -0.3508  0.2499
 9405SOL     OW39676   4.668   4.639   3.689 -0.5224 -0.9516  0.7991
 9405SOL    HW139677   4.701   0.001   3.726  1.4690 -0.6471 -1.6333
 9405SOL    HW239678   4.578   4.635   3.723 -0.8982 -0.2614 -0.0827
 9406SOL     OW39679   0.206   2.643   2.669 -0.2025 -0.8407 -0.6054
 9406SOL    HW139680   0.200   2.680   2.581  1.4254 -0.3648 -0.5134
 9406SOL    HW239681   0.154   2.563   2.659 -0.3098 -0.9996  1.2557
 9407SOL     OW39682   4.399   1.862   3.909  0.0652 -0.3691 -0.4573
 9407SOL    HW139683   4.492   1.865   3.929  0.0712  0.9520 -0.6935
 9407SOL    HW239684   4.366   1.832   3.994 -0.0902  3.4540  0.8615
 9408SOL     OW39685   2.584   3.532   0.643 -0.6766  0.0188  0.2081
 9408SOL    HW139686   2.563   3.623   0.620 -1.4886 -0.7871 -2.2068
 9408SOL    HW239687   2.583   3.497   0.554 -0.7463  0.0197  0.2087
 9409SOL     OW39688   2.308   4.377   5.339 -0.4161 -0.1842 -0.0971
 9409SOL    HW139689   2.272   4.461   5.368  1.2459  1.1261 -1.8182
 9409SOL    HW239690   2.351   4.399   5.256 -1.1093 -1.9238 -0.9209
 9410SOL     OW39691   4.184   2.065   7.484  0.4315  0.0540  0.1605
 9410SOL    HW139692   4.141   2.055   7.569  0.3755 -2.4508 -0.1641
 9410SOL    HW239693   4.187   2.158   7.465  1.3575  0.3728  1.8371
 9411SOL     OW39694   2.460   3.287  17.560  0.1259 -0.2981  0.8074
 9411SOL    HW139695   2.386   3.291  17.621  1.3872 -1.7402  2.4034
 9411SOL    HW239696   2.420   3.243  17.484  0.7421 -0.1891  0.4184
 9412SOL     OW39697   0.969   1.590   2.851  0.1377  0.2881  1.2461
 9412SOL    HW139698   0.886   1.544   2.835  0.7693 -1.1312  2.0381
 9412SOL    HW239699   1.006   1.527   2.913  2.7760 -1.5345 -2.1745
 9413SOL     OW39700   1.221   2.028   4.631  0.2007  0.7643 -0.4024
 9413SOL    HW139701   1.207   2.036   4.537  3.6582 -1.1495 -1.0845
 9413SOL    HW239702   1.317   2.021   4.632 -0.0194 -2.1625  0.5832
 9414SOL     OW39703   0.149   1.922  12.438 -0.0933  0.2794 -0.2831
 9414SOL    HW139704   0.136   1.933  12.344  1.9039 -1.7437 -0.7956
 9414SOL    HW239705   0.063   1.943  12.475  0.3770 -0.0001  0.9790
 9415SOL     OW39706   1.265   4.499   9.695 -0.5961 -0.0819  0.1066
 9415SOL    HW139707   1.287   4.462   9.609  1.5375  0.6877  0.3105
 9415SOL    HW239708   1.235   4.424   9.746 -1.1920 -0.0502 -0.2018
 9416SOL     OW39709   1.374   2.239  16.515 -0.3362  0.0712  0.0866
 9416SOL    HW139710   1.453   2.267  16.560 -1.7562  1.9103  1.4149
 9416SOL    HW239711   1.409   2.193  16.438 -0.0307 -1.9502  1.4284
 9417SOL     OW39712   4.078   3.005   5.667 -0.1179  0.0018 -0.0313
 9417SOL    HW139713   4.139   2.964   5.606 -0.5992  0.3966 -0.7659
 9417SOL    HW239714   4.093   2.946   5.742  1.9872  0.7606  0.1366
 9418SOL     OW39715   1.242   1.460   4.923 -0.2911 -0.2443  0.1455
 9418SOL    HW139716   1.173   1.518   4.891  0.2380  0.2767 -0.0642
 9418SOL    HW239717   1.194   1.378   4.928  1.5609 -1.4486 -1.9767
 9419SOL     OW39718   4.349   1.056   7.443  0.4662  0.0596  0.3355
 9419SOL    HW139719   4.276   0.995   7.452 -1.2213  1.8247 -1.5307
 9419SOL    HW239720   4.402   1.012   7.510 -1.5198 -2.4730  0.2141
 9420SOL     OW39721   2.036   0.577   3.873 -0.0546  0.6241 -0.3052
 9420SOL    HW139722   1.993   0.618   3.948 -0.2534  2.5102 -1.4427
 9420SOL    HW239723   1.963   0.531   3.832 -0.2796 -0.5441  1.4262
 9421SOL     OW39724   0.981   3.135   8.145  0.6127  0.1185 -0.4544
 9421SOL    HW139725   1.051   3.198   8.164  1.3847 -1.5600  2.1232
 9421SOL    HW239726   0.963   3.105   8.234  2.3065  3.6622  1.0916
 9422SOL     OW39727   0.614   3.502   2.411  0.3256  0.2589 -0.4728
 9422SOL    HW139728   0.542   3.564   2.427 -2.0714 -2.1655 -1.8981
 9422SOL    HW239729   0.573   3.420   2.440  0.5086  0.2952 -0.1129
 9423SOL     OW39730   2.577   4.447   6.212  0.2642  0.2906  0.3216
 9423SOL    HW139731   2.524   4.524   6.187  0.8365  0.4047 -0.5504
 9423SOL    HW239732   2.652   4.487   6.255  2.8494 -3.2596 -0.9187
 9424SOL     OW39733   2.462   4.081  17.122  0.3562  0.5684  0.7956
 9424SOL    HW139734   2.558   4.076  17.123  0.5237  3.1999 -0.1732
 9424SOL    HW239735   2.437   3.999  17.080  0.0790  0.3923  1.3070
 9425SOL     OW39736   4.480   3.275   6.483 -0.0718 -0.0447 -0.6814
 9425SOL    HW139737   4.546   3.224   6.435  1.6494  0.7093  0.8855
 9425SOL    HW239738   4.508   3.248   6.570  2.3272 -0.4809 -1.5685
 9426SOL     OW39739   4.487   1.876   5.879  0.5021 -0.0671  0.9244
 9426SOL    HW139740   4.412   1.840   5.833  1.2989 -1.0807  0.4204
 9426SOL    HW239741   4.451   1.951   5.927 -0.5703 -0.6468  1.0284
 9427SOL     OW39742   4.457   1.106   4.793  0.0536  0.1394  0.8295
 9427SOL    HW139743   4.442   1.122   4.700  1.0027  2.1238  1.0178
 9427SOL    HW239744   4.414   1.181   4.834  0.4651  1.0371 -0.3952
 9428SOL     OW39745   4.100   0.484  16.462  0.0201  0.8420  0.7536
 9428SOL    HW139746   4.050   0.559  16.492 -1.0700  0.0629  0.8995
 9428SOL    HW239747   4.038   0.414  16.484  1.7484 -0.6611  0.8350
 9429SOL     OW39748   0.430   3.358   3.633 -0.3335 -0.0734  0.0176
 9429SOL    HW139749   0.345   3.399   3.650  0.3930  2.3181 -2.1481
 9429SOL    HW239750   0.471   3.349   3.719  1.5520  1.4249 -0.7292
 9430SOL     OW39751   2.080   0.509   8.664 -0.0988 -0.3795 -0.1980
 9430SOL    HW139752   2.107   0.582   8.609  0.2348 -0.3980 -0.0593
 9430SOL    HW239753   2.154   0.485   8.720 -0.7679  2.5835  1.9132
 9431SOL     OW39754   3.891   0.884  16.716 -0.5929  0.3350  0.0731
 9431SOL    HW139755   3.808   0.910  16.756 -1.5027  0.4134 -1.8247
 9431SOL    HW239756   3.958   0.926  16.769 -0.4810  1.4530 -0.9338
 9432SOL     OW39757   1.778   2.937   6.513 -0.2417  0.1213  0.5553
 9432SOL    HW139758   1.791   2.911   6.422  1.6884  0.3808  0.7452
 9432SOL    HW239759   1.746   2.854   6.547  0.3040  0.5261  2.0690
 9433SOL     OW39760   4.554   3.179   4.190 -0.7681  0.0705 -0.2676
 9433SOL    HW139761   4.625   3.234   4.223 -1.8342  0.8360  0.7558
 9433SOL    HW239762   4.505   3.148   4.266 -0.4731  1.6954  0.5890
 9434SOL     OW39763   2.604   1.546  11.152  0.0728 -0.5320 -0.0386
 9434SOL    HW139764   2.569   1.635  11.140  1.0471  0.2464  2.9892
 9434SOL    HW239765   2.695   1.562  11.128 -0.7215  1.2048 -1.9740
 9435SOL     OW39766   2.384   2.325   2.664 -0.2996 -0.6529 -0.6492
 9435SOL    HW139767   2.299   2.358   2.636 -0.1770  0.2459  0.0454
 9435SOL    HW239768   2.354   2.243   2.705 -1.2938 -0.2535 -0.5833
 9436SOL     OW39769   4.452   3.514   8.477 -0.0146 -0.6216 -0.4081
 9436SOL    HW139770   4.545   3.534   8.483  0.1511 -1.0867 -1.3179
 9436SOL    HW239771   4.415   3.570   8.409  1.1596  0.8871  0.2125
 9437SOL     OW39772   1.709   2.635   8.384  0.1314  0.1893  0.5868
 9437SOL    HW139773   1.689   2.666   8.295 -1.5401  0.5494  1.0866
 9437SOL    HW239774   1.706   2.711   8.442  0.6523 -0.3948  1.3672
 9438SOL     OW39775   2.063   1.209   8.316 -0.0036 -0.1598  0.0619
 9438SOL    HW139776   2.007   1.216   8.393  0.9053  1.3917  0.5830
 9438SOL    HW239777   2.005   1.192   8.242  0.5817  2.0976 -0.9350
 9439SOL     OW39778   4.356   4.303   4.682 -1.1660  0.0956 -0.5444
 9439SOL    HW139779   4.385   4.386   4.643 -2.2882  0.2572 -1.0277
 9439SOL    HW239780   4.329   4.340   4.766 -1.5600  0.8125 -0.9845
 9440SOL     OW39781   4.417   1.804  16.080  0.2801  0.0594  0.0772
 9440SOL    HW139782   4.483   1.741  16.049 -0.7054  1.5463 -5.1011
 9440SOL    HW239783   4.349   1.744  16.109 -0.8658  0.1257 -2.5006
 9441SOL     OW39784   1.261   1.583  15.570 -0.7515  0.0442 -0.1775
 9441SOL    HW139785   1.235   1.675  15.572  1.2955  0.6175  0.6905
 9441SOL    HW239786   1.213   1.569  15.652 -0.7354 -0.1580 -0.2016
 9442SOL     OW39787   3.198   2.275   5.166 -0.1235 -0.1112  0.4055
 9442SOL    HW139788   3.228   2.365   5.180 -1.3644 -0.1274  3.2289
 9442SOL    HW239789   3.103   2.277   5.182 -0.1743 -1.4361  0.2623
 9443SOL     OW39790   4.531   3.262  16.211  0.4356  0.3141 -0.0900
 9443SOL    HW139791   4.569   3.219  16.134 -1.4077  0.2482 -0.9719
 9443SOL    HW239792   4.437   3.258  16.192  0.0471 -0.8417  2.0823
 9444SOL     OW39793   2.403   3.301   0.177  0.0326  0.2530  0.6778
 9444SOL    HW139794   2.408   3.224   0.119  0.7361 -0.0059  1.0812
 9444SOL    HW239795   2.309   3.299   0.196 -0.3112  0.3492 -0.9838
 9445SOL     OW39796   1.258   4.456  16.543  0.2721 -0.5964  0.1107
 9445SOL    HW139797   1.225   4.526  16.599 -1.2739 -1.1273 -0.1322
 9445SOL    HW239798   1.339   4.425  16.583  0.3756 -0.2516  0.1616
 9446SOL     OW39799   2.148   2.983   1.920 -0.7699 -0.6231  0.4778
 9446SOL    HW139800   2.140   2.990   1.825  0.1024  0.8714  0.5246
 9446SOL    HW239801   2.063   2.944   1.945 -0.1695 -0.7843  2.3132
 9447SOL     OW39802   1.865   2.267   3.374  0.3336  0.2674  0.0635
 9447SOL    HW139803   1.849   2.219   3.292 -0.2215 -0.3759  0.5365
 9447SOL    HW239804   1.813   2.347   3.373 -2.1373 -1.3193 -0.9700
 9448SOL     OW39805   3.357   1.640   7.212 -0.0652  0.1548 -0.3158
 9448SOL    HW139806   3.433   1.697   7.220  0.3930 -0.7748  2.0115
 9448SOL    HW239807   3.329   1.625   7.303  1.9412 -0.8698  0.1276
 9449SOL     OW39808   2.621   2.492  10.850 -0.1092 -0.0515  0.1519
 9449SOL    HW139809   2.579   2.509  10.934  1.6204  0.5786  0.8794
 9449SOL    HW239810   2.578   2.410  10.824  0.6489  0.3272 -2.2941
 9450SOL     OW39811   2.344   1.421  15.837  0.4265 -0.6457 -0.1125
 9450SOL    HW139812   2.406   1.463  15.896  0.3167  0.9640 -1.1275
 9450SOL    HW239813   2.393   1.413  15.755 -0.4232  1.6110 -0.8578
 9451SOL     OW39814   3.056   3.138  16.743 -0.3844  0.1270 -0.0791
 9451SOL    HW139815   2.985   3.196  16.768 -1.2581 -1.2245  0.5162
 9451SOL    HW239816   3.098   3.115  16.826 -1.8297 -0.7605  0.3947
 9452SOL     OW39817   0.205   0.678   6.081 -0.2017  0.2230 -0.5531
 9452SOL    HW139818   0.188   0.632   5.999  0.4982 -2.8105  1.0074
 9452SOL    HW239819   0.236   0.606   6.136  0.9596 -0.4508 -2.0937
 9453SOL     OW39820   2.304   0.731   8.939  0.1509 -0.2467  0.3906
 9453SOL    HW139821   2.360   0.734   8.861  0.9222 -1.3822  0.9009
 9453SOL    HW239822   2.224   0.777   8.914  0.9134  0.7730 -0.1738
 9454SOL     OW39823   1.465   4.539   7.922  0.2665  0.3487 -0.0765
 9454SOL    HW139824   1.428   4.501   8.002  0.5992 -2.2750 -1.1753
 9454SOL    HW239825   1.385   4.553   7.871  0.5248  0.0030 -0.5730
 9455SOL     OW39826   2.505   2.747   4.143 -0.6028  0.9055  0.0920
 9455SOL    HW139827   2.481   2.836   4.169  0.0836  0.9599  0.5410
 9455SOL    HW239828   2.580   2.769   4.087 -0.3184 -0.1709  0.0636
 9456SOL     OW39829   1.728   0.890  12.655  0.1835 -0.1795  0.0166
 9456SOL    HW139830   1.717   0.817  12.594  1.6324 -0.4088  0.0415
 9456SOL    HW239831   1.638   0.891  12.688 -0.2776 -0.9182 -1.2153
 9457SOL     OW39832   3.700   1.607   8.251  0.7443  0.7079 -0.0144
 9457SOL    HW139833   3.787   1.615   8.212  0.1106 -0.5789 -1.6969
 9457SOL    HW239834   3.716   1.567   8.336 -1.5117  0.9567  0.5273
 9458SOL     OW39835   1.449   0.505   5.848  0.4929  0.0143 -0.1357
 9458SOL    HW139836   1.447   0.439   5.917  3.5372  0.6250  0.5037
 9458SOL    HW239837   1.540   0.532   5.842  0.2397  1.1072  0.7405
 9459SOL     OW39838   3.286   3.459   8.796  0.0246 -0.0267  0.0796
 9459SOL    HW139839   3.365   3.464   8.850 -0.0891  3.4260 -0.0604
 9459SOL    HW239840   3.319   3.470   8.707 -0.8862  2.4245  0.0484
 9460SOL     OW39841   3.863   3.084   6.055 -0.8505  0.3841 -0.7154
 9460SOL    HW139842   3.851   3.068   6.148 -0.9510  2.1765 -0.4191
 9460SOL    HW239843   3.800   3.155   6.043 -0.2742  1.3352  1.9397
 9461SOL     OW39844   0.856   0.256   9.776  0.3427 -0.3428 -0.3603
 9461SOL    HW139845   0.789   0.255   9.707 -1.2875 -0.9610  1.2268
 9461SOL    HW239846   0.909   0.334   9.757 -1.4711  1.5207  2.2253
 9462SOL     OW39847   3.543   1.728   3.732  0.4768  0.2736  0.4810
 9462SOL    HW139848   3.567   1.636   3.738 -1.3470 -0.2291  0.0584
 9462SOL    HW239849   3.549   1.754   3.640 -0.7985 -1.0645  0.0283
 9463SOL     OW39850   4.590   0.719   6.197  0.3040 -0.2366  0.1932
 9463SOL    HW139851   4.616   0.807   6.224  1.6725 -1.4086  2.7203
 9463SOL    HW239852   4.549   0.687   6.277  1.5858  0.8409  1.2873
 9464SOL     OW39853   1.627   1.627  10.476  0.5855  0.1745 -0.2066
 9464SOL    HW139854   1.571   1.617  10.399 -1.0238 -0.8156  1.0811
 9464SOL    HW239855   1.712   1.608  10.437  0.6216 -1.1176  0.4806
 9465SOL     OW39856   3.549   3.282   8.147 -0.8896 -0.0851  0.1850
 9465SOL    HW139857   3.456   3.258   8.147 -1.1570  0.9285 -0.3931
 9465SOL    HW239858   3.564   3.352   8.210  1.4189 -1.0835  0.7261
 9466SOL     OW39859   2.158   2.486   2.511  1.4297  0.6180 -0.0778
 9466SOL    HW139860   2.099   2.481   2.436  1.5687  2.9653 -0.3412
 9466SOL    HW239861   2.224   2.538   2.466 -0.0317  1.6130 -1.0909
 9467SOL     OW39862   1.098   0.323  13.696 -0.2750  0.3789 -0.1764
 9467SOL    HW139863   1.005   0.304  13.686 -1.2394  4.3833  1.0103
 9467SOL    HW239864   1.109   0.401  13.641 -0.0281  1.4014  1.3224
 9468SOL     OW39865   3.273   0.439   3.406 -0.1344  0.5348  0.0438
 9468SOL    HW139866   3.199   0.393   3.446 -0.8563  1.8454  0.2044
 9468SOL    HW239867   3.283   0.526   3.444 -0.2472  0.5505  0.0373
 9469SOL     OW39868   2.199   0.265   6.339 -0.0042  0.4900 -0.1573
 9469SOL    HW139869   2.264   0.333   6.356 -0.0036  0.4269  0.1052
 9469SOL    HW239870   2.245   0.227   6.264  2.3712  1.5187  0.7716
 9470SOL     OW39871   0.743   1.552   7.715  0.7737  0.4039  0.8540
 9470SOL    HW139872   0.814   1.499   7.751 -0.0980 -0.8791  0.6571
 9470SOL    HW239873   0.669   1.501   7.747  0.0412 -0.2815 -1.9558
 9471SOL     OW39874   2.413   3.662   2.407 -0.2063  0.6490 -0.1058
 9471SOL    HW139875   2.477   3.728   2.435 -1.0895  2.1279 -1.5023
 9471SOL    HW239876   2.454   3.583   2.440 -0.3309  0.7142  0.2104
 9472SOL     OW39877   1.260   0.871  14.926  0.3879 -0.7305 -0.3914
 9472SOL    HW139878   1.270   0.837  15.015 -0.0852 -1.0381 -0.4522
 9472SOL    HW239879   1.222   0.795  14.882 -3.2658  0.4293  0.7707
 9473SOL     OW39880   2.264   4.652  11.444 -0.4023 -0.6675 -0.2114
 9473SOL    HW139881   2.218   4.570  11.427 -0.5063 -0.4710 -0.8822
 9473SOL    HW239882   2.200   4.709  11.403  1.1422  0.4173 -1.1089
 9474SOL     OW39883   0.155   1.536   4.702 -0.6620 -0.4820  0.4162
 9474SOL    HW139884   0.164   1.625   4.736 -2.6147  0.0119 -0.3459
 9474SOL    HW239885   0.110   1.548   4.619 -0.2171  1.0125  0.3948
 9475SOL     OW39886   0.437   0.649  10.263 -0.3731  0.1310  0.3901
 9475SOL    HW139887   0.389   0.614  10.188  0.8564 -1.1962  0.2355
 9475SOL    HW239888   0.442   0.744  10.247  0.2938  0.0060 -0.1274
 9476SOL     OW39889   1.145   3.092   4.262 -0.4686 -0.3221  0.3360
 9476SOL    HW139890   1.125   3.136   4.180 -0.4201  0.9294  0.9883
 9476SOL    HW239891   1.238   3.113   4.274 -0.4630  0.1577 -0.5790
 9477SOL     OW39892   4.378   3.535   3.796  0.6325  0.4097 -0.6197
 9477SOL    HW139893   4.287   3.549   3.821 -0.0001 -3.8156 -0.5660
 9477SOL    HW239894   4.388   3.440   3.793  1.9594  0.5421 -0.4186
 9478SOL     OW39895   2.955   1.085  14.495  0.1510  0.4208 -0.2313
 9478SOL    HW139896   3.025   1.093  14.430  1.1390  0.9961  0.9271
 9478SOL    HW239897   3.006   1.107  14.572 -0.9566  1.0096  0.3436
 9479SOL     OW39898   2.301   1.350   8.215 -0.4781 -0.0281  0.3070
 9479SOL    HW139899   2.215   1.331   8.253 -1.0351 -0.0030 -0.9115
 9479SOL    HW239900   2.286   1.294   8.138 -0.5251  0.8502 -0.3278
 9480SOL     OW39901   0.744   4.340   4.160  0.6399 -0.1216 -0.0036
 9480SOL    HW139902   0.713   4.286   4.087  1.1334 -0.2612 -0.1086
 9480SOL    HW239903   0.749   4.275   4.230  0.9769 -0.0297  0.0534
 9481SOL     OW39904   3.779   0.947   6.356 -0.0952  0.5761 -0.5352
 9481SOL    HW139905   3.754   1.016   6.294  0.2160  0.4666 -0.7815
 9481SOL    HW239906   3.871   0.928   6.338 -0.3208 -1.3432  0.3387
 9482SOL     OW39907   0.993   1.038  11.930 -0.0401  0.1027 -0.1240
 9482SOL    HW139908   0.910   1.021  11.974  0.1794  1.4053  0.7932
 9482SOL    HW239909   1.056   1.017  11.998 -0.5602 -1.0150  0.0136
 9483SOL     OW39910   4.323   2.554  12.669 -0.0774  0.5978 -0.4106
 9483SOL    HW139911   4.411   2.517  12.668 -0.7299 -0.9893  0.1368
 9483SOL    HW239912   4.319   2.589  12.757  0.2839  1.6477 -0.8108
 9484SOL     OW39913   3.661   1.109  14.352  0.4737  0.0214 -0.2113
 9484SOL    HW139914   3.721   1.138  14.283  1.0689 -2.7063 -0.8522
 9484SOL    HW239915   3.705   1.037  14.397 -2.8855 -1.8107  0.0988
 9485SOL     OW39916   2.183   3.433   6.653  0.1301  0.2517 -0.6122
 9485SOL    HW139917   2.240   3.405   6.582  2.1719 -0.0854  1.1511
 9485SOL    HW239918   2.128   3.475   6.587  0.2145  2.5351  0.7650
 9486SOL     OW39919   4.341   0.170  12.921  0.2810 -0.2664  0.4723
 9486SOL    HW139920   4.335   0.240  12.986  0.5848 -0.7124  0.9810
 9486SOL    HW239921   4.413   0.209  12.871 -0.0685 -0.1186  0.0812
 9487SOL     OW39922   2.860   4.257   7.352 -0.3790 -0.0843  0.0110
 9487SOL    HW139923   2.866   4.242   7.257  2.8801 -1.5126  0.4252
 9487SOL    HW239924   2.832   4.177   7.395  1.3505 -0.1274  1.0438
 9488SOL     OW39925   2.904   0.603   4.940 -0.2484 -0.1936  0.2683
 9488SOL    HW139926   2.960   0.677   4.918 -2.6393  1.7936  0.8157
 9488SOL    HW239927   2.851   0.645   5.009  1.1099  0.0796  1.1335
 9489SOL     OW39928   2.416   0.983   1.027 -0.4676  0.5934  0.0787
 9489SOL    HW139929   2.420   1.070   1.067  2.7687  0.0477  0.9295
 9489SOL    HW239930   2.431   0.929   1.105  0.1482 -1.1623 -1.2563
 9490SOL     OW39931   2.352   3.178  14.913 -0.0222  0.2172  0.0138
 9490SOL    HW139932   2.273   3.169  14.861 -0.0205  2.6394 -0.4130
 9490SOL    HW239933   2.401   3.226  14.846  0.7183  0.4012  0.6748
 9491SOL     OW39934   2.627   2.556   2.482 -0.0978 -0.2242  0.4778
 9491SOL    HW139935   2.692   2.488   2.465  0.5541  0.2362  1.1158
 9491SOL    HW239936   2.548   2.511   2.453 -0.9340  0.8687  1.0981
 9492SOL     OW39937   0.131   4.125   2.540  0.0755  0.5560  0.1700
 9492SOL    HW139938   0.199   4.148   2.478 -0.5881 -2.5630 -1.7224
 9492SOL    HW239939   0.183   4.102   2.617 -0.1726 -0.8931 -0.0877
 9493SOL     OW39940   3.619   2.536   2.004  0.3429  0.2546 -0.1110
 9493SOL    HW139941   3.674   2.484   1.945 -0.2267  0.0759 -0.4818
 9493SOL    HW239942   3.643   2.505   2.091  1.9129 -1.0660 -1.0266
 9494SOL     OW39943   1.115   3.044   2.686  0.2119 -0.4753  0.0683
 9494SOL    HW139944   1.090   3.034   2.778  1.4892  3.2064  0.7901
 9494SOL    HW239945   1.029   3.068   2.651 -0.1065  4.1749  4.0544
 9495SOL     OW39946   4.355   2.949   5.366 -0.4511  0.3117  0.4921
 9495SOL    HW139947   4.282   2.897   5.399  0.3492 -0.8504  0.4645
 9495SOL    HW239948   4.429   2.887   5.364  0.8157  1.7778  2.1686
 9496SOL     OW39949   3.272   0.932   5.773 -0.4303 -0.0330 -1.1131
 9496SOL    HW139950   3.213   0.864   5.741  2.2139 -1.2563 -3.4292
 9496SOL    HW239951   3.249   0.999   5.709  0.8845 -0.3800 -1.9402
 9497SOL     OW39952   1.945   3.764  12.014  0.2114 -0.3716 -0.3400
 9497SOL    HW139953   1.963   3.701  11.944 -1.3109 -0.0420 -1.0332
 9497SOL    HW239954   1.930   3.834  11.951  0.5382  0.5140  0.5706
 9498SOL     OW39955   4.574   1.392  13.287  0.3379  0.1367  0.2983
 9498SOL    HW139956   4.603   1.481  13.272  0.1571 -0.0277 -1.0640
 9498SOL    HW239957   4.479   1.404  13.281  0.5512  1.2458 -0.7970
 9499SOL     OW39958   1.906   1.901   1.399 -0.6170 -0.3462  0.6403
 9499SOL    HW139959   1.854   1.975   1.431 -1.0870 -0.8628  1.0719
 9499SOL    HW239960   1.888   1.830   1.461 -1.7699 -0.7776 -0.2002
 9500SOL     OW39961   3.542   1.101   4.584 -0.4692  0.0484  0.3826
 9500SOL    HW139962   3.462   1.090   4.635 -0.3483  1.4558  0.8846
 9500SOL    HW239963   3.594   1.034   4.628 -1.6825 -1.3450 -0.3257
 9501SOL     OW39964   2.687   0.057   7.975 -0.6602 -0.1543 -0.4086
 9501SOL    HW139965   2.619   0.063   7.908 -1.7253 -1.3102  0.5933
 9501SOL    HW239966   2.670   0.136   8.026 -1.9105  0.0835 -1.1852
 9502SOL     OW39967   1.978   0.790   5.699 -0.1847  0.1814 -0.0665
 9502SOL    HW139968   1.965   0.847   5.775 -0.7240 -0.9271  0.6671
 9502SOL    HW239969   2.033   0.723   5.739 -0.6663 -1.1932 -1.7101
 9503SOL     OW39970   4.083   2.839  10.219 -0.1425  0.2350 -0.0548
 9503SOL    HW139971   4.009   2.872  10.167  0.8322  1.4986 -0.6212
 9503SOL    HW239972   4.041   2.866  10.301 -0.6247  0.6872 -0.4571
 9504SOL     OW39973   2.772   4.119   5.688 -0.2496  0.1535  0.2947
 9504SOL    HW139974   2.821   4.131   5.607 -0.7399 -0.3118 -0.0719
 9504SOL    HW239975   2.684   4.145   5.662  0.4171  2.3258  0.1802
 9505SOL     OW39976   1.482   0.200   8.167  0.3466  0.2614  0.2924
 9505SOL    HW139977   1.487   0.285   8.209 -0.0365  0.8482 -0.8360
 9505SOL    HW239978   1.423   0.152   8.225  2.0627 -2.8895 -0.5162
 9506SOL     OW39979   0.253   2.545   9.026 -0.0487 -0.0469 -0.1540
 9506SOL    HW139980   0.249   2.638   9.047 -3.8365 -0.4177  0.8063
 9506SOL    HW239981   0.216   2.501   9.103  1.1977  0.3673  0.6761
 9507SOL     OW39982   4.194   4.125   3.251  0.1603  0.2688  0.1608
 9507SOL    HW139983   4.172   4.036   3.224 -0.4939  0.1527  1.1014
 9507SOL    HW239984   4.138   4.187   3.204  1.2790  0.2010 -1.2612
 9508SOL     OW39985   0.983   3.200   4.430  0.1540 -0.0311 -0.2235
 9508SOL    HW139986   1.030   3.147   4.366  0.8960  0.4104 -0.0451
 9508SOL    HW239987   1.050   3.264   4.454 -1.1995  1.2535  0.1487
 9509SOL     OW39988   1.415   3.176  12.451 -0.2382  0.3589  0.3389
 9509SOL    HW139989   1.502   3.214  12.464 -0.6224  0.7009  1.9320
 9509SOL    HW239990   1.361   3.244  12.411 -1.0664 -0.8629 -0.6473
 9510SOL     OW39991   0.260   4.489   1.112  0.1755  0.1829  0.2383
 9510SOL    HW139992   0.198   4.426   1.149  0.5639 -1.1263 -1.3336
 9510SOL    HW239993   0.271   4.451   1.025 -1.0636  1.8356 -0.6489
 9511SOL     OW39994   4.655   0.557  13.133  0.0795  0.0010  0.9611
 9511SOL    HW139995   4.600   0.551  13.211  1.1106 -0.6874  1.6354
 9511SOL    HW239996   4.605   0.627  13.090 -1.3168 -2.3345 -1.2254
 9512SOL     OW39997   1.942   1.687   1.009 -0.3263 -0.4374 -0.4170
 9512SOL    HW139998   1.911   1.603   0.976 -1.1296 -0.7605  1.1474
 9512SOL    HW239999   2.029   1.666   1.044 -1.0043  0.1010  1.6240
 9513SOL     OW40000   1.823   0.332   1.730  1.0843 -0.2862  0.3422
 9513SOL    HW140001   1.820   0.249   1.682 -0.3043  0.4521 -0.8254
 9513SOL    HW240002   1.862   0.384   1.660  1.4993 -1.2694 -0.1645
 9514SOL     OW40003   2.663   3.974   8.473  0.2301 -0.2910 -0.6586
 9514SOL    HW140004   2.586   4.009   8.428 -0.5192 -2.3847 -1.0029
 9514SOL    HW240005   2.627   3.964   8.561  2.6776  1.7612  0.5811
 9515SOL     OW40006   3.721   0.488  16.721 -0.0086  0.1887  0.3464
 9515SOL    HW140007   3.766   0.502  16.804 -0.5925 -1.5898  0.9698
 9515SOL    HW240008   3.639   0.460  16.761 -0.0419 -1.8942 -1.2145
 9516SOL     OW40009   3.150   4.471   7.243 -0.1190  0.2393  0.1186
 9516SOL    HW140010   3.110   4.407   7.302  0.5632 -1.1945 -0.9564
 9516SOL    HW240011   3.124   4.558   7.274 -0.1448  0.4084 -0.3703
 9517SOL     OW40012   0.768   2.071  12.807 -0.1975  0.2215  0.2992
 9517SOL    HW140013   0.716   2.135  12.856 -0.9027  0.6166 -0.9731
 9517SOL    HW240014   0.800   2.131  12.739  0.4465  2.4391  2.5384
 9518SOL     OW40015   1.191   3.729   7.212 -0.3231  0.1618  0.3549
 9518SOL    HW140016   1.241   3.659   7.255 -0.1063  1.2350  1.8765
 9518SOL    HW240017   1.242   3.744   7.132  0.7875  0.6200  1.1472
 9519SOL     OW40018   4.568   0.498   3.605  0.1620  0.1951 -0.5942
 9519SOL    HW140019   4.646   0.464   3.561 -1.9470  0.0939 -4.3017
 9519SOL    HW240020   4.503   0.429   3.599 -0.9261  1.2897 -1.5400
 9520SOL     OW40021   0.627   2.850   1.683 -0.5499 -0.3130  0.0971
 9520SOL    HW140022   0.720   2.827   1.682 -0.2576  0.9151 -0.5141
 9520SOL    HW240023   0.633   2.944   1.702  0.4755 -0.0855 -1.3710
 9521SOL     OW40024   0.672   2.852   8.863 -0.5596  0.4288  0.1170
 9521SOL    HW140025   0.757   2.821   8.831 -0.3397  0.9399  0.2213
 9521SOL    HW240026   0.618   2.774   8.847  1.6749 -1.2675  0.7835
 9522SOL     OW40027   1.792   2.017   3.646  0.5117  0.1367  0.6818
 9522SOL    HW140028   1.833   2.006   3.560  0.1276 -1.3842  0.6986
 9522SOL    HW240029   1.784   2.113   3.649 -2.9524  0.0094 -2.6296
 9523SOL     OW40030   2.714   4.563  11.685 -0.3274 -0.1710  0.2492
 9523SOL    HW140031   2.646   4.571  11.619  0.5122 -2.7172 -0.9243
 9523SOL    HW240032   2.743   4.472  11.680  1.1913  0.4397 -1.9527
 9524SOL     OW40033   4.428   3.516   0.103  0.0502  0.3054  0.1026
 9524SOL    HW140034   4.344   3.492   0.063  0.1597  0.0879  0.0041
 9524SOL    HW240035   4.424   3.607   0.074  1.2438  0.8122  1.5485
 9525SOL     OW40036   4.173   1.037   4.682  0.4714 -0.1026 -0.5621
 9525SOL    HW140037   4.146   1.128   4.696  1.2726 -0.0760  0.7758
 9525SOL    HW240038   4.089   1.018   4.642  0.2956 -0.8741  0.1614
 9526SOL     OW40039   0.813   2.515  17.090 -0.3161 -0.1531  0.7558
 9526SOL    HW140040   0.776   2.594  17.049  0.6348 -0.0515  0.0895
 9526SOL    HW240041   0.858   2.477  17.015 -0.7464  0.2963  0.2696
 9527SOL     OW40042   3.615   2.318   7.029  0.0219  0.0692 -0.6320
 9527SOL    HW140043   3.650   2.350   6.946 -0.1402  1.1302 -0.2870
 9527SOL    HW240044   3.657   2.383   7.085 -0.2739 -1.0860  0.9271
 9528SOL     OW40045   3.552   3.542  13.820 -0.3473  0.3589 -0.3096
 9528SOL    HW140046   3.630   3.579  13.778 -0.6589 -0.1352 -1.3132
 9528SOL    HW240047   3.501   3.621  13.839 -0.3008  0.8444 -2.2327
 9529SOL     OW40048   3.306   0.790  12.906  0.1016  0.0255 -0.1743
 9529SOL    HW140049   3.233   0.737  12.875 -2.4108  3.6513 -0.5013
 9529SOL    HW240050   3.286   0.877  12.871 -0.4283  0.5673  1.4928
 9530SOL     OW40051   3.935   4.454   9.204 -0.0971 -1.1549 -0.1060
 9530SOL    HW140052   3.860   4.494   9.161  0.7011 -0.2311 -0.6290
 9530SOL    HW240053   3.883   4.407   9.270  1.8193 -3.9138 -0.5429
 9531SOL     OW40054   0.992   2.685   9.414 -0.2397 -0.4794  0.1128
 9531SOL    HW140055   0.995   2.644   9.501  0.1654  0.2014  0.4176
 9531SOL    HW240056   1.073   2.735   9.426 -0.4272 -0.2143  0.2759
 9532SOL     OW40057   4.100   0.373   3.643 -0.0887 -0.2812  0.2092
 9532SOL    HW140058   4.099   0.279   3.628 -0.9513 -0.4445  1.2537
 9532SOL    HW240059   4.010   0.401   3.626  0.3501  2.4606  2.3513
 9533SOL     OW40060   2.426   3.216   4.440  0.4962  0.0703  0.1520
 9533SOL    HW140061   2.489   3.155   4.477  0.2414 -0.2290  0.0945
 9533SOL    HW240062   2.457   3.230   4.350  3.2056 -1.6181  0.8287
 9534SOL     OW40063   3.188   1.383   4.062  0.6366  0.1318 -0.5499
 9534SOL    HW140064   3.171   1.407   3.971 -0.9037 -1.3168 -0.6394
 9534SOL    HW240065   3.168   1.290   4.048  0.2761  0.3682 -1.5798
 9535SOL     OW40066   0.712   2.756  16.963  0.8726 -0.6476 -0.7521
 9535SOL    HW140067   0.706   2.836  17.015 -1.1328 -1.4780  0.3129
 9535SOL    HW240068   0.785   2.779  16.906  1.0192 -0.3847 -0.4594
 9536SOL     OW40069   2.851   3.376   0.696 -0.5274 -0.0751 -0.0053
 9536SOL    HW140070   2.824   3.391   0.606 -1.4573 -0.3264  0.2366
 9536SOL    HW240071   2.946   3.364   0.695 -0.5332 -0.0266 -0.8255
 9537SOL     OW40072   1.880   0.960   5.495  0.0865 -0.2482 -0.3117
 9537SOL    HW140073   1.793   0.960   5.535  0.6775 -1.1059  0.9566
 9537SOL    HW240074   1.914   0.888   5.547 -2.2222  0.5607  2.3429
 9538SOL     OW40075   3.811   3.218  15.598 -0.4891 -0.6551  0.3876
 9538SOL    HW140076   3.740   3.263  15.643  1.2973  0.6587  1.8992
 9538SOL    HW240077   3.872   3.292  15.600 -2.6337  1.1276  0.3483
 9539SOL     OW40078   0.820   1.902   3.271 -0.0420  0.2051 -0.6096
 9539SOL    HW140079   0.771   1.939   3.198 -1.6706  1.0313  0.9068
 9539SOL    HW240080   0.909   1.921   3.239 -0.1823  0.2424 -0.9740
 9540SOL     OW40081   3.565   0.878   2.575 -0.3206 -0.8796 -1.1209
 9540SOL    HW140082   3.569   0.823   2.653  0.7279  1.7541  0.7219
 9540SOL    HW240083   3.485   0.846   2.535 -0.7688 -0.4549 -0.5693
 9541SOL     OW40084   1.723   0.230   6.120  0.3909  0.5133  0.9520
 9541SOL    HW140085   1.704   0.254   6.029 -1.8632 -0.2057  1.2447
 9541SOL    HW240086   1.818   0.224   6.113  0.2528 -0.7856  0.1265
 9542SOL     OW40087   3.803   2.071   8.621  0.0251  0.2010 -0.3745
 9542SOL    HW140088   3.808   2.003   8.554  1.9599 -0.0466  0.0371
 9542SOL    HW240089   3.894   2.078   8.647 -0.1777 -0.5494  0.5507
 9543SOL     OW40090   2.007   4.071  13.782  0.4238 -0.1106 -0.3655
 9543SOL    HW140091   1.974   3.982  13.774 -2.7086  1.1871 -1.8648
 9543SOL    HW240092   1.972   4.112  13.703  1.3400  1.5026  0.0608
 9544SOL     OW40093   0.044   4.184   7.813 -0.0506  0.0430  0.6239
 9544SOL    HW140094   4.710   4.250   7.769  0.3500  0.7754  1.2283
 9544SOL    HW240095   4.692   4.121   7.826 -1.0753  1.3196  1.1928
 9545SOL     OW40096   3.161   1.107   6.147  0.1783 -0.4705  1.0867
 9545SOL    HW140097   3.131   1.098   6.238  1.1208 -2.0717  1.2414
 9545SOL    HW240098   3.091   1.079   6.088  0.8389 -0.7437  0.4353
 9546SOL     OW40099   4.067   3.005  10.713 -0.3385  0.0499 -0.0446
 9546SOL    HW140100   4.023   2.924  10.742 -0.2216  0.2061  0.5656
 9546SOL    HW240101   3.994   3.051  10.673 -1.0199 -2.3929 -1.6352
 9547SOL     OW40102   2.987   0.987   1.427  0.1998 -0.4673 -0.0502
 9547SOL    HW140103   2.929   1.062   1.442  0.2921 -0.3615 -0.2194
 9547SOL    HW240104   3.065   1.020   1.473  1.1787 -0.3652 -1.7668
 9548SOL     OW40105   1.846   1.882   7.660  0.1096 -0.6556 -0.1407
 9548SOL    HW140106   1.872   1.826   7.733 -0.1571 -0.3513  0.1919
 9548SOL    HW240107   1.872   1.831   7.584  2.3189 -0.0847  0.2367
 9549SOL     OW40108   4.565   0.001  15.958  0.1154  0.2564 -0.2229
 9549SOL    HW140109   4.585   0.011  16.051 -0.2046  2.5834 -0.4040
 9549SOL    HW240110   4.644   4.675  15.927 -0.0745  0.1824 -0.5996
 9550SOL     OW40111   2.239   1.720   8.052  0.3780 -0.0625  0.6245
 9550SOL    HW140112   2.153   1.761   8.059  0.8380  1.3168 -1.7737
 9550SOL    HW240113   2.255   1.723   7.958 -4.4264 -1.5559 -0.2494
 9551SOL     OW40114   0.802   4.554   6.769  0.1940 -0.5854  0.0819
 9551SOL    HW140115   0.738   4.564   6.698  0.0134 -1.0897  0.1760
 9551SOL    HW240116   0.866   4.494   6.732  1.2552  0.1486  0.7332
 9552SOL     OW40117   0.349   2.972   8.478 -0.3580 -0.7108  0.5801
 9552SOL    HW140118   0.407   2.938   8.410 -0.5631  0.3341 -0.1124
 9552SOL    HW240119   0.388   2.932   8.556  1.5913 -1.0230 -0.5665
 9553SOL     OW40120   3.376   0.823   6.771 -0.1574 -0.2542 -0.5679
 9553SOL    HW140121   3.433   0.862   6.705  0.3182 -3.5271 -2.1210
 9553SOL    HW240122   3.440   0.775   6.825 -3.1861 -1.7218  1.7099
 9554SOL     OW40123   4.285   1.150   5.654 -0.3932  0.0304  0.4431
 9554SOL    HW140124   4.299   1.129   5.746  0.0660 -2.7672 -0.2610
 9554SOL    HW240125   4.195   1.181   5.657  0.7199  3.0652  2.0627
 9555SOL     OW40126   2.635   0.198   7.292  0.0067 -0.2301 -0.0428
 9555SOL    HW140127   2.691   0.229   7.220 -0.0683 -1.6206 -0.7025
 9555SOL    HW240128   2.553   0.242   7.270 -1.0046 -1.6890  0.8071
 9556SOL     OW40129   4.713   0.977  13.747  0.3081 -0.5600  0.0544
 9556SOL    HW140130   0.012   0.920  13.822 -0.2064 -1.8776 -0.8141
 9556SOL    HW240131   4.702   1.061  13.790  1.2239 -0.2648 -0.2768
 9557SOL     OW40132   1.445   2.071   6.486 -0.4694 -0.0824 -0.1231
 9557SOL    HW140133   1.446   2.016   6.565  1.1655  0.1141 -0.0102
 9557SOL    HW240134   1.513   2.131   6.517 -1.4172  1.2448 -0.6098
 9558SOL     OW40135   4.519   3.014   3.712  0.0306  0.0871 -0.1374
 9558SOL    HW140136   4.429   2.990   3.687  0.0522  0.2119 -0.3319
 9558SOL    HW240137   4.564   2.939   3.673 -0.5886 -0.2538 -0.2047
 9559SOL     OW40138   0.129   2.904   2.232  0.3869 -0.2362 -0.1693
 9559SOL    HW140139   0.120   2.999   2.243  1.0413  0.1910 -3.3811
 9559SOL    HW240140   0.197   2.900   2.165  1.5301  1.3911  0.8889
 9560SOL     OW40141   2.086   0.458   9.643 -0.0511 -0.5143  0.7524
 9560SOL    HW140142   2.091   0.368   9.674  1.8412 -0.6103  0.1503
 9560SOL    HW240143   2.139   0.445   9.564 -2.2405  0.3247 -0.8403
 9561SOL     OW40144   1.605   3.938   7.975  0.8571  0.1557  0.8864
 9561SOL    HW140145   1.632   3.982   7.894 -1.5363 -0.2362 -0.0984
 9561SOL    HW240146   1.515   3.918   7.951  0.6533  3.6156 -1.2046
 9562SOL     OW40147   1.404   4.256   8.464  0.0834 -0.2360 -0.2786
 9562SOL    HW140148   1.364   4.213   8.540  1.9942 -0.2649  0.6954
 9562SOL    HW240149   1.430   4.182   8.408 -2.3302 -0.6499 -0.8541
 9563SOL     OW40150   1.451   2.840  11.507  0.4512  0.4434  0.0472
 9563SOL    HW140151   1.384   2.787  11.550  0.6458  0.4261  0.3280
 9563SOL    HW240152   1.410   2.849  11.421  2.5786 -3.1607 -1.3268
 9564SOL     OW40153   1.449   4.322  16.690 -0.0671 -0.0343 -0.0141
 9564SOL    HW140154   1.491   4.303  16.773 -1.0361  2.0351  0.9362
 9564SOL    HW240155   1.447   4.241  16.639 -0.6817 -0.0090 -0.0303
 9565SOL     OW40156   3.844   0.451   7.837  0.2411  0.4531 -0.4926
 9565SOL    HW140157   3.876   0.397   7.764 -0.9804  1.1070 -1.5173
 9565SOL    HW240158   3.791   0.391   7.888 -1.2536  2.3786  0.2087
 9566SOL     OW40159   0.618   1.009  16.808 -0.0893  0.2508 -0.0588
 9566SOL    HW140160   0.682   0.945  16.838 -0.3674 -1.5006 -3.2014
 9566SOL    HW240161   0.601   0.982  16.717 -2.3859  0.9027  0.1811
 9567SOL     OW40162   1.787   0.566  12.246 -0.8382 -0.5275 -0.3041
 9567SOL    HW140163   1.879   0.540  12.251 -0.2087  1.9985  1.1341
 9567SOL    HW240164   1.771   0.569  12.151 -0.5249  0.1092 -0.3390
 9568SOL     OW40165   2.785   0.975   9.104 -0.3234 -0.2617 -0.9488
 9568SOL    HW140166   2.726   0.921   9.155  0.6511  0.3183  0.7766
 9568SOL    HW240167   2.747   1.062   9.118 -1.5943 -0.8867 -0.5646
   4.71944   4.71944  17.68058
