Membrane in water
40167
    1TCq1    O1    1   3.462   3.006  11.189 -0.1719  0.5325  0.0585
    1TCq1    C1    2   3.455   2.907  11.282  0.0296 -0.9047  0.0936
    1TCq1    O2    3   3.412   2.795  11.265  0.1953 -0.6641  0.2780
    1TCq1    C2    4   3.487   2.962  11.409 -0.2847  0.1970  0.7548
    1TCq1    C3    5   3.587   3.052  11.419  0.4535  0.1155  0.2760
    1TCq1    C4    6   3.610   3.107  11.541  0.2324 -0.3297 -0.0220
    1TCq1    C5    7   3.545   3.060  11.651 -1.2307 -0.1541 -0.6551
    1TCq1    C6    8   3.453   2.959  11.635 -0.2546 -0.2702 -0.1897
    1TCq1    C7    9   3.423   2.911  11.513  0.2783  0.1768 -0.5449
    1TCq1    C8   10   3.374   2.926  11.759  0.3542  0.3306 -0.3311
    1TCq1    O4   11   3.413   2.979  11.855 -0.1609  0.8397  0.2495
    1TCq1    C9   12   3.714   3.206  11.559  0.4408  0.0439 -0.2137
    1TCq1    O5   13   3.757   3.260  11.454 -0.2531  0.0899 -0.5961
    1TCq1    O6   14   3.751   3.225  11.679 -0.6798 -0.0733 -0.0143
    1TCq1    H1   15   3.501   3.089  11.224  1.2293 -0.9494  1.9097
    1TCq1    H2   16   3.635   3.092  11.330  1.5648 -2.5234 -0.3421
    1TCq1    H3   17   3.572   3.110  11.743  0.2775  2.1011 -2.3031
    1TCq1    H4   18   3.339   2.845  11.499  2.0766 -2.4689  1.2373
    2MPD2     C   19   3.029   2.674  12.051 -0.3724  0.5825  0.1682
    2MPD2    C1   20   3.090   2.795  12.072 -0.0529  0.5161  0.4618
    2MPD2    C2   21   3.174   2.851  11.977 -0.2371  0.2750  0.2838
    2MPD2    C3   22   3.201   2.777  11.858  0.0945 -0.0047  0.5029
    2MPD2    C4   23   3.131   2.656  11.841  0.2392 -0.3357 -0.0734
    2MPD2    C5   24   3.048   2.606  11.935  0.0259 -0.8446  0.2095
    2MPD2     H   25   3.228   2.939  12.006  1.7468 -0.5249 -0.9642
    2MPD2    H1   26   3.148   2.588  11.758 -3.0121  0.0664 -1.0441
    2MPD2    H2   27   2.952   2.629  12.113 -1.3305  0.6217 -0.9879
    2MPD2    H3   28   3.001   2.511  11.912  1.0806 -1.2128 -0.3978
    2MPD2     N   29   3.289   2.819  11.752 -0.0079 -0.2916 -0.2256
    2MPD2    H5   30   3.305   2.749  11.680 -1.2252 -2.3891  1.5191
    2MPD2    N1   31   3.069   2.877  12.185  0.2864 -0.0907  0.5421
    2MPD2    H7   32   3.126   2.961  12.183 -1.4881  1.0976  0.2096
    3TCq1    O1   33   2.900   4.376  10.459  0.0770 -0.4161  0.5297
    3TCq1    C1   34   2.800   4.285  10.458 -0.0087 -0.3618 -0.6155
    3TCq1    O2   35   2.807   4.166  10.495  0.7061 -0.5821  0.0033
    3TCq1    C2   36   2.678   4.364  10.481 -0.7492 -0.0386  0.0714
    3TCq1    C3   37   2.672   4.489  10.442  0.0815  0.5099  0.1175
    3TCq1    C4   38   2.573   4.576  10.489 -0.2174  0.3355 -0.1518
    3TCq1    C5   39   2.477   4.530  10.577 -0.1869 -0.0931 -0.0739
    3TCq1    C6   40   2.497   4.407  10.624 -0.3576 -0.5779  0.6335
    3TCq1    C7   41   2.597   4.321  10.580 -0.6587 -0.3663 -0.4205
    3TCq1    C8   42   2.410   4.367  10.730 -0.2770  1.0024  0.2777
    3TCq1    O4   43   2.416   4.247  10.752  0.8119 -0.0564 -0.2387
    3TCq1    C9   44   2.585   4.713  10.453 -1.2021 -0.0417 -0.7013
    3TCq1    O5   45   2.682   0.028  10.383  0.0069  0.6901  0.2869
    3TCq1    O6   46   2.508   0.078  10.507  0.5415  0.1182  0.5700
    3TCq1    H1   47   2.859   4.457  10.498  0.9882  1.2028 -1.8985
    3TCq1    H2   48   2.745   4.534  10.375 -0.7012 -0.0014 -1.0925
    3TCq1    H3   49   2.395   4.594  10.607 -0.9977 -1.4879  0.7100
    3TCq1    H4   50   2.616   4.219  10.612  0.4684  0.2310  0.8656
    4MPD2     C   51   2.113   4.422  11.145  0.4874  0.0277 -0.2644
    4MPD2    C1   52   2.141   4.547  11.107 -0.1986 -0.3816 -0.1819
    4MPD2    C2   53   2.225   4.559  10.995  0.5818  0.0053  0.1360
    4MPD2    C3   54   2.272   4.452  10.924 -0.1344 -0.0696  0.4745
    4MPD2    C4   55   2.236   4.326  10.974  0.2543 -0.3749  0.4858
    4MPD2    C5   56   2.151   4.306  11.081 -0.0400  0.5824  0.2739
    4MPD2     H   57   2.242   4.661  10.962 -0.0782  0.0537 -0.0541
    4MPD2    H1   58   2.277   4.237  10.929  1.0025 -0.8139  2.0270
    4MPD2    H2   59   2.062   4.402  11.239 -1.2469 -0.4476 -1.3048
    4MPD2    H3   60   2.125   4.207  11.117 -1.4781  0.3796 -1.3167
    4MPD2     N   61   2.357   4.472  10.808  0.4918  0.5312 -0.6441
    4MPD2    H5   62   2.361   4.563  10.763  0.4720  0.0028 -1.7273
    4MPD2    N1   63   2.095   4.663  11.171 -0.0329 -0.0678 -0.0739
    4MPD2    H7   64   2.129   0.029  11.136  1.1356  0.3730  2.1418
    5TCq1    O1   65   2.592   1.645  10.767  0.4959 -0.6902 -0.4088
    5TCq1    C1   66   2.470   1.598  10.738 -0.1264  0.4097 -0.2936
    5TCq1    O2   67   2.367   1.667  10.736  0.1564 -0.4399 -0.0028
    5TCq1    C2   68   2.480   1.460  10.776  0.2774  0.2224 -0.1732
    5TCq1    C3   69   2.383   1.404  10.851  0.3994  0.0981 -0.6695
    5TCq1    C4   70   2.408   1.281  10.896 -0.2896 -0.4258  0.5324
    5TCq1    C5   71   2.497   1.198  10.841  0.6114  0.1692  0.3372
    5TCq1    C6   72   2.588   1.257  10.748 -0.4816 -0.8434  0.3211
    5TCq1    C7   73   2.593   1.394  10.732  0.5063  1.0689  0.3469
    5TCq1    C8   74   2.693   1.168  10.702 -0.1585 -0.1789 -0.4100
    5TCq1    O4   75   2.698   1.054  10.746  0.3676 -0.1739  0.3945
    5TCq1    C9   76   2.316   1.229  10.989 -0.1584 -0.1082  0.0368
    5TCq1    O5   77   2.339   1.117  11.050  0.4840  0.3038  0.1830
    5TCq1    O6   78   2.203   1.285  11.000 -0.1441 -0.5279 -0.1873
    5TCq1    H1   79   2.659   1.575  10.782  0.9917  0.0181  0.6758
    5TCq1    H2   80   2.308   1.456  10.908 -1.0917 -1.4173 -1.2581
    5TCq1    H3   81   2.516   1.102  10.887  1.3157  1.4302  2.6664
    5TCq1    H4   82   2.672   1.437  10.671  0.3778  0.2492 -0.4027
    6MPD2     C   83   2.929   1.209  10.426  0.2352 -0.1405 -0.3886
    6MPD2    C1   84   2.882   1.156  10.544 -0.3319 -0.3890  0.5924
    6MPD2    C2   85   2.950   1.040  10.597 -0.5186 -0.5584 -0.4728
    6MPD2    C3   86   3.060   0.986  10.535 -0.1483  0.1361  0.4726
    6MPD2    C4   87   3.111   1.049  10.428  0.8070  0.2924  0.3695
    6MPD2    C5   88   3.037   1.151  10.372  0.2169  0.0641 -0.3178
    6MPD2     H   89   2.923   0.995  10.692 -0.2191 -1.0806 -0.6353
    6MPD2    H1   90   3.211   1.026  10.391  1.1288 -1.6221  2.4202
    6MPD2    H2   91   2.873   1.284  10.372  1.2425  2.4585  2.1570
    6MPD2    H3   92   3.077   1.204  10.286  2.7182 -2.5380 -0.7519
    6MPD2     N   93   3.117   0.877  10.599  0.2789 -0.6763 -0.6983
    6MPD2    H5   94   3.075   0.835  10.682  1.0985  0.8112  0.4640
    6MPD2    N1   95   2.777   1.219  10.603  0.1324 -0.0654 -0.7724
    6MPD2    H7   96   2.752   1.307  10.559 -0.2504  0.4353  0.4708
    7TCq1    O1   97   0.986   0.449  12.825  0.2730 -0.2902  0.3207
    7TCq1    C1   98   0.880   0.520  12.780 -0.2468  0.2126 -0.1243
    7TCq1    O2   99   0.858   0.641  12.780 -0.0030 -0.2444 -0.5942
    7TCq1    C2  100   0.779   0.420  12.743  0.9061 -0.7218  0.9750
    7TCq1    C3  101   0.686   0.472  12.649  0.2382  0.7173 -0.5913
    7TCq1    C4  102   0.565   0.416  12.650  0.2742 -0.0634 -0.0863
    7TCq1    C5  103   0.533   0.303  12.717 -0.5665  0.4387  0.1609
    7TCq1    C6  104   0.614   0.272  12.818 -0.0546 -0.3029  0.1026
    7TCq1    C7  105   0.735   0.331  12.833 -0.3002 -0.6684 -0.6317
    7TCq1    C8  106   0.546   0.218  12.943  0.3125 -0.2077 -0.7094
    7TCq1    O4  107   0.461   0.132  12.917  0.0406  0.6386 -0.1334
    7TCq1    C9  108   0.460   0.479  12.573  0.4559 -0.0006  0.4867
    7TCq1    O5  109   0.356   0.415  12.571 -0.0028 -0.3775 -0.4530
    7TCq1    O6  110   0.480   0.602  12.543 -0.1055  0.0854  0.1659
    7TCq1    H1  111   0.979   0.353  12.804 -0.4720 -0.2740  0.5013
    7TCq1    H2  112   0.718   0.554  12.587  0.0826  0.1963 -1.3717
    7TCq1    H3  113   0.436   0.255  12.712 -0.8121  0.7673  1.9947
    7TCq1    H4  114   0.798   0.297  12.915  1.2294 -0.8823 -1.8795
    8MPD2     C  115   0.505   0.133  13.456 -0.3725  0.2037  0.1369
    8MPD2    C1  116   0.450   0.063  13.349 -0.0991  0.2397  0.1218
    8MPD2    C2  117   0.472   0.111  13.220 -0.2020 -0.4395 -0.3035
    8MPD2    C3  118   0.546   0.224  13.194 -0.1367 -0.4821 -0.4205
    8MPD2    C4  119   0.586   0.298  13.303  0.5741  0.0142  0.4479
    8MPD2    C5  120   0.575   0.248  13.428 -0.1480 -0.1756  0.7950
    8MPD2     H  121   0.455   0.052  13.130  0.8057 -0.2151 -0.6504
    8MPD2    H1  122   0.642   0.391  13.295  2.8170 -1.3137  0.6416
    8MPD2    H2  123   0.493   0.100  13.559  3.0676  0.1787  0.5413
    8MPD2    H3  124   0.623   0.303  13.508  0.0315 -1.7819  1.7880
    8MPD2     N  125   0.585   0.271  13.065  0.3820 -0.5175 -0.6459
    8MPD2    H5  126   0.635   0.360  13.069 -0.7650  0.1376 -0.8370
    8MPD2    N1  127   0.388   4.667  13.382  0.1375 -0.4137 -0.3251
    8MPD2    H7  128   0.385   4.641  13.480 -1.5803  0.9221 -0.0141
    9TCq1    O1  129   2.602   4.412  11.181 -0.0376  0.4173  0.3942
    9TCq1    C1  130   2.600   4.498  11.081  0.0364  0.8661 -0.1870
    9TCq1    O2  131   2.542   4.610  11.077 -0.4197  0.9081  0.5899
    9TCq1    C2  132   2.680   4.454  10.971 -0.6420  0.0834  0.2130
    9TCq1    C3  133   2.707   4.543  10.869  0.5122  0.4042  0.4181
    9TCq1    C4  134   2.804   4.523  10.779 -0.4047  0.9125 -0.5768
    9TCq1    C5  135   2.878   4.409  10.785 -0.4633 -0.8409  0.6787
    9TCq1    C6  136   2.840   4.312  10.869  0.5684  0.2732 -0.2682
    9TCq1    C7  137   2.747   4.330  10.969  0.1827 -0.6414  0.5076
    9TCq1    C8  138   2.945   4.216  10.880  0.3723 -0.7427  0.2830
    9TCq1    O4  139   3.046   4.225  10.812 -0.1382 -0.0260 -0.5790
    9TCq1    C9  140   2.839   4.633  10.692  0.3756  0.8950  0.4556
    9TCq1    O5  141   2.777   0.018  10.697  0.0638  0.2351  0.7183
    9TCq1    O6  142   2.906   4.602  10.593  0.0199 -0.4286  0.2330
    9TCq1    H1  143   2.674   4.345  11.177  0.5166  1.0261  0.0936
    9TCq1    H2  144   2.663   4.641  10.879  0.0012  0.1917  0.2761
    9TCq1    H3  145   2.952   4.393  10.708  1.3766 -2.5250  2.8294
    9TCq1    H4  146   2.721   4.251  11.038  1.1326  0.0166  1.6248
   10MPD2     C  147   3.146   4.035  11.017  0.1157  0.0386  0.5065
   10MPD2    C1  148   3.009   4.044  11.047  0.7060 -0.1942 -0.4965
   10MPD2    C2  149   2.963   3.965  11.154  0.6360 -0.6011 -0.4340
   10MPD2    C3  150   3.051   3.904  11.238 -0.5848 -0.0021  0.1436
   10MPD2    C4  151   3.188   3.904  11.209  0.3124 -0.3177 -0.1810
   10MPD2    C5  152   3.231   3.960  11.095 -0.0459 -0.0481  0.1632
   10MPD2     H  153   2.858   3.974  11.177  0.6067 -2.1089  0.0391
   10MPD2    H1  154   3.262   3.860  11.275  0.0796 -1.4035 -0.6390
   10MPD2    H2  155   3.200   4.094  10.943 -0.9156  0.0857 -0.2023
   10MPD2    H3  156   3.337   3.959  11.073 -0.4323 -2.2456 -1.5291
   10MPD2     N  157   3.002   3.845  11.358  0.0958 -0.5941  0.5525
   10MPD2    H5  158   3.070   3.808  11.424  0.7124  0.0780  0.2911
   10MPD2    N1  159   2.917   4.128  10.979 -0.1296  0.3436  0.1204
   10MPD2    H7  160   2.825   4.134  11.020  0.0741  0.4076  0.5648
   11TCq1    O1  161   4.076   4.090  14.448  0.3066 -0.5540  0.0226
   11TCq1    C1  162   3.950   4.056  14.488 -0.3682  0.5745 -0.1334
   11TCq1    O2  163   3.868   3.984  14.434 -0.3921 -1.1180  0.1855
   11TCq1    C2  164   3.906   4.154  14.581  0.2885  0.2932  0.1148
   11TCq1    C3  165   3.950   4.285  14.563 -0.3572 -1.2122 -0.6118
   11TCq1    C4  166   3.886   4.386  14.632  0.3000  0.1935  0.4255
   11TCq1    C5  167   3.774   4.362  14.704 -0.1881 -0.2326  0.0729
   11TCq1    C6  168   3.721   4.236  14.700 -0.0180  0.9123 -0.1451
   11TCq1    C7  169   3.795   4.131  14.653  0.1843  0.6087 -0.9093
   11TCq1    C8  170   3.588   4.218  14.751  0.2270  0.9030  0.4103
   11TCq1    O4  171   3.572   4.286  14.851 -0.3618  0.0259 -0.2782
   11TCq1    C9  172   3.931   4.519  14.624  0.8642 -0.3591 -0.2463
   11TCq1    O5  173   4.007   4.556  14.525  0.4096 -0.6480 -0.3409
   11TCq1    O6  174   3.853   4.602  14.677  0.8375  0.5651 -0.8491
   11TCq1    H1  175   4.124   4.135  14.521 -0.8752 -0.4915  0.7617
   11TCq1    H2  176   4.033   4.309  14.498  2.4327 -1.5159  2.8912
   11TCq1    H3  177   3.715   4.434  14.760  1.6237  1.2099  0.1372
   11TCq1    H4  178   3.756   4.031  14.663  0.4985  0.6412  0.6533
   12MPD2     C  179   3.381   4.068  14.882  0.2439  0.0960 -0.0168
   12MPD2    C1  180   3.415   4.051  14.750 -0.3068 -0.1564 -0.9117
   12MPD2    C2  181   3.356   3.951  14.673  0.1020 -0.0680 -0.7132
   12MPD2    C3  182   3.247   3.884  14.722  0.5843 -0.2313  0.3046
   12MPD2    C4  183   3.218   3.898  14.859  0.7191  0.6299  0.3287
   12MPD2    C5  184   3.278   3.990  14.936  0.0490 -0.1357  0.4259
   12MPD2     H  185   3.370   3.953  14.566 -1.5162 -0.5132 -0.9446
   12MPD2    H1  186   3.137   3.838  14.897 -0.1524 -0.0710 -2.6027
   12MPD2    H2  187   3.437   4.136  14.944 -1.7669  0.4284  1.4403
   12MPD2    H3  188   3.237   4.002  15.036 -2.0239 -0.2993 -0.4039
   12MPD2     N  189   3.188   3.802  14.632 -0.5479  0.3528 -0.2967
   12MPD2    H5  190   3.233   3.796  14.541  2.1556  0.6221  1.0128
   12MPD2    N1  191   3.520   4.119  14.693 -0.4876 -0.4094 -0.8558
   12MPD2    H7  192   3.557   4.086  14.604 -0.0439 -2.3588  0.0497
   13TCq1    O1  193   3.569   3.823  10.773 -0.6748  0.1421 -0.1175
   13TCq1    C1  194   3.445   3.815  10.830 -0.7063 -0.1231 -0.3263
   13TCq1    O2  195   3.359   3.899  10.802 -0.2042 -0.1702 -0.4704
   13TCq1    C2  196   3.419   3.710  10.927 -0.5319  0.0651 -0.8008
   13TCq1    C3  197   3.523   3.670  11.012 -0.1661  0.2189 -0.1309
   13TCq1    C4  198   3.488   3.622  11.136  0.2628  0.4126 -0.2984
   13TCq1    C5  199   3.364   3.568  11.143 -0.5966 -0.3417  0.3409
   13TCq1    C6  200   3.265   3.604  11.051  0.8496  0.5074  0.3066
   13TCq1    C7  201   3.289   3.691  10.952 -0.6387  0.4311 -1.1464
   13TCq1    C8  202   3.126   3.576  11.082 -0.7534 -0.2238  0.5530
   13TCq1    O4  203   3.041   3.650  11.029  0.3353  0.0598  0.1435
   13TCq1    C9  204   3.587   3.591  11.246 -0.0225 -0.4566 -0.2141
   13TCq1    O5  205   3.704   3.617  11.217 -0.0542  0.1648 -0.6770
   13TCq1    O6  206   3.564   3.486  11.315  0.0614  0.2903 -0.3152
   13TCq1    H1  207   3.611   3.738  10.798  0.6678  0.8204 -0.1069
   13TCq1    H2  208   3.626   3.692  10.990 -0.5838  2.0444 -0.2417
   13TCq1    H3  209   3.337   3.499  11.222  1.4959 -0.6167  0.8197
   13TCq1    H4  210   3.212   3.746  10.899 -2.5080  0.5561  1.7331
   14MPD2     C  211   2.993   3.287  11.256  0.1261 -0.0144 -0.2989
   14MPD2    C1  212   2.996   3.415  11.208 -0.2287  0.2746  0.2123
   14MPD2    C2  213   2.877   3.494  11.216 -0.0425 -1.1627 -0.8293
   14MPD2    C3  214   2.758   3.434  11.270  0.3003  0.5182 -0.5950
   14MPD2    C4  215   2.766   3.307  11.316  0.7538  0.2937 -0.0188
   14MPD2    C5  216   2.881   3.234  11.317  0.6281  0.3035  0.6067
   14MPD2     H  217   2.870   3.594  11.175  1.8846 -0.5549  0.3455
   14MPD2    H1  218   2.683   3.256  11.364  0.7058  1.3572  1.0376
   14MPD2    H2  219   3.080   3.223  11.249  1.6158  1.7972  1.6256
   14MPD2    H3  220   2.877   3.131  11.351 -1.4416 -0.3656 -1.6975
   14MPD2     N  221   2.640   3.519  11.282  0.2045  0.0392  0.4486
   14MPD2    H5  222   2.656   3.617  11.265 -0.4495 -0.3097 -2.1122
   14MPD2    N1  223   3.115   3.464  11.150 -0.4957 -0.1003 -0.0280
   14MPD2    H7  224   3.194   3.401  11.140 -1.0078 -1.4754  4.6599
   15TCq1    O1  225   4.190   1.263   2.600 -0.4817  0.8678  0.0442
   15TCq1    C1  226   4.142   1.171   2.516 -0.8688 -0.0719  0.5521
   15TCq1    O2  227   4.117   1.058   2.554  0.0477 -0.0144 -0.3581
   15TCq1    C2  228   4.063   1.249   2.423  0.9770  0.0674  0.0162
   15TCq1    C3  229   3.929   1.244   2.424 -0.7861 -0.5420 -0.4349
   15TCq1    C4  230   3.864   1.345   2.362  0.0294  0.0533 -0.5539
   15TCq1    C5  231   3.926   1.460   2.325 -0.0331 -0.3323  0.3134
   15TCq1    C6  232   4.062   1.462   2.325  0.7122  0.0629 -0.5891
   15TCq1    C7  233   4.137   1.349   2.365  0.2892  0.0172 -0.1084
   15TCq1    C8  234   4.144   1.569   2.279  0.1457 -0.0543 -0.0132
   15TCq1    O4  235   4.263   1.548   2.267 -0.1671  0.3830 -0.5573
   15TCq1    C9  236   3.724   1.344   2.372  0.0601  0.4794 -0.0575
   15TCq1    O5  237   3.673   1.243   2.433 -0.0169  0.2859  0.6252
   15TCq1    O6  238   3.665   1.430   2.297 -0.0346  0.5195 -0.2365
   15TCq1    H1  239   4.174   1.355   2.567 -2.5926 -0.1541 -1.7973
   15TCq1    H2  240   3.874   1.158   2.461  0.9414 -1.7695 -0.7235
   15TCq1    H3  241   3.868   1.540   2.281 -3.3051 -2.0808  1.4826
   15TCq1    H4  242   4.245   1.339   2.367  0.3315  0.3631 -0.9900
   16MPD2     C  243   4.060   1.915   2.175 -0.7548 -0.0141 -0.0429
   16MPD2    C1  244   4.140   1.801   2.190 -0.3746 -0.0521  0.6437
   16MPD2    C2  245   4.259   1.793   2.113  0.0190  0.5522  0.2605
   16MPD2    C3  246   4.291   1.900   2.025 -0.6622 -0.0052 -0.4729
   16MPD2    C4  247   4.203   2.007   2.012  0.4544 -0.1727 -0.6973
   16MPD2    C5  248   4.085   2.014   2.087  0.4586  0.2273 -0.0909
   16MPD2     H  249   4.321   1.705   2.121 -0.3163  0.2160 -0.7451
   16MPD2    H1  250   4.229   2.088   1.946  0.4981  0.8147  0.5281
   16MPD2    H2  251   3.967   1.927   2.230 -2.4261  1.3452 -3.1516
   16MPD2    H3  252   4.012   2.094   2.088  0.6403  0.3966 -0.8845
   16MPD2     N  253   4.399   1.883   1.945  0.1354 -0.0420  0.4095
   16MPD2    H5  254   4.454   1.798   1.955  1.7339  0.6343 -2.3605
   16MPD2    N1  255   4.086   1.691   2.260  0.1668  0.4357  0.0614
   16MPD2    H7  256   3.994   1.695   2.302  0.0267 -1.2611 -0.0924
   17TCq1    O1  257   2.893   1.987  11.675 -0.0249 -0.0425 -0.1379
   17TCq1    C1  258   2.811   1.975  11.570 -1.2372 -0.1068 -0.5462
   17TCq1    O2  259   2.730   1.887  11.547  0.0808  0.7705 -0.1975
   17TCq1    C2  260   2.808   2.099  11.500  0.7142  0.6012  0.4549
   17TCq1    C3  261   2.759   2.090  11.375  0.9628 -0.1371 -0.2224
   17TCq1    C4  262   2.734   2.208  11.303  0.0839 -0.4785 -0.7429
   17TCq1    C5  263   2.772   2.330  11.354 -0.6956  0.0332 -0.3557
   17TCq1    C6  264   2.824   2.337  11.479  0.0709 -1.1040  0.1989
   17TCq1    C7  265   2.843   2.224  11.554  0.0969  0.6789  0.4431
   17TCq1    C8  266   2.883   2.462  11.530 -0.4911 -0.1815  0.2676
   17TCq1    O4  267   2.929   2.461  11.645  0.0328  0.0366  0.2618
   17TCq1    C9  268   2.669   2.198  11.181  0.3744  0.5901 -0.0197
   17TCq1    O5  269   2.618   2.299  11.120 -0.0948 -0.1908 -0.1713
   17TCq1    O6  270   2.664   2.083  11.130  0.6652 -0.4020 -0.4302
   17TCq1    H1  271   2.955   2.062  11.677 -0.9635  0.6085  3.6895
   17TCq1    H2  272   2.737   1.995  11.327  1.6261  0.1373 -1.0639
   17TCq1    H3  273   2.725   2.412  11.301 -0.1073  1.8668  1.9571
   17TCq1    H4  274   2.898   2.229  11.648  3.7752 -2.9020 -1.5025
   18MPD2     C  275   3.006   2.748  11.523 -0.2616 -0.0644 -0.0601
   18MPD2    C1  276   2.984   2.665  11.411 -0.6026 -0.2146 -0.2079
   18MPD2    C2  277   3.015   2.711  11.283 -1.0595  0.0226 -0.1883
   18MPD2    C3  278   3.077   2.837  11.265  0.1958  0.3996 -0.9169
   18MPD2    C4  279   3.113   2.906  11.378  0.5773 -0.8187 -0.5361
   18MPD2    C5  280   3.064   2.868  11.507  0.5332  0.4492 -0.0389
   18MPD2     H  281   2.991   2.650  11.196 -0.8381  2.1345 -1.7347
   18MPD2    H1  282   3.152   3.004  11.351  1.6242 -1.1969 -0.4136
   18MPD2    H2  283   2.975   2.720  11.623 -0.4226  0.5928  0.0710
   18MPD2    H3  284   3.069   2.934  11.593  0.1933 -1.6678  1.6147
   18MPD2     N  285   3.114   2.880  11.135  0.0146 -0.1772  0.3416
   18MPD2    H5  286   3.161   2.970  11.126  1.3398 -0.9550 -0.5428
   18MPD2    N1  287   2.920   2.539  11.418 -0.0596  0.0696 -0.6145
   18MPD2    H7  288   2.893   2.499  11.329 -0.5016 -0.1553 -0.3741
   19TMC2    C1  289   4.198   3.661  14.215 -0.2128 -0.6027  0.2557
   19TMC2    C2  290   4.150   3.645  14.087  0.2656  0.5500  0.0749
   19TMC2    C3  291   4.067   3.539  14.070  0.4798  0.3444  0.6697
   19TMC2    C4  292   4.158   3.581  14.318 -0.2824 -0.7018  0.4756
   19TMC2    C5  293   4.078   3.477  14.289 -0.2767  0.6225  0.5263
   19TMC2    C6  294   4.018   3.457  14.170 -0.7043  0.1957  0.1413
   19TMC2     C  295   4.264   3.788  14.252  0.1659 -1.1302  0.1770
   19TMC2     O  296   4.260   3.880  14.172  0.1415 -0.0375 -0.6297
   19TMC2     H  297   4.173   3.720  14.012  1.3934 -1.7799 -1.9283
   19TMC2    H1  298   4.186   3.592  14.422  0.3498  0.9988  0.1249
   19TMC2    H2  299   3.953   3.371  14.163  0.1439 -0.2940 -1.6053
   19TMC2    C7  300   4.049   3.384  14.401 -0.6941 -0.0570 -0.0097
   19TMC2    C8  301   4.008   3.510  13.938 -0.7103  0.1259 -0.2918
   19TMC2    O1  302   3.937   3.334  14.402 -0.3368 -0.0059  0.8328
   19TMC2    O2  303   3.968   3.404  13.901 -0.3689 -0.6566 -0.5946
   19TMC2    O5  304   4.044   3.610  13.855 -0.2292  0.2002  0.2205
   19TMC2    H5  305   4.065   3.694  13.903 -1.9208  0.3838  0.6545
   20MPD2     C  306   4.387   3.999  14.400 -0.0122 -0.1563  0.0960
   20MPD2    C1  307   4.418   3.861  14.419  0.3066  0.8375  0.5309
   20MPD2    C2  308   4.510   3.819  14.521 -0.2231  0.3193 -0.3804
   20MPD2    C3  309   4.579   3.910  14.593 -0.1763  0.1162 -0.5371
   20MPD2    C4  310   4.550   4.043  14.571  0.1294  0.0307  0.3565
   20MPD2    C5  311   4.458   4.079  14.484  0.3384  0.7593 -0.2509
   20MPD2     H  312   4.527   3.713  14.540 -0.8124  0.6065  1.6614
   20MPD2    H1  313   4.602   4.124  14.622 -1.0900 -0.2878  2.0989
   20MPD2    H2  314   4.308   4.036  14.336 -0.3260 -1.1035 -0.0579
   20MPD2    H3  315   4.422   4.181  14.490  0.3998  0.7654  0.0222
   20MPD2     N  316   4.669   3.876  14.692  0.4986  0.7931 -0.7771
   20MPD2    H5  317   4.698   3.961  14.739 -0.5826 -0.0820  1.4634
   20MPD2    N1  318   4.354   3.761  14.354  0.9838 -0.6035 -0.0799
   20MPD2    H7  319   4.366   3.667  14.391 -0.1546 -0.2396  1.2024
   21MPD2     C  320   2.140   0.064  15.090 -0.4483 -0.7397 -0.1984
   21MPD2    C1  321   2.248   4.718  15.116  0.2194 -0.9661 -0.6678
   21MPD2    C2  322   2.246   4.583  15.089 -0.0919 -0.1289 -0.2298
   21MPD2    C3  323   2.147   4.517  15.023  0.0143  0.3466  0.4549
   21MPD2    C4  324   2.044   4.596  14.991  0.1621 -0.5711  0.4693
   21MPD2    C5  325   2.037   0.001  15.026 -0.9796  0.6059  0.5087
   21MPD2     H  326   2.335   4.535  15.129 -0.1802  0.0602  0.1919
   21MPD2    H1  327   1.966   4.548  14.932 -0.5860  1.6333 -0.3343
   21MPD2    H2  328   2.124   0.167  15.120 -1.5191 -0.9322 -0.1009
   21MPD2    H3  329   1.948   0.058  15.001 -0.2126  1.7021  0.2586
   21MPD2     N  330   2.154   4.381  14.988 -0.3575  0.4311  0.2550
   21MPD2    H5  331   2.077   4.336  14.939 -0.9840  0.5692  1.1048
   21MPD2    N1  332   2.362   0.045  15.177  0.0125  0.0628 -0.1189
   21MPD2    H7  333   2.440   4.703  15.177 -2.7260 -3.1630  3.0856
   22TCq2    C1  334   2.264   4.306  15.003 -0.6622 -0.5383  0.4611
   22TCq2    O2  335   2.380   4.328  15.037 -0.3999  0.5291  0.8776
   22TCq2    C2  336   2.246   4.174  14.939  0.3803  0.6364 -0.2382
   22TCq2    C3  337   2.365   4.104  14.908  0.2709  0.3193  0.1084
   22TCq2    C4  338   2.359   3.970  14.892 -0.7092 -0.1001  0.2515
   22TCq2    C5  339   2.238   3.910  14.885 -0.2672  0.3546 -0.6016
   22TCq2    C6  340   2.124   3.979  14.897 -0.1938 -0.5193 -0.3524
   22TCq2    C7  341   2.121   4.112  14.922 -0.0985  0.5193  0.1733
   22TCq2    C8  342   1.999   3.904  14.876 -0.0199 -0.0631 -0.7201
   22TCq2    O4  343   1.995   3.783  14.885 -0.0783  0.0346 -0.2152
   22TCq2    C9  344   2.477   3.886  14.865 -0.2694 -0.3789  0.5000
   22TCq2    O5  345   2.458   3.763  14.837 -0.0298 -0.2921  1.2795
   22TCq2    O6  346   2.590   3.946  14.858 -0.2051 -0.3244 -0.2590
   22TCq2    H2  347   2.469   4.133  14.918 -0.4201  2.2889  1.5243
   22TCq2    H3  348   2.235   3.806  14.853 -0.3380  1.0684 -2.9349
   22TCq2    H4  349   2.034   4.157  14.970 -0.1004 -0.8642  1.4521
   23MPD2     C  350   3.994   0.494  15.077 -0.0112  0.5490  0.1399
   23MPD2    C1  351   3.932   0.528  15.197 -0.3597 -0.0257  0.5001
   23MPD2    C2  352   3.834   0.632  15.203  0.0438 -0.5177  0.3439
   23MPD2    C3  353   3.808   0.703  15.086  0.5554 -0.2593  0.0782
   23MPD2    C4  354   3.873   0.673  14.973  0.5381 -0.4405  0.3149
   23MPD2    C5  355   3.963   0.567  14.968 -0.4245 -0.0719 -0.3345
   23MPD2     H  356   3.780   0.656  15.293 -0.1191 -1.2774  0.4485
   23MPD2    H1  357   3.866   0.730  14.881  0.7807 -2.7710 -1.1516
   23MPD2    H2  358   4.071   0.418  15.073  0.4770  1.1875 -2.2127
   23MPD2    H3  359   4.016   0.555  14.874  1.6146  1.6077  0.5861
   23MPD2     N  360   3.709   0.800  15.060  0.1825  0.1043 -0.1399
   23MPD2    H5  361   3.713   0.840  14.967  0.5770  0.6329  0.0994
   23MPD2    N1  362   3.951   0.458  15.315 -0.0371  0.2198  0.3970
   23MPD2    H7  363   3.915   0.498  15.401  0.7563  0.1836  0.7541
   24TCq2    C1  364   3.597   0.806  15.129  0.2984  0.1626 -0.1095
   24TCq2    O2  365   3.571   0.752  15.236  0.1697 -0.7052 -0.1865
   24TCq2    C2  366   3.484   0.865  15.064  0.0703  0.3379 -0.0332
   24TCq2    C3  367   3.491   0.908  14.926 -0.4333  0.5391  0.4649
   24TCq2    C4  368   3.373   0.945  14.866  0.7969 -0.0528 -0.6964
   24TCq2    C5  369   3.252   0.913  14.929  0.2370  0.2359  0.4159
   24TCq2    C6  370   3.245   0.866  15.051  0.6373 -0.2306 -0.1800
   24TCq2    C7  371   3.361   0.844  15.122 -0.1843  0.1683 -0.7329
   24TCq2    C8  372   3.126   0.864  15.127  0.8021 -0.6683 -0.1404
   24TCq2    O4  373   3.142   0.851  15.250 -0.4418  0.2697  0.2768
   24TCq2    C9  374   3.374   0.983  14.734  0.0456 -0.8628  0.0972
   24TCq2    O5  375   3.271   0.959  14.667 -0.0167  0.5351 -0.5268
   24TCq2    O6  376   3.460   1.066  14.705  0.3022  0.4410  0.3152
   24TCq2    H2  377   3.585   0.912  14.872 -0.5989 -1.3312  0.0197
   24TCq2    H3  378   3.167   0.945  14.870 -2.0304 -0.7271  3.1580
   24TCq2    H4  379   3.355   0.802  15.222  0.3224 -1.7196 -1.5119
   25TMC2    C1  380   2.414   2.306  11.476 -0.5233  0.2313 -0.4192
   25TMC2    C2  381   2.419   2.371  11.358 -0.1154 -0.2215  0.7940
   25TMC2    C3  382   2.430   2.508  11.356 -0.2317  0.3985  0.4952
   25TMC2    C4  383   2.416   2.376  11.592  0.4595 -0.0173 -0.5889
   25TMC2    C5  384   2.408   2.513  11.594  0.0954  0.4221 -0.4826
   25TMC2    C6  385   2.421   2.582  11.470  0.7181  0.6731  0.8198
   25TMC2     C  386   2.393   2.168  11.479 -0.1380  0.0869 -0.4410
   25TMC2     O  387   2.392   2.112  11.587  0.1825  0.1075  0.3104
   25TMC2     H  388   2.427   2.318  11.264 -0.7736 -2.8292  2.1987
   25TMC2    H1  389   2.416   2.325  11.688  0.5186  1.1572  0.0361
   25TMC2    H2  390   2.420   2.690  11.459 -0.8973  0.5635  0.0248
   25TMC2    C7  391   2.377   2.596  11.714 -0.0097 -0.3598  0.5199
   25TMC2    C8  392   2.403   2.575  11.223  0.3277  0.2885  0.6488
   25TMC2    O1  393   2.332   2.537  11.809 -0.5406  0.7621  0.3780
   25TMC2    O2  394   2.361   2.686  11.210 -0.2629  0.0808 -0.2204
   25TMC2    O5  395   2.425   2.494  11.113 -0.0965  0.1731  0.3124
   25TMC2    H5  396   2.479   2.414  11.127  0.3750  0.5673  0.7200
   26MPD2     C  397   2.277   1.702  11.297 -0.0244  0.1488  0.7694
   26MPD2    C1  398   2.216   1.796  11.216 -0.3945  1.3041 -0.2225
   26MPD2    C2  399   2.249   1.927  11.237 -0.1195 -0.3489 -0.9085
   26MPD2    C3  400   2.330   1.966  11.341 -0.6899  0.2613 -0.7568
   26MPD2    C4  401   2.384   1.873  11.425  0.6227  0.2108 -0.1130
   26MPD2    C5  402   2.364   1.733  11.400  0.1864 -0.5304 -0.2034
   26MPD2     H  403   2.211   2.012  11.181 -0.4838 -0.3011 -0.5906
   26MPD2    H1  404   2.461   1.905  11.493  0.5104 -0.2445  0.2320
   26MPD2    H2  405   2.259   1.600  11.265 -1.7886  0.9098 -0.6628
   26MPD2    H3  406   2.406   1.656  11.463  0.4090  2.4920  3.3736
   26MPD2     N  407   2.352   2.106  11.359 -0.9820 -0.1302  0.2781
   26MPD2    H5  408   2.309   2.166  11.290  1.7441 -2.7949 -3.7226
   26MPD2    N1  409   2.129   1.753  11.117  0.3816  0.2817  0.0737
   26MPD2    H7  410   2.081   1.664  11.126 -1.3507  1.2147  0.2078
   27TMC2    C1  411   1.219   0.514  12.043  0.7319 -0.5405  0.2783
   27TMC2    C2  412   1.280   0.623  11.990 -0.5058 -0.4672 -0.4811
   27TMC2    C3  413   1.404   0.659  12.027 -0.5752 -0.9313  0.2104
   27TMC2    C4  414   1.292   0.449  12.144 -1.1650  0.4620 -0.0300
   27TMC2    C5  415   1.394   0.513  12.201  0.2981  0.3002 -0.0311
   27TMC2    C6  416   1.466   0.609  12.139 -0.7318 -0.1110  0.3076
   27TMC2     C  417   1.071   0.519  12.047 -0.0920  0.1689 -0.2497
   27TMC2     O  418   1.021   0.579  11.953 -0.1151  0.8751  0.0478
   27TMC2     H  419   1.234   0.684  11.913 -1.5580 -1.8025 -0.9038
   27TMC2    H1  420   1.253   0.362  12.197  1.9560 -0.3205  0.9490
   27TMC2    H2  421   1.560   0.645  12.178 -1.4978  2.5242 -0.2439
   27TMC2    C7  422   1.412   0.473  12.337  0.4291 -0.5886 -0.1367
   27TMC2    C8  423   1.472   0.742  11.924 -0.2747  0.2348 -0.4082
   27TMC2    O1  424   1.386   0.359  12.369 -0.3039  0.4790  0.4039
   27TMC2    O2  425   1.417   0.777  11.820  0.5048  0.0429  0.2259
   27TMC2    O5  426   1.602   0.751  11.952 -0.0541 -0.4433 -0.1538
   27TMC2    H5  427   1.631   0.692  12.024 -1.0234 -0.2943  0.3567
   28MPD2     C  428   0.615   0.383  12.221 -0.3948 -0.7457  0.0881
   28MPD2    C1  429   0.712   0.285  12.258 -0.2755 -0.0283  0.0591
   28MPD2    C2  430   0.843   0.307  12.230  0.6452  0.3519  0.0255
   28MPD2    C3  431   0.878   0.413  12.161 -0.3486 -0.0776 -0.0534
   28MPD2    C4  432   0.794   0.515  12.135  0.7862  0.0877  0.2216
   28MPD2    C5  433   0.665   0.500  12.167 -0.3085 -0.1499  0.2801
   28MPD2     H  434   0.919   0.237  12.265  0.0431 -1.5116 -2.3850
   28MPD2    H1  435   0.835   0.611  12.105 -1.6142  1.0548  0.0480
   28MPD2    H2  436   0.511   0.382  12.252 -0.7174 -0.2035 -1.0088
   28MPD2    H3  437   0.600   0.585  12.151  2.9333  1.9780 -1.4715
   28MPD2     N  438   1.013   0.430  12.129  0.4509  0.0052 -0.2680
   28MPD2    H5  439   1.077   0.363  12.171 -0.4382 -1.2884 -0.9747
   28MPD2    N1  440   0.672   0.184  12.352 -0.4367  0.5671  0.3571
   28MPD2    H7  441   0.570   0.176  12.353 -0.3531 -0.7018 -1.0444
   29MPD2     C  442   0.913   1.698  13.958 -0.3284  0.0148 -0.0335
   29MPD2    C1  443   0.840   1.698  14.073 -0.4746 -0.1357 -0.4109
   29MPD2    C2  444   0.798   1.816  14.130  0.6974 -0.4157 -0.2960
   29MPD2    C3  445   0.810   1.940  14.052  0.0160 -0.4819  0.3000
   29MPD2    C4  446   0.879   1.929  13.934  0.8001 -0.5806 -0.0791
   29MPD2    C5  447   0.932   1.816  13.894 -0.6198  0.0261 -0.5547
   29MPD2     H  448   0.747   1.806  14.225 -1.6965  0.4761 -1.4718
   29MPD2    H1  449   0.901   2.012  13.868  0.2686  0.3477  0.9146
   29MPD2    H2  450   0.958   1.610  13.912 -1.9781 -0.2821 -1.0901
   29MPD2    H3  451   1.004   1.813  13.812  0.8285  0.4341  0.6969
   29MPD2     N  452   0.777   2.071  14.102  0.0314  0.1474 -0.4710
   29MPD2    H5  453   0.803   2.151  14.045  0.1841  1.4010  1.3656
   29MPD2    N1  454   0.812   1.582  14.151 -0.3219 -0.6417 -0.5068
   29MPD2    H7  455   0.773   1.580  14.245 -0.0473 -1.3527 -0.4062
   30TCq2    C1  456   0.712   2.098  14.222 -0.2574 -0.0454  0.0502
   30TCq2    O2  457   0.642   2.028  14.291  0.4757  0.3550 -0.2122
   30TCq2    C2  458   0.741   2.237  14.257  0.2887  0.0526  0.0093
   30TCq2    C3  459   0.640   2.294  14.328  0.2094  0.0854 -0.2714
   30TCq2    C4  460   0.676   2.412  14.378 -0.3335 -0.1438  0.0457
   30TCq2    C5  461   0.797   2.462  14.367 -0.7471 -0.6597 -0.2539
   30TCq2    C6  462   0.896   2.399  14.303  0.4109 -0.0191  0.3351
   30TCq2    C7  463   0.871   2.280  14.240  0.4095 -0.0931  0.4376
   30TCq2    C8  464   1.029   2.442  14.306  0.0948 -0.0857  0.0109
   30TCq2    O4  465   1.111   2.384  14.235  0.2604  0.0758  0.2009
   30TCq2    C9  466   0.576   2.485  14.450 -0.3504 -1.2978  0.3742
   30TCq2    O5  467   0.454   2.458  14.432  0.0657 -0.1497  0.4217
   30TCq2    O6  468   0.607   2.575  14.531  0.1788 -0.4014  0.0385
   30TCq2    H2  469   0.537   2.260  14.325  0.3746 -0.6475  1.9640
   30TCq2    H3  470   0.812   2.561  14.409 -2.0791 -0.6426  0.1908
   30TCq2    H4  471   0.950   2.210  14.215  0.5903  0.0946  0.4934
   31MPD2     C  472   2.947   1.776  14.852  0.7339 -0.3024 -0.4767
   31MPD2    C1  473   2.914   1.653  14.800  0.3869  0.2083  0.6425
   31MPD2    C2  474   2.901   1.546  14.890 -0.8202  0.2298  0.3383
   31MPD2    C3  475   2.931   1.559  15.018  0.3673 -0.2940  0.4602
   31MPD2    C4  476   2.980   1.678  15.069  0.3352 -0.4530 -0.5673
   31MPD2    C5  477   2.980   1.787  14.983  0.0509 -0.8074 -0.2623
   31MPD2     H  478   2.867   1.452  14.848  0.7835  0.1553 -0.7740
   31MPD2    H1  479   2.989   1.697  15.175  0.7009  1.9545 -1.0135
   31MPD2    H2  480   2.941   1.869  14.797  0.6661  0.8225  1.4404
   31MPD2    H3  481   3.003   1.883  15.027  0.3146 -0.1718 -1.7971
   31MPD2     N  482   2.909   1.448  15.102 -0.0753 -0.0620 -0.1878
   31MPD2    H5  483   2.857   1.369  15.064 -0.5106 -0.9812  2.2966
   31MPD2    N1  484   2.885   1.647  14.665  0.4391 -0.8811  0.2345
   31MPD2    H7  485   2.898   1.728  14.606 -1.0303 -1.6213 -1.1032
   32TCq2    C1  486   2.947   1.438  15.230 -0.0106 -0.8679 -0.1166
   32TCq2    O2  487   3.033   1.493  15.294  0.3652  0.6158 -0.1925
   32TCq2    C2  488   2.878   1.325  15.299 -0.2907  0.3763 -0.3746
   32TCq2    C3  489   2.754   1.286  15.257 -0.1451 -0.5104 -0.5441
   32TCq2    C4  490   2.678   1.207  15.340 -0.2389  0.3033  0.3521
   32TCq2    C5  491   2.723   1.172  15.464  0.1112  0.2838  0.1685
   32TCq2    C6  492   2.852   1.211  15.499  0.1147  0.4054 -0.4280
   32TCq2    C7  493   2.927   1.284  15.415 -0.2823 -0.2504 -0.7384
   32TCq2    C8  494   2.921   1.160  15.615  0.3393 -0.1460 -1.3232
   32TCq2    O4  495   3.040   1.127  15.616  0.1830  0.0023 -0.4900
   32TCq2    C9  496   2.548   1.160  15.288  0.2975  0.1821 -0.5472
   32TCq2    O5  497   2.493   1.069  15.356  0.2897  0.8152 -0.6764
   32TCq2    O6  498   2.493   1.229  15.201  0.3325 -0.0567 -0.5989
   32TCq2    H2  499   2.707   1.324  15.166 -0.3462 -0.5319 -0.4493
   32TCq2    H3  500   2.661   1.106  15.524 -0.6475 -0.7222 -1.7235
   32TCq2    H4  501   3.034   1.290  15.433 -0.8512 -1.0477  2.9792
   33MPD2     C  502   2.854   2.601  10.469 -0.8333  0.5361 -0.4546
   33MPD2    C1  503   2.941   2.712  10.451 -0.2937  0.1084 -0.1361
   33MPD2    C2  504   2.981   2.738  10.317  0.2333  0.7512 -0.7639
   33MPD2    C3  505   2.948   2.659  10.211 -0.0866  0.4219 -0.5587
   33MPD2    C4  506   2.857   2.550  10.241  0.3570  0.1991  0.4532
   33MPD2    C5  507   2.811   2.524  10.364  0.3361 -0.0491 -0.1503
   33MPD2     H  508   3.030   2.831  10.290 -0.1213  1.0105 -0.5288
   33MPD2    H1  509   2.819   2.484  10.164 -0.8004  1.1465  0.2118
   33MPD2    H2  510   2.814   2.578  10.568  0.4455  0.8209  0.1324
   33MPD2    H3  511   2.737   2.446  10.376 -0.7768  1.3100  1.8810
   33MPD2     N  512   2.970   2.691  10.074 -0.2717 -0.4641 -0.2112
   33MPD2    H5  513   2.921   2.638  10.002 -1.5722  0.4021  0.0254
   33MPD2    N1  514   2.988   2.791  10.557  0.4611 -0.1401  0.3647
   33MPD2    H7  515   2.964   2.763  10.652 -1.1746 -0.8725 -0.2718
   34TCq2    C1  516   3.059   2.775  10.017  0.4382  0.4458 -0.0165
   34TCq2    O2  517   3.150   2.834  10.074  0.5673 -0.6230 -0.2399
   34TCq2    C2  518   3.040   2.791   9.874  0.0018 -0.6117 -0.4784
   34TCq2    C3  519   2.946   2.721   9.802 -0.0167 -0.8645 -0.2777
   34TCq2    C4  520   2.925   2.746   9.672 -0.4656  0.1128 -0.1196
   34TCq2    C5  521   2.974   2.858   9.611 -0.2282  0.1099  0.4853
   34TCq2    C6  522   3.065   2.933   9.688  0.3308 -0.3307 -0.3134
   34TCq2    C7  523   3.109   2.893   9.815  0.2681 -0.6816  0.4213
   34TCq2    C8  524   3.105   3.066   9.654 -0.2869 -0.1743  0.0119
   34TCq2    O4  525   3.187   3.121   9.726  0.0623  0.3455  0.1015
   34TCq2    C9  526   2.826   2.671   9.607 -0.3724  0.1540  0.1665
   34TCq2    O5  527   2.775   2.577   9.677 -0.1669  0.3847 -0.1414
   34TCq2    O6  528   2.820   2.684   9.485  0.0865  0.0268  0.3704
   34TCq2    H2  529   2.893   2.640   9.851 -3.1617  0.4016 -1.5305
   34TCq2    H3  530   2.943   2.880   9.509 -0.0051  0.2794  0.4536
   34TCq2    H4  531   3.168   2.959   9.878  0.1083 -0.6596  0.5489
   35MPD2     C  532   0.020   0.332  11.896  0.7859 -0.2565 -0.6285
   35MPD2    C1  533   0.049   0.211  11.848 -0.4579  0.7704  0.0724
   35MPD2    C2  534   0.058   0.187  11.716  0.2619 -0.0444  0.0516
   35MPD2    C3  535   0.026   0.288  11.623  0.5200  0.1921  0.4289
   35MPD2    C4  536   4.713   0.413  11.674  0.3973  0.2898  0.4926
   35MPD2    C5  537   4.714   0.436  11.811  0.2718  0.4303 -0.1778
   35MPD2     H  538   0.079   0.086  11.684 -1.8186 -1.1138  2.0775
   35MPD2    H1  539   4.674   0.492  11.610  1.3090  0.1570 -0.2256
   35MPD2    H2  540   0.026   0.352  12.002 -2.2202 -0.3346 -0.4636
   35MPD2    H3  541   4.698   0.535  11.850  2.3465  1.0104 -0.8117
   35MPD2     N  542   0.009   0.261  11.486  0.0794 -0.2916  0.7391
   35MPD2    H5  543   4.718   0.162  11.469  2.8702 -0.6408  0.4926
   35MPD2    N1  544   0.077   0.116  11.946 -0.6128  0.9578 -0.0665
   35MPD2    H7  545   0.065   0.159  12.038  0.6242  0.5253  0.2872
   36TCq2    C1  546   4.711   0.340  11.379  0.5388 -0.0864  0.1628
   36TCq2    O2  547   0.012   0.459  11.370  0.8460  0.0539 -0.0857
   36TCq2    C2  548   4.662   0.277  11.264  0.2959  0.8550  0.3386
   36TCq2    C3  549   4.685   0.342  11.147  0.0496  0.4683 -0.7324
   36TCq2    C4  550   4.611   0.302  11.043  0.3317  0.2418 -0.3300
   36TCq2    C5  551   4.544   0.183  11.045  0.4227 -0.3059 -0.0134
   36TCq2    C6  552   4.532   0.112  11.162  0.1521 -0.1429 -0.4481
   36TCq2    C7  553   4.590   0.157  11.279 -0.2980 -0.5992 -0.3042
   36TCq2    C8  554   4.466   4.704  11.172  0.4101  0.8026 -0.0984
   36TCq2    O4  555   4.493   4.644  11.275 -0.3172 -0.1684  0.1948
   36TCq2    C9  556   4.615   0.376  10.918 -0.3058 -0.1418 -1.2327
   36TCq2    O5  557   4.567   0.325  10.812 -0.3955 -0.2227 -0.1687
   36TCq2    O6  558   4.657   0.496  10.917 -0.3037 -0.2118  0.3774
   36TCq2    H2  559   0.010   0.439  11.134  0.5378  0.1518 -1.2894
   36TCq2    H3  560   4.502   0.141  10.954  0.8031  0.9734 -0.7808
   36TCq2    H4  561   4.577   0.096  11.369 -0.5897 -0.6845 -0.4053
   37TMC2    C1  562   1.764   0.177  11.921  0.4103  0.3829  0.2717
   37TMC2    C2  563   1.663   0.110  11.850 -0.6350 -0.3120 -0.1824
   37TMC2    C3  564   1.693   0.063  11.726  0.6261  0.4762 -0.5401
   37TMC2    C4  565   1.886   0.199  11.857 -0.0556  0.3703  0.5809
   37TMC2    C5  566   1.915   0.135  11.739  0.1688  0.2914 -0.0872
   37TMC2    C6  567   1.814   0.076  11.666  0.6186 -0.3421 -0.2967
   37TMC2     C  568   1.739   0.208  12.058  0.0066  0.2858  0.6577
   37TMC2     O  569   1.621   0.226  12.079 -0.2680  0.1005 -0.3671
   37TMC2     H  570   1.573   0.085  11.904  0.3829 -3.4748  0.0171
   37TMC2    H1  571   1.971   0.234  11.913  0.4737  1.5058 -0.9308
   37TMC2    H2  572   1.828   0.060  11.560  0.2927 -0.6256 -0.2970
   37TMC2    C7  573   2.047   0.141  11.683 -0.4729 -0.6493  0.0037
   37TMC2    C8  574   1.582   0.030  11.643  0.3111  0.2992 -0.1040
   37TMC2    O1  575   2.115   0.230  11.736 -0.0661 -0.0798 -0.2519
   37TMC2    O2  576   1.477   0.089  11.650  0.6751 -0.2168  0.0954
   37TMC2    O5  577   1.615   4.659  11.541 -0.1385 -0.7604  0.4618
   37TMC2    H5  578   1.701   4.613  11.555  0.6661  0.6184  0.0858
   38MPD2     C  579   1.889   0.293  12.548 -0.0432  1.0093  0.5284
   38MPD2    C1  580   1.994   0.232  12.479 -0.1564 -0.2782  0.5711
   38MPD2    C2  581   1.978   0.209  12.337  0.4729  0.2360  0.5829
   38MPD2    C3  582   1.857   0.238  12.277 -0.9611  0.3155 -0.2778
   38MPD2    C4  583   1.759   0.301  12.343 -0.7566  0.1814  0.3832
   38MPD2    C5  584   1.775   0.329  12.482  0.3182  0.5832 -0.0073
   38MPD2     H  585   2.059   0.164  12.281  0.8956  2.9529 -0.9869
   38MPD2    H1  586   1.662   0.322  12.301 -0.4849 -0.7377 -0.6884
   38MPD2    H2  587   1.889   0.332  12.650  2.2162  1.6138  0.2921
   38MPD2    H3  588   1.689   0.377  12.527  0.0369  1.1318 -1.1292
   38MPD2     N  589   1.852   0.205  12.140 -0.4648  0.5041  0.1286
   38MPD2    H5  590   1.938   0.169  12.099 -0.0842  2.9523 -1.2468
   38MPD2    N1  591   2.113   0.189  12.534  0.0482 -0.2347  0.3947
   38MPD2    H7  592   2.180   0.145  12.472  0.5644 -0.2830  0.9909
   39MPD2     C  593   0.576   1.164   1.502  0.2865 -0.2366  0.2906
   39MPD2    C1  594   0.489   1.147   1.607  0.4276 -0.6497 -0.5100
   39MPD2    C2  595   0.359   1.199   1.590 -0.6872  0.5116 -0.6355
   39MPD2    C3  596   0.312   1.256   1.478  0.7541  0.6990  0.9184
   39MPD2    C4  597   0.394   1.262   1.370 -0.3206 -0.3346  0.4053
   39MPD2    C5  598   0.532   1.229   1.388  0.1939  0.2573  0.2690
   39MPD2     H  599   0.287   1.190   1.671 -1.7926  0.5605 -1.6202
   39MPD2    H1  600   0.370   1.312   1.277 -1.6519 -1.0509  0.3589
   39MPD2    H2  601   0.680   1.135   1.515 -0.3892 -2.6739  0.3996
   39MPD2    H3  602   0.612   1.242   1.316  0.5466 -1.1367  0.4115
   39MPD2     N  603   0.185   1.315   1.462 -0.2241  0.0830  0.4331
   39MPD2    H5  604   0.168   1.340   1.365 -0.2556 -0.1919  0.3656
   39MPD2    N1  605   0.537   1.086   1.725  0.3141 -0.6379  0.2156
   39MPD2    H7  606   0.637   1.073   1.724  0.2575 -1.2084  1.2843
   40TCq2    C1  607   0.465   1.061   1.849 -0.1502 -0.2331 -0.2575
   40TCq2    O2  608   0.349   1.085   1.887 -0.2189  0.4847  0.3117
   40TCq2    C2  609   0.567   1.030   1.951  0.5296  0.1567 -0.0685
   40TCq2    C3  610   0.517   1.004   2.076 -0.2367  0.1277  0.0311
   40TCq2    C4  611   0.596   0.995   2.186 -0.1608 -0.1061  0.2954
   40TCq2    C5  612   0.730   1.003   2.164 -0.2060  0.3137  0.6070
   40TCq2    C6  613   0.784   1.030   2.043  0.1476  0.2253  0.0233
   40TCq2    C7  614   0.703   1.053   1.936 -0.2868  0.1500  0.4640
   40TCq2    C8  615   0.929   1.050   2.019  0.2867  0.2081 -0.0676
   40TCq2    O4  616   1.005   0.988   2.093 -0.0042  0.3400  0.2665
   40TCq2    C9  617   0.544   0.971   2.318  0.2554  0.8516  0.7865
   40TCq2    O5  618   0.432   1.016   2.348 -0.9639 -0.1005 -0.4229
   40TCq2    O6  619   0.622   0.909   2.392 -0.0459 -0.1191  0.1963
   40TCq2    H2  620   0.414   0.972   2.091 -0.4897  0.7602 -0.3507
   40TCq2    H3  621   0.794   0.985   2.250  1.3099  1.0683 -0.3622
   40TCq2    H4  622   0.747   1.059   1.837 -1.6588  2.7669  0.0167
   41TMC2    C1  623   4.646   0.145  13.614 -0.2153  0.5841 -0.3391
   41TMC2    C2  624   4.705   0.118  13.738  0.3036  0.2136  0.3132
   41TMC2    C3  625   0.115   0.155  13.746 -0.2167 -0.1153 -0.1532
   41TMC2    C4  626   4.709   0.207  13.506  0.6899 -0.2389  0.1037
   41TMC2    C5  627   0.111   0.240  13.537  0.4713 -0.1850 -0.3160
   41TMC2    C6  628   0.185   0.224  13.647 -0.2346 -0.5629  0.6716
   41TMC2     C  629   4.505   0.109  13.595  0.7585  0.4528  0.0179
   41TMC2     O  630   4.461   0.129  13.484  0.5754  0.3248  0.2890
   41TMC2     H  631   4.665   0.051  13.814  0.0612  1.4786  1.2887
   41TMC2    H1  632   4.648   0.222  13.418  2.8837  2.1669 -1.0002
   41TMC2    H2  633   0.291   0.246  13.657 -0.2884  0.1026 -0.2074
   41TMC2    C7  634   0.188   0.307  13.429  0.2888  0.3670  1.1463
   41TMC2    C8  635   0.190   0.091  13.850 -0.4621 -0.4130  0.7491
   41TMC2    O1  636   0.277   0.382  13.458 -0.2290 -0.1844  0.7255
   41TMC2    O2  637   0.185   4.693  13.871 -0.0449 -0.4089  0.0439
   41TMC2    O5  638   0.297   0.170  13.886  0.0669 -0.1152  0.1380
   41TMC2    H5  639   0.289   0.267  13.870 -0.9413 -0.4388 -1.3296
   42MPD2     C  640   4.244   0.011  13.644  0.4435 -0.3418  0.4874
   42MPD2    C1  641   4.313   0.071  13.745  0.3817  0.7643  0.5713
   42MPD2    C2  642   4.246   0.112  13.859 -0.1765 -0.1217 -0.2321
   42MPD2    C3  643   4.105   0.106  13.866 -0.0301 -0.7093  0.3298
   42MPD2    C4  644   4.036   0.043  13.764 -0.0910 -0.2980  0.0448
   42MPD2    C5  645   4.106   4.719  13.658 -0.2038  0.2407  0.4829
   42MPD2     H  646   4.307   0.150  13.941  0.3571  1.7139 -1.4863
   42MPD2    H1  647   3.930   0.019  13.766 -0.0546 -0.4558  0.0550
   42MPD2    H2  648   4.285   4.699  13.550  0.2762 -1.6523  0.8999
   42MPD2    H3  649   4.050   4.682  13.573  0.0256 -0.9352  0.8423
   42MPD2     N  650   4.040   0.156  13.981 -0.8480 -0.3071  0.0977
   42MPD2    H5  651   4.103   0.198  14.049 -1.5200 -0.3643  0.7613
   42MPD2    N1  652   4.448   0.099  13.720 -0.5982 -0.5964  0.3001
   42MPD2    H7  653   4.500   0.108  13.807 -0.0228 -2.7452  0.1504
   43MPD2     C  654   0.751   2.772   1.295  0.3862  0.0421 -0.7226
   43MPD2    C1  655   0.699   2.762   1.168  0.0085  0.1903  1.1960
   43MPD2    C2  656   0.641   2.876   1.105 -0.2861  0.0021  0.5510
   43MPD2    C3  657   0.645   2.995   1.168  0.2544  0.4474  0.2606
   43MPD2    C4  658   0.705   3.008   1.295 -0.1173 -0.7104 -0.1888
   43MPD2    C5  659   0.763   2.896   1.354 -0.5209  0.4769 -0.0666
   43MPD2     H  660   0.596   2.867   1.007 -1.1202 -0.1728  0.9521
   43MPD2    H1  661   0.708   3.104   1.346 -0.0234 -0.5229 -0.5497
   43MPD2    H2  662   0.778   2.690   1.361 -0.3234 -0.1131 -0.6186
   43MPD2    H3  663   0.813   2.900   1.450 -1.3458 -1.0033  0.4156
   43MPD2     N  664   0.592   3.120   1.127 -1.3131  0.4820  0.2676
   43MPD2    H5  665   0.591   3.199   1.192 -0.5776  1.9712 -1.5186
   43MPD2    N1  666   0.696   2.647   1.093  0.0289 -0.2983  0.2290
   43MPD2    H7  667   0.660   2.653   0.998 -2.7242 -0.2260  1.3011
   44TCq2    C1  668   0.646   3.603   0.970  0.5960 -0.2837 -0.3993
   44TCq2    O2  669   0.635   3.691   0.891 -0.1556 -0.3330 -0.3686
   44TCq2    C2  670   0.544   3.495   0.959 -0.8181  0.5687 -0.6175
   44TCq2    C3  671   0.441   3.519   0.871  0.1816  0.6433  0.1041
   44TCq2    C4  672   0.345   3.423   0.868 -0.8633 -0.0167 -0.2266
   44TCq2    C5  673   0.369   3.300   0.929  0.1441  0.1708 -0.4505
   44TCq2    C6  674   0.482   3.275   1.001 -0.0042 -0.6773  0.5816
   44TCq2    C7  675   0.576   3.371   1.008  0.1870  0.1758 -0.0842
   44TCq2    C8  676   0.510   3.135   1.025  0.3454 -0.3616  0.5326
   44TCq2    O4  677   0.456   3.046   0.956 -0.2184 -0.2601  0.4094
   44TCq2    C9  678   0.241   3.435   0.767  0.4938 -0.0755  0.5769
   44TCq2    O5  679   0.171   3.336   0.744 -0.2459  0.3927  0.5406
   44TCq2    O6  680   0.237   3.541   0.699  0.4767  0.2289  0.8886
   44TCq2    H2  681   0.427   3.610   0.814 -0.5366 -1.5448 -3.1538
   44TCq2    H3  682   0.306   3.214   0.913 -1.5777  1.3173  0.1531
   44TCq2    H4  683   0.671   3.356   1.057  0.3611  0.3020 -0.3828
   45TMC2    C1  684   1.872   4.498   9.957  1.3455 -0.0092  0.1034
   45TMC2    C2  685   1.994   4.449   9.921  0.3313 -0.5471  0.0537
   45TMC2    C3  686   2.096   4.536   9.931  0.2091  0.3156  0.3869
   45TMC2    C4  687   1.861   4.630   9.998 -0.0821 -0.0838 -0.0761
   45TMC2    C5  688   1.964   4.711   9.999  0.1574 -0.2232  0.1567
   45TMC2    C6  689   2.087   4.667   9.968 -0.4072 -0.6143  0.8671
   45TMC2     C  690   1.761   4.423   9.897  0.6945 -0.4682 -0.6452
   45TMC2     O  691   1.786   4.310   9.850  0.5966 -0.0447  0.0874
   45TMC2     H  692   2.014   4.350   9.883 -2.0169 -0.2023 -2.0727
   45TMC2    H1  693   1.766   4.672  10.030 -0.6343 -1.3744 -0.0189
   45TMC2    H2  694   2.165   0.017   9.986 -0.9221  0.0347  0.4762
   45TMC2    C7  695   1.938   0.133   9.990  0.2310 -0.1170  0.2254
   45TMC2    C8  696   2.225   4.487   9.894  0.2296 -0.8309 -0.9944
   45TMC2    O1  697   1.866   0.184  10.073  0.0497  0.2010 -0.1102
   45TMC2    O2  698   2.283   4.387   9.936 -0.2894  0.4565 -0.4584
   45TMC2    O5  699   2.282   4.601   9.854  0.3801  0.1813 -0.5962
   45TMC2    H5  700   2.220   4.661   9.808 -1.3653  0.1813  1.7779
   46MPD2     C  701   1.488   4.332   9.775 -0.5546 -0.2437 -0.3340
   46MPD2    C1  702   1.512   4.459   9.833 -0.4745  1.0058 -0.1802
   46MPD2    C2  703   1.408   4.550   9.822 -0.3466 -0.6886 -0.3643
   46MPD2    C3  704   1.286   4.523   9.760  0.0956 -0.1921 -0.6864
   46MPD2    C4  705   1.269   4.402   9.700 -0.1516  0.2824 -0.2733
   46MPD2    C5  706   1.373   4.306   9.708  0.3585  1.0541  0.0809
   46MPD2     H  707   1.425   4.650   9.860 -0.9361  0.0957 -2.1398
   46MPD2    H1  708   1.180   4.369   9.648 -0.6202  2.5209 -0.9039
   46MPD2    H2  709   1.561   4.253   9.763 -1.8443 -1.3417 -0.9724
   46MPD2    H3  710   1.350   4.206   9.673  0.5898  0.5238  1.4289
   46MPD2     N  711   1.184   4.624   9.758  0.2414 -0.2807 -0.2475
   46MPD2    H5  712   1.213   4.716   9.789 -0.1247  0.2215 -1.3795
   46MPD2    N1  713   1.642   4.501   9.886  0.2413  0.1222 -0.1070
   46MPD2    H7  714   1.638   4.597   9.919  0.3154  0.0235  0.1957
   47TMC2    C1  715   3.622   0.979   9.053  0.2635 -0.6359  0.7422
   47TMC2    C2  716   3.593   1.036   8.932 -0.0441  0.5781  0.3697
   47TMC2    C3  717   3.466   1.095   8.923  0.3388  0.6568 -0.5005
   47TMC2    C4  718   3.532   0.984   9.159 -0.3829 -0.3486  0.0133
   47TMC2    C5  719   3.409   1.040   9.145 -0.0289 -0.1667 -0.3182
   47TMC2    C6  720   3.375   1.110   9.031 -0.3785 -0.5509 -0.3791
   47TMC2     C  721   3.743   0.903   9.060  0.6588  0.0603 -0.2651
   47TMC2     O  722   3.830   0.940   8.988 -0.1760 -0.0427  0.1045
   47TMC2     H  723   3.653   1.021   8.843 -1.6308 -0.6016 -0.5117
   47TMC2    H1  724   3.573   0.959   9.257  0.4430  0.6670 -0.0736
   47TMC2    H2  725   3.282   1.165   9.027 -1.0055 -1.7074 -1.5153
   47TMC2    C7  726   3.307   1.038   9.250  0.2208  0.4051 -0.2332
   47TMC2    C8  727   3.417   1.134   8.788  0.0616  0.0342 -0.1961
   47TMC2    O1  728   3.202   1.101   9.233  0.6890  0.5497 -0.3526
   47TMC2    O2  729   3.298   1.119   8.757  0.9281  0.4121 -0.6573
   47TMC2    O5  730   3.517   1.172   8.708 -0.2110 -0.4258  0.0942
   47TMC2    H5  731   3.598   1.187   8.762 -0.1981  0.2523 -0.1252
   48MPD2     C  732   3.983   0.753   9.147 -0.2992 -0.0349 -0.4543
   48MPD2    C1  733   3.853   0.730   9.190 -0.1087  0.3519 -0.1821
   48MPD2    C2  734   3.837   0.624   9.274 -0.2697 -0.0939  0.2549
   48MPD2    C3  735   3.936   0.541   9.317 -0.4572 -0.5133 -0.3137
   48MPD2    C4  736   4.062   0.570   9.277 -0.6346 -0.4925 -0.2202
   48MPD2    C5  737   4.087   0.672   9.194 -0.0759 -0.0652 -0.2282
   48MPD2     H  738   3.743   0.593   9.317 -1.7964 -0.9858 -3.7044
   48MPD2    H1  739   4.148   0.512   9.309  0.3606  1.9262  1.5365
   48MPD2    H2  740   4.006   0.824   9.069  2.8923  0.7480  1.1883
   48MPD2    H3  741   4.181   0.691   9.146 -1.1462 -1.9860 -3.0774
   48MPD2     N  742   3.891   0.434   9.398 -0.0648  0.4328 -0.4739
   48MPD2    H5  743   3.793   0.415   9.412  0.5146 -0.8322  1.8236
   48MPD2    N1  744   3.740   0.804   9.154 -0.3191 -0.6102  0.2825
   48MPD2    H7  745   3.648   0.787   9.193 -0.8029  0.3244 -0.4795
   49MPD2     C  746   1.971   3.184  10.004  0.0068 -0.3601  0.1422
   49MPD2    C1  747   1.864   3.097  10.031  0.3411 -0.3460  0.2166
   49MPD2    C2  748   1.857   3.045  10.158 -0.0988  0.1452  0.0144
   49MPD2    C3  749   1.953   3.078  10.251 -0.1361 -0.2440  0.9284
   49MPD2    C4  750   2.062   3.143  10.216 -1.0776 -0.1543  0.2674
   49MPD2    C5  751   2.071   3.202  10.095 -0.0719 -0.2684  0.0266
   49MPD2     H  752   1.778   2.977  10.186  0.6146 -0.3408  0.8678
   49MPD2    H1  753   2.152   3.143  10.277 -0.4202  1.8635 -0.7198
   49MPD2    H2  754   1.987   3.247   9.917 -1.6358  0.2269  0.2690
   49MPD2    H3  755   2.162   3.255  10.069 -0.2984 -1.0147 -2.3144
   49MPD2     N  756   1.956   3.020  10.382  0.6616 -0.6291  0.8518
   49MPD2    H5  757   2.042   3.047  10.429  1.0709 -1.2051  0.4449
   49MPD2    N1  758   1.771   3.055   9.929  0.4222 -0.1523 -0.0001
   49MPD2    H7  759   1.694   2.991   9.950 -0.0599 -0.1514 -1.7446
   50TCq2    C1  760   1.790   3.077   9.792 -0.2852 -0.3483  0.0829
   50TCq2    O2  761   1.867   3.146   9.728  0.0694  0.2904  0.4556
   50TCq2    C2  762   1.695   3.007   9.709  0.2621 -0.1825 -0.0584
   50TCq2    C3  763   1.724   3.015   9.576  0.4446 -0.2659 -0.4519
   50TCq2    C4  764   1.651   2.937   9.487  0.1791  0.1921  0.0813
   50TCq2    C5  765   1.560   2.853   9.532 -0.5407  0.1111 -0.8618
   50TCq2    C6  766   1.537   2.845   9.665  0.4162  0.4590  0.4792
   50TCq2    C7  767   1.613   2.910   9.755  0.3580 -0.3677 -0.6122
   50TCq2    C8  768   1.425   2.759   9.714 -0.4097 -0.4147  0.0542
   50TCq2    O4  769   1.439   2.703   9.818  0.0144  0.6721  0.3610
   50TCq2    C9  770   1.690   2.933   9.348 -0.1014 -0.9459  0.0851
   50TCq2    O5  771   1.812   2.963   9.315 -0.4280 -0.8400  0.3116
   50TCq2    O6  772   1.595   2.903   9.264  0.5061  0.1791  0.0009
   50TCq2    H2  773   1.787   3.086   9.524  1.9700 -2.2434 -1.2793
   50TCq2    H3  774   1.507   2.797   9.457  1.0433 -1.2422 -0.9504
   50TCq2    H4  775   1.578   2.908   9.857  1.8555 -2.2744 -0.1401
   51MPD2     C  776   2.328   0.352   2.063  0.2596  0.6692  0.1869
   51MPD2    C1  777   2.440   0.420   2.044 -0.7419  0.4053 -0.3124
   51MPD2    C2  778   2.531   0.447   2.144 -0.1046  0.3467  0.3926
   51MPD2    C3  779   2.513   0.391   2.268 -0.0927 -0.8931 -0.4483
   51MPD2    C4  780   2.395   0.323   2.293  0.2168  0.3480  0.2460
   51MPD2    C5  781   2.304   0.313   2.194 -0.5298  0.0880  0.3713
   51MPD2     H  782   2.620   0.505   2.119 -0.0316  0.9980  2.1570
   51MPD2    H1  783   2.365   0.281   2.388 -0.0685 -1.4921 -0.6695
   51MPD2    H2  784   2.249   0.336   1.990 -0.2461 -2.5521  1.4398
   51MPD2    H3  785   2.209   0.265   2.216 -0.3380 -0.2319  0.5088
   51MPD2     N  786   2.605   0.412   2.376  0.1523 -0.0968  0.1859
   51MPD2    H5  787   2.580   0.369   2.465 -2.6393  0.0964 -0.5000
   51MPD2    N1  788   2.472   0.468   1.913  0.8693  0.0272 -0.2742
   51MPD2    H7  789   2.556   0.524   1.901  1.1434 -0.3753 -0.2164
   52TCq2    C1  790   2.705   0.503   2.382 -0.2253  0.3983 -0.1743
   52TCq2    O2  791   2.760   0.565   2.291 -0.1210 -0.2066  0.0211
   52TCq2    C2  792   2.767   0.520   2.506  0.0555  0.2241  0.3540
   52TCq2    C3  793   2.770   0.413   2.594  0.4353 -0.0242  0.1020
   52TCq2    C4  794   2.815   0.436   2.718 -1.0265 -0.1755  0.1290
   52TCq2    C5  795   2.867   0.557   2.761  0.3618 -0.0889  0.6557
   52TCq2    C6  796   2.871   0.655   2.666 -0.8841 -1.0020  0.3746
   52TCq2    C7  797   2.825   0.641   2.535  0.7411  0.0207 -0.0016
   52TCq2    C8  798   2.958   0.769   2.693 -0.3258  0.1197 -0.0386
   52TCq2    O4  799   2.959   0.849   2.599 -0.2710 -0.3404  0.0441
   52TCq2    C9  800   2.794   0.340   2.824  0.3858  0.1043  0.3683
   52TCq2    O5  801   2.709   0.251   2.806 -0.3805 -0.4220 -0.0055
   52TCq2    O6  802   2.822   0.375   2.944 -0.1381  0.4212 -0.1936
   52TCq2    H2  803   2.725   0.316   2.578  1.0110 -0.3722  0.6311
   52TCq2    H3  804   2.904   0.572   2.862 -1.0326 -0.3007  1.2074
   52TCq2    H4  805   2.837   0.719   2.461 -2.4820  0.9839  0.4483
   53TMC2    C1  806   2.727   0.319  11.516 -0.5630 -0.1650 -0.2088
   53TMC2    C2  807   2.861   0.287  11.530 -0.3600  0.2050  0.1103
   53TMC2    C3  808   2.920   0.345  11.650 -0.0297 -0.0370  0.3863
   53TMC2    C4  809   2.654   0.390  11.608 -0.5706  0.9247 -0.2689
   53TMC2    C5  810   2.718   0.438  11.723 -0.6601  0.4983  0.3485
   53TMC2    C6  811   2.846   0.408  11.743  0.6126 -0.0881 -0.2533
   53TMC2     C  812   2.650   0.217  11.445 -0.2270  0.2591  0.1833
   53TMC2     O  813   2.709   0.132  11.377 -0.8518 -0.6057  0.0126
   53TMC2     H  814   2.923   0.255  11.448 -0.8197 -2.7622  0.9315
   53TMC2    H1  815   2.549   0.418  11.597 -0.1737  1.0729 -3.9512
   53TMC2    H2  816   2.901   0.465  11.817 -0.5583  0.4453  0.1975
   53TMC2    C7  817   2.639   0.448  11.843 -0.2581 -0.2266  0.1929
   53TMC2    C8  818   3.065   0.362  11.658  0.1584 -0.6006 -0.3810
   53TMC2    O1  819   2.516   0.467  11.828 -0.0971  0.3842  0.4340
   53TMC2    O2  820   3.118   0.440  11.733  0.4956  0.0697 -0.2257
   53TMC2    O5  821   3.129   0.283  11.572 -0.2825  0.5802 -0.2729
   53TMC2    H5  822   3.086   0.198  11.548 -0.2018  0.9746 -1.7735
   54MPD2     C  823   2.468   4.698  11.431 -0.6833  0.1082 -0.0277
   54MPD2    C1  824   2.436   0.099  11.477  0.1568 -0.4971 -1.1097
   54MPD2    C2  825   2.313   0.116  11.538 -0.1287 -0.9887  0.1130
   54MPD2    C3  826   2.214   0.015  11.544  0.4067  0.4241 -0.5435
   54MPD2    C4  827   2.238   4.618  11.480  0.1382  0.3506  0.8762
   54MPD2    C5  828   2.368   4.599  11.436  0.0786 -0.1373  0.2312
   54MPD2     H  829   2.292   0.213  11.581  1.1600 -0.1759 -1.0661
   54MPD2    H1  830   2.168   4.536  11.473  0.3277  0.3021 -0.4287
   54MPD2    H2  831   2.560   4.664  11.386  0.0342  0.3978  1.2026
   54MPD2    H3  832   2.376   4.509  11.375 -0.8754  0.2846 -0.5086
   54MPD2     N  833   2.087   0.028  11.609  0.1481 -0.3670  0.1412
   54MPD2    H5  834   2.018   4.678  11.605 -1.0704  0.8190 -0.8577
   54MPD2    N1  835   2.521   0.206  11.490  0.3895 -0.7900  0.1794
   54MPD2    H7  836   2.480   0.288  11.535  0.0473 -0.6098 -0.4458
   55MPD2     C  837   3.682   2.353  17.425 -0.3502 -0.2183  0.6427
   55MPD2    C1  838   3.698   2.344  17.565  0.0620  0.4104  0.5800
   55MPD2    C2  839   3.697   2.460  17.634  0.1822  0.7899 -0.3933
   55MPD2    C3  840   3.661   2.579  17.574 -0.1365  0.1364 -0.0440
   55MPD2    C4  841   3.636   2.587  17.441  0.2704  0.3449 -0.4062
   55MPD2    C5  842   3.657   2.476  17.370  1.1576  0.9624 -0.3920
   55MPD2     H  843   3.726   2.469   0.043 -0.3579  0.6199 -0.2327
   55MPD2    H1  844   3.619   2.684  17.396  1.2369  0.7213  0.0320
   55MPD2    H2  845   3.699   2.266  17.362  1.2143  0.9403 -0.5386
   55MPD2    H3  846   3.647   2.477  17.262  1.0396 -2.3529 -0.4122
   55MPD2     N  847   3.667   2.698  17.651 -0.7158  0.1736  0.0918
   55MPD2    H5  848   3.717   2.697   0.044 -1.6212  0.5475  0.6096
   55MPD2    N1  849   3.727   2.221  17.625 -0.0099 -0.6201 -0.4248
   55MPD2    H7  850   3.750   2.140  17.568  1.7646  0.1965 -0.8444
   56TCq2    C1  851   3.741   2.197   0.064 -0.9206  0.3761 -0.1377
   56TCq2    O2  852   3.708   2.273   0.154 -0.1313  0.1055 -0.4246
   56TCq2    C2  853   3.779   2.064   0.095 -0.1625 -0.1806  0.0624
   56TCq2    C3  854   3.831   1.977   0.005  0.4820 -0.1533 -0.7825
   56TCq2    C4  855   3.884   1.863   0.045 -0.2636  0.1902 -0.1150
   56TCq2    C5  856   3.863   1.815   0.172  0.0925 -0.6335  0.5569
   56TCq2    C6  857   3.794   1.893   0.259  0.2568 -0.7564 -0.0390
   56TCq2    C7  858   3.750   2.018   0.220  0.1248  0.6772  0.0559
   56TCq2    C8  859   3.762   1.848   0.391 -0.0170  0.7069 -0.0593
   56TCq2    O4  860   3.790   1.729   0.421  0.1255  0.1382 -0.3226
   56TCq2    C9  861   3.961   1.776  17.654  0.1397 -0.2632  0.1697
   56TCq2    O5  862   4.000   1.664   0.004  0.1136  0.2780  0.1471
   56TCq2    O6  863   4.022   1.820  17.552  0.1966  0.5002  0.1140
   56TCq2    H2  864   3.860   2.013  17.602 -3.3555 -0.2010 -1.9264
   56TCq2    H3  865   3.902   1.719   0.201  0.6963 -0.1321  1.4167
   56TCq2    H4  866   3.693   2.088   0.279 -0.3941  0.4464 -0.1674
   57TMC2    C1  867   3.039   4.123  14.012  0.5063 -1.0495  0.1854
   57TMC2    C2  868   3.111   4.124  14.125 -0.1420 -0.0105  0.5605
   57TMC2    C3  869   3.241   4.076  14.115  0.2800  0.5810 -0.5126
   57TMC2    C4  870   3.080   4.066  13.895  0.4264 -0.0892  0.0968
   57TMC2    C5  871   3.202   4.006  13.894  0.2890 -0.1811 -0.2255
   57TMC2    C6  872   3.283   4.013  14.005 -0.2142  0.4611 -0.0221
   57TMC2     C  873   2.895   4.133  14.029 -0.5031 -0.6971  0.0245
   57TMC2     O  874   2.851   4.218  14.110 -0.7183  0.1093 -0.7244
   57TMC2     H  875   3.078   4.190  14.205 -1.0996  1.9171 -1.4240
   57TMC2    H1  876   3.016   4.057  13.807  0.7662  1.2155 -0.2773
   57TMC2    H2  877   3.382   3.970  13.990 -0.3307  0.0497  0.3730
   57TMC2    C7  878   3.246   3.943  13.768 -0.1236 -0.5818  0.1429
   57TMC2    C8  879   3.306   4.045  14.236 -0.9117 -0.5762 -0.0933
   57TMC2    O1  880   3.191   3.978  13.664 -0.1779 -0.4451 -0.5680
   57TMC2    O2  881   3.419   4.003  14.229  0.4786  0.0362  0.2316
   57TMC2    O5  882   3.216   4.010  14.327  0.8692 -0.0259 -0.7639
   57TMC2    H5  883   3.122   4.002  14.301  0.1916 -2.1645  2.3103
   58MPD2     C  884   2.462   3.865  14.082 -0.7145 -0.1299  0.8459
   58MPD2    C1  885   2.503   3.976  14.151 -0.8706  0.2599 -0.5719
   58MPD2    C2  886   2.626   4.033  14.122 -0.5134 -0.4802 -0.0970
   58MPD2    C3  887   2.701   3.972  14.018 -0.3529 -0.4708  0.5076
   58MPD2    C4  888   2.669   3.859  13.964  0.0693  0.0673 -0.0726
   58MPD2    C5  889   2.549   3.804  13.997  0.9288  0.7879 -0.3191
   58MPD2     H  890   2.662   4.115  14.182  2.2963 -1.5283 -0.3558
   58MPD2    H1  891   2.723   3.815  13.881 -1.5926 -2.6182  0.2636
   58MPD2    H2  892   2.372   3.808  14.101 -0.9816  0.5753  1.6845
   58MPD2    H3  893   2.520   3.718  13.939  0.3925  0.6140  0.2088
   58MPD2     N  894   2.828   4.021  13.984 -0.1623 -0.1470  0.3361
   58MPD2    H5  895   2.878   3.951  13.930 -0.2083  1.3868 -1.6580
   58MPD2    N1  896   2.422   4.040  14.248  0.2587 -0.3764 -0.1533
   58MPD2    H7  897   2.461   4.121  14.295  1.4406 -0.3811 -1.1022
   59MPD2     C  898   0.672   4.035  13.414 -0.2039 -0.1128  0.3950
   59MPD2    C1  899   0.745   4.102  13.322 -0.4345  0.1280  0.3692
   59MPD2    C2  900   0.843   4.186  13.375 -0.2540 -0.7023  0.5413
   59MPD2    C3  901   0.866   4.206  13.513  0.7763  0.0247 -0.3227
   59MPD2    C4  902   0.783   4.140  13.596  0.8704 -0.4239 -0.6942
   59MPD2    C5  903   0.684   4.059  13.546 -0.6481  0.0376 -0.5523
   59MPD2     H  904   0.907   4.241  13.307 -0.0708 -0.6075  0.7907
   59MPD2    H1  905   0.785   4.159  13.703 -0.2009  2.1398 -1.1231
   59MPD2    H2  906   0.598   3.958  13.392 -1.7372  1.1749  1.0573
   59MPD2    H3  907   0.620   4.006  13.616  0.5675 -0.0470  0.5116
   59MPD2     N  908   0.960   4.290  13.581  0.1675 -0.0775 -0.6926
   59MPD2    H5  909   0.961   4.291  13.682 -0.0120 -0.1712 -0.6896
   59MPD2    N1  910   0.731   4.095  13.181 -0.1837 -0.1982  0.3440
   59MPD2    H7  911   0.800   4.144  13.125 -0.1314  0.1535  0.7123
   60TCq2    C1  912   0.640   4.011  13.113  0.9234  0.3187  0.2874
   60TCq2    O2  913   0.561   3.930  13.165  0.2879  0.5634 -0.6046
   60TCq2    C2  914   0.647   4.012  12.966 -0.0339  0.0487 -0.3425
   60TCq2    C3  915   0.601   3.905  12.902 -0.8488  0.4633  0.1798
   60TCq2    C4  916   0.618   3.895  12.766  0.4713  0.6596  0.1829
   60TCq2    C5  917   0.679   4.003  12.697 -0.2804  0.3634  0.7233
   60TCq2    C6  918   0.724   4.112  12.766 -0.5495 -1.1674 -0.5895
   60TCq2    C7  919   0.701   4.120  12.900 -0.1907 -0.5043 -0.0576
   60TCq2    C8  920   0.752   4.234  12.692  0.1509 -0.6938 -0.5058
   60TCq2    O4  921   0.844   4.306  12.732 -0.1922 -0.6764  0.1893
   60TCq2    C9  922   0.571   3.786  12.684 -0.2247  0.1273 -0.5298
   60TCq2    O5  923   0.534   3.686  12.751 -0.0188 -0.1301  0.4288
   60TCq2    O6  924   0.561   3.802  12.560 -0.0474  0.0897 -0.0510
   60TCq2    H2  925   0.560   3.820  12.956 -1.8421  0.5637 -0.4092
   60TCq2    H3  926   0.702   3.986  12.593  1.4660 -0.8939  1.3196
   60TCq2    H4  927   0.741   4.207  12.950 -0.5098 -0.1909 -0.3351
   61MPD2     C  928   0.277   0.541  14.267  0.0616 -0.0358 -0.4262
   61MPD2    C1  929   0.143   0.535  14.301  0.1372  0.3975 -0.0417
   61MPD2    C2  930   0.054   0.622  14.250 -0.1701  0.1067  0.2305
   61MPD2    C3  931   0.095   0.721  14.161 -0.0075  0.1525  0.0722
   61MPD2    C4  932   0.231   0.729  14.143  0.4180  0.2458 -0.4374
   61MPD2    C5  933   0.320   0.635  14.186  0.2345 -0.3976  0.4351
   61MPD2     H  934   4.674   0.620  14.284 -0.2194 -2.8543 -0.0875
   61MPD2    H1  935   0.260   0.811  14.078 -0.4054  0.9187  0.0427
   61MPD2    H2  936   0.351   0.482  14.320  1.2709  0.2027 -1.8632
   61MPD2    H3  937   0.425   0.636  14.160  1.3381 -0.1472  4.9785
   61MPD2     N  938   0.011   0.812  14.098 -0.8228 -0.3143 -0.4549
   61MPD2    H5  939   0.050   0.894  14.052 -0.7569  1.0895  2.1152
   61MPD2    N1  940   0.087   0.451  14.399 -0.0491 -0.5901 -0.3635
   61MPD2    H7  941   4.714   0.473  14.424  0.2706  1.7651 -1.2184
   62TCq2    C1  942   0.161   0.354  14.467 -0.8598  0.3525 -0.0570
   62TCq2    O2  943   0.270   0.305  14.432 -0.1331  0.2434  0.0706
   62TCq2    C2  944   0.102   0.304  14.590 -0.7419 -0.0705  0.8851
   62TCq2    C3  945   0.188   0.225  14.668 -0.4799 -0.7278  0.4401
   62TCq2    C4  946   0.163   0.231  14.800 -0.0887 -0.1900 -0.4926
   62TCq2    C5  947   0.067   0.307  14.860  0.1752 -0.3237  1.2778
   62TCq2    C6  948   4.700   0.369  14.782 -0.5455 -0.5260  0.0142
   62TCq2    C7  949   4.714   0.370  14.645  0.2667  0.2444 -0.3649
   62TCq2    C8  950   4.619   0.468  14.840  0.5096  0.6574  0.6291
   62TCq2    O4  951   4.555   0.537  14.762 -0.3062  0.1226 -0.1816
   62TCq2    C9  952   0.246   0.137  14.869  0.1398 -0.1098 -0.3720
   62TCq2    O5  953   0.325   0.061  14.803 -0.2261 -0.3790  1.0680
   62TCq2    O6  954   0.265   0.154  14.990  0.5209 -0.3259  0.8822
   62TCq2    H2  955   0.283   0.188  14.633 -1.5079 -4.0606  1.1978
   62TCq2    H3  956   0.063   0.299  14.968  0.9214 -2.8131  1.1216
   62TCq2    H4  957   4.650   0.432  14.584  0.5147 -0.3783 -1.2609
   63TMC2    C1  958   3.660   0.501  10.463 -0.1203 -0.9543 -0.9560
   63TMC2    C2  959   3.754   0.491  10.560  0.2624 -0.6548 -0.1776
   63TMC2    C3  960   3.843   0.593  10.574  0.2545  0.2572  0.4079
   63TMC2    C4  961   3.645   0.616  10.388  0.3620  0.4843  0.2565
   63TMC2    C5  962   3.733   0.719  10.410  0.2769 -0.3301  0.2725
   63TMC2    C6  963   3.839   0.703  10.491  0.0795 -0.2620  0.2614
   63TMC2     C  964   3.559   0.402  10.433 -0.0021 -1.0828 -0.5720
   63TMC2     O  965   3.459   0.437  10.375  0.2190 -0.1089 -0.1932
   63TMC2     H  966   3.745   0.401  10.619  3.7989 -0.8580  0.0885
   63TMC2    H1  967   3.551   0.642  10.343  1.1614  2.0506 -0.5076
   63TMC2    H2  968   3.893   0.794  10.515  1.0859 -1.1433  1.3947
   63TMC2    C7  969   3.744   0.823  10.312 -0.3544 -0.0567 -0.4383
   63TMC2    C8  970   3.938   0.582  10.670 -0.1414 -0.1687  0.1522
   63TMC2    O1  971   3.646   0.866  10.256  0.4629  0.1587  0.1368
   63TMC2    O2  972   4.043   0.645  10.665  0.1671  0.4009 -0.3290
   63TMC2    O5  973   3.880   0.534  10.787 -0.0063 -0.3129 -0.1421
   63TMC2    H5  974   3.782   0.527  10.789  0.0217 -0.9531 -1.1540
   64MPD2     C  975   3.425   4.626  10.382  0.3869  0.0492  0.5158
   64MPD2    C1  976   3.549   4.636  10.446  0.0023  0.4733  0.2603
   64MPD2    C2  977   3.595   0.034  10.484 -0.3308 -0.3614 -0.1601
   64MPD2    C3  978   3.539   0.153  10.439  0.0047  0.0708  0.0796
   64MPD2    C4  979   3.420   0.147  10.366 -0.5045  0.0465  0.3898
   64MPD2    C5  980   3.366   0.020  10.340 -0.4897 -0.6262  0.2043
   64MPD2     H  981   3.689   0.043  10.538 -0.2585  0.7325 -0.4608
   64MPD2    H1  982   3.376   0.233  10.317 -3.2325  0.6047  3.7786
   64MPD2    H2  983   3.389   4.531  10.345 -0.6188  0.1760  1.1686
   64MPD2    H3  984   3.280   0.019  10.273 -0.2884 -2.1953 -0.0195
   64MPD2     N  985   3.602   0.277  10.475  0.4831  0.1010 -0.4285
   64MPD2    H5  986   3.679   0.263  10.539  0.8400  2.7096 -0.3034
   64MPD2    N1  987   3.629   4.523  10.466 -0.2254  0.1557 -0.2026
   64MPD2    H7  988   3.720   4.540  10.506  0.7498 -0.2516 -2.2080
   65MPD2     C  989   0.671   0.077  15.885 -0.3075 -0.6208  0.2064
   65MPD2    C1  990   0.666   0.035  15.754  0.9812  0.3709  0.4927
   65MPD2    C2  991   0.624   4.628  15.732 -0.2918  0.0585  0.0812
   65MPD2    C3  992   0.579   4.551  15.843  0.2831 -0.3818  0.7875
   65MPD2    C4  993   0.578   4.604  15.970 -0.1059 -0.1092  0.2302
   65MPD2    C5  994   0.630   0.006  15.991  0.3064  0.4173 -0.6496
   65MPD2     H  995   0.647   4.579  15.639 -0.0144  0.3128  0.0166
   65MPD2    H1  996   0.542   4.551  16.057 -1.3451 -0.6721 -0.6206
   65MPD2    H2  997   0.706   0.179  15.898 -0.0429 -1.0423  2.8392
   65MPD2    H3  998   0.639   0.054  16.088 -0.2702 -2.5606  0.8902
   65MPD2     N  999   0.533   4.419  15.825 -0.1143  0.4489  0.0618
   65MPD2    H5 1000   0.478   4.380  15.901 -1.1166  0.2241 -0.7797
   65MPD2    N1 1001   0.697   0.120  15.648 -0.6631 -0.0446  0.0677
   65MPD2    H7 1002   0.721   0.082  15.557 -2.8492 -1.6386  0.1577
   66TCq2    C1 1003   0.673   0.257  15.657 -0.3429 -0.0407  0.1428
   66TCq2    O2 1004   0.632   0.328  15.747  0.0937 -0.1775  0.5803
   66TCq2    C2 1005   0.660   0.312  15.522 -0.5322  0.1497  0.1497
   66TCq2    C3 1006   0.624   0.225  15.420  0.7499  0.2904  0.5992
   66TCq2    C4 1007   0.611   0.281  15.299  0.4718 -0.5952  0.6414
   66TCq2    C5 1008   0.635   0.417  15.275  0.8622 -0.3253 -0.4019
   66TCq2    C6 1009   0.656   0.493  15.381 -0.8460  0.3678  0.2536
   66TCq2    C7 1010   0.675   0.446  15.507 -0.6806  0.4917 -0.9598
   66TCq2    C8 1011   0.660   0.635  15.354 -0.0098  0.3299 -0.1215
   66TCq2    O4 1012   0.687   0.674  15.241  0.4152  0.0007  0.1605
   66TCq2    C9 1013   0.584   0.201  15.181 -0.2692 -0.2592  0.2612
   66TCq2    O5 1014   0.556   0.263  15.074  0.0005 -0.2205 -0.2216
   66TCq2    O6 1015   0.572   0.078  15.196  0.0062 -0.1021 -0.0773
   66TCq2    H2 1016   0.608   0.118  15.425  1.1747  0.1730 -0.5203
   66TCq2    H3 1017   0.616   0.461  15.177 -0.6300 -0.1282 -0.0318
   66TCq2    H4 1018   0.701   0.520  15.583 -0.8031  0.5462 -0.9717
   67MPD2     C 1019   0.490   4.086  14.257 -0.0213 -0.3983  0.0261
   67MPD2    C1 1020   0.439   4.189  14.332  0.0631  0.6012  0.3631
   67MPD2    C2 1021   0.300   4.208  14.333 -0.3529  0.2447  0.1154
   67MPD2    C3 1022   0.219   4.142  14.243 -0.4136  0.1272 -0.4404
   67MPD2    C4 1023   0.274   4.041  14.161 -0.3074 -0.0485  0.0861
   67MPD2    C5 1024   0.405   4.015  14.174 -0.0012  1.0054  0.5790
   67MPD2     H 1025   0.256   4.274  14.407  0.2596  3.5553 -2.4320
   67MPD2    H1 1026   0.219   3.978  14.092 -0.9863 -0.7497  1.2709
   67MPD2    H2 1027   0.595   4.057  14.257 -0.1711 -0.9375  0.9496
   67MPD2    H3 1028   0.442   3.929  14.119  0.8946  0.5382  1.9103
   67MPD2     N 1029   0.076   4.164  14.239 -0.3207 -0.2734  0.7029
   67MPD2    H5 1030   0.017   4.096  14.191 -0.2848 -0.8493  1.4732
   67MPD2    N1 1031   0.515   4.280  14.420  0.5320 -0.0097 -0.0559
   67MPD2    H7 1032   0.459   4.351  14.466  0.1848 -0.0691 -0.3870
   68TCq2    C1 1033   0.648   4.258  14.450 -0.4528  0.1598  0.5945
   68TCq2    O2 1034   0.729   4.193  14.391  0.4756  0.1319 -0.1060
   68TCq2    C2 1035   0.686   4.328  14.570 -0.6814  0.0707 -0.2134
   68TCq2    C3 1036   0.601   4.413  14.639 -0.0722 -0.0572 -0.4612
   68TCq2    C4 1037   0.648   4.472  14.756  0.2294 -0.5912  0.3967
   68TCq2    C5 1038   0.766   4.457  14.813 -0.0879  0.5000  0.5795
   68TCq2    C6 1039   0.853   4.373  14.744 -0.3313 -0.6044 -0.2194
   68TCq2    C7 1040   0.813   4.314  14.623  0.1762  0.1838 -0.4208
   68TCq2    C8 1041   0.983   4.325  14.806 -0.0072  0.0041 -0.6329
   68TCq2    O4 1042   1.038   4.222  14.768  0.0090  0.0315 -0.0394
   68TCq2    C9 1043   0.555   4.534  14.845 -0.7071 -0.4463 -0.1018
   68TCq2    O5 1044   0.594   4.620  14.924  1.0042 -0.3057  0.2902
   68TCq2    O6 1045   0.439   4.479  14.839 -0.8175  0.0276  0.5016
   68TCq2    H2 1046   0.497   4.427  14.612  0.0749  0.7682 -0.5935
   68TCq2    H3 1047   0.787   4.492  14.914 -0.4336 -1.0403  1.1852
   68TCq2    H4 1048   0.883   4.248  14.573  0.6687 -0.5771  1.2557
   69TMC2    C1 1049   2.578   0.690  12.551  0.2431  0.4614  0.5729
   69TMC2    C2 1050   2.485   0.790  12.561 -0.0688  0.6593 -1.2155
   69TMC2    C3 1051   2.466   0.865  12.442  1.0225 -0.1496  0.0682
   69TMC2    C4 1052   2.658   0.672  12.445  0.3432 -0.4434  0.6268
   69TMC2    C5 1053   2.643   0.753  12.339 -0.7403  0.0048  0.6930
   69TMC2    C6 1054   2.553   0.856  12.337 -0.1454  0.8681  0.0018
   69TMC2     C 1055   2.601   0.604  12.663  0.2975  0.2415  0.3109
   69TMC2     O 1056   2.702   0.538  12.668 -0.0895  0.5754 -0.1347
   69TMC2     H 1057   2.428   0.804  12.652 -0.2819  2.1718 -1.5772
   69TMC2    H1 1058   2.731   0.592  12.445 -1.3895 -2.0218  0.5579
   69TMC2    H2 1059   2.554   0.932  12.260 -1.3178  0.3678 -0.5135
   69TMC2    C7 1060   2.726   0.725  12.220 -0.3710 -0.3289  0.3020
   69TMC2    C8 1061   2.387   0.980  12.444 -0.0648 -0.1373 -0.1995
   69TMC2    O1 1062   2.841   0.682  12.228 -0.7050 -0.5174 -0.2514
   69TMC2    O2 1063   2.400   1.066  12.358  0.9045 -0.1017 -0.6762
   69TMC2    O5 1064   2.271   0.927  12.482  0.0058  0.1626  0.3510
   69TMC2    H5 1065   2.269   0.877  12.566  0.5655  0.2304  0.4049
   70MPD2     C 1066   2.332   0.494  12.874 -0.4686 -0.3142 -0.4449
   70MPD2    C1 1067   2.457   0.487  12.829 -0.7139  0.2165 -0.8632
   70MPD2    C2 1068   2.539   0.391  12.877  0.5978  0.0631 -0.0804
   70MPD2    C3 1069   2.495   0.305  12.982 -0.7250  0.2209  0.5325
   70MPD2    C4 1070   2.362   0.305  13.021  0.0086 -0.1249  0.4577
   70MPD2    C5 1071   2.285   0.406  12.970 -0.9582  0.1909 -0.0037
   70MPD2     H 1072   2.643   0.389  12.846  0.7941 -0.3979  0.5928
   70MPD2    H1 1073   2.320   0.238  13.095  1.2809 -0.1105  1.1979
   70MPD2    H2 1074   2.262   0.564  12.830 -1.0690 -1.3758 -1.1921
   70MPD2    H3 1075   2.187   0.418  13.014 -1.2070 -1.3685 -0.1142
   70MPD2     N 1076   2.579   0.205  13.048 -0.1307  0.2052 -0.4776
   70MPD2    H5 1077   2.547   0.144  13.122  1.6132  0.3453  0.3863
   70MPD2    N1 1078   2.482   0.572  12.716 -0.3107 -0.0905  0.3826
   70MPD2    H7 1079   2.412   0.636  12.680 -2.6605 -2.9282 -0.1286
   71TMC2    C1 1080   4.681   0.904   1.818  0.2679  0.0916  0.2611
   71TMC2    C2 1081   0.043   0.842   1.914 -0.8282  0.0292  0.1875
   71TMC2    C3 1082   4.712   0.815   2.037  0.5727 -0.1075 -0.3209
   71TMC2    C4 1083   4.549   0.915   1.835  0.1149 -0.0469 -0.1862
   71TMC2    C5 1084   4.500   0.864   1.956  0.0580 -1.6017  0.5689
   71TMC2    C6 1085   4.576   0.816   2.058  0.1673  0.6285 -0.4227
   71TMC2     C 1086   0.006   0.917   1.680  0.2840  0.5313 -0.6912
   71TMC2     O 1087   4.683   1.000   1.604 -0.6988 -0.6386 -0.0376
   71TMC2     H 1088   0.147   0.873   1.921 -1.4616  2.0382  0.6624
   71TMC2    H1 1089   4.480   0.975   1.777 -0.0625  1.6486  1.7865
   71TMC2    H2 1090   4.531   0.784   2.151  0.4422 -0.8737 -0.8040
   71TMC2    C7 1091   4.375   0.923   2.008  0.1530  0.3714 -0.1180
   71TMC2    C8 1092   0.078   0.753   2.128  0.2044  0.2655  0.4822
   71TMC2    O1 1093   4.382   0.963   2.122 -0.6261 -0.4802  0.1972
   71TMC2    O2 1094   0.188   0.791   2.164 -0.3583  0.0267 -0.9197
   71TMC2    O5 1095   0.012   0.648   2.174  0.0094  0.2491  0.0098
   71TMC2    H5 1096   4.684   0.597   2.108  1.1962 -0.4971 -0.3587
   72MPD2     C 1097   0.318   0.785   1.290 -0.9182 -0.1696 -0.3477
   72MPD2    C1 1098   0.221   0.882   1.304 -0.3346  1.4404 -0.4058
   72MPD2    C2 1099   0.161   0.909   1.427  0.5982  0.3229 -0.6520
   72MPD2    C3 1100   0.176   0.820   1.532 -1.0703  0.0687 -0.6895
   72MPD2    C4 1101   0.263   0.718   1.514  0.0902 -0.0049 -0.3817
   72MPD2    C5 1102   0.332   0.702   1.396 -0.5003 -0.4404 -0.9114
   72MPD2     H 1103   0.096   0.996   1.429  1.8964  1.3064 -1.4474
   72MPD2    H1 1104   0.286   0.651   1.596  2.8566 -0.2073 -1.2959
   72MPD2    H2 1105   0.380   0.788   1.201 -1.3352 -1.6403 -0.6909
   72MPD2    H3 1106   0.403   0.621   1.400  0.0816  0.1203  0.1485
   72MPD2     N 1107   0.110   0.825   1.653  0.0856  0.2242 -0.2937
   72MPD2    H5 1108   0.122   0.761   1.730  0.3256  1.8900  1.0660
   72MPD2    N1 1109   0.186   0.972   1.200  0.2372  0.3569  0.5864
   72MPD2    H7 1110   0.115   1.042   1.220 -2.9515 -1.7096 -3.5038
   73TMC2    C1 1111   4.588   3.027  13.984 -0.0254 -0.0679  0.5578
   73TMC2    C2 1112   4.516   3.003  14.097  0.0199 -0.3241 -0.2111
   73TMC2    C3 1113   4.573   3.025  14.214  0.7763 -0.3963 -0.4749
   73TMC2    C4 1114   4.717   3.076  13.993 -0.3310  0.3067  0.2820
   73TMC2    C5 1115   0.046   3.087  14.111 -0.6626  0.3939  0.4362
   73TMC2    C6 1116   4.705   3.058  14.229 -0.8177 -0.4508  0.4540
   73TMC2     C 1117   4.510   3.129  13.919 -0.9052 -0.5560  0.2581
   73TMC2     O 1118   4.546   3.244  13.941 -0.0740 -0.0408 -0.1539
   73TMC2     H 1119   4.414   2.968  14.092  0.6202 -1.8451 -1.8730
   73TMC2    H1 1120   0.043   3.104  13.901 -1.4171  0.7977 -0.1595
   73TMC2    H2 1121   0.037   3.071  14.321  1.2020 -2.7052 -0.4486
   73TMC2    C7 1122   0.131   3.216  14.105 -0.7312 -0.0157 -0.0250
   73TMC2    C8 1123   4.492   3.014  14.337 -0.4414 -0.7611  0.5566
   73TMC2    O1 1124   0.240   3.218  14.162 -0.5050 -0.0227  0.1081
   73TMC2    O2 1125   4.426   2.917  14.364 -0.1895 -0.3536  0.5105
   73TMC2    O5 1126   4.517   3.120  14.411  0.1652 -0.5010  0.0460
   73TMC2    H5 1127   4.549   3.206  14.376 -3.3834  1.0050  0.4722
   74MPD2     C 1128   4.167   3.309  13.591 -0.6342 -0.0958  0.0151
   74MPD2    C1 1129   4.271   3.377  13.648 -0.0183 -0.1296 -1.0037
   74MPD2    C2 1130   4.350   3.302  13.732 -0.7313  0.8113  0.2291
   74MPD2    C3 1131   4.327   3.169  13.765  0.5506 -0.6730 -0.0932
   74MPD2    C4 1132   4.222   3.104  13.705  0.1176  0.1787 -0.4618
   74MPD2    C5 1133   4.139   3.177  13.621 -0.3040 -0.2785  0.4851
   74MPD2     H 1134   4.439   3.343  13.778 -1.3315  1.0711  1.1675
   74MPD2    H1 1135   4.204   2.998  13.712 -1.1137  0.3042 -1.5263
   74MPD2    H2 1136   4.115   3.362  13.512 -3.5373  0.4578  2.3169
   74MPD2    H3 1137   4.057   3.130  13.567 -2.0524  1.3815  1.7014
   74MPD2     N 1138   4.403   3.092  13.850 -0.2053 -0.3822 -0.0182
   74MPD2    H5 1139   4.376   2.995  13.861 -2.3850  0.3866  1.5291
   74MPD2    N1 1140   4.294   3.515  13.613  0.0060 -0.2859  0.0516
   74MPD2    H7 1141   4.242   3.547  13.531  0.7751  0.1064 -0.2853
   75TCq2    C1 1142   0.023   4.287  14.286 -0.3310 -0.5886  0.9261
   75TCq2    O2 1143   0.074   4.383  14.346 -0.2414 -0.2817  0.7418
   75TCq2    C2 1144   4.601   4.308  14.252  0.5807 -0.5763 -0.0430
   75TCq2    C3 1145   4.521   4.380  14.335 -0.7066 -0.1830 -0.6313
   75TCq2    C4 1146   4.401   4.434  14.288  0.1086  0.0876 -0.3074
   75TCq2    C5 1147   4.360   4.415  14.156  1.2030 -0.2546  0.0601
   75TCq2    C6 1148   4.439   4.345  14.072  0.1320 -0.0745 -0.6095
   75TCq2    C7 1149   4.558   4.288  14.122 -0.4188 -0.1238 -0.3406
   75TCq2    C8 1150   4.430   4.387  13.929 -0.3144 -0.4888 -0.0479
   75TCq2    O4 1151   4.316   4.411  13.893  0.3563  0.2578  0.6590
   75TCq2    C9 1152   4.327   4.524  14.370 -0.0578  0.5744 -0.0214
   75TCq2    O5 1153   4.221   4.573  14.324  0.0794  0.0105  0.5172
   75TCq2    O6 1154   4.344   4.509  14.497  0.4138 -0.2911  0.4190
   75TCq2    H2 1155   4.560   4.405  14.433  0.3060 -0.1099 -1.0501
   75TCq2    H3 1156   4.273   4.470  14.122  0.9495 -0.7546 -0.0956
   75TCq2    H4 1157   4.619   4.230  14.054  0.3054  0.3690 -0.1060
   76MPD2     C 1158   3.792   0.535  12.111 -0.3597 -0.6463  0.0432
   76MPD2    C1 1159   3.742   0.476  11.993  1.2281  0.3126  0.0587
   76MPD2    C2 1160   3.790   0.360  11.950  0.0662  0.1630 -0.2933
   76MPD2    C3 1161   3.883   0.288  12.031 -0.4282 -0.9916  0.0978
   76MPD2    C4 1162   3.933   0.344  12.145 -0.2179 -0.2508  0.2451
   76MPD2    C5 1163   3.882   0.466  12.182 -0.1191  0.3535 -0.9558
   76MPD2     H 1164   3.744   0.318  11.862  0.1818 -0.4634 -0.0534
   76MPD2    H1 1165   4.001   0.296  12.215  0.8037  1.8071  0.6546
   76MPD2    H2 1166   3.749   0.623  12.157  0.6036 -0.8722  1.3526
   76MPD2    H3 1167   3.917   0.518  12.270  0.3498  0.6581 -1.3223
   76MPD2     N 1168   3.929   0.156  11.991  0.0057  0.0558 -0.0265
   76MPD2    H5 1169   3.998   0.105  12.045  0.2702 -1.4572 -1.8063
   76MPD2    N1 1170   3.646   0.540  11.910 -0.2328 -0.3336 -0.4962
   76MPD2    H7 1171   3.622   0.496  11.822  0.6477  0.1042 -0.9565
   77TCq2    C1 1172   3.879   0.085  11.881 -0.1487  0.3710 -0.1374
   77TCq2    O2 1173   3.810   0.114  11.786 -0.2594  0.6469  0.9314
   77TCq2    C2 1174   3.911   4.667  11.885  0.1331 -0.4316 -0.1532
   77TCq2    C3 1175   3.883   4.591  11.773  0.5313  0.3673  0.3961
   77TCq2    C4 1176   3.886   4.456  11.796 -0.3490 -0.1492  0.0115
   77TCq2    C5 1177   3.925   4.392  11.912  0.0351  0.8006 -0.4520
   77TCq2    C6 1178   3.956   4.469  12.015 -0.8007 -0.2183 -1.0951
   77TCq2    C7 1179   3.950   4.604  12.002 -0.2093 -0.1759  0.4323
   77TCq2    C8 1180   4.009   4.415  12.137 -0.6962  0.2827  0.5045
   77TCq2    O4 1181   3.980   4.297  12.161  0.7206 -0.0405 -0.1327
   77TCq2    C9 1182   3.841   4.366  11.682 -0.0681  0.2383 -0.0476
   77TCq2    O5 1183   3.814   4.433  11.581 -0.2201 -0.4981  0.8606
   77TCq2    O6 1184   3.802   4.251  11.713 -0.6105  0.0611  0.0321
   77TCq2    H2 1185   3.863   4.633  11.675  1.1343 -2.5776 -0.9893
   77TCq2    H3 1186   3.925   4.285  11.928 -0.4398  0.5165 -2.3456
   77TCq2    H4 1187   3.966   4.673  12.084 -0.0441 -0.1839  0.4068
   78MPD1     C 1188   4.681   4.165   2.785 -0.0840 -0.1671  0.4951
   78MPD1    C1 1189   4.723   4.295   2.782 -0.7307  0.2535  0.5951
   78MPD1    C2 1190   0.125   4.316   2.729 -0.0558 -0.2995 -0.5757
   78MPD1    C3 1191   0.215   4.218   2.691  0.1221  0.0524  0.0278
   78MPD1    C4 1192   0.173   4.092   2.714 -1.0419  0.1591 -1.0285
   78MPD1    C5 1193   0.047   4.063   2.763  0.2151 -1.0751  0.1560
   78MPD1     H 1194   0.149   4.420   2.710 -2.8298  0.3867 -0.2433
   78MPD1    H1 1195   0.243   4.012   2.696  0.8706  1.9930 -1.7030
   78MPD1    H2 1196   4.583   4.132   2.819 -0.9410  1.3411 -0.4954
   78MPD1    H3 1197   0.013   3.962   2.780  1.1188 -1.6869 -1.6465
   78MPD1     N 1198   0.344   4.237   2.629  0.2134  0.3192 -0.5231
   78MPD1    H5 1199   0.397   4.159   2.592 -0.7263 -0.2154 -0.7415
   78MPD1    N1 1200   4.635   4.402   2.792 -0.2815  0.6293  0.3026
   78MPD1    H6 1201   4.669   4.495   2.816 -1.8518  1.3265 -0.1564
   78MPD1    H7 1202   4.539   4.388   2.823  0.3908 -0.3475  1.8819
   79TCq2    C1 1203   0.398   4.362   2.604 -0.0432  0.0579  0.0798
   79TCq2    O2 1204   0.367   4.470   2.645 -0.5161  0.1469 -0.3987
   79TCq2    C2 1205   0.503   4.361   2.504  0.0329 -0.0866 -0.1985
   79TCq2    C3 1206   0.542   4.243   2.438  0.3833  0.4171  1.2144
   79TCq2    C4 1207   0.655   4.239   2.362  0.3773  0.5537  0.9384
   79TCq2    C5 1208   0.723   4.347   2.336 -0.6012  0.2249 -0.6002
   79TCq2    C6 1209   0.687   4.463   2.400 -0.2146  0.8294 -0.4110
   79TCq2    C7 1210   0.575   4.470   2.482  0.4846  0.6359 -0.4485
   79TCq2    C8 1211   0.756   4.589   2.368 -0.6066  0.2444  0.3937
   79TCq2    O4 1212   0.868   4.590   2.316 -0.0532  0.0439  0.3985
   79TCq2    C9 1213   0.690   4.121   2.290 -0.3835 -0.5580  0.1094
   79TCq2    O5 1214   0.764   4.138   2.192 -0.5336  0.1746  0.1672
   79TCq2    O6 1215   0.634   4.016   2.334  0.0321 -0.6064 -0.5380
   79TCq2    H2 1216   0.482   4.154   2.453 -0.9129  1.1034  0.1032
   79TCq2    H3 1217   0.806   4.347   2.266 -0.6676 -2.1732 -0.6795
   79TCq2    H4 1218   0.553   4.551   2.551  0.3586 -0.9747  1.3911
   80MPD2     C 1219   3.103   4.678  12.544  0.4096  0.0700 -0.0047
   80MPD2    C1 1220   2.983   4.636  12.480 -0.4004  0.7547 -0.1175
   80MPD2    C2 1221   2.860   4.679  12.517  0.2559  0.3779  0.9486
   80MPD2    C3 1222   2.850   0.050  12.614 -0.1838 -1.5246 -0.2117
   80MPD2    C4 1223   2.965   0.100  12.671  0.1558  0.1586  0.1898
   80MPD2    C5 1224   3.082   0.046  12.641 -0.0669  0.1668 -0.4956
   80MPD2     H 1225   2.775   4.634  12.467  0.3009 -0.6099  1.7509
   80MPD2    H1 1226   2.971   0.176  12.749  1.1542  0.3935 -0.1088
   80MPD2    H2 1227   3.201   4.632  12.547  0.2554 -0.1200  2.4688
   80MPD2    H3 1228   3.173   0.079  12.691  0.0270 -0.4335 -0.2687
   80MPD2     N 1229   2.727   0.090  12.662 -0.0061 -0.1444  0.3835
   80MPD2    H5 1230   2.727   0.136  12.752  1.5593  0.6373 -0.0259
   80MPD2    N1 1231   2.995   4.535  12.383 -1.1018  0.2841 -0.2051
   80MPD2    H7 1232   2.907   4.500  12.348 -1.5161  2.1359 -0.9855
   81TCq2    C1 1233   3.116   4.490  12.325 -0.6581  0.2597  0.5007
   81TCq2    O2 1234   3.230   4.528  12.342  0.3489  0.1569 -0.0031
   81TCq2    C2 1235   3.079   4.404  12.210  0.8243 -0.2076  0.2104
   81TCq2    C3 1236   3.134   4.429  12.087  0.3529  0.3111 -0.2773
   81TCq2    C4 1237   3.060   4.410  11.972  0.0516  1.0356  0.0737
   81TCq2    C5 1238   2.936   4.365  11.974  0.0458 -0.1576 -0.3121
   81TCq2    C6 1239   2.887   4.332  12.098  0.0272 -0.4686 -0.1857
   81TCq2    C7 1240   2.950   4.355  12.218  0.3273  0.1965  0.5024
   81TCq2    C8 1241   2.741   4.287  12.084 -0.7397 -0.4513  0.4418
   81TCq2    O4 1242   2.675   4.313  11.984  0.2259  0.6783 -0.5098
   81TCq2    C9 1243   3.123   4.433  11.848  0.1095  0.3460 -0.2108
   81TCq2    O5 1244   3.057   4.398  11.744  0.0219  0.3371 -0.6678
   81TCq2    O6 1245   3.244   4.468  11.857  0.1310 -0.0820 -0.7993
   81TCq2    H2 1246   3.239   4.455  12.090 -0.1513  2.1808  0.6158
   81TCq2    H3 1247   2.878   4.346  11.885 -0.4605 -1.5687  0.3271
   81TCq2    H4 1248   2.911   4.326  12.315 -1.9638 -2.1059 -1.1111
   82MPD2     C 1249   0.743   3.830  10.815 -0.5398 -0.5870 -0.2471
   82MPD2    C1 1250   0.679   3.729  10.748 -0.2812  0.3304  0.2832
   82MPD2    C2 1251   0.731   3.602  10.753  0.0431  0.2248  0.5633
   82MPD2    C3 1252   0.846   3.574  10.830  0.4409  0.1323 -0.3621
   82MPD2    C4 1253   0.909   3.677  10.893 -0.0814  0.4149 -0.0594
   82MPD2    C5 1254   0.857   3.804  10.885 -0.2777  0.0231 -0.0698
   82MPD2     H 1255   0.678   3.522  10.702  0.8265  0.1552 -0.1424
   82MPD2    H1 1256   0.996   3.662  10.955  0.9436  0.0413 -1.5927
   82MPD2    H2 1257   0.704   3.931  10.815  1.7876  0.3313 -0.4194
   82MPD2    H3 1258   0.915   3.878  10.940  1.8621 -0.1938 -2.0269
   82MPD2     N 1259   0.914   3.447  10.829  0.3915 -0.7308 -0.5406
   82MPD2    H5 1260   0.998   3.445  10.887  0.3740  0.5211 -0.4782
   82MPD2    N1 1261   0.566   3.774  10.667  0.4156 -0.5406 -0.4909
   82MPD2    H7 1262   0.551   3.874  10.669 -0.0993 -0.6450  1.5970
   83TCq2    C1 1263   0.877   3.326  10.774 -0.4017  0.2807 -0.8651
   83TCq2    O2 1264   0.770   3.290  10.724  0.3463  0.0231  0.1633
   83TCq2    C2 1265   0.970   3.223  10.810 -0.3000 -0.0573 -0.8512
   83TCq2    C3 1266   1.092   3.252  10.761 -0.7390  0.3500 -0.1151
   83TCq2    C4 1267   1.204   3.234  10.838 -0.3903 -0.1863 -0.0293
   83TCq2    C5 1268   1.192   3.181  10.966 -0.4586 -0.6379  0.6252
   83TCq2    C6 1269   1.062   3.138  11.008  0.3180  0.6385 -0.3110
   83TCq2    C7 1270   0.957   3.168  10.931 -0.1603 -0.6049  0.5543
   83TCq2    C8 1271   1.031   3.109  11.148 -0.6318  0.0765 -0.1071
   83TCq2    O4 1272   0.919   3.071  11.181  0.2770 -0.4934 -0.0171
   83TCq2    C9 1273   1.334   3.270  10.788 -0.0008  0.6570 -0.4306
   83TCq2    O5 1274   1.335   3.309  10.670 -0.5994 -0.2938  0.7804
   83TCq2    O6 1275   1.419   3.291  10.877  0.2685  0.2733  0.2113
   83TCq2    H2 1276   1.106   3.307  10.668  1.6149  0.9180  0.5803
   83TCq2    H3 1277   1.282   3.162  11.023 -1.4178 -0.2761  2.2713
   83TCq2    H4 1278   0.860   3.127  10.955 -0.4721 -0.2506 -0.0886
   84TCq2    C1 1279   1.842   2.976  10.447 -0.1181 -0.2976  0.9725
   84TCq2    O2 1280   1.725   3.012  10.428  0.4242  0.3353 -0.4896
   84TCq2    C2 1281   1.885   2.932  10.578 -0.4177 -0.3149  0.5773
   84TCq2    C3 1282   2.006   2.871  10.595 -0.5761 -0.3894 -0.0614
   84TCq2    C4 1283   2.040   2.832  10.721  0.2203 -0.5254 -0.3589
   84TCq2    C5 1284   1.958   2.854  10.828  0.5739  0.6800  0.0469
   84TCq2    C6 1285   1.838   2.918  10.808  0.3756  0.5924 -0.3494
   84TCq2    C7 1286   1.796   2.951  10.682 -0.0939 -0.6849 -0.2288
   84TCq2    C8 1287   1.768   2.973  10.913 -0.1520 -0.8013  0.1314
   84TCq2    O4 1288   1.707   3.078  10.896  0.7442 -0.4577 -0.2419
   84TCq2    C9 1289   2.175   2.782  10.734 -0.5423  0.2781  0.0112
   84TCq2    O5 1290   2.254   2.781  10.640  1.0825  0.5040  0.4711
   84TCq2    O6 1291   2.200   2.728  10.845  0.3141 -0.1070 -0.4502
   84TCq2    H2 1292   2.073   2.846  10.513  0.2292  1.0923  0.1472
   84TCq2    H3 1293   1.986   2.808  10.922  1.6710 -1.2186 -1.2341
   84TCq2    H4 1294   1.715   3.019  10.657  0.1866  0.3030  1.5406
   85MPD2     C 1295   2.856   1.137  16.550  0.5537  0.4525  0.1486
   85MPD2    C1 1296   2.759   1.168  16.458 -0.1923  0.7243  0.2850
   85MPD2    C2 1297   2.764   1.291  16.394  0.7105  0.2897 -0.6933
   85MPD2    C3 1298   2.866   1.381  16.429 -0.1520  0.0288  0.0907
   85MPD2    C4 1299   2.962   1.350  16.523  0.3299 -0.4309 -0.5959
   85MPD2    C5 1300   2.955   1.229  16.584 -0.1041  0.7622  0.0657
   85MPD2     H 1301   2.692   1.315  16.317  1.7422  0.4264 -1.6241
   85MPD2    H1 1302   3.040   1.420  16.552  0.8853 -0.2968 -2.4560
   85MPD2    H2 1303   2.866   1.042  16.602  1.0599 -0.1359 -1.0460
   85MPD2    H3 1304   3.023   1.213  16.667  0.0093  2.2558  0.2621
   85MPD2     N 1305   2.873   1.507  16.367 -0.0160 -0.0437 -0.3203
   85MPD2    H5 1306   2.798   1.519  16.300  0.4444  0.9109 -0.6627
   85MPD2    N1 1307   2.667   1.064  16.418  0.1230  0.4467  0.2609
   85MPD2    H7 1308   2.621   1.067  16.327  0.5664  1.0239  0.0595
   86TCq2    C1 1309   2.974   1.605  16.383  0.5257  0.4385  0.0478
   86TCq2    O2 1310   3.083   1.606  16.440  0.2331  0.1267 -0.3441
   86TCq2    C2 1311   2.947   1.720  16.296  0.5209 -0.5797 -0.3073
   86TCq2    C3 1312   2.819   1.777  16.281 -0.0081 -0.3805 -0.4898
   86TCq2    C4 1313   2.816   1.894  16.208 -0.3924  0.2837  0.2087
   86TCq2    C5 1314   2.925   1.944  16.145  0.1113  0.2503  0.6595
   86TCq2    C6 1315   3.039   1.868  16.148  0.1773  0.1701  0.0616
   86TCq2    C7 1316   3.058   1.764  16.231  0.5087 -0.5427 -0.6466
   86TCq2    C8 1317   3.087   1.848  16.014 -0.1373  0.0168 -1.1751
   86TCq2    O4 1318   3.173   1.761  16.008  0.0733 -0.8488 -0.1526
   86TCq2    C9 1319   2.700   1.971  16.222  0.2699 -0.1483 -0.7304
   86TCq2    O5 1320   2.691   2.073  16.149  0.9758  0.0233 -0.2363
   86TCq2    O6 1321   2.631   1.950  16.324  0.2842  0.6269 -0.9558
   86TCq2    H2 1322   2.731   1.748  16.338  1.8330 -3.3833  0.8301
   86TCq2    H3 1323   2.922   2.043  16.101  1.7484  0.6040  1.3260
   86TCq2    H4 1324   3.146   1.702  16.224  0.5264 -0.4207 -1.4992
   87MPD2     C 1325   0.495   4.459   2.097  0.9329 -0.4413 -0.0763
   87MPD2    C1 1326   0.574   4.531   2.015 -0.7832 -0.0926  0.4713
   87MPD2    C2 1327   0.556   4.671   2.007  0.7368  0.3264  0.4954
   87MPD2    C3 1328   0.460   0.009   2.087 -0.4162 -0.2565 -0.3984
   87MPD2    C4 1329   0.378   4.653   2.164 -0.7393 -0.1838 -0.0926
   87MPD2    C5 1330   0.395   4.519   2.168  0.1279  0.5157  0.2317
   87MPD2     H 1331   0.626   0.006   1.948 -1.2124  1.2251 -0.9231
   87MPD2    H1 1332   0.299   4.689   2.229 -0.3649  0.1420  0.1813
   87MPD2    H2 1333   0.501   4.351   2.100  0.9331 -0.5458 -3.5287
   87MPD2    H3 1334   0.327   4.463   2.231 -0.3580 -0.4775 -1.1888
   87MPD2     N 1335   0.441   0.148   2.093 -0.4656 -0.6337  0.1641
   87MPD2    H5 1336   0.374   0.184   2.161  1.1985 -1.0394  2.0154
   87MPD2    N1 1337   0.669   4.465   1.926  0.0382  0.6231 -0.2672
   87MPD2    H7 1338   0.676   4.364   1.941  3.8678  0.9140  0.0386
   88TCq2    C1 1339   0.741   4.529   1.825  0.2235 -0.3650 -0.0639
   88TCq2    O2 1340   0.722   4.637   1.775 -0.1657  0.0490 -0.1858
   88TCq2    C2 1341   0.851   4.449   1.756 -0.1110 -0.2194 -0.5518
   88TCq2    C3 1342   0.910   4.351   1.833 -0.5602  0.5217  0.9625
   88TCq2    C4 1343   1.018   4.285   1.774 -0.2657  0.1714 -0.5714
   88TCq2    C5 1344   1.064   4.312   1.651 -0.1242  0.0602 -0.7274
   88TCq2    C6 1345   1.007   4.415   1.576  0.9902 -0.0518 -0.3663
   88TCq2    C7 1346   0.899   4.484   1.628  0.5098  0.0162 -0.1086
   88TCq2    C8 1347   1.073   4.476   1.463  0.2879  0.1470  0.2280
   88TCq2    O4 1348   1.011   4.535   1.376 -0.2112 -0.0942 -0.2366
   88TCq2    C9 1349   1.085   4.174   1.833  0.1288  0.8150 -0.3322
   88TCq2    O5 1350   1.025   4.140   1.942 -0.2408  0.8264 -0.2582
   88TCq2    O6 1351   1.207   4.160   1.807  0.2749  0.2721 -0.2207
   88TCq2    H2 1352   0.878   4.338   1.935 -0.6940 -2.6332  0.5359
   88TCq2    H3 1353   1.131   4.243   1.600  0.4051 -2.0078  2.7677
   88TCq2    H4 1354   0.862   4.566   1.567  0.2510 -0.8618 -1.1291
   89MPD2     C 1355   1.215   1.133   1.936 -0.0505 -0.5797  0.2694
   89MPD2    C1 1356   1.096   1.199   1.918 -0.3898 -0.3823 -0.0652
   89MPD2    C2 1357   1.106   1.316   1.847  0.1245 -0.0710  0.3825
   89MPD2    C3 1358   1.225   1.362   1.792 -0.9261  0.2158 -0.2433
   89MPD2    C4 1359   1.343   1.294   1.818 -0.3607  0.1708  0.3522
   89MPD2    C5 1360   1.335   1.180   1.888 -0.1663  0.8525 -0.1358
   89MPD2     H 1361   1.019   1.380   1.833 -0.0239 -0.5895 -1.1175
   89MPD2    H1 1362   1.439   1.315   1.772 -0.6350  1.9019  0.5800
   89MPD2    H2 1363   1.212   1.040   1.992  1.0738  0.7110  2.4705
   89MPD2    H3 1364   1.425   1.123   1.906 -1.8707 -1.9345 -0.4453
   89MPD2     N 1365   1.223   1.487   1.725  0.0589  1.1259  0.5959
   89MPD2    H5 1366   1.135   1.537   1.721 -0.5277  0.0924  0.6183
   89MPD2    N1 1367   0.966   1.157   1.941  0.2740  0.3815  0.2902
   89MPD2    H7 1368   0.892   1.214   1.901 -0.4866 -1.0976 -0.4538
   90TCq2    C1 1369   1.325   1.534   1.648 -1.1520  0.2285  0.1594
   90TCq2    O2 1370   1.425   1.480   1.605 -0.6868  0.2105  0.2810
   90TCq2    C2 1371   1.275   1.658   1.578 -0.1487 -0.2812  0.0117
   90TCq2    C3 1372   1.163   1.713   1.626  0.0317  0.3472 -0.1517
   90TCq2    C4 1373   1.092   1.793   1.543  0.6423 -0.2656  0.7913
   90TCq2    C5 1374   1.118   1.812   1.411 -0.1870 -0.1011 -0.7383
   90TCq2    C6 1375   1.214   1.722   1.362  0.1845 -0.3307  0.7536
   90TCq2    C7 1376   1.302   1.656   1.442  0.6244 -0.2685  0.3498
   90TCq2    C8 1377   1.242   1.720   1.216  0.2745  0.3848 -0.1358
   90TCq2    O4 1378   1.291   1.622   1.171  0.0467 -0.0363 -0.0216
   90TCq2    C9 1379   0.977   1.862   1.599  0.3637 -0.0298  0.4236
   90TCq2    O5 1380   0.920   1.941   1.520 -0.2205 -0.1736 -0.1816
   90TCq2    O6 1381   0.946   1.847   1.719 -0.4317  0.1779 -0.3412
   90TCq2    H2 1382   1.147   1.708   1.733 -0.6147  2.5873 -0.1554
   90TCq2    H3 1383   1.061   1.882   1.351  1.5876  1.3674 -0.7354
   90TCq2    H4 1384   1.369   1.589   1.388  1.1198 -1.7439  2.8330
   91TMC2    C1 1385   2.558   2.286  16.924  0.0805  0.0387 -0.7748
   91TMC2    C2 1386   2.587   2.372  16.824 -0.3420  0.9293  0.6921
   91TMC2    C3 1387   2.494   2.385  16.724 -0.2900  0.0551  0.0826
   91TMC2    C4 1388   2.454   2.199  16.914  0.0861 -0.2779  0.3567
   91TMC2    C5 1389   2.371   2.208  16.804 -0.6095 -0.0206 -0.2822
   91TMC2    C6 1390   2.386   2.305  16.711  0.5311  0.3130 -1.0947
   91TMC2     C 1391   2.649   2.263  17.034  0.2673  0.5017 -0.3362
   91TMC2     O 1392   2.599   2.229  17.138 -0.4386 -0.6113  0.3471
   91TMC2     H 1393   2.678   2.429  16.812  1.0262 -1.0655  1.5871
   91TMC2    H1 1394   2.435   2.126  16.992  0.0731 -0.7992 -0.1359
   91TMC2    H2 1395   2.312   2.327  16.634  0.6611  1.1279 -0.9857
   91TMC2    C7 1396   2.248   2.131  16.807  0.0421 -0.8555 -0.0594
   91TMC2    C8 1397   2.515   2.482  16.622  1.5019  0.3289 -0.7642
   91TMC2    O1 1398   2.223   2.075  16.911  0.0849  0.2526  0.1673
   91TMC2    O2 1399   2.553   2.593  16.662  0.2455  0.3274  0.2752
   91TMC2    O5 1400   2.563   2.416  16.516  0.0612 -0.0668  0.0677
   91TMC2    H5 1401   2.543   2.320  16.515  0.8045 -0.2376  1.9523
   92MPD2     C 1402   2.894   2.227  17.195 -0.2186  0.2899 -0.6565
   92MPD2    C1 1403   2.897   2.236  17.056 -0.2419 -0.4964 -0.2094
   92MPD2    C2 1404   3.019   2.220  16.994 -0.0261  0.9117  0.4301
   92MPD2    C3 1405   3.139   2.215  17.066 -0.4075 -0.5014 -0.1521
   92MPD2    C4 1406   3.130   2.203  17.202 -0.3064  0.3475 -0.1510
   92MPD2    C5 1407   3.014   2.215  17.262 -0.6933 -0.3821  0.1239
   92MPD2     H 1408   3.033   2.222  16.886 -0.4751  1.5937  0.3845
   92MPD2    H1 1409   3.216   2.196  17.268 -0.0526  3.0908 -0.1807
   92MPD2    H2 1410   2.801   2.225  17.251  0.2621  0.6152  0.1620
   92MPD2    H3 1411   3.024   2.240  17.368  0.3777 -1.8986  0.3810
   92MPD2     N 1412   3.263   2.202  16.997 -0.5773 -0.0823  0.7868
   92MPD2    H5 1413   3.259   2.212  16.896  2.2372  1.2843  0.8178
   92MPD2    N1 1414   2.779   2.262  16.984 -0.6028  0.4743 -0.0028
   92MPD2    H7 1415   2.794   2.275  16.885 -0.2138 -1.9834 -0.2726
   93MPD2     C 1416   3.941   1.920  13.526 -1.0838 -0.1449  0.0610
   93MPD2    C1 1417   3.957   1.989  13.645  0.4790  0.1716 -1.0814
   93MPD2    C2 1418   3.840   2.010  13.724 -0.1168  0.5943 -0.4092
   93MPD2    C3 1419   3.718   1.955  13.684 -0.0916  0.1648 -0.5695
   93MPD2    C4 1420   3.710   1.869  13.571  0.9343  0.6035  0.3803
   93MPD2    C5 1421   3.826   1.852  13.499 -0.3129 -0.6121  0.0707
   93MPD2     H 1422   3.860   2.068  13.813  2.3402 -0.1232 -0.4806
   93MPD2    H1 1423   3.615   1.823  13.544  0.1899  1.5861  1.3096
   93MPD2    H2 1424   4.032   1.880  13.483 -0.6407  0.8302  0.0672
   93MPD2    H3 1425   3.825   1.780  13.417  1.7410 -2.9290  2.0662
   93MPD2     N 1426   3.597   1.974  13.761 -0.3241  0.2249 -0.8123
   93MPD2    H5 1427   3.516   1.916  13.743 -3.3269  3.4130  2.3508
   93MPD2    N1 1428   4.071   2.055  13.683 -0.1771  0.0839  0.0755
   93MPD2    H7 1429   4.062   2.130  13.751  0.4153  0.4157 -0.2105
   94TCq2    C1 1430   4.195   2.039  13.634  0.1587 -0.3372 -0.3299
   94TCq2    O2 1431   4.228   1.961  13.544 -0.4372 -0.2177 -0.1766
   94TCq2    C2 1432   4.293   2.125  13.693 -0.3445 -0.4890  0.2845
   94TCq2    C3 1433   4.286   2.167  13.822  0.5667  0.3897  0.0840
   94TCq2    C4 1434   4.393   2.220  13.884  0.8967  0.1682  0.0901
   94TCq2    C5 1435   4.511   2.224  13.818 -0.7724 -0.5636  0.1071
   94TCq2    C6 1436   4.521   2.174  13.696 -0.0896 -0.0293  0.4485
   94TCq2    C7 1437   4.413   2.130  13.624 -0.1546  0.0670  0.1847
   94TCq2    C8 1438   4.644   2.194  13.623 -0.0039 -0.0206  0.1739
   94TCq2    O4 1439   0.027   2.168  13.675  0.3555  0.0352 -0.0736
   94TCq2    C9 1440   4.375   2.277  14.010 -0.2040  0.7130 -0.6512
   94TCq2    O5 1441   4.472   2.339  14.058  0.1910  0.0186  0.1899
   94TCq2    O6 1442   4.259   2.278  14.062 -0.2231 -0.1334  0.3296
   94TCq2    H2 1443   4.189   2.155  13.869  1.3849 -1.0625  1.3912
   94TCq2    H3 1444   4.597   2.269  13.867  0.1125 -2.2658  0.1366
   94TCq2    H4 1445   4.424   2.081  13.528 -1.0822 -2.5757  1.4142
   95TMC2    C1 1446   4.515   3.632  16.284 -0.1699 -0.4735 -0.7605
   95TMC2    C2 1447   4.539   3.500  16.282  0.0032  0.3129  0.0702
   95TMC2    C3 1448   4.431   3.415  16.315 -0.9449  0.3516 -0.1292
   95TMC2    C4 1449   4.385   3.685  16.296 -0.5857  0.2617  0.5992
   95TMC2    C5 1450   4.281   3.596  16.314  0.1271 -0.2485  0.2592
   95TMC2    C6 1451   4.304   3.461  16.334 -0.5124 -0.1426  0.4007
   95TMC2     C 1452   4.618   3.725  16.244 -0.5232 -0.2249  0.1180
   95TMC2     O 1453   4.713   3.677  16.187 -0.6793 -0.8109  0.1709
   95TMC2     H 1454   4.640   3.459  16.288  0.4143  1.2030 -0.7142
   95TMC2    H1 1455   4.369   3.792  16.284 -0.3204  0.3221  0.7858
   95TMC2    H2 1456   4.215   3.400  16.347  0.2575 -1.6313 -1.2452
   95TMC2    C7 1457   4.149   3.643  16.330 -0.7239 -0.0729 -0.2670
   95TMC2    C8 1458   4.445   3.273  16.349  0.0866  0.3405 -0.2356
   95TMC2    O1 1459   4.062   3.567  16.357 -1.0275  0.1908 -0.2623
   95TMC2    O2 1460   4.502   3.194  16.275  0.1446 -0.2063 -0.0099
   95TMC2    O5 1461   4.483   3.286  16.471 -0.0805  0.0352  0.0845
   95TMC2    H5 1462   4.449   3.369  16.510  0.6332  0.9935 -1.3318
   96MPD2     C 1463   0.077   4.203  16.215 -0.3265  0.5378 -0.2694
   96MPD2    C1 1464   0.118   4.088  16.150 -0.4286  0.0877  0.3992
   96MPD2    C2 1465   0.067   3.969  16.187  0.9806  0.1224  0.7155
   96MPD2    C3 1466   4.685   3.961  16.275 -0.1719 -0.8152  0.1929
   96MPD2    C4 1467   4.650   4.070  16.351  0.1679 -0.3251 -0.0166
   96MPD2    C5 1468   4.709   4.192  16.321  0.3602 -0.0179  0.7975
   96MPD2     H 1469   0.110   3.880  16.142 -0.5945 -0.7364  0.8954
   96MPD2    H1 1470   4.573   4.059  16.426 -1.3001 -1.4604 -1.7108
   96MPD2    H2 1471   0.109   4.301  16.183 -1.5913  1.4968  1.3894
   96MPD2    H3 1472   4.671   4.281  16.369  0.8823  0.0040  1.1728
   96MPD2     N 1473   4.601   3.847  16.297  0.0128 -0.6529  0.7083
   96MPD2    H5 1474   4.522   3.858  16.360 -0.9655  2.1889 -0.9672
   96MPD2    N1 1475   0.217   4.110  16.042  0.3625  0.2260 -0.0669
   96MPD2    H7 1476   0.235   4.207  16.018  1.0989  0.6863  2.3081
   97MPD2     C 1477   2.349   1.619   1.279 -0.0105  0.0750 -0.8550
   97MPD2    C1 1478   2.235   1.575   1.223  1.0142 -0.4373  0.0130
   97MPD2    C2 1479   2.188   1.637   1.110  0.5418 -0.1333 -0.0119
   97MPD2    C3 1480   2.260   1.748   1.051 -0.1359 -0.4740 -0.3226
   97MPD2    C4 1481   2.375   1.787   1.115 -0.1914 -0.8124 -0.2016
   97MPD2    C5 1482   2.415   1.725   1.228 -0.5102 -0.4351  0.4508
   97MPD2     H 1483   2.098   1.597   1.065  0.1538  1.3337 -0.5543
   97MPD2    H1 1484   2.435   1.868   1.076 -0.8871  0.1876  0.8138
   97MPD2    H2 1485   2.391   1.565   1.364  1.8673 -0.1594 -1.9286
   97MPD2    H3 1486   2.507   1.756   1.276  0.4082 -1.7361 -0.4690
   97MPD2     N 1487   2.218   1.809   0.928  0.3615  0.4473  0.0764
   97MPD2    H5 1488   2.273   1.889   0.897  2.4126 -1.1339 -0.4114
   97MPD2    N1 1489   2.172   1.464   1.282 -0.5959  0.4163 -0.9616
   97MPD2    H7 1490   2.227   1.415   1.352  0.4523  1.3892 -1.1007
   98TCq2    C1 1491   2.128   1.752   0.841  0.4128  0.3050  0.2740
   98TCq2    O2 1492   2.055   1.653   0.844 -0.5095 -0.0925 -0.2350
   98TCq2    C2 1493   2.113   1.833   0.719  0.2914 -0.4698  0.4247
   98TCq2    C3 1494   2.050   1.768   0.622 -0.5374  0.0419 -0.5500
   98TCq2    C4 1495   1.993   1.832   0.515 -0.4566 -0.6531  0.3481
   98TCq2    C5 1496   1.984   1.967   0.523  0.3506  0.6890 -0.1858
   98TCq2    C6 1497   2.043   2.035   0.628  0.3790 -0.3717 -0.0310
   98TCq2    C7 1498   2.110   1.967   0.734  0.1186  1.0374  0.4175
   98TCq2    C8 1499   2.062   2.181   0.616  0.0399 -0.4781  0.2322
   98TCq2    O4 1500   2.132   2.225   0.710  0.0720 -0.0302 -0.5678
   98TCq2    C9 1501   1.927   1.774   0.403  0.3252  0.3677 -0.4223
   98TCq2    O5 1502   1.823   1.830   0.362  1.0422  0.5207 -0.4348
   98TCq2    O6 1503   1.975   1.663   0.364 -0.0161  0.6202 -0.4574
   98TCq2    H2 1504   2.059   1.659   0.623  1.3204  0.1868  0.9924
   98TCq2    H3 1505   1.935   2.014   0.438 -0.0316  1.5357  0.5111
   98TCq2    H4 1506   2.178   2.014   0.804  1.1732  0.9222 -0.5236
   99MPD2     C 1507   1.123   3.749   1.089  0.1849 -0.0311  0.5782
   99MPD2    C1 1508   1.066   3.694   1.206  0.7603 -0.8414 -1.0345
   99MPD2    C2 1509   0.935   3.652   1.199  0.7377  0.5382  0.0413
   99MPD2    C3 1510   0.859   3.656   1.077 -0.2339 -0.1567  0.9637
   99MPD2    C4 1511   0.915   3.715   0.962  0.6191  0.3372  0.1224
   99MPD2    C5 1512   1.047   3.762   0.971  0.1231 -0.1693  0.0537
   99MPD2     H 1513   0.882   3.613   1.285  0.2277  0.6747 -0.2117
   99MPD2    H1 1514   0.863   3.722   0.867  0.8703 -2.1106 -0.1949
   99MPD2    H2 1515   1.228   3.775   1.087 -0.1712  1.4639  1.6217
   99MPD2    H3 1516   1.102   3.792   0.882  1.1306 -2.0498  0.0568
   99MPD2     N 1517   0.737   3.591   1.078 -1.0695 -0.1398 -0.2060
   99MPD2    H5 1518   0.722   3.530   1.157 -1.9542 -1.1278 -1.1519
   99MPD2    N1 1519   1.137   3.673   1.326 -0.2825  0.5827  0.1134
   99MPD2    H7 1520   1.083   3.628   1.399  0.6142 -0.5880  0.0444
  100TCq2    C1 1521   1.258   3.726   1.362 -0.2835 -0.0278 -0.1109
  100TCq2    O2 1522   1.337   3.785   1.295  0.0755  0.2711  0.2853
  100TCq2    C2 1523   1.303   3.689   1.494 -0.0944 -0.2566 -0.1808
  100TCq2    C3 1524   1.395   3.771   1.560 -0.5846 -0.5113 -0.6666
  100TCq2    C4 1525   1.443   3.732   1.681 -0.1312 -0.1861 -0.9535
  100TCq2    C5 1526   1.399   3.611   1.734 -0.6691  0.1153 -0.1307
  100TCq2    C6 1527   1.310   3.532   1.663 -0.5596  0.0288  0.2544
  100TCq2    C7 1528   1.265   3.569   1.538 -0.0580 -0.2318 -0.3004
  100TCq2    C8 1529   1.280   3.403   1.715  0.3891 -0.5784 -0.0128
  100TCq2    O4 1530   1.380   3.345   1.762  0.3136  0.7132 -0.0413
  100TCq2    C9 1531   1.534   3.819   1.755 -0.0683 -0.7406 -0.4660
  100TCq2    O5 1532   1.622   3.767   1.827 -0.1933 -0.1182  0.8902
  100TCq2    O6 1533   1.529   3.941   1.724  0.1555 -0.0977 -0.4419
  100TCq2    H2 1534   1.428   3.868   1.525  1.4020 -0.9315  0.0020
  100TCq2    H3 1535   1.433   3.589   1.835 -0.5179  0.7292 -0.0521
  100TCq2    H4 1536   1.206   3.496   1.484 -0.7331  0.4403 -0.4666
  101MPD2     C 1537   1.783   0.278  13.400 -0.6669 -0.6364 -0.7334
  101MPD2    C1 1538   1.669   0.339  13.439  0.1261 -0.9969  0.4014
  101MPD2    C2 1539   1.556   0.275  13.488 -0.0193 -0.2264  0.4228
  101MPD2    C3 1540   1.557   0.136  13.491 -0.0524  0.8136 -0.1543
  101MPD2    C4 1541   1.677   0.077  13.461  0.4420 -0.4043 -0.9750
  101MPD2    C5 1542   1.789   0.146  13.415 -0.2908  0.9774  0.0806
  101MPD2     H 1543   1.474   0.334  13.527  0.6913  1.5685 -0.8228
  101MPD2    H1 1544   1.687   4.692  13.463 -3.0572 -0.6922  1.1420
  101MPD2    H2 1545   1.878   0.323  13.372  0.3744 -0.5726  2.8595
  101MPD2    H3 1546   1.882   0.095  13.391 -0.4109  0.9869 -0.4233
  101MPD2     N 1547   1.455   0.060  13.553 -0.4526  0.1350  0.4268
  101MPD2    H5 1548   1.385   0.105  13.611 -0.6828 -1.0943  1.0937
  101MPD2    N1 1549   1.676   0.480  13.431  0.2079 -0.0815  0.3270
  101MPD2    H7 1550   1.764   0.529  13.420  0.4807 -0.8971 -1.1257
  102TCq2    C1 1551   1.688   0.820  13.071  0.3592  0.3159 -0.3845
  102TCq2    O2 1552   1.729   0.712  13.023  0.0217  0.1071 -0.3646
  102TCq2    C2 1553   1.626   0.814  13.209 -0.3344  0.8016 -0.4064
  102TCq2    C3 1554   1.559   0.921  13.263  0.2607  0.4229  0.7483
  102TCq2    C4 1555   1.508   0.911  13.390  0.1997  0.3056 -0.8167
  102TCq2    C5 1556   1.522   0.795  13.460  0.4005 -0.3200 -0.0509
  102TCq2    C6 1557   1.596   0.694  13.403  0.0940  0.0706 -0.7280
  102TCq2    C7 1558   1.648   0.694  13.273 -0.4726 -0.0219  0.7563
  102TCq2    C8 1559   1.562   0.561  13.445 -0.1936 -0.5653  0.0501
  102TCq2    O4 1560   1.444   0.539  13.464  0.5861  0.3058  0.9722
  102TCq2    C9 1561   1.422   1.015  13.444  0.2068 -0.5377  0.5860
  102TCq2    O5 1562   1.325   0.978  13.513  0.1532  0.4265 -0.2619
  102TCq2    O6 1563   1.450   1.132  13.404 -0.5519 -0.0031  0.4506
  102TCq2    H2 1564   1.525   1.012  13.215 -1.5068  0.2338  1.6415
  102TCq2    H3 1565   1.485   0.782  13.561 -0.3151  1.4488 -0.0774
  102TCq2    H4 1566   1.674   0.606  13.214 -0.3277  1.2736 -1.1109
  103TMC2    C1 1567   4.670   0.033  12.453 -0.6696 -0.6922  0.1596
  103TMC2    C2 1568   0.031   0.092  12.364 -1.0719 -0.3443  0.4161
  103TMC2    C3 1569   0.141   0.151  12.411 -0.1821  0.5000  0.1113
  103TMC2    C4 1570   4.682   0.047  12.588  0.4472 -0.1682 -0.0233
  103TMC2    C5 1571   0.070   0.113  12.634  0.0349 -0.0528  0.7572
  103TMC2    C6 1572   0.164   0.162  12.545  0.3564 -0.1291  1.6779
  103TMC2     C 1573   4.545   4.708  12.397  0.2062 -0.3256  0.1973
  103TMC2     O 1574   4.500   0.042  12.300  0.0997  0.0524  0.4177
  103TMC2     H 1575   0.010   0.089  12.257  1.9348 -0.7027 -0.1614
  103TMC2    H1 1576   4.611   0.003  12.657 -0.3609  1.9279  0.5000
  103TMC2    H2 1577   0.256   0.197  12.589  1.3624 -3.2221  2.0329
  103TMC2    C7 1578   0.074   0.153  12.775 -0.2458  0.1717 -0.0440
  103TMC2    C8 1579   0.223   0.226  12.317 -1.0629  0.1258  0.2296
  103TMC2    O1 1580   4.715   0.107  12.849 -0.0289 -0.3596 -0.0247
  103TMC2    O2 1581   0.209   0.219  12.199  0.0246 -0.9861  0.7069
  103TMC2    O5 1582   0.340   0.260  12.368  0.1173 -0.5165 -0.3117
  103TMC2    H5 1583   0.347   0.322  12.444 -0.3103 -1.7367  0.7163
  104MPD2     C 1584   4.384   4.391  12.491 -0.3801  0.4337 -0.0076
  104MPD2    C1 1585   4.402   4.510  12.423 -0.0023  0.1164 -0.0192
  104MPD2    C2 1586   4.312   4.539  12.321  0.1148 -0.1788 -0.2601
  104MPD2    C3 1587   4.204   4.452  12.296  0.3311  0.0261 -0.5358
  104MPD2    C4 1588   4.194   4.332  12.358  0.0218 -0.0962  0.5910
  104MPD2    C5 1589   4.289   4.301  12.451  0.4312 -0.3101 -0.4405
  104MPD2     H 1590   4.326   4.634  12.271  2.0173  1.6254  3.6425
  104MPD2    H1 1591   4.117   4.260  12.337 -0.5216  0.5746  0.2738
  104MPD2    H2 1592   4.453   4.360  12.568 -2.6286 -1.7188  1.1630
  104MPD2    H3 1593   4.269   4.207  12.501  4.0260 -0.8574 -0.0004
  104MPD2     N 1594   4.107   4.493  12.195 -0.2731  0.1900 -0.5157
  104MPD2    H5 1595   4.125   4.579  12.146  0.2484  0.0208 -0.6251
  104MPD2    N1 1596   4.515   4.591  12.455 -0.4840  0.0458 -0.3094
  104MPD2    H7 1597   4.579   4.556  12.526 -0.7463 -1.3449 -0.7502
  105MPD2     C 1598   1.721   4.659   0.006  0.5286  0.2454 -0.4650
  105MPD2    C1 1599   1.587   4.677   0.023  0.4360  0.3742  0.4251
  105MPD2    C2 1600   1.534   4.713   0.144 -0.7851  0.0185 -0.0646
  105MPD2    C3 1601   1.608   4.721   0.257  0.4477 -0.2860  0.6197
  105MPD2    C4 1602   1.744   4.712   0.243 -0.1615  0.4872 -0.5951
  105MPD2    C5 1603   1.802   4.684   0.119  0.0111 -0.2687  0.1447
  105MPD2     H 1604   1.428   0.001   0.164 -0.8586 -0.8023  0.0158
  105MPD2    H1 1605   1.811   0.004   0.326 -1.4505  0.6915  0.4148
  105MPD2    H2 1606   1.780   4.639  17.612  0.1993  0.3681 -0.7064
  105MPD2    H3 1607   1.907   4.658   0.124 -0.7055 -2.9901  0.9463
  105MPD2     N 1608   1.548   0.020   0.378  0.3388 -0.0199 -0.5846
  105MPD2    H5 1609   1.458   0.066   0.375 -0.1122 -1.0759 -2.9340
  105MPD2    N1 1610   1.494   4.646  17.623 -0.4405 -0.1741 -0.8543
  105MPD2    H7 1611   1.397   4.658  17.650 -0.3974 -2.9502  0.4909
  106TCq2    C1 1612   1.597   0.003   0.507  0.1967  0.7542  0.2716
  106TCq2    O2 1613   1.712   4.686   0.534 -0.5357  0.0319  0.2953
  106TCq2    C2 1614   1.505   0.019   0.616 -0.1996 -0.5294  0.4820
  106TCq2    C3 1615   1.399   0.108   0.603  0.9068 -0.1365  0.0981
  106TCq2    C4 1616   1.322   0.129   0.714  0.0136 -0.0933  0.0256
  106TCq2    C5 1617   1.343   0.063   0.833  0.4942  0.2503 -0.5458
  106TCq2    C6 1618   1.440   4.695   0.839 -0.0264 -0.1477  0.0530
  106TCq2    C7 1619   1.528   4.678   0.730 -0.3388  0.8428  0.2149
  106TCq2    C8 1620   1.495   4.649   0.964  0.0600 -0.9895  0.4461
  106TCq2    O4 1621   1.609   4.604   0.970 -0.7566  0.3834 -0.0829
  106TCq2    C9 1622   1.203   0.209   0.701  0.0796  0.1544 -0.3906
  106TCq2    O5 1623   1.196   0.283   0.601 -0.1741 -0.6340 -0.1226
  106TCq2    O6 1624   1.109   0.179   0.780 -0.1565 -0.3557 -0.0446
  106TCq2    H2 1625   1.378   0.164   0.513  0.9687  1.7660  1.2603
  106TCq2    H3 1626   1.289   0.088   0.923 -0.2099  2.0074 -1.4401
  106TCq2    H4 1627   1.617   4.615   0.734  0.2328  1.6741  0.5303
  107TMC2    C1 1628   1.590   3.638  11.610  0.3062 -0.3230 -0.1689
  107TMC2    C2 1629   1.662   3.707  11.516 -0.0889  0.1611 -0.6177
  107TMC2    C3 1630   1.702   3.644  11.402  0.4926 -0.7587 -0.1069
  107TMC2    C4 1631   1.567   3.500  11.592  0.0300  0.9226  0.2189
  107TMC2    C5 1632   1.617   3.441  11.478  0.2774 -0.8740  0.7074
  107TMC2    C6 1633   1.689   3.512  11.388  0.1302 -0.1619 -0.4796
  107TMC2     C 1634   1.507   3.714  11.698  0.5583  0.8698 -0.0021
  107TMC2     O 1635   1.463   3.666  11.806 -0.2143 -0.2604 -0.1672
  107TMC2     H 1636   1.694   3.809  11.534  3.2195 -0.9591 -0.2865
  107TMC2    H1 1637   1.517   3.439  11.666  0.1061 -0.6880 -1.0701
  107TMC2    H2 1638   1.744   3.453  11.315 -0.7804 -1.7554  0.1188
  107TMC2    C7 1639   1.629   3.296  11.484  0.4691 -0.0178  0.4983
  107TMC2    C8 1640   1.812   3.704  11.328  0.0680  0.4881 -0.2278
  107TMC2    O1 1641   1.598   3.237  11.585 -0.0501  0.2801  0.1348
  107TMC2    O2 1642   1.887   3.783  11.389 -0.4673 -0.2433  0.3105
  107TMC2    O5 1643   1.787   3.700  11.194  0.4128 -0.3192  0.2909
  107TMC2    H5 1644   1.707   3.644  11.179 -1.0314  1.4858  1.2532
  108MPD2     C 1645   1.325   4.023  11.601  0.1151  0.2594  0.3790
  108MPD2    C1 1646   1.380   3.928  11.696  0.4245  1.1832 -0.6644
  108MPD2    C2 1647   1.337   3.934  11.827  0.4501 -0.1904  0.0065
  108MPD2    C3 1648   1.239   4.026  11.866 -0.1631 -0.1049 -1.1588
  108MPD2    C4 1649   1.174   4.106  11.776  0.9704  0.0963  0.4460
  108MPD2    C5 1650   1.221   4.108  11.647  0.1681  0.0469 -0.0432
  108MPD2     H 1651   1.381   3.872  11.905 -1.7694  1.8376  2.8489
  108MPD2    H1 1652   1.079   4.153  11.796 -0.1635 -2.0762  0.1582
  108MPD2    H2 1653   1.356   4.033  11.498  1.8658 -0.8651  0.7980
  108MPD2    H3 1654   1.172   4.176  11.578  2.5488 -0.5172 -2.2855
  108MPD2     N 1655   1.202   4.046  11.999 -0.7564 -0.2037 -0.3694
  108MPD2    H5 1656   1.132   4.117  12.020 -0.2712 -0.0275  0.6547
  108MPD2    N1 1657   1.467   3.828  11.642 -0.0254  0.3781  0.0166
  108MPD2    H7 1658   1.509   3.843  11.551  0.0457 -0.1330 -0.0362
  109MPD2     C 1659   1.758   0.286   2.403  0.2444 -0.1763  0.0479
  109MPD2    C1 1660   1.733   0.393   2.316  0.6311  0.3596 -0.5097
  109MPD2    C2 1661   1.826   0.496   2.291  0.4841 -0.9220 -0.3376
  109MPD2    C3 1662   1.943   0.480   2.359 -0.2654 -0.2807  0.6188
  109MPD2    C4 1663   1.971   0.373   2.446 -0.1136  0.0069 -0.1660
  109MPD2    C5 1664   1.880   0.273   2.462 -0.6706 -0.4773  0.8331
  109MPD2     H 1665   1.804   0.579   2.225 -0.5437 -0.5193  0.5145
  109MPD2    H1 1666   2.069   0.357   2.489 -0.1297  0.2801 -0.0310
  109MPD2    H2 1667   1.682   0.209   2.414  0.0737  0.0762  0.6022
  109MPD2    H3 1668   1.903   0.195   2.533 -1.3242 -1.5616 -0.1551
  109MPD2     N 1669   2.042   0.576   2.325 -0.0212  0.5878  0.5560
  109MPD2    H5 1670   2.023   0.637   2.247  0.2921  0.0938  0.0954
  109MPD2    N1 1671   1.611   0.371   2.250 -0.3157 -0.3981  0.2813
  109MPD2    H7 1672   1.563   0.288   2.283 -1.5839 -0.0206 -0.6225
  110TCq2    C1 1673   2.165   0.587   2.384 -0.1685  0.1587 -0.0000
  110TCq2    O2 1674   2.219   0.543   2.480 -0.2593  0.5788  0.5287
  110TCq2    C2 1675   2.254   0.678   2.312  0.0136 -0.4645  0.4837
  110TCq2    C3 1676   2.345   0.741   2.386 -0.4692  0.0531  0.3668
  110TCq2    C4 1677   2.429   0.827   2.325 -0.4114  0.0952 -0.0795
  110TCq2    C5 1678   2.430   0.835   2.188  0.0101  0.5367 -0.3953
  110TCq2    C6 1679   2.330   0.776   2.119  1.3288 -0.3038 -0.2646
  110TCq2    C7 1680   2.239   0.694   2.179  0.7103 -0.0251  0.5373
  110TCq2    C8 1681   2.314   0.804   1.979 -0.2787 -0.1459  0.0966
  110TCq2    O4 1682   2.198   0.801   1.941  0.2201 -0.7231 -0.3537
  110TCq2    C9 1683   2.515   0.914   2.397 -0.8318  0.0350 -0.4785
  110TCq2    O5 1684   2.492   0.930   2.519 -0.1328 -0.0375  0.4739
  110TCq2    O6 1685   2.622   0.941   2.336 -0.2682  0.2702 -0.7165
  110TCq2    H2 1686   2.336   0.750   2.494 -2.5858 -0.4665  0.2360
  110TCq2    H3 1687   2.503   0.902   2.144 -0.0252  1.4370  0.9249
  110TCq2    H4 1688   2.163   0.646   2.117 -0.2942  1.3621  0.6813
  111TMC2    C1 1689   1.274   0.579  11.531  0.0700  0.3234 -0.1409
  111TMC2    C2 1690   1.181   0.477  11.554  0.5077 -0.6639  0.1861
  111TMC2    C3 1691   1.221   0.373  11.634 -0.1553  0.4782 -0.0655
  111TMC2    C4 1692   1.402   0.554  11.568 -0.6510 -0.1809 -1.0818
  111TMC2    C5 1693   1.432   0.450  11.648  0.0182  0.6585 -0.3892
  111TMC2    C6 1694   1.342   0.357  11.692 -1.0470  0.1563  0.3796
  111TMC2     C 1695   1.241   0.680  11.437  0.0646  0.3264 -0.1199
  111TMC2     O 1696   1.324   0.706  11.349 -0.1350 -0.0607 -0.2349
  111TMC2     H 1697   1.083   0.492  11.511 -0.1453  1.0308  2.3213
  111TMC2    H1 1698   1.470   0.639  11.564  0.5348 -1.1057 -0.4654
  111TMC2    H2 1699   1.366   0.279  11.762 -0.7302 -0.3568 -0.3061
  111TMC2    C7 1700   1.564   0.445  11.711 -0.1802 -0.3619 -0.4815
  111TMC2    C8 1701   1.126   0.257  11.639  0.5305  0.3329  0.2367
  111TMC2    O1 1702   1.567   0.389  11.818 -0.1002  0.9142 -0.6029
  111TMC2    O2 1703   1.012   0.268  11.609  0.2974  0.1444  0.3210
  111TMC2    O5 1704   1.196   0.143  11.647  0.0886  0.3393 -0.4242
  111TMC2    H5 1705   1.292   0.162  11.645  0.7170 -2.8102 -0.2648
  112MPD2     C 1706   0.892   1.011  11.264 -0.3451  0.5599  0.1156
  112MPD2    C1 1707   0.994   0.948  11.202 -0.7461  0.2684  0.7398
  112MPD2    C2 1708   1.064   0.854  11.273  0.2853 -0.3995  0.0853
  112MPD2    C3 1709   1.045   0.837  11.405 -0.0371  0.0561 -0.0936
  112MPD2    C4 1710   0.946   0.909  11.471 -0.2078 -0.0322  0.3377
  112MPD2    C5 1711   0.872   1.004  11.399 -0.8808 -0.9668 -0.0031
  112MPD2     H 1712   1.139   0.801  11.217  0.4449  0.9351 -0.9556
  112MPD2    H1 1713   0.916   0.899  11.574 -0.0818  0.2153  0.3976
  112MPD2    H2 1714   0.828   1.074  11.203 -1.1816 -3.6514 -3.3325
  112MPD2    H3 1715   0.794   1.050  11.458 -1.0154 -3.7051  1.9613
  112MPD2     N 1716   1.122   0.741  11.472 -0.3210 -0.1068  0.0369
  112MPD2    H5 1717   1.087   0.720  11.565  0.1353 -1.4194 -0.0943
  112MPD2    N1 1718   1.019   0.962  11.060  0.2233 -0.7246  0.2455
  112MPD2    H7 1719   1.055   0.878  11.018  2.3479 -1.3529  3.3066
  113MPD2     C 1720   0.267   3.089   1.300 -0.8528  0.8827  0.3669
  113MPD2    C1 1721   0.185   3.197   1.337 -1.0103  0.2017  0.3242
  113MPD2    C2 1722   0.055   3.163   1.389  0.0411 -0.7009  0.0146
  113MPD2    C3 1723   0.017   3.025   1.395 -0.8830  0.4627  0.1306
  113MPD2    C4 1724   0.100   2.931   1.337  0.1149 -0.2599 -0.4025
  113MPD2    C5 1725   0.224   2.957   1.290 -0.2153  0.9696 -0.9675
  113MPD2     H 1726   4.718   3.246   1.424  2.2403  0.6030  0.7686
  113MPD2    H1 1727   0.072   2.826   1.329  0.1530 -0.2239 -1.0117
  113MPD2    H2 1728   0.363   3.100   1.251 -1.1178 -0.6543 -0.4952
  113MPD2    H3 1729   0.284   2.889   1.232  1.3565  1.7371 -0.2342
  113MPD2     N 1730   4.621   2.981   1.453  0.0028  0.3225 -1.2399
  113MPD2    H5 1731   4.599   2.884   1.436 -0.8641  0.4610 -0.8662
  113MPD2    N1 1732   0.225   3.335   1.348  0.0047 -0.1481 -1.0653
  113MPD2    H7 1733   0.159   3.409   1.365  1.6237  2.0247 -4.1265
  114TCq2    C1 1734   4.535   3.052   1.533 -0.3252 -0.1497  0.4287
  114TCq2    O2 1735   4.541   3.168   1.571  0.0598  0.0498  0.1149
  114TCq2    C2 1736   4.427   2.967   1.590 -0.6632 -0.3342  0.1446
  114TCq2    C3 1737   4.334   3.035   1.664 -0.0438 -0.8117  0.1327
  114TCq2    C4 1738   4.209   2.971   1.678  0.5268  0.4106  0.2328
  114TCq2    C5 1739   4.192   2.844   1.636  0.2117  0.2418 -0.2700
  114TCq2    C6 1740   4.296   2.777   1.569  0.0547 -0.4673  0.3300
  114TCq2    C7 1741   4.413   2.837   1.544  0.7212 -0.5359 -0.1268
  114TCq2    C8 1742   4.267   2.662   1.490 -0.1762  0.0450  0.5807
  114TCq2    O4 1743   4.335   2.633   1.394 -0.4098  0.0072  0.3830
  114TCq2    C9 1744   4.098   3.044   1.721  0.1112  0.6894  0.3378
  114TCq2    O5 1745   3.984   2.985   1.721  0.0310 -0.2910  0.2634
  114TCq2    O6 1746   4.123   3.163   1.760  0.0433 -0.5632  0.4175
  114TCq2    H2 1747   4.351   3.139   1.690  1.1297 -0.6319 -1.4054
  114TCq2    H3 1748   4.097   2.795   1.649  0.1234  0.3504 -0.5115
  114TCq2    H4 1749   4.486   2.781   1.487  0.2000 -3.3351  1.9834
  115TMC2    C1 1750   0.038   0.861   0.432  0.6254 -0.1999  0.3012
  115TMC2    C2 1751   0.167   0.812   0.436 -0.0087 -0.3416  0.2513
  115TMC2    C3 1752   0.270   0.902   0.431  0.3078  0.1096 -0.3902
  115TMC2    C4 1753   0.016   0.988   0.392 -0.0677 -0.7669  0.5889
  115TMC2    C5 1754   0.121   1.074   0.379 -0.2593 -0.7347 -0.5712
  115TMC2    C6 1755   0.251   1.032   0.390  0.5063  0.1349 -0.0489
  115TMC2     C 1756   4.654   0.769   0.434 -0.3563 -0.6306  0.3527
  115TMC2     O 1757   4.553   0.800   0.378 -0.0838 -0.7187  0.4126
  115TMC2     H 1758   0.183   0.709   0.463  0.7402 -0.6810 -1.5006
  115TMC2    H1 1759   4.643   1.028   0.363 -0.8946 -1.7380  1.9716
  115TMC2    H2 1760   0.330   1.103   0.369 -0.1567  0.3795 -1.7153
  115TMC2    C7 1761   0.085   1.207   0.339  0.5190  0.4868 -0.4916
  115TMC2    C8 1762   0.400   0.852   0.414 -0.3195 -0.0449  0.9051
  115TMC2    O1 1763   4.697   1.239   0.378  0.0403 -0.3953 -0.3888
  115TMC2    O2 1764   0.424   0.738   0.389 -0.9601  0.2602 -0.1229
  115TMC2    O5 1765   0.483   0.924   0.489  0.2852 -0.4949 -0.8829
  115TMC2    H5 1766   0.444   0.997   0.542 -1.3920 -2.0038 -0.0260
  116MPD2     C 1767   4.573   0.280   0.359  0.2061 -0.1494  0.4063
  116MPD2    C1 1768   4.561   0.389   0.274  0.4954 -0.2771 -1.4722
  116MPD2    C2 1769   4.581   0.516   0.329 -0.0440  0.0993  0.8376
  116MPD2    C3 1770   4.628   0.530   0.449 -0.1236 -0.1905 -0.0532
  116MPD2    C4 1771   4.641   0.423   0.537 -0.1733  0.4416  0.5496
  116MPD2    C5 1772   4.612   0.295   0.491  0.0025  0.5139  0.0598
  116MPD2     H 1773   4.575   0.603   0.265 -1.0918 -0.1726  0.5721
  116MPD2    H1 1774   4.677   0.445   0.637 -0.6750 -0.3495  0.9018
  116MPD2    H2 1775   4.551   0.179   0.324 -1.2382 -0.8764  3.3893
  116MPD2    H3 1776   4.628   0.201   0.543 -1.9581  0.2803  0.2341
  116MPD2     N 1777   4.682   0.652   0.493 -0.0827 -0.2024 -0.0725
  116MPD2    H5 1778   0.026   0.645   0.569 -0.8067  1.3603  0.7214
  116MPD2    N1 1779   4.550   0.376   0.135  0.0226  0.4958 -0.6109
  116MPD2    H7 1780   4.541   0.283   0.094 -0.7417  0.3755 -0.1743
  117TMC2    C1 1781   3.573   2.744  14.656  0.1911  0.1465  0.2312
  117TMC2    C2 1782   3.638   2.623  14.669  0.0517 -0.1476  0.0376
  117TMC2    C3 1783   3.752   2.626  14.745  0.1990 -0.2895 -0.6335
  117TMC2    C4 1784   3.635   2.863  14.691 -0.3243  0.1214 -0.2911
  117TMC2    C5 1785   3.758   2.857  14.741  0.2786 -0.0973 -0.1063
  117TMC2    C6 1786   3.820   2.738  14.766  0.2134 -0.1408  0.7948
  117TMC2     C 1787   3.481   2.748  14.543  0.4576  0.1827  0.3897
  117TMC2     O 1788   3.460   2.644  14.486  0.1037 -0.4882 -0.3706
  117TMC2     H 1789   3.581   2.531  14.660  0.3152 -0.5212  2.2246
  117TMC2    H1 1790   3.592   2.960  14.670 -0.9577  0.1062  0.9122
  117TMC2    H2 1791   3.916   2.744  14.816  2.0299  0.0562 -2.7252
  117TMC2    C7 1792   3.834   2.962  14.691 -0.3718 -0.2110 -0.0505
  117TMC2    C8 1793   3.779   2.514  14.833 -0.1345  1.2828 -0.7616
  117TMC2    O1 1794   3.779   3.049  14.623 -0.3339  0.7475 -0.0863
  117TMC2    O2 1795   3.764   2.534  14.952  0.6996 -0.3219  0.7208
  117TMC2    O5 1796   3.756   2.400  14.771  0.1709  0.1131 -0.5999
  117TMC2    H5 1797   3.771   2.406  14.674  1.4078  0.8848 -0.3483
  118MPD2     C 1798   4.200   3.028  14.722 -0.1264  0.0113 -0.6662
  118MPD2    C1 1799   4.071   3.053  14.684 -0.2548 -0.2966 -0.1536
  118MPD2    C2 1800   4.047   3.166  14.609  0.3837 -0.9594  0.3225
  118MPD2    C3 1801   4.153   3.250  14.579  0.3145  0.0536  0.0661
  118MPD2    C4 1802   4.280   3.228  14.635  0.4246  0.3433 -0.4340
  118MPD2    C5 1803   4.307   3.109  14.698 -0.3993  0.2405  0.0978
  118MPD2     H 1804   3.946   3.190  14.575 -0.1013 -0.3417  2.1624
  118MPD2    H1 1805   4.355   3.300  14.603  0.0736  1.0845  0.4002
  118MPD2    H2 1806   4.230   2.935  14.768 -1.2369 -1.1218 -2.2141
  118MPD2    H3 1807   4.404   3.081  14.738 -0.5397 -0.7090 -0.2184
  118MPD2     N 1808   4.151   3.355  14.483  0.3756 -0.0076  0.9244
  118MPD2    H5 1809   4.243   3.392  14.461 -0.1542  1.7243  1.6354
  118MPD2    N1 1810   3.972   2.957  14.720 -0.2597 -0.0932  0.1431
  118MPD2    H7 1811   4.007   2.873  14.766 -1.8346  0.0786  1.6481
  119MPD2     C 1812   2.631   4.449  14.559 -0.0823 -0.4649 -0.5512
  119MPD2    C1 1813   2.510   4.430  14.505  0.0586 -0.9493 -0.1493
  119MPD2    C2 1814   2.491   4.424  14.366  0.4498 -0.5494  0.1943
  119MPD2    C3 1815   2.599   4.397  14.285 -0.8558 -0.4829  0.2397
  119MPD2    C4 1816   2.724   4.403  14.338  0.1896  0.3784 -0.6911
  119MPD2    C5 1817   2.740   4.432  14.471  0.1355 -0.4654  1.1459
  119MPD2     H 1818   2.388   4.436  14.335  0.5422  1.5971  0.7151
  119MPD2    H1 1819   2.813   4.389  14.277 -0.1646  1.4372 -1.4467
  119MPD2    H2 1820   2.647   4.464  14.665 -3.2166  1.4558 -0.3432
  119MPD2    H3 1821   2.840   4.440  14.512  0.2158  2.4558  0.4186
  119MPD2     N 1822   2.582   4.373  14.149  0.3329 -0.0867 -0.7878
  119MPD2    H5 1823   2.667   4.368  14.095  0.2036 -0.0970 -0.9908
  119MPD2    N1 1824   2.405   4.421  14.602  0.1532 -0.3870 -0.1992
  119MPD2    H7 1825   2.441   4.438  14.695  0.8057  2.0734 -0.8802
  120TCq2    C1 1826   2.460   4.345  14.091  0.1999  0.4323  0.5969
  120TCq2    O2 1827   2.342   4.343  14.130 -0.3544  0.5602 -0.2944
  120TCq2    C2 1828   2.479   4.287  13.960  0.2264  0.5081  0.4096
  120TCq2    C3 1829   2.605   4.297  13.894 -0.0174  0.0153 -0.1583
  120TCq2    C4 1830   2.621   4.215  13.784  0.5657  0.4384  1.1773
  120TCq2    C5 1831   2.521   4.128  13.747 -0.0483 -0.1087  0.6152
  120TCq2    C6 1832   2.401   4.125  13.811 -0.3309  0.0639  0.0630
  120TCq2    C7 1833   2.380   4.200  13.921  0.1506  0.4529 -0.1168
  120TCq2    C8 1834   2.284   4.071  13.738  0.0923  0.4170 -0.0945
  120TCq2    O4 1835   2.300   4.019  13.627 -0.2572  0.7566 -0.3693
  120TCq2    C9 1836   2.748   4.214  13.723 -0.2638  0.0903  0.3575
  120TCq2    O5 1837   2.840   4.278  13.779 -0.2362 -0.7037  0.1626
  120TCq2    O6 1838   2.757   4.159  13.611 -0.0874  0.3853  0.1256
  120TCq2    H2 1839   2.677   4.373  13.923  1.4168 -1.6604  0.6844
  120TCq2    H3 1840   2.529   4.071  13.654  0.7220  1.2412 -0.1412
  120TCq2    H4 1841   2.291   4.190  13.983  0.5118 -1.0964  0.1466
  121TMC2    C1 1842   3.696   1.425  14.124  0.1014 -0.1327 -0.1888
  121TMC2    C2 1843   3.608   1.434  14.228 -0.4172 -0.2425 -0.0902
  121TMC2    C3 1844   3.501   1.352  14.225  0.2838 -0.2036 -0.0778
  121TMC2    C4 1845   3.663   1.357  14.009  0.2864  0.1890 -0.0819
  121TMC2    C5 1846   3.553   1.282  14.012 -0.5547  0.2279  0.8836
  121TMC2    C6 1847   3.473   1.270  14.118 -0.5347 -0.6290 -0.2738
  121TMC2     C 1848   3.835   1.482  14.146 -0.2778  1.4814  0.0968
  121TMC2     O 1849   3.867   1.540  14.251 -0.9213 -0.1747  0.4212
  121TMC2     H 1850   3.633   1.502  14.309 -1.4473 -0.9555  0.8181
  121TMC2    H1 1851   3.732   1.344  13.926  1.5181 -3.8825  1.5730
  121TMC2    H2 1852   3.402   1.188  14.125 -0.3606 -0.6942  0.7567
  121TMC2    C7 1853   3.552   1.170  13.908 -0.5920  0.7200 -0.6335
  121TMC2    C8 1854   3.394   1.400  14.319 -0.1484  0.6552  0.1220
  121TMC2    O1 1855   3.658   1.156  13.846  0.9982 -0.0498 -0.9021
  121TMC2    O2 1856   3.415   1.475  14.415  0.5986  0.0023 -0.0419
  121TMC2    O5 1857   3.275   1.365  14.273  0.1324 -0.1711  0.1785
  121TMC2    H5 1858   3.260   1.329  14.183 -1.5605  1.6813 -0.2800
  122MPD2     C 1859   4.148   1.498  14.136 -0.1109  0.0160 -0.1063
  122MPD2    C1 1860   4.055   1.491  14.030 -0.4886  0.5731  0.1241
  122MPD2    C2 1861   4.104   1.481  13.904 -0.2313 -0.0726 -0.0261
  122MPD2    C3 1862   4.241   1.497  13.881 -0.1432  1.2730  0.2120
  122MPD2    C4 1863   4.330   1.522  13.984  0.1021  0.0744  0.6573
  122MPD2    C5 1864   4.280   1.516  14.112 -0.2060 -0.2332  0.0587
  122MPD2     H 1865   4.038   1.476  13.818 -0.0366  0.7877 -0.2336
  122MPD2    H1 1866   4.436   1.532  13.966 -0.3069  1.7285 -0.8114
  122MPD2    H2 1867   4.107   1.495  14.237  1.9315  0.5512  0.7351
  122MPD2    H3 1868   4.344   1.520  14.199  1.0865  1.6300 -0.9574
  122MPD2     N 1869   4.305   1.501  13.756 -0.3219 -0.0135  0.6584
  122MPD2    H5 1870   4.406   1.511  13.756 -0.2932 -0.3205  0.1675
  122MPD2    N1 1871   3.917   1.468  14.032 -0.4356 -0.3102  0.5484
  122MPD2    H7 1872   3.880   1.434  13.944  1.6196 -0.6460 -0.1853
  123MPD2     C 1873   2.160   3.958   9.845 -0.4246  0.4034  0.2239
  123MPD2    C1 1874   2.121   3.827   9.827 -0.5485 -0.2025  0.3529
  123MPD2    C2 1875   2.214   3.741   9.771 -0.6195 -0.2269  0.1113
  123MPD2    C3 1876   2.344   3.779   9.735 -0.1980  0.0183 -0.2283
  123MPD2    C4 1877   2.375   3.914   9.751  0.0509  0.3975  0.7475
  123MPD2    C5 1878   2.285   4.000   9.804  0.0281  0.4660 -0.0319
  123MPD2     H 1879   2.186   3.638   9.753  0.2864 -0.9695  2.9467
  123MPD2    H1 1880   2.474   3.958   9.739 -0.2343  0.0065 -2.8108
  123MPD2    H2 1881   2.099   4.036   9.889 -1.7144 -0.5333  0.0900
  123MPD2    H3 1882   2.318   4.100   9.830  0.5183  0.1257  0.6575
  123MPD2     N 1883   2.426   3.687   9.664  0.7065 -0.0914 -0.2728
  123MPD2    H5 1884   2.388   3.595   9.641 -0.7739  0.4324  0.0470
  123MPD2    N1 1885   1.985   3.786   9.857 -0.1003  0.4197  0.4188
  123MPD2    H7 1886   1.921   3.863   9.868 -1.7161 -1.0537  1.3464
  124TCq2    C1 1887   2.556   3.704   9.635  0.2333 -0.5529  0.3901
  124TCq2    O2 1888   2.637   3.795   9.655 -0.2678  0.2094  0.4449
  124TCq2    C2 1889   2.603   3.579   9.584 -0.1384  0.2457  0.1569
  124TCq2    C3 1890   2.526   3.523   9.481 -0.3609  0.3681 -0.5895
  124TCq2    C4 1891   2.550   3.394   9.450  0.0041  0.5563  0.4430
  124TCq2    C5 1892   2.643   3.316   9.519  0.4095  0.3432 -0.2096
  124TCq2    C6 1893   2.714   3.377   9.619  0.0684  0.0606 -0.0726
  124TCq2    C7 1894   2.699   3.512   9.655  0.3852  0.5264 -0.4033
  124TCq2    C8 1895   2.759   3.294   9.739 -0.6049  0.1857  0.3037
  124TCq2    O4 1896   2.807   3.355   9.836 -0.0059 -0.0049  0.2515
  124TCq2    C9 1897   2.492   3.341   9.336  0.4502 -0.1261 -0.2465
  124TCq2    O5 1898   2.562   3.258   9.274 -0.2083 -0.3387 -0.1975
  124TCq2    O6 1899   2.381   3.390   9.298 -0.4125 -0.1690  0.1176
  124TCq2    H2 1900   2.453   3.586   9.433  0.8548  0.5401 -2.2059
  124TCq2    H3 1901   2.666   3.218   9.480  2.3824 -0.0482  1.9841
  124TCq2    H4 1902   2.757   3.564   9.731 -0.0066 -1.0275  0.9513
  125TMC2    C1 1903   2.505   1.065   9.523 -1.0377  0.3273 -0.0092
  125TMC2    C2 1904   2.442   1.121   9.634 -0.2512  0.3879 -0.1914
  125TMC2    C3 1905   2.504   1.114   9.757  0.5752 -0.1019 -0.2175
  125TMC2    C4 1906   2.632   1.018   9.531 -0.1023  0.5074 -0.1723
  125TMC2    C5 1907   2.685   1.018   9.658  0.4241 -0.4386 -0.3128
  125TMC2    C6 1908   2.620   1.058   9.773  0.6030 -0.0513 -0.5655
  125TMC2     C 1909   2.422   1.050   9.408 -0.3217  0.0388  0.4649
  125TMC2     O 1910   2.301   1.049   9.419 -0.2993 -0.6039  0.0765
  125TMC2     H 1911   2.346   1.163   9.603 -1.5078 -0.8731  2.0226
  125TMC2    H1 1912   2.689   0.979   9.448  1.4194 -0.2222  1.2059
  125TMC2    H2 1913   2.669   1.055   9.870  0.9309  0.3800 -0.7154
  125TMC2    C7 1914   2.810   0.948   9.675  0.3702  0.7771 -0.6124
  125TMC2    C8 1915   2.418   1.153   9.872  0.1632 -0.0646  0.1164
  125TMC2    O1 1916   2.826   0.891   9.783 -0.1432 -0.5181  0.6396
  125TMC2    O2 1917   2.398   1.085   9.971  0.6101  0.3637 -0.9136
  125TMC2    O5 1918   2.358   1.268   9.849  0.3039  0.1983 -0.3411
  125TMC2    H5 1919   2.397   1.311   9.770  1.7158 -0.2322  0.1335
  126MPD1     C 1920   2.373   0.916   8.921 -0.4751  0.3051  0.4654
  126MPD1    C1 1921   2.501   0.958   8.935  0.0137 -0.4468 -0.2022
  126MPD1    C2 1922   2.534   1.015   9.058 -0.0666  0.0313  0.4546
  126MPD1    C3 1923   2.452   1.004   9.168 -0.5748 -0.1898 -0.1776
  126MPD1    C4 1924   2.327   0.946   9.150  0.2529  0.0801 -0.4953
  126MPD1    C5 1925   2.287   0.910   9.025  0.4987 -0.3610  0.3018
  126MPD1     H 1926   2.633   1.053   9.080 -0.2878  1.3885 -0.8724
  126MPD1    H1 1927   2.250   0.939   9.226 -2.0686 -0.5866 -2.9261
  126MPD1    H2 1928   2.341   0.880   8.825 -0.6216  0.1467  0.5740
  126MPD1    H3 1929   2.188   0.872   9.003  0.8526 -0.7671 -0.6142
  126MPD1     N 1930   2.498   1.050   9.292 -0.4881 -0.6308  0.1620
  126MPD1    H5 1931   2.596   1.074   9.303 -0.6320  0.1593 -0.2313
  126MPD1    N1 1932   2.589   0.979   8.827  0.0225 -0.1739 -0.0911
  126MPD1    H6 1933   2.568   0.907   8.758  1.6616  1.5242 -2.3821
  126MPD1    H7 1934   2.683   0.962   8.862  0.0225  1.7881  0.8565
  127MPD2     C 1935   3.390   4.303   9.280 -0.2414  0.1549  0.2036
  127MPD2    C1 1936   3.455   4.277   9.395  0.0779  0.5948  0.4449
  127MPD2    C2 1937   3.544   4.375   9.439 -0.5181 -0.3978  0.0922
  127MPD2    C3 1938   3.552   4.499   9.374  0.4211  0.2737  0.3283
  127MPD2    C4 1939   3.471   4.529   9.267  1.1024 -0.0183  0.2783
  127MPD2    C5 1940   3.397   4.427   9.213  0.2145  1.0407 -0.1171
  127MPD2     H 1941   3.604   4.362   9.528 -0.5298 -0.0253  0.1566
  127MPD2    H1 1942   3.473   4.625   9.216 -0.9967 -0.2093 -0.1813
  127MPD2    H2 1943   3.315   4.232   9.246 -0.8815  0.0576  1.8374
  127MPD2    H3 1944   3.347   4.431   9.117 -2.0692  2.0138  1.1228
  127MPD2     N 1945   3.658   4.580   9.432  0.4252  0.8748 -0.6853
  127MPD2    H5 1946   3.699   4.552   9.520  0.8278  0.0564 -1.1303
  127MPD2    N1 1947   3.427   4.153   9.462 -0.0086  0.1551  0.8013
  127MPD2    H7 1948   3.346   4.100   9.432 -0.0182  0.3442  0.4920
  128TCq2    C1 1949   3.491   4.109   9.578  0.4625 -0.1224 -0.3164
  128TCq2    O2 1950   3.571   4.169   9.647 -0.5295 -0.6660 -0.1726
  128TCq2    C2 1951   3.453   3.978   9.629  0.2810  0.2062 -0.1560
  128TCq2    C3 1952   3.541   3.918   9.715  0.6933  0.0694 -0.7126
  128TCq2    C4 1953   3.522   3.787   9.742  0.1461 -0.3841  0.0036
  128TCq2    C5 1954   3.422   3.708   9.685 -0.3714  0.3195 -0.0952
  128TCq2    C6 1955   3.345   3.770   9.598  0.3637  0.2296  0.4231
  128TCq2    C7 1956   3.354   3.904   9.563 -0.0612 -0.2711  0.0882
  128TCq2    C8 1957   3.244   3.695   9.518 -0.7029  0.1172 -0.2436
  128TCq2    O4 1958   3.181   3.757   9.432 -0.5567 -0.1929  0.0358
  128TCq2    C9 1959   3.621   3.716   9.825 -1.1044  0.2809 -0.1492
  128TCq2    O5 1960   3.602   3.592   9.833  0.0305 -0.3264  0.0403
  128TCq2    O6 1961   3.693   3.775   9.906  0.0730  0.5344  0.4249
  128TCq2    H2 1962   3.627   3.971   9.752 -0.4973  1.5252 -0.0082
  128TCq2    H3 1963   3.414   3.603   9.710  2.4720 -0.6042 -3.1355
  128TCq2    H4 1964   3.297   3.945   9.480  2.3059  0.7437 -1.0404
  129MPD2     C 1965   3.197   0.283   1.433  0.1272  0.2888 -0.2032
  129MPD2    C1 1966   3.126   0.202   1.521  0.1833  0.3246  0.0653
  129MPD2    C2 1967   3.008   0.249   1.568 -0.3298 -0.5568  0.3237
  129MPD2    C3 1968   2.949   0.360   1.517 -0.3078 -0.1524 -0.1022
  129MPD2    C4 1969   3.025   0.444   1.436 -0.2747  0.0416  0.5300
  129MPD2    C5 1970   3.147   0.405   1.397 -0.1363 -0.4429 -0.0847
  129MPD2     H 1971   2.949   0.183   1.631  2.0990 -0.2819  2.8487
  129MPD2    H1 1972   3.001   0.545   1.404 -2.3466 -0.7875 -0.4903
  129MPD2    H2 1973   3.295   0.254   1.399  0.4319 -0.0131  0.9313
  129MPD2    H3 1974   3.201   0.473   1.331 -2.1507  1.1347 -0.0970
  129MPD2     N 1975   2.806   0.386   1.546 -0.0526  0.2926 -0.1643
  129MPD2    H5 1976   2.754   0.331   1.613 -0.7180  1.1072 -0.0061
  129MPD2    N1 1977   3.168   0.073   1.565 -0.0590 -0.2862  0.4254
  129MPD2    H7 1978   3.116   0.031   1.642  0.6730  1.4249  1.8430
  130TCq2    C1 1979   3.274   0.005   1.517  0.3333 -0.0613 -0.7518
  130TCq2    O2 1980   3.356   0.035   1.430  0.2050 -0.7340  0.7007
  130TCq2    C2 1981   3.297   4.602   1.581 -0.2268 -0.3582 -0.2277
  130TCq2    C3 1982   3.425   4.549   1.564  0.2350 -0.2537  0.2370
  130TCq2    C4 1983   3.450   4.419   1.615  0.1034  0.1273  0.0616
  130TCq2    C5 1984   3.347   4.335   1.643  0.0658 -0.4331  0.5196
  130TCq2    C6 1985   3.221   4.385   1.643  0.1782  0.7992 -0.3565
  130TCq2    C7 1986   3.191   4.518   1.632  0.0122  0.2823 -0.3220
  130TCq2    C8 1987   3.106   4.295   1.630  0.1786  0.2330 -0.2521
  130TCq2    O4 1988   2.999   4.343   1.666  0.6410 -0.1505 -0.3943
  130TCq2    C9 1989   3.578   4.357   1.606  0.3598  0.6715  0.3571
  130TCq2    O5 1990   3.599   4.247   1.664 -0.2998 -0.0653  0.0071
  130TCq2    O6 1991   3.664   4.407   1.532 -0.0721  0.2746  0.0952
  130TCq2    H2 1992   3.511   4.607   1.533  0.8564 -1.9483 -1.1861
  130TCq2    H3 1993   3.380   4.235   1.667 -0.8537 -1.7440 -3.6376
  130TCq2    H4 1994   3.087   4.546   1.617 -0.0953  0.0220 -0.0588
  131MPD2     C 1995   1.381   4.298  10.107 -0.2508  0.8744  0.0178
  131MPD2    C1 1996   1.501   4.258  10.159  0.7018  0.2017 -0.4825
  131MPD2    C2 1997   1.557   4.129  10.142 -0.3343 -0.1375 -0.0311
  131MPD2    C3 1998   1.487   4.038  10.061  0.7518 -0.1456  0.5951
  131MPD2    C4 1999   1.366   4.079  10.011 -0.6352 -0.2149 -0.1568
  131MPD2    C5 2000   1.322   4.205  10.026  0.7587  0.3008  0.2025
  131MPD2     H 2001   1.652   4.099  10.184 -0.8698 -0.4930  0.9426
  131MPD2    H1 2002   1.309   4.020   9.940  0.8553 -1.6994 -0.0975
  131MPD2    H2 2003   1.328   4.392  10.120  0.9053  1.1763  2.4366
  131MPD2    H3 2004   1.242   4.236   9.960  2.2131  1.9812 -0.7541
  131MPD2     N 2005   1.544   3.909  10.030  0.0360 -0.5343 -0.5372
  131MPD2    H5 2006   1.625   3.880  10.084 -1.5274  0.6030  2.4154
  131MPD2    N1 2007   1.563   4.351  10.238 -0.2046  0.8239  0.8958
  131MPD2    H7 2008   1.520   4.443  10.236 -0.4962  0.6574 -0.5387
  132TCq2    C1 2009   2.067   4.589  10.438  0.3734  0.3840  0.5859
  132TCq2    O2 2010   2.121   4.483  10.464  0.1672  0.2228  0.4465
  132TCq2    C2 2011   1.924   4.579  10.441 -0.4937  0.4840  0.3423
  132TCq2    C3 2012   1.846   4.694  10.458  0.6730 -0.3314 -0.2900
  132TCq2    C4 2013   1.714   4.683  10.423  0.3198 -0.4195 -0.2516
  132TCq2    C5 2014   1.657   4.567  10.379 -0.4059 -0.2298 -0.1514
  132TCq2    C6 2015   1.734   4.453  10.376 -0.4942  0.0550  0.3860
  132TCq2    C7 2016   1.867   4.460  10.408  0.2232  1.3204 -0.7628
  132TCq2    C8 2017   1.674   4.328  10.317 -0.0501  0.2639  0.0933
  132TCq2    O4 2018   1.757   4.233  10.323 -0.3949 -0.0994  0.1299
  132TCq2    C9 2019   1.631   0.077  10.424  0.5961  0.3862  0.0889
  132TCq2    O5 2020   1.690   0.185  10.445  0.5394  0.6595 -0.3904
  132TCq2    O6 2021   1.528   0.057  10.357 -0.0011 -0.3627  0.3484
  132TCq2    H2 2022   1.889   0.056  10.511  1.3387  0.6052 -2.3356
  132TCq2    H3 2023   1.549   4.566  10.364 -0.4751  0.4017  0.3131
  132TCq2    H4 2024   1.933   4.377  10.384 -0.7874  0.3100 -0.0751
  133MPD2     C 2025   1.081   0.898   9.718 -0.7186  0.0432  0.2911
  133MPD2    C1 2026   1.157   0.807   9.649 -0.2753  0.3543  0.2473
  133MPD2    C2 2027   1.117   0.674   9.656 -0.4376 -0.0019 -0.4871
  133MPD2    C3 2028   1.021   0.627   9.747 -0.4082  0.2725 -0.4939
  133MPD2    C4 2029   0.961   0.723   9.824  1.3612  0.0296  0.3836
  133MPD2    C5 2030   0.983   0.855   9.804  0.6419  0.5534 -0.5227
  133MPD2     H 2031   1.183   0.601   9.611 -0.1772 -0.1436  0.1275
  133MPD2    H1 2032   0.888   0.717   9.904 -0.1143  0.0541 -0.9625
  133MPD2    H2 2033   1.120   0.999   9.719 -1.3413  0.2699  2.8472
  133MPD2    H3 2034   0.922   0.925   9.859  1.0636 -0.8857  1.7570
  133MPD2     N 2035   0.974   0.490   9.770 -0.1106  0.4096 -0.0061
  133MPD2    H5 2036   0.894   0.469   9.827  0.3292 -0.1246  0.4187
  133MPD2    N1 2037   1.245   0.858   9.551 -0.3509 -1.0371  0.1963
  133MPD2    H7 2038   1.266   0.957   9.545  1.1297 -1.3335  0.4886
  134TCq2    C1 2039   1.328   0.786   9.468  0.4372 -0.1905  0.3493
  134TCq2    O2 2040   1.307   0.673   9.422  0.3907 -0.3757  0.0985
  134TCq2    C2 2041   1.410   0.869   9.388 -0.1659 -0.2454 -0.6564
  134TCq2    C3 2042   1.457   0.813   9.270 -0.4890 -0.1105  0.0017
  134TCq2    C4 2043   1.556   0.881   9.209 -0.3036 -0.3592  0.0579
  134TCq2    C5 2044   1.610   0.999   9.256 -0.1209  0.6370  0.5487
  134TCq2    C6 2045   1.562   1.052   9.368  0.2650  0.1162  0.4196
  134TCq2    C7 2046   1.461   0.988   9.436  0.2075 -0.2035 -0.1722
  134TCq2    C8 2047   1.570   1.194   9.388  0.0932 -0.1720  0.5242
  134TCq2    O4 2048   1.469   1.249   9.433 -0.0300 -0.0394  0.5266
  134TCq2    C9 2049   1.616   0.822   9.095  0.4558 -0.6431  0.3861
  134TCq2    O5 2050   1.676   0.896   9.012  0.1425  0.0038 -0.0298
  134TCq2    O6 2051   1.591   0.701   9.085  0.7215 -0.0138  0.2888
  134TCq2    H2 2052   1.418   0.722   9.225 -0.8560 -0.9866  2.1020
  134TCq2    H3 2053   1.701   1.035   9.209  0.1449 -0.5284  0.1721
  134TCq2    H4 2054   1.426   1.025   9.532 -1.4549  1.4711 -1.4233
  135MPD2     C 2055   3.484   1.175   9.709  0.4427 -0.6534 -0.1941
  135MPD2    C1 2056   3.431   1.233   9.598 -0.5722  0.3865 -0.3467
  135MPD2    C2 2057   3.511   1.241   9.489 -0.5079 -0.2725  0.1017
  135MPD2    C3 2058   3.640   1.190   9.489  0.0825  0.9521 -0.2471
  135MPD2    C4 2059   3.688   1.126   9.598  0.5087  0.1324 -0.0566
  135MPD2    C5 2060   3.616   1.133   9.718  0.0896 -0.4647  0.0122
  135MPD2     H 2061   3.468   1.293   9.405  0.0762  1.2652  0.7667
  135MPD2    H1 2062   3.784   1.078   9.607 -0.2180 -1.2626  0.2988
  135MPD2    H2 2063   3.430   1.167   9.803  1.6617 -2.3147  0.3705
  135MPD2    H3 2064   3.659   1.086   9.806 -3.4895 -0.4956  1.7721
  135MPD2     N 2065   3.723   1.207   9.386  0.2440  0.2149 -0.2210
  135MPD2    H5 2066   3.813   1.164   9.403  0.0663  0.3874  1.2111
  135MPD2    N1 2067   3.301   1.287   9.576  0.3950 -0.6868 -0.4927
  135MPD2    H7 2068   3.283   1.329   9.486  2.8651 -0.7432 -1.0292
  136TCq2    C1 2069   3.201   1.275   9.670 -0.2522  0.2062 -0.1155
  136TCq2    O2 2070   3.216   1.264   9.790 -0.6826  0.1031  0.2390
  136TCq2    C2 2071   3.081   1.341   9.621 -0.1807 -0.5050  0.0321
  136TCq2    C3 2072   3.022   1.282   9.505 -0.3170  0.6326 -0.1550
  136TCq2    C4 2073   2.887   1.297   9.483 -0.7243 -0.1481  0.0443
  136TCq2    C5 2074   2.817   1.391   9.559 -0.3256 -0.1833  0.3999
  136TCq2    C6 2075   2.884   1.452   9.666 -0.2768  0.9907  0.1020
  136TCq2    C7 2076   3.015   1.426   9.705 -0.6296 -0.0537  0.1207
  136TCq2    C8 2077   2.830   1.567   9.722  0.0155  0.5784 -0.0434
  136TCq2    O4 2078   2.887   1.674   9.693 -0.2275  0.3939  0.1799
  136TCq2    C9 2079   2.821   1.230   9.375 -0.0020  0.4919  0.5946
  136TCq2    O5 2080   2.867   1.115   9.345  0.8998 -1.0119  0.1682
  136TCq2    O6 2081   2.706   1.269   9.338 -0.6485  0.2235 -0.4615
  136TCq2    H2 2082   3.086   1.209   9.455  0.0760  0.6644  0.2996
  136TCq2    H3 2083   2.709   1.397   9.550 -0.2071  0.9272 -0.3320
  136TCq2    H4 2084   3.070   1.462   9.790  0.2164 -1.0622 -0.0083
  137MPD2     C 2085   3.373   0.510   9.985 -0.0505 -0.3519 -0.1244
  137MPD2    C1 2086   3.265   0.509   9.900  0.2759  0.1588 -0.0689
  137MPD2    C2 2087   3.153   0.570   9.951 -0.5337  0.2070 -0.7409
  137MPD2    C3 2088   3.150   0.630  10.076 -0.1713  0.4781 -0.2144
  137MPD2    C4 2089   3.259   0.623  10.154  0.2196 -0.1261 -0.6431
  137MPD2    C5 2090   3.372   0.559  10.113 -0.0034  0.0450  0.4909
  137MPD2     H 2091   3.068   0.597   9.891 -0.8474  1.1886  0.1468
  137MPD2    H1 2092   3.268   0.677  10.247  1.6349 -0.6876 -0.4562
  137MPD2    H2 2093   3.467   0.466   9.954 -0.9633 -2.1075 -0.3946
  137MPD2    H3 2094   3.455   0.548  10.182 -1.4052 -0.8294  2.0509
  137MPD2     N 2095   3.029   0.696  10.109 -0.8926 -0.4281 -0.6369
  137MPD2    H5 2096   2.961   0.712  10.036 -1.6124  1.1276  0.3852
  137MPD2    N1 2097   3.275   0.467   9.760 -0.6115  0.4510 -0.2706
  137MPD2    H7 2098   3.360   0.433   9.717  0.2948  2.6681 -0.2682
  138TCq2    C1 2099   3.169   0.461   9.675  0.0774 -0.2561  0.3187
  138TCq2    O2 2100   3.048   0.465   9.688 -0.7283  0.3647 -0.4692
  138TCq2    C2 2101   3.220   0.491   9.538 -0.1919  0.4046  0.6500
  138TCq2    C3 2102   3.335   0.555   9.521 -0.1010 -0.0601 -0.5784
  138TCq2    C4 2103   3.360   0.604   9.400 -0.3210  1.0520 -0.7223
  138TCq2    C5 2104   3.262   0.600   9.303 -0.0985  0.2782 -0.3158
  138TCq2    C6 2105   3.144   0.532   9.324  0.4832  0.2416 -0.6820
  138TCq2    C7 2106   3.125   0.473   9.443 -0.9350 -0.2059  0.1498
  138TCq2    C8 2107   3.022   0.591   9.273  0.3212 -0.6776 -0.2794
  138TCq2    O4 2108   3.015   0.642   9.163 -0.4219 -0.5059  0.6001
  138TCq2    C9 2109   3.483   0.690   9.384  0.1304 -0.3266 -0.7017
  138TCq2    O5 2110   3.573   0.661   9.462  0.1179 -0.1222 -0.1346
  138TCq2    O6 2111   3.506   0.733   9.268 -0.9811 -0.1224  0.3481
  138TCq2    H2 2112   3.399   0.575   9.606 -3.1481 -1.8499  2.1859
  138TCq2    H3 2113   3.273   0.662   9.215  3.4646  1.5487  1.0116
  138TCq2    H4 2114   3.037   0.418   9.475 -0.1726 -0.8216  1.1981
  139TMC2    C1 2115   3.698   3.933  13.740 -0.5067 -0.1598  0.4506
  139TMC2    C2 2116   3.712   3.932  13.605  0.0382  0.0060  0.2730
  139TMC2    C3 2117   3.671   4.045  13.541 -0.4224  0.2083 -0.4792
  139TMC2    C4 2118   3.636   4.031  13.810 -0.7619 -0.3138 -0.5650
  139TMC2    C5 2119   3.587   4.136  13.735  0.2896 -0.5200 -0.6916
  139TMC2    C6 2120   3.605   4.152  13.596  0.1862  0.8588 -0.0057
  139TMC2     C 2121   3.743   3.808  13.806  0.0464  0.4579 -0.4032
  139TMC2     O 2122   3.763   3.707  13.738  0.2112 -0.2267  0.6505
  139TMC2     H 2123   3.759   3.851  13.550 -0.1824 -0.2089  0.3989
  139TMC2    H1 2124   3.611   4.031  13.916 -1.8061 -0.4276 -0.8127
  139TMC2    H2 2125   3.579   4.241  13.540 -0.9172 -0.4863 -1.6082
  139TMC2    C7 2126   3.517   4.236  13.803 -0.2972 -0.1246  1.0175
  139TMC2    C8 2127   3.676   4.048  13.396 -0.4065  0.0256 -1.0273
  139TMC2    O1 2128   3.444   4.308  13.734 -0.1765 -0.0427 -0.3941
  139TMC2    O2 2129   3.768   4.018  13.324  0.1688  0.5080  0.7285
  139TMC2    O5 2130   3.556   4.076  13.352  0.0664  0.1511 -0.4397
  139TMC2    H5 2131   3.484   4.085  13.418  2.7842  3.7188  2.0734
  140MPD2     C 2132   3.767   3.795  14.174  0.2162  0.2793 -0.7726
  140MPD2    C1 2133   3.753   3.742  14.048 -0.5551 -0.4254  0.1484
  140MPD2    C2 2134   3.726   3.602  14.029 -0.2375  0.6149 -0.5913
  140MPD2    C3 2135   3.712   3.518  14.143 -1.0488 -0.6107 -0.1304
  140MPD2    C4 2136   3.739   3.575  14.266  0.3609 -0.5339 -0.1946
  140MPD2    C5 2137   3.770   3.710  14.278  0.0308  0.0181  0.2568
  140MPD2     H 2138   3.709   3.553  13.934 -0.1282 -1.5441  0.4995
  140MPD2    H1 2139   3.749   3.516  14.356  0.5791 -0.0615  0.0861
  140MPD2    H2 2140   3.781   3.903  14.180  3.6765 -0.3322  2.2031
  140MPD2    H3 2141   3.784   3.751  14.377 -2.2933  0.6821  0.3123
  140MPD2     N 2142   3.681   3.378  14.130  0.0203  0.3339  0.2793
  140MPD2    H5 2143   3.675   3.345  14.034  1.4009  0.2026  0.2326
  140MPD2    N1 2144   3.755   3.834  13.939  0.8398  0.5787 -0.2923
  140MPD2    H7 2145   3.766   3.929  13.973  3.5930  0.2131 -0.1459
  141TCq2    C1 2146   3.905   0.166  13.995 -0.0694  0.6617 -0.1227
  141TCq2    O2 2147   3.811   0.143  13.916 -0.0327  0.6508  0.2921
  141TCq2    C2 2148   3.865   0.217  14.120  0.1860 -0.3913 -0.1940
  141TCq2    C3 2149   3.933   0.183  14.231 -0.4540 -0.0860  0.1596
  141TCq2    C4 2150   3.943   0.274  14.329  0.4604 -0.4201 -1.0700
  141TCq2    C5 2151   3.864   0.380  14.328 -0.3593  0.0173 -0.7350
  141TCq2    C6 2152   3.786   0.412  14.220  0.8084  0.2731  0.1283
  141TCq2    C7 2153   3.784   0.330  14.111 -0.0141 -0.7006  0.3579
  141TCq2    C8 2154   3.766   0.550  14.184  0.2298  0.1462  0.0171
  141TCq2    O4 2155   3.652   0.582  14.156 -0.3725  0.4576 -0.4192
  141TCq2    C9 2156   4.033   0.239  14.434  0.0509 -0.1334 -0.0398
  141TCq2    O5 2157   4.025   0.323  14.527  0.3339  0.3466  0.4585
  141TCq2    O6 2158   4.047   0.116  14.449 -0.2807  0.2550 -0.6726
  141TCq2    H2 2159   3.991   0.092  14.246  1.9085  1.9919  3.5742
  141TCq2    H3 2160   3.882   0.458  14.401 -0.1599  1.6538 -2.5409
  141TCq2    H4 2161   3.727   0.353  14.022 -0.1851  1.5283  1.0458
  142MPD2     C 2162   2.041   3.203  10.791 -0.9574  0.4794  0.2923
  142MPD2    C1 2163   2.078   3.270  10.670 -0.4143  0.2559 -0.0023
  142MPD2    C2 2164   2.212   3.266  10.628 -0.1864  0.5865 -0.2518
  142MPD2    C3 2165   2.309   3.195  10.705 -0.5735 -0.4521 -0.5273
  142MPD2    C4 2166   2.266   3.147  10.826 -0.2384  0.2943  0.2090
  142MPD2    C5 2167   2.138   3.150  10.872 -0.3593 -0.2199 -0.1355
  142MPD2     H 2168   2.243   3.312  10.534 -0.7349  1.9119  0.2227
  142MPD2    H1 2169   2.331   3.107  10.903  1.3237  0.3833 -1.0413
  142MPD2    H2 2170   1.939   3.196  10.829 -1.2745 -0.3027 -0.7077
  142MPD2    H3 2171   2.112   3.108  10.969  2.2672 -1.8341 -0.1215
  142MPD2     N 2172   2.439   3.167  10.669 -0.2370 -0.3661 -0.4274
  142MPD2    H5 2173   2.498   3.127  10.742  0.9806  0.4832 -0.9305
  142MPD2    N1 2174   1.984   3.318  10.579 -0.2201  0.6844  0.3244
  142MPD2    H7 2175   2.033   3.369  10.506 -0.5970  2.4083  1.2525
  143TCq2    C1 2176   2.492   3.187  10.548  0.4548 -0.4573 -0.0788
  143TCq2    O2 2177   2.427   3.213  10.450  0.1703  0.3328 -0.2989
  143TCq2    C2 2178   2.634   3.150  10.537 -0.7226 -0.3603 -0.3863
  143TCq2    C3 2179   2.723   3.219  10.620  0.1350 -0.1246  0.4049
  143TCq2    C4 2180   2.858   3.219  10.597  0.5047 -0.4048  0.1630
  143TCq2    C5 2181   2.903   3.162  10.477 -0.6468 -0.0464  0.0094
  143TCq2    C6 2182   2.813   3.095  10.397 -0.2331 -0.1455 -0.7026
  143TCq2    C7 2183   2.676   3.101  10.418  0.6149 -0.5992 -0.3119
  143TCq2    C8 2184   2.839   3.088  10.250 -0.1891  0.0657  0.1211
  143TCq2    O4 2185   2.923   3.163  10.212  0.4435 -0.1438  0.7421
  143TCq2    C9 2186   2.952   3.296  10.679 -0.3933 -0.8150  0.1458
  143TCq2    O5 2187   3.071   3.287  10.636  0.0951 -0.2753 -0.0995
  143TCq2    O6 2188   2.898   3.363  10.778 -0.5638 -0.6289  0.0663
  143TCq2    H2 2189   2.695   3.263  10.715  1.2649 -1.2610  1.2773
  143TCq2    H3 2190   3.008   3.158  10.451 -1.4400 -0.9930 -3.1167
  143TCq2    H4 2191   2.594   3.076  10.351  1.2195  1.4014 -1.7950
  144MPD2     C 2192   4.169   2.528   0.820 -0.4601  0.2809  0.2640
  144MPD2    C1 2193   4.230   2.411   0.824  0.3165  0.2190 -0.6001
  144MPD2    C2 2194   4.290   2.372   0.939 -0.3723 -0.4863 -0.5281
  144MPD2    C3 2195   4.290   2.453   1.056  0.1344  0.6026  0.4049
  144MPD2    C4 2196   4.211   2.573   1.055 -1.0760  0.5854 -0.0869
  144MPD2    C5 2197   4.150   2.610   0.936 -0.0860 -0.5902 -0.3153
  144MPD2     H 2198   4.349   2.282   0.948 -1.3261 -0.9702  0.8501
  144MPD2    H1 2199   4.196   2.633   1.144  0.8248 -0.3680  0.8792
  144MPD2    H2 2200   4.137   2.565   0.723 -0.6193 -0.0441  0.1910
  144MPD2    H3 2201   4.092   2.702   0.932 -1.1810 -1.1622  2.7769
  144MPD2     N 2202   4.383   2.425   1.159 -0.6117 -0.6153 -0.5026
  144MPD2    H5 2203   4.390   2.491   1.236 -0.3996 -2.8054  1.3540
  144MPD2    N1 2204   4.257   2.332   0.711  0.4898 -0.2811 -0.6339
  144MPD2    H7 2205   4.328   2.260   0.721 -1.6262 -2.2508  0.0994
  145TCq2    C1 2206   4.475   2.320   1.173  0.7683 -0.0231 -0.0116
  145TCq2    O2 2207   4.512   2.231   1.097  0.8748  0.0189 -0.6179
  145TCq2    C2 2208   4.555   2.320   1.293 -0.4966 -0.0696 -0.1059
  145TCq2    C3 2209   4.676   2.261   1.285 -0.1878 -1.0362 -0.8741
  145TCq2    C4 2210   0.032   2.255   1.398  0.2867  0.1083  0.1641
  145TCq2    C5 2211   4.707   2.296   1.524 -0.5514  0.2861 -0.3953
  145TCq2    C6 2212   4.574   2.340   1.528 -0.0254 -0.1145  0.7783
  145TCq2    C7 2213   4.500   2.344   1.412 -0.5149 -0.3175  0.3412
  145TCq2    C8 2214   4.540   2.443   1.621  0.3921 -0.6792  0.4312
  145TCq2    O4 2215   4.420   2.467   1.645  0.2487  0.0425  0.4743
  145TCq2    C9 2216   0.170   2.206   1.392  0.4258  0.0875  0.0249
  145TCq2    O5 2217   0.220   2.151   1.291  0.0545  0.5147 -0.8252
  145TCq2    O6 2218   0.233   2.237   1.496 -0.3934 -0.2363  0.3822
  145TCq2    H2 2219   4.717   2.235   1.188 -1.2590 -0.5040 -1.4650
  145TCq2    H3 2220   0.044   2.306   1.614  1.7558  0.0776 -1.9259
  145TCq2    H4 2221   4.400   2.386   1.418 -0.1581  0.6255 -0.4440
  146TMC2    C1 2222   1.302   1.857  13.368 -0.8972 -0.1801  0.2527
  146TMC2    C2 2223   1.201   1.928  13.320  0.2113  0.5788 -0.2850
  146TMC2    C3 2224   1.219   1.977  13.194 -0.3873 -0.0535 -0.1577
  146TMC2    C4 2225   1.412   1.814  13.294  0.0790  0.3175 -0.1968
  146TMC2    C5 2226   1.424   1.876  13.170  0.3262  0.1335 -0.2129
  146TMC2    C6 2227   1.329   1.959  13.117  0.1573 -0.1583 -0.2136
  146TMC2     C 2228   1.281   1.812  13.500  0.1083  0.3777  0.3619
  146TMC2     O 2229   1.231   1.885  13.585  0.2818 -0.7736  0.8138
  146TMC2     H 2230   1.124   1.960  13.389  1.0259 -2.1382  1.8516
  146TMC2    H1 2231   1.503   1.771  13.334  0.4842  0.3057 -1.1250
  146TMC2    H2 2232   1.341   1.999  13.017  0.7982 -0.8514 -0.4215
  146TMC2    C7 2233   1.522   1.825  13.083  0.3985  0.6385 -0.2373
  146TMC2    C8 2234   1.132   2.077  13.133 -1.2832  0.5614 -0.8214
  146TMC2    O1 2235   1.528   1.880  12.974 -0.1614 -0.2386  0.1075
  146TMC2    O2 2236   1.109   2.065  13.016 -0.1951  0.6536 -0.1028
  146TMC2    O5 2237   1.106   2.182  13.213 -0.1316  0.8474 -0.1891
  146TMC2    H5 2238   1.149   2.169  13.300  1.8797  0.2742 -1.2647
  147MPD2     C 2239   1.794   1.447  12.868 -0.4106 -0.1686 -0.4228
  147MPD2    C1 2240   1.802   1.435  13.006 -0.0765  0.0507 -0.0342
  147MPD2    C2 2241   1.728   1.522  13.083 -0.2866 -0.1717 -0.1713
  147MPD2    C3 2242   1.658   1.629  13.027 -0.1649  0.9047 -0.2722
  147MPD2    C4 2243   1.661   1.646  12.887  0.4868 -0.1624 -0.6241
  147MPD2    C5 2244   1.726   1.550  12.814  0.1272 -0.1716 -0.9122
  147MPD2     H 2245   1.730   1.525  13.192  1.5996  1.0684 -0.2433
  147MPD2    H1 2246   1.613   1.728  12.834 -0.8360  0.3842  1.4111
  147MPD2    H2 2247   1.851   1.377  12.807 -2.5443 -0.7147 -1.7846
  147MPD2    H3 2248   1.727   1.563  12.706 -0.6209 -0.0417 -0.9042
  147MPD2     N 2249   1.576   1.704  13.115 -0.1633  0.2384 -0.6180
  147MPD2    H5 2250   1.556   1.667  13.207  0.9841 -1.4387 -1.0337
  147MPD2    N1 2251   1.872   1.321  13.049 -0.7324  0.2028 -0.0284
  147MPD2    H7 2252   1.933   1.270  12.986  1.7829  2.2565  0.7154
  148MPD2     C 2253   1.373   0.170  10.878  0.0706 -0.1226  0.0623
  148MPD2    C1 2254   1.415   0.047  10.845 -0.4417  0.5440 -0.2245
  148MPD2    C2 2255   1.327   4.670  10.822  0.1867 -0.5285 -0.3437
  148MPD2    C3 2256   1.189   4.687  10.829  0.0343  0.1901 -0.3821
  148MPD2    C4 2257   1.149   0.086  10.879  0.2804  0.4071 -0.0705
  148MPD2    C5 2258   1.236   0.185  10.899  0.3330 -0.6467  0.2301
  148MPD2     H 2259   1.365   4.577  10.780  0.7293  0.0141 -1.0468
  148MPD2    H1 2260   1.047   0.104  10.910 -0.0430  1.1291 -1.5070
  148MPD2    H2 2261   1.438   0.254  10.900  1.3752 -1.2773  0.5895
  148MPD2    H3 2262   1.186   0.278  10.925  0.3166 -0.3759 -0.7615
  148MPD2     N 2263   1.093   4.583  10.806 -0.5203 -0.3550  0.3398
  148MPD2    H5 2264   0.993   4.602  10.815 -0.3355  0.8162 -0.1039
  148MPD2    N1 2265   1.551   0.008  10.843  0.5960 -0.6200  0.3328
  148MPD2    H7 2266   1.566   4.636  10.810  0.8130 -0.5668  0.2801
  149TCq2    C1 2267   1.665   0.081  10.873  0.5002 -0.1156  0.0811
  149TCq2    O2 2268   1.677   0.200  10.889 -0.5906 -0.7770  0.7731
  149TCq2    C2 2269   1.791   0.003  10.868  0.2621 -0.1870 -0.2548
  149TCq2    C3 2270   1.901   0.069  10.828 -0.4924 -0.5971  0.5512
  149TCq2    C4 2271   2.022   4.722  10.799 -0.1554 -0.1637  0.2146
  149TCq2    C5 2272   2.010   4.589  10.765 -0.5305 -0.2954 -1.0408
  149TCq2    C6 2273   1.899   4.524  10.818  0.0762  0.2313  0.1879
  149TCq2    C7 2274   1.792   4.586  10.870  0.2035 -0.1820 -0.3452
  149TCq2    C8 2275   1.866   4.391  10.779 -0.0528  0.4762 -0.6780
  149TCq2    O4 2276   1.751   4.350  10.791  0.0591  0.0279  0.2534
  149TCq2    C9 2277   2.128   0.068  10.719  0.0209 -0.4139  0.3053
  149TCq2    O5 2278   2.241   0.016  10.719  0.2302  0.2090 -0.3714
  149TCq2    O6 2279   2.093   0.154  10.629  0.1447 -0.4103 -0.0097
  149TCq2    H2 2280   1.896   0.176  10.809 -1.4864 -1.1756 -2.4614
  149TCq2    H3 2281   2.081   4.537  10.702 -1.2450 -2.0484 -0.4280
  149TCq2    H4 2282   1.704   4.536  10.909  0.7436  0.1584  1.2885
  150MPD2     C 2283   2.887   3.950  12.186 -0.0347 -0.0670  0.4570
  150MPD2    C1 2284   2.974   3.947  12.079 -0.6300 -0.1872  0.2127
  150MPD2    C2 2285   3.098   4.008  12.082 -0.0050  0.3813 -0.0565
  150MPD2    C3 2286   3.143   4.045  12.203 -0.7332 -0.0259 -0.3953
  150MPD2    C4 2287   3.062   4.046  12.312 -0.7664 -0.2038  0.0180
  150MPD2    C5 2288   2.931   4.006  12.300  0.2928 -0.0133  0.5621
  150MPD2     H 2289   3.161   4.009  11.994 -0.7257  0.1013 -0.5792
  150MPD2    H1 2290   3.099   4.085  12.406 -0.6956  1.8397 -0.8603
  150MPD2    H2 2291   2.786   3.914  12.177 -0.4938  1.4231 -0.3186
  150MPD2    H3 2292   2.858   3.994  12.379 -0.1032 -0.8821  0.0741
  150MPD2     N 2293   3.276   4.082  12.215  0.2581 -0.3315  0.2186
  150MPD2    H5 2294   3.323   4.095  12.125  1.6708 -0.6348  0.9134
  150MPD2    N1 2295   2.920   3.882  11.967  0.0901 -0.1919  0.4832
  150MPD2    H7 2296   2.831   3.834  11.973 -0.5436  0.6858 -1.5965
  151TCq2    C1 2297   3.347   4.113  12.326  0.9588 -0.0919 -0.3593
  151TCq2    O2 2298   3.325   4.088  12.446 -0.3434  0.5938  0.4408
  151TCq2    C2 2299   3.475   4.177  12.288 -0.7723 -0.3594 -0.5281
  151TCq2    C3 2300   3.468   4.281  12.200 -0.0572  0.3834 -0.1148
  151TCq2    C4 2301   3.561   4.378  12.214 -0.4917 -0.2585 -0.5343
  151TCq2    C5 2302   3.664   4.375  12.306  0.5701 -0.0408 -0.1788
  151TCq2    C6 2303   3.664   4.271  12.385 -0.2943  0.1948  0.0498
  151TCq2    C7 2304   3.570   4.172  12.385 -0.3250 -0.2290 -0.6499
  151TCq2    C8 2305   3.770   4.270  12.479 -0.2912  0.0903 -0.1900
  151TCq2    O4 2306   3.805   4.378  12.523  0.2996 -0.1282  0.4092
  151TCq2    C9 2307   3.552   4.495  12.125 -0.2306  0.0496  0.4144
  151TCq2    O5 2308   3.474   4.498  12.024 -0.3397 -0.3728 -0.0063
  151TCq2    O6 2309   3.595   4.596  12.186  0.2030  0.1855  0.4282
  151TCq2    H2 2310   3.385   4.298  12.133  0.3451  0.4495 -0.5945
  151TCq2    H3 2311   3.735   4.457  12.303  1.0900 -0.4310  1.3397
  151TCq2    H4 2312   3.571   4.095  12.461  0.2888  1.3453  0.9537
  152MPD2     C 2313   3.111   3.459  12.937 -0.4080  0.6426 -0.1855
  152MPD2    C1 2314   3.113   3.580  12.862  0.1762 -0.6460 -0.5175
  152MPD2    C2 2315   3.003   3.663  12.847 -0.4189 -0.2706 -0.4954
  152MPD2    C3 2316   2.888   3.634  12.916 -0.1763 -0.1709 -0.6423
  152MPD2    C4 2317   2.884   3.512  12.988  0.6891  0.5256  0.1134
  152MPD2    C5 2318   2.989   3.429  12.993 -0.2380 -0.3823 -0.1972
  152MPD2     H 2319   3.009   3.750  12.782  1.6863  0.3544  0.5135
  152MPD2    H1 2320   2.800   3.483  13.050 -1.2027  1.7819 -1.8444
  152MPD2    H2 2321   3.199   3.399  12.957  1.0318  3.1375  0.9832
  152MPD2    H3 2322   2.987   3.348  13.066  1.0233 -1.7233 -1.6592
  152MPD2     N 2323   2.774   3.711  12.890  0.5545  0.5777  0.4260
  152MPD2    H5 2324   2.789   3.777  12.814 -1.1531 -0.3005 -0.6599
  152MPD2    N1 2325   3.237   3.608  12.800 -0.0608 -0.2132  0.1298
  152MPD2    H7 2326   3.308   3.536  12.811  1.2862  1.0646 -0.2040
  153TCq2    C1 2327   3.273   3.716  12.723 -0.5425 -0.0541 -0.3015
  153TCq2    O2 2328   3.204   3.809  12.682 -0.7528  0.1737 -0.2252
  153TCq2    C2 2329   3.414   3.720  12.705 -0.1455  0.3278  0.8315
  153TCq2    C3 2330   3.496   3.634  12.774  0.2008  0.0805  0.3737
  153TCq2    C4 2331   3.626   3.668  12.805  0.6176  0.4799 -0.0039
  153TCq2    C5 2332   3.671   3.789  12.774 -0.5108 -0.2563  0.0937
  153TCq2    C6 2333   3.584   3.882  12.719  0.1728 -0.3864  1.0376
  153TCq2    C7 2334   3.460   3.848  12.687  0.5103 -0.4190  0.1162
  153TCq2    C8 2335   3.603   4.021  12.749 -0.2951  0.8360  0.2212
  153TCq2    O4 2336   3.523   4.092  12.699 -0.2953 -0.1409  0.2018
  153TCq2    C9 2337   3.699   3.580  12.892 -0.2388 -0.6983  0.1384
  153TCq2    O5 2338   3.657   3.463  12.892 -0.3284 -0.1574 -0.2370
  153TCq2    O6 2339   3.812   3.618  12.946  0.3207  0.4352 -0.0894
  153TCq2    H2 2340   3.469   3.529  12.784 -3.1529  0.8091 -0.9744
  153TCq2    H3 2341   3.771   3.813  12.809 -0.4478 -0.6736  0.1923
  153TCq2    H4 2342   3.401   3.912  12.623 -0.3551 -1.5224 -0.1954
  154MPD2     C 2343   0.782   0.237   0.543 -0.3836 -0.0043  0.1584
  154MPD2    C1 2344   0.736   0.110   0.518  0.4647  0.2064 -0.1226
  154MPD2    C2 2345   0.639   0.057   0.603 -0.3972 -0.4439  0.2827
  154MPD2    C3 2346   0.596   0.123   0.717 -0.3759 -0.1394  0.4158
  154MPD2    C4 2347   0.658   0.240   0.753  0.7889 -0.6869  0.0017
  154MPD2    C5 2348   0.738   0.303   0.658  0.2056 -0.9043  0.5513
  154MPD2     H 2349   0.588   4.689   0.576 -0.1015 -0.4241 -0.3485
  154MPD2    H1 2350   0.648   0.298   0.844  0.3863 -1.3470  0.3734
  154MPD2    H2 2351   0.851   0.293   0.481 -2.5643  1.2909 -1.0987
  154MPD2    H3 2352   0.773   0.404   0.673 -2.2860  0.0179  0.1074
  154MPD2     N 2353   0.503   0.056   0.801  0.9063  0.2767  0.5482
  154MPD2    H5 2354   0.449   4.700   0.768 -0.7850  0.6863  2.3579
  154MPD2    N1 2355   0.796   0.045   0.410  0.2623 -0.0885  0.3473
  154MPD2    H7 2356   0.862   0.095   0.352  0.8441 -0.5559  0.6135
  155TCq2    C1 2357   0.771   4.635   0.380  0.2563 -0.2555 -0.6912
  155TCq2    O2 2358   0.690   4.554   0.421  0.2290 -0.2496  0.0996
  155TCq2    C2 2359   0.853   4.591   0.264  0.8740 -0.1701  0.1184
  155TCq2    C3 2360   0.875   4.451   0.248 -0.9313  0.1970 -0.0520
  155TCq2    C4 2361   0.974   4.407   0.170 -0.0103 -0.4580 -0.5103
  155TCq2    C5 2362   1.060   4.492   0.103 -0.1593  0.1930 -0.5336
  155TCq2    C6 2363   1.048   4.628   0.132  0.1608 -0.2791 -0.4640
  155TCq2    C7 2364   0.941   4.673   0.198 -0.2245  0.5859  0.6696
  155TCq2    C8 2365   1.146   0.004   0.086 -0.8839  0.5050 -0.4207
  155TCq2    O4 2366   1.227   4.680   0.004 -0.3258 -0.7878 -0.2234
  155TCq2    C9 2367   1.002   4.262   0.158 -0.1281  0.0544  0.2696
  155TCq2    O5 2368   1.059   4.217   0.056 -0.1435 -0.1103  0.1158
  155TCq2    O6 2369   0.965   4.187   0.248 -0.1722 -0.3240 -0.3124
  155TCq2    H2 2370   0.808   4.377   0.291  1.3704 -1.8203  0.0518
  155TCq2    H3 2371   1.137   4.455   0.037  1.4637 -0.8830  1.9576
  155TCq2    H4 2372   0.916   0.053   0.213  1.9308  1.0678  0.9174
  156MPD2     C 2373   3.554   1.201  12.365  0.7531  0.4459 -0.7144
  156MPD2    C1 2374   3.519   1.334  12.342 -0.5657 -0.4068 -0.2500
  156MPD2    C2 2375   3.544   1.429  12.444  0.3343 -1.2054 -0.2842
  156MPD2    C3 2376   3.575   1.395  12.572  0.4893  0.0129  0.0163
  156MPD2    C4 2377   3.606   1.266  12.593  0.2905 -0.2782 -0.1532
  156MPD2    C5 2378   3.605   1.166  12.490  0.7921  0.6497 -0.4721
  156MPD2     H 2379   3.513   1.531  12.427  0.6950 -1.3582 -1.9557
  156MPD2    H1 2380   3.617   1.231  12.695  1.6071  2.7099  0.7266
  156MPD2    H2 2381   3.539   1.127  12.287 -1.2911 -2.4539  2.4371
  156MPD2    H3 2382   3.626   1.061  12.504  0.0749  0.0647 -3.7834
  156MPD2     N 2383   3.576   1.499  12.669 -0.1064  0.4238 -0.0915
  156MPD2    H5 2384   3.575   1.596  12.639  0.5134  0.7172  0.8126
  156MPD2    N1 2385   3.455   1.361  12.223  0.0753 -0.1164 -0.4540
  156MPD2    H7 2386   3.440   1.288  12.154  2.1099 -0.3914 -0.6168
  157TCq2    C1 2387   3.388   1.478  12.189  0.0264  1.0859  0.1747
  157TCq2    O2 2388   3.381   1.585  12.247  0.0667 -0.2894  0.1042
  157TCq2    C2 2389   3.310   1.462  12.069 -0.6477 -0.4139 -0.2461
  157TCq2    C3 2390   3.235   1.353  12.049 -0.4178  0.5148  0.0032
  157TCq2    C4 2391   3.118   1.376  11.988 -0.2017 -0.6325  0.3453
  157TCq2    C5 2392   3.088   1.490  11.925 -0.3950 -0.3206 -0.1736
  157TCq2    C6 2393   3.166   1.602  11.933  0.1793 -0.3726 -0.0697
  157TCq2    C7 2394   3.281   1.589  12.010 -0.3406  0.3481 -0.0237
  157TCq2    C8 2395   3.170   1.693  11.822  0.0182 -0.7028  0.5577
  157TCq2    O4 2396   3.203   1.811  11.835  0.0023 -0.3460 -0.4608
  157TCq2    C9 2397   3.027   1.264  11.984 -0.1197 -0.0116 -0.9163
  157TCq2    O5 2398   2.920   1.283  11.926  0.3787 -0.1724 -0.1001
  157TCq2    O6 2399   3.064   1.146  12.016 -0.2568  0.0362 -0.0032
  157TCq2    H2 2400   3.244   1.257  12.098  1.5107  1.2646  1.1130
  157TCq2    H3 2401   2.996   1.492  11.867 -0.3775  0.4023 -0.1692
  157TCq2    H4 2402   3.354   1.668  12.006 -1.2210  1.1567 -0.1683
  158TMC2    C1 2403   3.352   0.398  13.280 -0.3109 -0.3523 -0.1376
  158TMC2    C2 2404   3.388   0.377  13.156  0.6779  0.3377 -0.4115
  158TMC2    C3 2405   3.293   0.333  13.070 -0.7758  0.3039  0.1589
  158TMC2    C4 2406   3.226   0.393  13.324 -0.4829  0.2658  1.2232
  158TMC2    C5 2407   3.131   0.356  13.234 -0.0863  0.2887 -0.4194
  158TMC2    C6 2408   3.161   0.332  13.105 -0.3982  0.7233  0.7902
  158TMC2     C 2409   3.452   0.460  13.363 -0.4163  0.2207  0.5431
  158TMC2     O 2410   3.544   0.523  13.306  0.4733  0.2146  0.1476
  158TMC2     H 2411   3.495   0.372  13.136  0.9565  1.2089  0.8575
  158TMC2    H1 2412   3.189   0.440  13.415 -0.0651 -1.4490  2.2677
  158TMC2    H2 2413   3.088   0.274  13.049  0.2308  0.5408  0.1554
  158TMC2    C7 2414   2.992   0.319  13.267 -0.3533 -0.0457  0.3827
  158TMC2    C8 2415   3.344   0.269  12.951  0.9685 -0.3771  0.3094
  158TMC2    O1 2416   2.910   0.327  13.175 -0.0681 -0.1901 -0.3867
  158TMC2    O2 2417   3.430   0.322  12.884  0.4232 -0.1913 -0.4566
  158TMC2    O5 2418   3.264   0.162  12.922 -0.2477  0.4685 -0.1444
  158TMC2    H5 2419   3.229   0.119  13.003  0.7580  0.9234  0.5239
  159MPD2     C 2420   3.655   0.617  13.809 -0.1220  0.4226 -0.2786
  159MPD2    C1 2421   3.516   0.618  13.819  1.2353  0.3369 -0.2261
  159MPD2    C2 2422   3.442   0.564  13.715  0.2760  0.2682 -0.4833
  159MPD2    C3 2423   3.497   0.536  13.595 -0.0065 -0.5596  0.0183
  159MPD2    C4 2424   3.634   0.559  13.577 -0.4552  0.2639 -0.2459
  159MPD2    C5 2425   3.714   0.595  13.681  0.0847 -0.5678  0.1937
  159MPD2     H 2426   3.338   0.539  13.735  0.7590 -0.4038  1.2027
  159MPD2    H1 2427   3.684   0.546  13.482  0.4302  1.0580  0.1078
  159MPD2    H2 2428   3.714   0.635  13.898  0.5685 -0.3954 -0.5734
  159MPD2    H3 2429   3.822   0.603  13.677  0.1397  0.2223  2.7603
  159MPD2     N 2430   3.416   0.474  13.499  0.6090 -0.0465  0.3145
  159MPD2    H5 2431   3.328   0.432  13.527  0.0882  1.3940  0.8556
  159MPD2    N1 2432   3.452   0.669  13.934  0.1774  0.4611 -0.2674
  159MPD2    H7 2433   3.512   0.683  14.015 -0.1670  0.2484  0.0290
  160TMC2    C1 2434   3.863   3.239   1.424 -0.0095 -0.0205  0.1558
  160TMC2    C2 2435   3.873   3.110   1.478 -0.8702  0.5652  0.3908
  160TMC2    C3 2436   3.942   3.013   1.401 -0.4360 -0.9708  0.5504
  160TMC2    C4 2437   3.932   3.283   1.314 -0.0126 -0.7465  0.1546
  160TMC2    C5 2438   4.001   3.186   1.246 -0.3830 -0.3168 -0.3934
  160TMC2    C6 2439   3.999   3.053   1.278  0.3666  0.0857 -0.1235
  160TMC2     C 2440   3.779   3.333   1.501 -0.6548  0.3271  1.3178
  160TMC2     O 2441   3.759   3.309   1.619 -0.6664  0.4904 -0.3931
  160TMC2     H 2442   3.815   3.073   1.562 -0.9213 -0.0533  0.0805
  160TMC2    H1 2443   3.928   3.385   1.278 -3.2761 -1.2846 -1.0627
  160TMC2    H2 2444   4.048   2.974   1.221  2.1187 -0.1299  1.6893
  160TMC2    C7 2445   4.104   3.220   1.152  0.0794 -0.1870  0.9719
  160TMC2    C8 2446   3.917   2.877   1.407 -0.1014  0.5779  0.2227
  160TMC2    O1 2447   4.150   3.126   1.089 -0.2255  0.0024 -0.1635
  160TMC2    O2 2448   3.912   2.809   1.307 -0.0313  0.3624  0.7495
  160TMC2    O5 2449   3.868   2.847   1.531  0.1900 -0.5143  0.5651
  160TMC2    H5 2450   3.899   2.917   1.594 -1.1565 -0.5866  1.3053
  161MPD2     C 2451   3.617   3.551   1.623  0.0532 -0.4392  0.7508
  161MPD2    C1 2452   3.633   3.526   1.486 -0.3640 -0.0253  0.8552
  161MPD2    C2 2453   3.569   3.613   1.398  0.2490 -0.0482  0.4644
  161MPD2    C3 2454   3.475   3.716   1.440 -0.4576 -0.2792  0.2702
  161MPD2    C4 2455   3.472   3.734   1.580 -0.0548 -0.1038  0.3982
  161MPD2    C5 2456   3.535   3.652   1.670  0.1803 -0.2806 -0.3977
  161MPD2     H 2457   3.573   3.580   1.295 -1.7906 -0.6165  0.5629
  161MPD2    H1 2458   3.405   3.811   1.616  0.1308 -0.0340  0.5878
  161MPD2    H2 2459   3.659   3.483   1.697  0.7262  2.0145  2.5976
  161MPD2    H3 2460   3.521   3.665   1.777  0.7483 -1.2460 -0.2031
  161MPD2     N 2461   3.400   3.795   1.352 -0.0267  0.5628 -0.5702
  161MPD2    H5 2462   3.326   3.846   1.400 -0.5928 -0.0026 -0.8382
  161MPD2    N1 2463   3.713   3.423   1.428 -0.5262 -0.3593  0.0992
  161MPD2    H7 2464   3.724   3.422   1.327  0.5477 -0.8430  0.2313
  162TMC2    C1 2465   1.662   0.113   1.402  0.5588  0.6657  0.0622
  162TMC2    C2 2466   1.608   0.191   1.501  0.1016  0.0868 -0.6829
  162TMC2    C3 2467   1.673   0.190   1.616  0.4027  0.9057  1.0058
  162TMC2    C4 2468   1.764   0.025   1.428  0.4088 -0.1676  0.2558
  162TMC2    C5 2469   1.826   0.037   1.548 -0.4361 -0.2016 -0.7294
  162TMC2    C6 2470   1.781   0.118   1.650  0.0008 -0.3071 -0.0919
  162TMC2     C 2471   1.653   0.163   1.262 -0.5965 -0.2770 -0.3233
  162TMC2     O 2472   1.737   0.131   1.177 -0.0175  0.1874 -0.3279
  162TMC2     H 2473   1.542   0.276   1.485 -0.3976  0.0804  1.3600
  162TMC2    H1 2474   1.819   4.695   1.351 -1.0760  0.3718 -1.1611
  162TMC2    H2 2475   1.804   0.101   1.755 -0.2916  1.1687  0.2007
  162TMC2    C7 2476   1.946   4.684   1.572 -0.4945  0.0991 -0.4913
  162TMC2    C8 2477   1.654   0.308   1.705 -1.0807  0.3884 -0.1630
  162TMC2    O1 2478   1.966   4.583   1.505  0.5111  0.1704 -0.7127
  162TMC2    O2 2479   1.545   0.334   1.758 -0.1820 -0.7293  0.0522
  162TMC2    O5 2480   1.775   0.364   1.728 -0.3408 -0.2138 -0.4336
  162TMC2    H5 2481   1.849   0.330   1.673  0.2529  1.1510 -0.4901
  163MPD2     C 2482   1.398   0.406   0.878  0.3267  0.7471 -0.1937
  163MPD2    C1 2483   1.529   0.370   0.887  0.1897  0.0313  0.8035
  163MPD2    C2 2484   1.582   0.330   1.011 -0.0470 -0.5796  0.3092
  163MPD2    C3 2485   1.491   0.293   1.115 -0.0277 -0.0024  0.0316
  163MPD2    C4 2486   1.355   0.316   1.101  0.0766 -0.2201  0.4352
  163MPD2    C5 2487   1.316   0.388   0.990  0.1108 -0.0540 -0.2721
  163MPD2     H 2488   1.684   0.297   1.024 -0.5182 -1.9261  0.5159
  163MPD2    H1 2489   1.289   0.286   1.181  0.1892  1.3441  1.1100
  163MPD2    H2 2490   1.355   0.457   0.793  0.2939  1.3722  0.1973
  163MPD2    H3 2491   1.217   0.432   0.980  0.2425  0.1022 -0.9632
  163MPD2     N 2492   1.530   0.224   1.236  0.1063  0.0268 -0.0403
  163MPD2    H5 2493   1.459   0.215   1.308  0.5520 -0.7129  0.3054
  163MPD2    N1 2494   1.607   0.366   0.771 -0.0616  0.4871 -0.1129
  163MPD2    H7 2495   1.559   0.365   0.682 -2.1141  1.8321  0.9752
  164TCq2    C1 2496   1.977   4.663  11.244  0.1079  0.1148 -0.3808
  164TCq2    O2 2497   1.903   4.568  11.275 -0.6427 -0.3740  0.5948
  164TCq2    C2 2498   1.928   0.065  11.270  0.4271  0.7853  0.8609
  164TCq2    C3 2499   2.014   0.167  11.301  0.1298  0.3553 -0.4625
  164TCq2    C4 2500   1.961   0.287  11.320 -0.0380  0.2793 -0.9455
  164TCq2    C5 2501   1.825   0.311  11.320 -0.8779  0.7036  0.2532
  164TCq2    C6 2502   1.736   0.201  11.307  1.1277  0.2038 -0.9843
  164TCq2    C7 2503   1.791   0.074  11.280 -0.6098 -0.4002 -0.5201
  164TCq2    C8 2504   1.595   0.221  11.279 -0.1825 -0.2714 -0.8174
  164TCq2    O4 2505   1.555   0.336  11.273  0.4282 -0.2029 -0.5505
  164TCq2    C9 2506   2.056   0.396  11.301 -0.1315 -0.3553 -0.4885
  164TCq2    O5 2507   2.159   0.361  11.241  0.1038 -0.0551 -0.3949
  164TCq2    O6 2508   2.007   0.507  11.305 -0.1653  0.0975  0.4184
  164TCq2    H2 2509   2.122   0.160  11.313 -0.3211  0.5360  3.5712
  164TCq2    H3 2510   1.797   0.415  11.335 -1.9364  0.4015  0.3438
  164TCq2    H4 2511   1.735   4.711  11.249 -1.3899  0.1803 -0.7225
  165MPD2     C 2512   3.191   0.842   2.966  0.5007 -0.1128  0.7457
  165MPD2    C1 2513   3.113   0.863   2.856 -0.1075  0.4328  0.4124
  165MPD2    C2 2514   3.085   0.997   2.829 -0.4833 -0.0635 -1.0904
  165MPD2    C3 2515   3.142   1.100   2.893  0.1027 -0.8643 -0.0304
  165MPD2    C4 2516   3.206   1.079   3.013  0.4200 -0.0865 -0.6271
  165MPD2    C5 2517   3.236   0.949   3.046 -0.3988 -0.3199 -0.1324
  165MPD2     H 2518   3.025   1.012   2.740 -0.3397  0.4423 -1.1026
  165MPD2    H1 2519   3.239   1.156   3.082  0.7435 -0.7942  0.0100
  165MPD2    H2 2520   3.222   0.745   3.002 -0.0692 -0.2896  0.7596
  165MPD2    H3 2521   3.293   0.931   3.136 -0.9427 -0.1554  0.2503
  165MPD2     N 2522   3.135   1.237   2.854 -0.2556 -0.2851  0.3287
  165MPD2    H5 2523   3.167   1.312   2.914 -0.0608  0.1211 -0.2888
  165MPD2    N1 2524   3.050   0.754   2.793  0.2802 -0.0732  0.0310
  165MPD2    H7 2525   3.061   0.664   2.839 -1.5198  0.5132  1.6118
  166TCq2    C1 2526   3.115   1.275   2.723  0.0385 -0.0367  0.3919
  166TCq2    O2 2527   3.086   1.211   2.623 -0.3578 -0.3353 -0.1340
  166TCq2    C2 2528   3.123   1.420   2.706  0.3959 -0.0117 -0.2696
  166TCq2    C3 2529   3.070   1.493   2.814 -0.2804 -0.2516  0.5983
  166TCq2    C4 2530   3.065   1.626   2.800 -0.2309  0.9169 -0.0238
  166TCq2    C5 2531   3.106   1.686   2.685 -0.7854 -0.6091 -0.3530
  166TCq2    C6 2532   3.145   1.613   2.572  0.3263  0.5182  0.6998
  166TCq2    C7 2533   3.154   1.477   2.583 -0.1284  0.9416 -0.7178
  166TCq2    C8 2534   3.195   1.672   2.448  0.8351  0.6370 -0.4448
  166TCq2    O4 2535   3.285   1.617   2.381 -0.3015 -0.3630 -0.3177
  166TCq2    C9 2536   3.022   1.696   2.915 -0.2455  0.0893 -0.8119
  166TCq2    O5 2537   3.056   1.820   2.932  0.4129  0.2500  0.0507
  166TCq2    O6 2538   2.975   1.632   3.008 -0.0665  0.5986 -0.1955
  166TCq2    H2 2539   3.016   1.443   2.893 -0.2805 -0.1478  0.6639
  166TCq2    H3 2540   3.095   1.794   2.682  1.6702 -0.3315  0.3910
  166TCq2    H4 2541   3.195   1.420   2.501 -0.8979 -1.1326  0.3430
  167TMC2    C1 2542   1.337   0.154  12.929 -0.6053 -0.4552  0.2192
  167TMC2    C2 2543   1.316   0.204  13.052  0.0622 -0.2893 -0.5910
  167TMC2    C3 2544   1.326   0.114  13.158 -0.0046  0.2302 -0.1072
  167TMC2    C4 2545   1.364   0.022  12.912  0.4138  0.1689  0.1871
  167TMC2    C5 2546   1.385   4.662  13.017  0.0598 -0.4508  0.8457
  167TMC2    C6 2547   1.356   4.706  13.141  0.5054 -0.3018 -0.6620
  167TMC2     C 2548   1.360   0.247  12.818 -0.8597  0.0302  0.0740
  167TMC2     O 2549   1.365   0.185  12.709  0.1530  0.1675 -0.5046
  167TMC2     H 2550   1.294   0.310  13.059  1.0353 -0.0966 -0.3727
  167TMC2    H1 2551   1.377   4.709  12.810 -0.7651  0.9898 -0.2527
  167TMC2    H2 2552   1.367   4.634  13.222  0.1493  2.1780  1.5633
  167TMC2    C7 2553   1.391   4.520  12.992 -0.6871  0.0408 -0.5784
  167TMC2    C8 2554   1.283   0.152  13.286  0.2569 -0.2886  0.1348
  167TMC2    O1 2555   1.351   4.456  13.085 -0.2280 -0.1132  0.0544
  167TMC2    O2 2556   1.272   0.265  13.321 -0.5103 -0.3649 -0.0506
  167TMC2    O5 2557   1.190   0.061  13.320 -0.0099  0.6012  0.0615
  167TMC2    H5 2558   1.181   4.721  13.246 -2.7147  0.7256  0.2649
  168MPD2     C 2559   1.462   0.606  12.831 -0.6068 -0.2024  0.2778
  168MPD2    C1 2560   1.429   0.483  12.769  0.0757 -0.6746 -0.0139
  168MPD2    C2 2561   1.423   0.474  12.631  0.0906  0.6375 -0.1118
  168MPD2    C3 2562   1.448   0.585  12.553 -0.8535 -0.5457  0.6454
  168MPD2    C4 2563   1.477   0.703  12.613  0.1403 -1.0357  0.0212
  168MPD2    C5 2564   1.478   0.716  12.750 -0.4996 -0.7642  0.1074
  168MPD2     H 2565   1.400   0.376  12.591  0.6771  0.5672 -0.2806
  168MPD2    H1 2566   1.487   0.797  12.561 -0.5422 -1.9005 -1.6502
  168MPD2    H2 2567   1.463   0.618  12.939  0.5258  0.9547  0.1427
  168MPD2    H3 2568   1.499   0.813  12.794 -2.5647  0.1991 -1.0256
  168MPD2     N 2569   1.445   0.584  12.415  0.7447 -0.0203 -0.3171
  168MPD2    H5 2570   1.460   0.674  12.371  0.0484  0.0286 -0.4442
  168MPD2    N1 2571   1.386   0.377  12.853  0.3244  0.2686 -0.0102
  168MPD2    H7 2572   1.388   0.393  12.954 -2.4245  0.4004  0.0307
  169MPD1     C 2573   2.605   3.804   8.681  0.3797 -0.0300  0.3798
  169MPD1    C1 2574   2.701   3.711   8.636  0.0817  0.0046 -0.0709
  169MPD1    C2 2575   2.816   3.690   8.713  0.2216 -0.2815  0.5165
  169MPD1    C3 2576   2.820   3.751   8.836 -0.5208  0.1158  0.1953
  169MPD1    C4 2577   2.715   3.832   8.884  0.0845 -0.1792  0.0766
  169MPD1    C5 2578   2.606   3.851   8.805  0.0362  0.3393 -0.3504
  169MPD1     H 2579   2.907   3.646   8.673 -0.5021 -0.6240 -0.7701
  169MPD1    H1 2580   2.724   3.884   8.979  0.9184  0.9337 -0.6062
  169MPD1    H2 2581   2.516   3.832   8.626 -0.4914 -0.6126  1.4830
  169MPD1    H3 2582   2.523   3.911   8.841  1.0212  1.4529  0.0832
  169MPD1     N 2583   2.941   3.725   8.908  0.1754 -0.4471  0.5442
  169MPD1    H5 2584   3.005   3.658   8.866  1.2383  1.1244 -0.3641
  169MPD1    N1 2585   2.697   3.668   8.500  0.0709  0.2863  0.2090
  169MPD1    H6 2586   2.733   3.573   8.496 -0.6991 -0.0422  0.9845
  169MPD1    H7 2587   2.597   3.673   8.482  0.0703  1.8449  0.6636
  170MPD1     C 2588   1.921   2.498  12.983 -0.8238 -0.1890  0.1319
  170MPD1    C1 2589   1.953   2.630  12.974  1.0626 -0.3039  0.0637
  170MPD1    C2 2590   1.974   2.690  13.096  0.0509  0.5102  0.4201
  170MPD1    C3 2591   1.978   2.625  13.213 -0.4981 -0.1371 -0.0405
  170MPD1    C4 2592   1.954   2.490  13.218 -0.0027  0.1232 -0.2453
  170MPD1    C5 2593   1.917   2.428  13.101  0.2891 -0.5145 -0.3322
  170MPD1     H 2594   1.986   2.797  13.109 -0.2330  1.1230 -4.5652
  170MPD1    H1 2595   1.965   2.426  13.305  1.9659  0.1109 -0.4923
  170MPD1    H2 2596   1.888   2.455  12.889 -1.7201  0.7022  0.0301
  170MPD1    H3 2597   1.896   2.322  13.107 -0.0794 -0.4661 -0.7484
  170MPD1     N 2598   2.001   2.703  13.330 -0.4968  0.4960  0.4111
  170MPD1    H5 2599   2.014   2.802  13.313  1.5594 -0.0906 -1.4015
  170MPD1    N1 2600   1.924   2.702  12.858  0.8842 -0.4650  0.4360
  170MPD1    H6 2601   1.934   2.645  12.774  0.2569  0.6148 -0.3694
  170MPD1    H7 2602   1.978   2.787  12.848 -0.1933  0.0761 -0.7139
  171MPD1     C 2603   1.120   3.653  15.712  0.0288 -0.4090  0.1679
  171MPD1    C1 2604   1.107   3.543  15.631 -1.1345 -0.1661  0.6267
  171MPD1    C2 2605   1.071   3.420  15.683  0.9278  0.5595  0.0441
  171MPD1    C3 2606   1.053   3.410  15.821 -0.5995  0.0642  0.3562
  171MPD1    C4 2607   1.073   3.516  15.904 -0.4339  0.2453 -0.0436
  171MPD1    C5 2608   1.111   3.633  15.848 -0.1587 -0.6500  0.7237
  171MPD1     H 2609   1.052   3.337  15.618 -1.4489  0.7683  0.4928
  171MPD1    H1 2610   1.069   3.497  16.011 -1.2652  3.6792  0.5285
  171MPD1    H2 2611   1.146   3.751  15.673  0.1275 -0.0275  1.1902
  171MPD1    H3 2612   1.138   3.716  15.912 -0.3731 -0.0961  0.0950
  171MPD1     N 2613   0.997   3.295  15.884 -0.1350 -0.5179 -0.2818
  171MPD1    H5 2614   0.976   3.297  15.983 -1.1654  1.2429 -0.5380
  171MPD1    N1 2615   1.121   3.545  15.488 -0.5921  0.1855  0.4302
  171MPD1    H6 2616   1.161   3.632  15.452 -0.9918  0.4280  0.5694
  171MPD1    H7 2617   1.195   3.482  15.459  0.9783  2.5110 -0.6796
  172MPD1     C 2618   4.613   1.753   0.512  0.4648 -0.5158  0.4972
  172MPD1    C1 2619   0.021   1.789   0.522 -0.3430 -0.6172  0.2691
  172MPD1    C2 2620   0.048   1.906   0.592 -0.2681 -0.1193 -0.6203
  172MPD1    C3 2621   4.666   1.979   0.648  0.0274 -0.0403  0.5577
  172MPD1    C4 2622   4.534   1.939   0.618 -1.1608 -0.0995  0.0046
  172MPD1    C5 2623   4.508   1.832   0.541  0.6533 -0.3186  0.1454
  172MPD1     H 2624   0.152   1.934   0.605 -0.8700  0.6877  2.4070
  172MPD1    H1 2625   4.443   1.993   0.641 -0.7839  1.4150 -2.0026
  172MPD1    H2 2626   4.586   1.664   0.455 -1.9933  0.4572  0.1292
  172MPD1    H3 2627   4.407   1.804   0.515  1.4724 -1.1901 -2.1406
  172MPD1     N 2628   4.704   2.092   0.729  0.5279  0.6194  0.0748
  172MPD1    H5 2629   0.079   2.118   0.726  0.7203 -0.1716 -0.7015
  172MPD1    N1 2630   0.124   1.707   0.473 -0.1781  0.5620 -0.2074
  172MPD1    H6 2631   0.108   1.679   0.376  1.4622  2.3786 -1.0115
  172MPD1    H7 2632   0.216   1.750   0.472  0.3841 -0.6249  1.2171
  173MPD1     C 2633   1.116   2.964  14.851 -0.4789  0.0969 -0.2931
  173MPD1    C1 2634   1.032   2.908  14.766 -0.3500  0.0053 -0.7400
  173MPD1    C2 2635   1.021   2.772  14.768  0.2824  1.0523 -0.2900
  173MPD1    C3 2636   1.060   2.702  14.874 -0.2886  0.2875 -0.6721
  173MPD1    C4 2637   1.153   2.760  14.957 -0.3381 -0.8777 -0.2974
  173MPD1    C5 2638   1.182   2.892  14.945 -0.1786 -0.4419  0.1906
  173MPD1     H 2639   0.957   2.717  14.700  1.1484 -1.2104  0.7154
  173MPD1    H1 2640   1.195   2.703  15.040 -1.7171  0.1021  1.0871
  173MPD1    H2 2641   1.147   3.067  14.837  2.0776 -0.8321 -1.4595
  173MPD1    H3 2642   1.254   2.946  15.005 -0.7271  0.2598  0.2267
  173MPD1     N 2643   1.028   2.566  14.868 -0.0909  0.0259 -0.6036
  173MPD1    H5 2644   0.973   2.533  14.790 -2.3455  1.7449  0.2681
  173MPD1    N1 2645   0.997   2.977  14.646  0.3424 -0.2368 -0.0488
  173MPD1    H6 2646   0.908   2.937  14.617 -0.5235  1.0188  0.8637
  173MPD1    H7 2647   0.972   3.075  14.655  1.1290 -0.0172 -0.2607
  174MPD1     C 2648   1.311   2.087  14.225 -0.0471 -0.3063  0.3599
  174MPD1    C1 2649   1.177   2.052  14.236 -0.4351 -0.0381 -0.6078
  174MPD1    C2 2650   1.119   2.075  14.354  0.1112  0.2612 -0.6877
  174MPD1    C3 2651   1.184   2.143  14.457  0.3517  0.4966  0.0253
  174MPD1    C4 2652   1.313   2.194  14.437 -0.2263 -0.9844 -0.1152
  174MPD1    C5 2653   1.373   2.167  14.316  0.6391 -0.4827  0.1772
  174MPD1     H 2654   1.023   2.030  14.378 -0.1516  0.5671 -1.1604
  174MPD1    H1 2655   1.373   2.252  14.506  1.7612  0.7951 -3.3513
  174MPD1    H2 2656   1.360   2.046  14.138 -1.2502  0.2855 -0.5899
  174MPD1    H3 2657   1.474   2.201  14.295  0.1515  2.3584  2.4248
  174MPD1     N 2658   1.130   2.178  14.582  0.4856 -0.2344  0.3718
  174MPD1    H5 2659   1.182   2.244  14.638  1.4098  0.6988 -1.5700
  174MPD1    N1 2660   1.115   1.971  14.141  0.0318  0.3053 -0.1162
  174MPD1    H6 2661   1.014   1.964  14.145 -0.4392  5.7640 -1.6418
  174MPD1    H7 2662   1.160   1.972  14.050  1.5070 -0.2996  0.6001
  175MPD1     C 2663   0.175   3.453  15.921 -0.0334 -0.2357 -0.0797
  175MPD1    C1 2664   0.277   3.385  15.988  0.4306  0.5215  0.2382
  175MPD1    C2 2665   0.238   3.291  16.075  0.4363  0.7750  0.0683
  175MPD1    C3 2666   0.113   3.259  16.101 -0.4909  0.5016  0.2553
  175MPD1    C4 2667   0.015   3.334  16.046 -0.2795  0.0767  0.2123
  175MPD1    C5 2668   0.041   3.438  15.962 -0.3084  0.6246  0.5076
  175MPD1     H 2669   0.326   3.236  16.108  0.1299  0.2564  0.0276
  175MPD1    H1 2670   4.636   3.307  16.065 -0.2444 -0.0432  0.2300
  175MPD1    H2 2671   0.195   3.516  15.835  0.5190 -0.2959  0.0061
  175MPD1    H3 2672   4.691   3.488  15.899 -0.3458  1.3949  1.1750
  175MPD1     N 2673   0.076   3.149  16.183  0.6114  0.7567  0.0826
  175MPD1    H5 2674   4.701   3.126  16.188  1.0101 -0.7359  0.9410
  175MPD1    N1 2675   0.416   3.411  15.969 -0.1008 -0.2013  0.5856
  175MPD1    H6 2676   0.425   3.461  15.881 -1.5479 -0.9715  0.0073
  175MPD1    H7 2677   0.472   3.326  15.968  0.6308  0.2850  0.3896
  176MPD1     C 2678   1.364   0.155  17.163  0.6101 -0.4705 -0.2925
  176MPD1    C1 2679   1.467   0.182  17.253 -0.0772 -0.3060 -0.7112
  176MPD1    C2 2680   1.452   0.294  17.335 -0.2363  0.9879 -0.6998
  176MPD1    C3 2681   1.346   0.379  17.322 -0.0780  0.2143  0.4966
  176MPD1    C4 2682   1.245   0.341  17.244 -0.3686 -0.2923  0.0271
  176MPD1    C5 2683   1.255   0.230  17.161  0.1351 -0.0687 -0.0084
  176MPD1     H 2684   1.526   0.332  17.405 -0.9851  0.8738  0.1464
  176MPD1    H1 2685   1.151   0.394  17.250 -1.1165 -1.5079 -1.1049
  176MPD1    H2 2686   1.370   0.082  17.084 -0.9271 -0.0737 -0.7818
  176MPD1    H3 2687   1.176   0.219  17.088  1.3311 -0.9669 -1.1801
  176MPD1     N 2688   1.341   0.488  17.405  0.1691  0.4381  0.7320
  176MPD1    H5 2689   1.430   0.504  17.452  0.6887 -0.5328  0.0764
  176MPD1    N1 2690   1.592   0.126  17.236  0.4544 -0.5139  0.1342
  176MPD1    H6 2691   1.655   0.150  17.312 -0.6571  0.2781  0.8064
  176MPD1    H7 2692   1.585   0.028  17.210 -2.0878 -0.1524 -0.5190
  177MPD1     C 2693   4.111   4.290  10.051 -0.4225  0.2278  0.3583
  177MPD1    C1 2694   3.973   4.303  10.052 -0.4834 -0.0996 -0.5835
  177MPD1    C2 2695   3.930   4.416   9.988  0.1881  0.4174  0.9070
  177MPD1    C3 2696   4.006   4.503   9.914 -0.5481  0.0480 -0.3681
  177MPD1    C4 2697   4.144   4.481   9.916  0.0161  0.2396  0.1976
  177MPD1    C5 2698   4.199   4.378   9.991 -0.7061 -0.2996 -0.7565
  177MPD1     H 2699   3.823   4.432   9.987 -0.0305 -1.0852  0.6967
  177MPD1    H1 2700   4.214   4.545   9.865 -0.4101  0.8516  0.3785
  177MPD1    H2 2701   4.155   4.205  10.102 -1.5804  0.0916  1.1442
  177MPD1    H3 2702   4.305   4.358   9.989 -0.7002 -0.3250 -0.1735
  177MPD1     N 2703   3.941   4.604   9.835 -0.4436 -0.7357 -0.5138
  177MPD1    H5 2704   3.841   4.589   9.827 -0.4669 -2.3119  2.5208
  177MPD1    N1 2705   3.892   4.228  10.133 -0.1348  0.2550 -0.4429
  177MPD1    H6 2706   3.797   4.238  10.097  0.5476  0.6603 -2.1164
  177MPD1    H7 2707   3.927   4.134  10.149 -0.5772  0.5192  2.0158
  178MPD1     C 2708   2.634   1.176   0.603 -0.0398 -0.3693 -0.2298
  178MPD1    C1 2709   2.600   1.096   0.494 -0.0853 -0.1043  0.5949
  178MPD1    C2 2710   2.581   1.159   0.370  0.3773  0.3228 -0.2096
  178MPD1    C3 2711   2.565   1.300   0.362  1.1960  0.1726  0.3840
  178MPD1    C4 2712   2.575   1.373   0.479 -0.3522 -0.1678 -0.4418
  178MPD1    C5 2713   2.623   1.309   0.590 -0.3376 -0.3797 -0.0710
  178MPD1     H 2714   2.579   1.099   0.280  0.9445 -1.8196  1.2107
  178MPD1    H1 2715   2.561   1.480   0.480 -2.2457 -0.4326  0.7330
  178MPD1    H2 2716   2.648   1.140   0.704  0.0477 -2.3699 -0.9498
  178MPD1    H3 2717   2.644   1.358   0.685 -2.0695  0.3695 -0.0785
  178MPD1     N 2718   2.540   1.372   0.242  0.1529 -0.6557 -0.2178
  178MPD1    H5 2719   2.554   1.473   0.245 -1.8181 -0.3599 -0.7979
  178MPD1    N1 2720   2.638   0.961   0.507  0.2921  0.1830 -0.4900
  178MPD1    H6 2721   2.583   0.914   0.435 -1.6460 -0.3120  1.3187
  178MPD1    H7 2722   2.628   0.920   0.600 -0.8592  1.4256 -0.0675
  179MPD1     C 2723   1.891   4.630  16.602 -0.0950 -0.6401  0.7405
  179MPD1    C1 2724   1.809   4.616  16.496  0.5367 -0.5240  0.5860
  179MPD1    C2 2725   1.833   4.505  16.412 -0.5413  0.5637 -0.5716
  179MPD1    C3 2726   1.915   4.397  16.452  0.5838 -0.4370  0.4694
  179MPD1    C4 2727   1.985   4.409  16.568 -0.3688  0.2160 -0.1015
  179MPD1    C5 2728   1.973   4.527  16.636  0.0216 -0.9368 -0.2121
  179MPD1     H 2729   1.773   4.495  16.322  1.7836  0.9081 -2.1369
  179MPD1    H1 2730   2.051   4.331  16.604 -0.4574 -0.2849 -1.0242
  179MPD1    H2 2731   1.897   4.716  16.667 -3.1856 -0.8885  1.3206
  179MPD1    H3 2732   2.046   4.545  16.714 -0.1341  0.1261 -0.3158
  179MPD1     N 2733   1.941   4.284  16.383  0.3706 -0.5043 -0.0232
  179MPD1    H5 2734   2.001   4.212  16.421  2.9016  1.4488 -0.2650
  179MPD1    N1 2735   1.731   0.000  16.464 -0.1433  0.8610  0.5885
  179MPD1    H6 2736   1.680   0.046  16.539  0.5892  1.2380  0.8520
  179MPD1    H7 2737   1.655   4.686  16.407  0.2751 -0.6698  1.0329
  180MPD1     C 2738   1.480   0.456  15.659  0.1880 -0.5871  0.4255
  180MPD1    C1 2739   1.575   0.516  15.577  0.5312  0.4847 -0.1008
  180MPD1    C2 2740   1.548   0.528  15.439 -0.7699 -0.2227 -0.2355
  180MPD1    C3 2741   1.433   0.475  15.381 -0.1523 -0.1248 -0.3825
  180MPD1    C4 2742   1.338   0.419  15.464  0.2794  0.6355  0.1459
  180MPD1    C5 2743   1.370   0.404  15.598 -0.1034 -0.1282  0.0964
  180MPD1     H 2744   1.611   0.587  15.374  0.0331  0.8435  1.5099
  180MPD1    H1 2745   1.251   0.369  15.424  0.0726  0.1732  1.1695
  180MPD1    H2 2746   1.491   0.446  15.766 -1.5873  2.0117  0.8510
  180MPD1    H3 2747   1.293   0.353  15.654 -0.6351  0.0691 -0.4546
  180MPD1     N 2748   1.417   0.493  15.240 -0.4209 -0.4435  0.0430
  180MPD1    H5 2749   1.492   0.544  15.193 -0.8560  0.7716  0.6654
  180MPD1    N1 2750   1.683   0.587  15.639 -0.4384 -0.1709 -0.0239
  180MPD1    H6 2751   1.717   0.535  15.720  0.4259  1.0283  0.3772
  180MPD1    H7 2752   1.762   0.585  15.575 -1.4362 -1.0951 -1.2484
  181MPD1     C 2753   2.641   2.005  10.226  0.3174  0.4584 -0.1446
  181MPD1    C1 2754   2.626   2.130  10.170 -0.9637  0.8038 -0.3256
  181MPD1    C2 2755   2.733   2.178  10.093 -0.9489 -0.1807 -0.1214
  181MPD1    C3 2756   2.847   2.097  10.071 -0.4550  0.5043  0.4520
  181MPD1    C4 2757   2.863   1.974  10.133 -0.8227  0.5638  0.2319
  181MPD1    C5 2758   2.758   1.937  10.216 -0.3752 -0.4754 -0.1336
  181MPD1     H 2759   2.708   2.270  10.043 -0.9849 -1.1380 -1.8468
  181MPD1    H1 2760   2.938   1.898  10.117 -2.2761 -0.5577 -1.2440
  181MPD1    H2 2761   2.557   1.970  10.284 -0.1992 -0.3156 -1.3811
  181MPD1    H3 2762   2.761   1.837  10.258 -2.4346 -0.3715  0.2492
  181MPD1     N 2763   2.950   2.134   9.973 -0.2623 -0.2100 -0.4672
  181MPD1    H5 2764   3.003   2.055   9.939  0.5730 -0.4379  1.3524
  181MPD1    N1 2765   2.499   2.196  10.173  0.0319  0.5277  0.1519
  181MPD1    H6 2766   2.431   2.160  10.240  0.0276 -1.9957 -1.2276
  181MPD1    H7 2767   2.505   2.298  10.175 -0.0052  0.4600  3.8709
  182MPD1     C 2768   4.308   1.174   1.589 -0.0924 -0.3237  0.4038
  182MPD1    C1 2769   4.357   1.166   1.465  0.5203  0.2258 -0.4697
  182MPD1    C2 2770   4.283   1.214   1.354 -0.4417  0.1391 -0.9918
  182MPD1    C3 2771   4.171   1.302   1.373  0.5151  0.2471  0.7226
  182MPD1    C4 2772   4.130   1.315   1.498 -0.2680 -0.4273  0.2485
  182MPD1    C5 2773   4.189   1.250   1.603 -0.4561 -0.2055  0.1210
  182MPD1     H 2774   4.333   1.195   1.260  0.0811 -1.8367 -0.3027
  182MPD1    H1 2775   4.047   1.383   1.518 -0.4269 -1.5023  3.3232
  182MPD1    H2 2776   4.364   1.134   1.673  0.0398 -0.9528  0.0182
  182MPD1    H3 2777   4.159   1.263   1.706  1.1750 -0.8600  0.6618
  182MPD1     N 2778   4.103   1.368   1.264 -0.1359 -0.6908  0.0153
  182MPD1    H5 2779   4.032   1.433   1.295  0.3991  0.2833 -0.7952
  182MPD1    N1 2780   4.472   1.087   1.443  0.6176  0.0911 -0.1098
  182MPD1    H6 2781   4.539   1.084   1.519 -0.0748  0.3247  0.5148
  182MPD1    H7 2782   4.520   1.104   1.355  2.1145 -0.3088  0.6353
  183MPD1     C 2783   4.495   3.080   9.383 -0.3416 -0.4764 -0.7850
  183MPD1    C1 2784   4.364   3.084   9.334 -0.1108 -0.4302 -0.6841
  183MPD1    C2 2785   4.303   2.956   9.309 -0.0566  0.0960 -0.0164
  183MPD1    C3 2786   4.352   2.846   9.376  0.3167 -0.0761 -0.2159
  183MPD1    C4 2787   4.481   2.848   9.437 -1.5038  0.1437 -0.1217
  183MPD1    C5 2788   4.549   2.962   9.436  0.2667  1.1213  0.1346
  183MPD1     H 2789   4.207   2.948   9.260  0.0887  2.4829 -0.6488
  183MPD1    H1 2790   4.522   2.757   9.479 -0.6198  1.2802  1.4502
  183MPD1    H2 2791   4.557   3.169   9.394 -1.6734  0.6351 -2.3354
  183MPD1    H3 2792   4.651   2.961   9.474  0.4242 -0.4288 -0.3097
  183MPD1     N 2793   4.278   2.724   9.367 -0.3773  0.1647 -0.3614
  183MPD1    H5 2794   4.188   2.731   9.322 -0.5137  0.1234 -0.0941
  183MPD1    N1 2795   4.304   3.199   9.284  0.0361 -0.1814  0.9606
  183MPD1    H6 2796   4.331   3.278   9.342  0.6695  0.2005  0.1498
  183MPD1    H7 2797   4.204   3.187   9.294 -0.2890  1.7349 -0.0520
  184MPD1     C 2798   3.154   3.956   9.947  0.3310 -0.0988  0.8099
  184MPD1    C1 2799   3.274   4.015   9.932  0.1528 -0.8995  1.0203
  184MPD1    C2 2800   3.282   4.143   9.875  0.2841 -0.0915 -0.1583
  184MPD1    C3 2801   3.170   4.200   9.817 -0.0511 -0.0364  0.2840
  184MPD1    C4 2802   3.055   4.130   9.812  0.0917  0.0755  0.7838
  184MPD1    C5 2803   3.044   4.015   9.883  0.3317  0.1775 -1.2804
  184MPD1     H 2804   3.380   4.188   9.870 -0.5791  1.7663 -0.3284
  184MPD1    H1 2805   2.971   4.167   9.753  1.2237  1.6779  0.1782
  184MPD1    H2 2806   3.134   3.869  10.008  0.2939  1.2395  2.6907
  184MPD1    H3 2807   2.944   3.975   9.888  0.2531  0.4026 -1.0511
  184MPD1     N 2808   3.170   4.325   9.756  0.4378  0.5955 -0.1031
  184MPD1    H5 2809   3.078   4.350   9.719  0.2197 -1.4976 -0.9687
  184MPD1    N1 2810   3.385   3.960   9.998  0.1888  0.5075  0.9734
  184MPD1    H6 2811   3.370   3.860  10.012 -1.0828  0.4484 -0.7789
  184MPD1    H7 2812   3.473   3.976   9.950  0.8088 -0.9242  1.6230
  185MPD1     C 2813   2.720   4.426   9.103 -0.3285 -0.1537 -0.3559
  185MPD1    C1 2814   2.802   4.529   9.067  0.0173  0.4865  0.1128
  185MPD1    C2 2815   2.900   4.570   9.158 -0.1764 -0.9287  0.6251
  185MPD1    C3 2816   2.910   4.515   9.286  0.1754  0.2166 -0.1228
  185MPD1    C4 2817   2.807   4.426   9.321  0.1198 -0.4215 -0.2879
  185MPD1    C5 2818   2.720   4.373   9.232  0.4358  0.5120  0.3322
  185MPD1     H 2819   2.967   4.649   9.126 -0.5425  0.2447  2.7806
  185MPD1    H1 2820   2.822   4.374   9.415 -1.5040 -1.0125 -0.3450
  185MPD1    H2 2821   2.645   4.382   9.039 -0.0615 -1.5811  0.3191
  185MPD1    H3 2822   2.656   4.294   9.269  0.7543 -0.5208 -1.3644
  185MPD1     N 2823   3.013   4.541   9.375 -0.1385 -0.1618 -0.2142
  185MPD1    H5 2824   3.013   4.504   9.469  0.2838 -1.5298 -0.7569
  185MPD1    N1 2825   2.817   4.557   8.925 -0.0467 -0.2021 -0.0668
  185MPD1    H6 2826   2.723   4.557   8.887 -0.2056 -1.9500  0.3009
  185MPD1    H7 2827   2.868   4.639   8.894  0.5092 -0.1958  0.8448
  186MPD1     C 2828   1.931   0.297  15.849  0.0414 -0.4114 -0.2740
  186MPD1    C1 2829   2.057   0.362  15.850  0.1214  0.4874 -0.3098
  186MPD1    C2 2830   2.136   0.330  15.963 -0.4858 -0.4859  0.5700
  186MPD1    C3 2831   2.111   0.231  16.058  0.3374  0.1958  0.0368
  186MPD1    C4 2832   1.994   0.164  16.041  0.6600  0.2477  0.0091
  186MPD1    C5 2833   1.903   0.202  15.947  0.3575 -0.0120  0.5112
  186MPD1     H 2834   2.233   0.378  15.962 -0.8891  0.3086  0.4156
  186MPD1    H1 2835   1.972   0.097  16.124  0.2247 -0.0347 -0.3337
  186MPD1    H2 2836   1.867   0.314  15.763 -0.0898 -0.8676 -0.2635
  186MPD1    H3 2837   1.807   0.152  15.944  2.3440 -3.7957  0.4880
  186MPD1     N 2838   2.184   0.206  16.173 -0.0627 -0.3894 -0.1186
  186MPD1    H5 2839   2.150   0.135  16.238 -0.3382  1.1731  1.4192
  186MPD1    N1 2840   2.083   0.478  15.766  0.3587 -0.0103  0.0478
  186MPD1    H6 2841   2.057   0.474  15.668 -1.1262 -0.0756  0.4455
  186MPD1    H7 2842   2.179   0.512  15.769  0.1501  0.7701 -2.1623
  187MPD1     C 2843   1.240   1.353   0.677  0.0759 -0.1097  0.4330
  187MPD1    C1 2844   1.236   1.258   0.579 -0.3695  1.2067  0.5898
  187MPD1    C2 2845   1.245   1.303   0.446 -0.4265  0.0989  0.6106
  187MPD1    C3 2846   1.277   1.434   0.413 -0.1060  0.0511 -0.0505
  187MPD1    C4 2847   1.291   1.523   0.513  0.0294  0.5572  0.0288
  187MPD1    C5 2848   1.270   1.481   0.644  0.4479 -0.6110 -0.4615
  187MPD1     H 2849   1.234   1.230   0.367  1.2915  0.1854  0.2833
  187MPD1    H1 2850   1.343   1.617   0.498  1.4152  0.1074  1.9226
  187MPD1    H2 2851   1.228   1.336   0.783 -0.1094  2.2639  0.8058
  187MPD1    H3 2852   1.279   1.555   0.722 -1.2463 -0.6974 -0.1885
  187MPD1     N 2853   1.283   1.486   0.278  0.5823 -0.3523 -1.0555
  187MPD1    H5 2854   1.284   1.586   0.262  1.6676 -0.5241 -2.1615
  187MPD1    N1 2855   1.190   1.129   0.610 -0.7976  0.7805 -0.0580
  187MPD1    H6 2856   1.242   1.055   0.562 -2.7531 -2.0054  2.1547
  187MPD1    H7 2857   1.206   1.108   0.708  2.4932  4.2756  0.1375
  188MPD1     C 2858   1.239   1.720   9.506 -0.7903  0.3848  0.2434
  188MPD1    C1 2859   1.175   1.747   9.627 -0.3526  0.4817 -0.3753
  188MPD1    C2 2860   1.182   1.648   9.727  0.0542  0.0755  0.0169
  188MPD1    C3 2861   1.270   1.539   9.718  0.1633  0.5889  0.2273
  188MPD1    C4 2862   1.349   1.533   9.606  0.3272  0.3896 -0.1952
  188MPD1    C5 2863   1.331   1.618   9.500  0.4402 -0.6518 -0.3878
  188MPD1     H 2864   1.106   1.646   9.804 -2.0093 -0.6275 -2.0420
  188MPD1    H1 2865   1.416   1.448   9.595  2.3822  2.2506 -2.0890
  188MPD1    H2 2866   1.237   1.783   9.418  0.9509  0.0869 -0.0082
  188MPD1    H3 2867   1.379   1.610   9.404  0.0814 -1.4901 -0.5008
  188MPD1     N 2868   1.274   1.431   9.815 -0.0579  0.9300  0.2891
  188MPD1    H5 2869   1.349   1.362   9.809  0.2306  1.2454  0.2785
  188MPD1    N1 2870   1.079   1.854   9.631  0.3766 -0.0586 -0.1063
  188MPD1    H6 2871   1.076   1.911   9.715 -3.9721 -0.7690  0.1782
  188MPD1    H7 2872   1.111   1.919   9.560  0.0535 -1.8847 -1.9266
  189MPD1     C 2873   3.097   2.152   0.799  0.3529  0.5973  0.0383
  189MPD1    C1 2874   2.969   2.146   0.843 -0.6659  0.1668  0.0449
  189MPD1    C2 2875   2.884   2.252   0.813  0.3055  0.5642  0.9911
  189MPD1    C3 2876   2.938   2.360   0.737  0.0109  0.4678 -1.6330
  189MPD1    C4 2877   3.072   2.364   0.700 -0.4583  0.1664  0.1319
  189MPD1    C5 2878   3.144   2.257   0.725 -0.7817  0.6558  0.6154
  189MPD1     H 2879   2.779   2.249   0.840 -0.4494 -0.5156 -2.1069
  189MPD1    H1 2880   3.120   2.431   0.629 -1.2546 -0.6613 -1.1841
  189MPD1    H2 2881   3.164   2.067   0.815  1.3983  1.0614 -1.9170
  189MPD1    H3 2882   3.249   2.245   0.702 -0.0951  4.1281  1.9126
  189MPD1     N 2883   2.847   2.456   0.690 -0.3257 -0.2621  0.2833
  189MPD1    H5 2884   2.752   2.426   0.708 -0.7547  1.2723  0.5381
  189MPD1    N1 2885   2.909   2.027   0.887 -0.4729  0.1289  1.0193
  189MPD1    H6 2886   2.831   2.051   0.948 -1.7686  0.9375 -0.9157
  189MPD1    H7 2887   2.977   1.982   0.947  1.7635  0.3402 -1.3817
  190MPD1     C 2888   1.837   0.908  15.349  0.0116  0.1763 -0.2912
  190MPD1    C1 2889   1.972   0.901  15.322  0.3934  0.5548  0.0358
  190MPD1    C2 2890   2.063   0.888  15.424  1.1322 -0.1491 -1.4289
  190MPD1    C3 2891   2.024   0.883  15.557  0.1845 -0.1461  0.4674
  190MPD1    C4 2892   1.886   0.883  15.580 -0.1318  0.3659 -0.6472
  190MPD1    C5 2893   1.800   0.901  15.477  0.7552  0.3693  0.2522
  190MPD1     H 2894   2.169   0.870  15.411  1.5983  1.8532 -0.3890
  190MPD1    H1 2895   1.857   0.875  15.685 -1.9277 -1.7573 -1.3188
  190MPD1    H2 2896   1.760   0.920  15.273  0.4830 -1.0457 -0.9658
  190MPD1    H3 2897   1.697   0.907  15.511  0.3301 -0.2062 -0.9633
  190MPD1     N 2898   2.123   0.898  15.660 -0.4238  0.2675  0.4401
  190MPD1    H5 2899   2.212   0.937  15.631  0.6546 -1.0164  2.0681
  190MPD1    N1 2900   2.007   0.886  15.190 -0.2368 -0.7623  0.5198
  190MPD1    H6 2901   1.931   0.909  15.126 -0.0279 -1.5013  0.0059
  190MPD1    H7 2902   2.087   0.947  15.175 -1.3035  0.0687 -1.7122
  191MPD1     C 2903   0.543   2.179  13.035 -0.4632 -0.4979 -0.5751
  191MPD1    C1 2904   0.675   2.147  13.016  0.8277 -0.5153  0.6071
  191MPD1    C2 2905   0.769   2.250  13.007  0.1752 -0.4170 -0.3508
  191MPD1    C3 2906   0.729   2.377  13.006 -0.0936 -0.1372  0.5128
  191MPD1    C4 2907   0.599   2.410  13.030 -1.0021 -0.0601 -0.6497
  191MPD1    C5 2908   0.506   2.310  13.051  0.1984  0.4663  0.3187
  191MPD1     H 2909   0.875   2.232  12.997  0.3419  0.4650 -0.1791
  191MPD1    H1 2910   0.565   2.511  13.051  1.5026  0.9765 -1.5203
  191MPD1    H2 2911   0.473   2.102  13.067 -0.6296 -0.1533 -0.1155
  191MPD1    H3 2912   0.400   2.327  13.058 -0.2464 -1.5658 -1.6384
  191MPD1     N 2913   0.831   2.477  13.008 -0.7902 -0.0135  0.3156
  191MPD1    H5 2914   0.927   2.446  13.017 -0.6298  0.1636 -0.7707
  191MPD1    N1 2915   0.718   2.014  13.044  0.0337 -0.0069 -0.3009
  191MPD1    H6 2916   0.651   1.950  13.000  0.6678 -0.0422 -1.2227
  191MPD1    H7 2917   0.808   2.007  12.997  0.1604 -0.4153  0.0017
  192MPD1     C 2918   1.684   2.737  13.384 -0.8939 -0.0930  0.0384
  192MPD1    C1 2919   1.635   2.624  13.338  0.9041 -0.0917 -0.1641
  192MPD1    C2 2920   1.516   2.633  13.266  0.1114  0.3585  0.1599
  192MPD1    C3 2921   1.466   2.757  13.222  0.6960  0.0560  0.5891
  192MPD1    C4 2922   1.532   2.869  13.266  0.3919 -0.0031 -0.2429
  192MPD1    C5 2923   1.639   2.857  13.346 -0.2866  0.0097  0.2378
  192MPD1     H 2924   1.462   2.541  13.248 -2.4038  2.1720 -1.4721
  192MPD1    H1 2925   1.499   2.971  13.246 -1.2591 -0.9838 -2.5787
  192MPD1    H2 2926   1.766   2.737  13.455 -1.7066  3.1848  1.0127
  192MPD1    H3 2927   1.676   2.946  13.397  1.8484  0.1118 -1.5112
  192MPD1     N 2928   1.344   2.771  13.146 -0.3750  0.0088  0.3135
  192MPD1    H5 2929   1.312   2.864  13.120 -1.5760 -0.7574 -0.9382
  192MPD1    N1 2930   1.689   2.507  13.391  0.5082 -0.0277 -0.1357
  192MPD1    H6 2931   1.665   2.427  13.333  0.9002 -0.7865  0.7385
  192MPD1    H7 2932   1.789   2.513  13.407  0.4668  0.4774 -0.0609
  193MPD1     C 2933   0.471   2.925  17.162 -0.3469 -0.6993 -0.1074
  193MPD1    C1 2934   0.513   2.882  17.043 -0.4909  0.1437  0.1723
  193MPD1    C2 2935   0.639   2.930  16.993  0.0645  0.2334  0.5490
  193MPD1    C3 2936   0.710   3.031  17.055  0.3178 -0.0654 -0.6705
  193MPD1    C4 2937   0.654   3.084  17.170  0.1662  0.5178  0.3909
  193MPD1    C5 2938   0.539   3.027  17.222  0.4916  0.4465  0.2055
  193MPD1     H 2939   0.674   2.888  16.900 -0.7527  0.5857  0.0862
  193MPD1    H1 2940   0.695   3.171  17.220  1.8285  0.1120 -0.2691
  193MPD1    H2 2941   0.371   2.900  17.197 -0.5606 -0.8955 -0.8462
  193MPD1    H3 2942   0.494   3.068  17.311 -1.3704 -1.8975  0.3483
  193MPD1     N 2943   0.842   3.077  17.019  0.0753 -0.3815 -0.5441
  193MPD1    H5 2944   0.892   3.113  17.100 -3.6571  1.9669  0.7182
  193MPD1    N1 2945   0.448   2.768  16.994  0.4118 -0.6649  0.2346
  193MPD1    H6 2946   0.348   2.765  17.013  0.3749  0.3724  0.1670
  193MPD1    H7 2947   0.452   2.751  16.893  0.4494 -2.5573  0.5555
  194MPD1     C 2948   3.870   0.501  16.390  0.2612  0.5427 -0.5057
  194MPD1    C1 2949   3.797   0.383  16.401  0.0424  0.0840  0.4367
  194MPD1    C2 2950   3.849   0.273  16.474 -0.5023  0.1845 -0.4148
  194MPD1    C3 2951   3.963   0.291  16.546  0.4000  0.3159  0.1565
  194MPD1    C4 2952   4.031   0.412  16.540  0.5071  0.0828 -0.8496
  194MPD1    C5 2953   3.979   0.512  16.464 -0.1150  0.5197  0.1552
  194MPD1     H 2954   3.791   0.182  16.479  1.0349 -0.8405 -1.0037
  194MPD1    H1 2955   4.123   0.420  16.598  0.3151  1.7375 -0.7655
  194MPD1    H2 2956   3.841   0.580  16.322 -2.1586 -1.2933 -1.6062
  194MPD1    H3 2957   4.030   0.608  16.460  1.0381 -0.0451  1.4329
  194MPD1     N 2958   4.025   0.186  16.622  0.2122 -0.6495 -0.2137
  194MPD1    H5 2959   4.123   0.194  16.649 -0.9462  0.2109  3.7868
  194MPD1    N1 2960   3.677   0.371  16.331  0.2833  0.5614 -0.0103
  194MPD1    H6 2961   3.626   0.283  16.334  0.7183  0.2680 -1.2417
  194MPD1    H7 2962   3.630   0.459  16.309 -1.0685 -0.6968 -2.1711
  195MPD1     C 2963   0.814   2.358   0.227 -0.2471  0.2139  0.2002
  195MPD1    C1 2964   0.698   2.298   0.275  0.1701  0.1104  0.2479
  195MPD1    C2 2965   0.708   2.181   0.345 -0.1714 -0.5489  0.1928
  195MPD1    C3 2966   0.832   2.122   0.377  0.0015 -0.7657 -0.8038
  195MPD1    C4 2967   0.943   2.191   0.337 -0.1517 -0.0534  0.1155
  195MPD1    C5 2968   0.934   2.302   0.255 -0.1346  0.0810  0.3121
  195MPD1     H 2969   0.615   2.129   0.365  1.4031 -2.7468  1.8520
  195MPD1    H1 2970   1.041   2.144   0.345  0.0292  0.3881  0.5111
  195MPD1    H2 2971   0.817   2.444   0.161  0.4235  0.6871  0.8466
  195MPD1    H3 2972   1.024   2.351   0.219 -0.1537 -2.2322 -2.8166
  195MPD1     N 2973   0.846   1.990   0.418 -0.4670  0.4432  0.2474
  195MPD1    H5 2974   0.934   1.940   0.413 -0.9397 -0.2123 -1.6021
  195MPD1    N1 2975   0.572   2.335   0.222 -0.0370 -0.3399  0.0164
  195MPD1    H6 2976   0.497   2.312   0.286  0.0179 -1.5152 -0.3464
  195MPD1    H7 2977   0.562   2.435   0.204  0.2174  0.1331  2.5115
  196MPD1     C 2978   0.610   1.422   0.290  0.4054  0.6407  0.2549
  196MPD1    C1 2979   0.616   1.298   0.337 -0.2193  0.4638 -0.0631
  196MPD1    C2 2980   0.538   1.263   0.445  0.2737  0.1078 -0.0233
  196MPD1    C3 2981   0.454   1.354   0.509 -0.0897 -0.2260  0.2449
  196MPD1    C4 2982   0.446   1.482   0.454 -0.9549 -0.4294 -0.5198
  196MPD1    C5 2983   0.528   1.519   0.348 -0.2934 -0.9407 -0.7642
  196MPD1     H 2984   0.545   1.161   0.482 -0.8211 -0.9683 -2.8089
  196MPD1    H1 2985   0.379   1.557   0.494 -0.1456  0.0315 -0.0406
  196MPD1    H2 2986   0.662   1.463   0.204 -0.8708  0.7687 -0.4534
  196MPD1    H3 2987   0.513   1.617   0.305 -0.1921 -0.0597  1.1716
  196MPD1     N 2988   0.368   1.329   0.623  0.4308 -0.3439  0.2702
  196MPD1    H5 2989   0.321   1.412   0.658 -0.6373 -0.9131  0.1651
  196MPD1    N1 2990   0.668   1.196   0.252 -0.0453 -0.7936  0.2909
  196MPD1    H6 2991   0.682   1.105   0.297 -0.7610  0.1865  2.5156
  196MPD1    H7 2992   0.752   1.223   0.202  0.3606 -1.0039  0.8497
  197MPD1     C 2993   4.624   2.937   0.008 -0.0227 -0.1974  0.3276
  197MPD1    C1 2994   4.699   3.043   0.057  0.0366 -0.6158  0.3613
  197MPD1    C2 2995   4.711   3.154  17.665  0.2464 -0.0219 -0.1331
  197MPD1    C3 2996   4.654   3.154  17.537 -0.1528 -0.1816 -0.4117
  197MPD1    C4 2997   4.590   3.038  17.492 -0.5085  0.8043 -0.4662
  197MPD1    C5 2998   4.584   2.931  17.575  0.2194 -0.0402  0.2053
  197MPD1     H 2999   0.039   3.239   0.014  1.3753 -0.0952 -1.3121
  197MPD1    H1 3000   4.549   3.020  17.393  3.0127  1.1863 -2.0056
  197MPD1    H2 3001   4.617   2.850   0.072  1.6296 -0.1964  0.5116
  197MPD1    H3 3002   4.545   2.841  17.529  0.1616  0.9047 -1.5837
  197MPD1     N 3003   4.655   3.267  17.452 -0.0352  0.0079  0.8489
  197MPD1    H5 3004   4.621   3.251  17.358  0.3187  0.9586  0.5569
  197MPD1    N1 3005   0.021   3.045   0.190 -0.0660  0.3129  0.4650
  197MPD1    H6 3006   0.106   3.099   0.205 -0.8313  1.4659  0.6662
  197MPD1    H7 3007   0.038   2.952   0.227  2.3326  1.1276  1.4504
  198MPD1     C 3008   0.890   2.040  15.885  0.3093  0.4626 -0.0117
  198MPD1    C1 3009   0.963   1.976  15.789 -0.2826  0.3787 -0.9489
  198MPD1    C2 3010   1.086   1.924  15.824  0.3626  0.8446  0.2955
  198MPD1    C3 3011   1.148   1.958  15.938  0.2027 -0.0767  0.6642
  198MPD1    C4 3012   1.069   2.026  16.029 -0.2295  0.5657  0.8981
  198MPD1    C5 3013   0.941   2.069  16.004 -0.2197 -0.3204  0.4658
  198MPD1     H 3014   1.147   1.863  15.757 -1.1503 -0.1303 -0.1943
  198MPD1    H1 3015   1.097   2.052  16.130 -0.1788  1.3530  0.6836
  198MPD1    H2 3016   0.796   2.086  15.860 -1.0255 -2.6991 -0.8251
  198MPD1    H3 3017   0.888   2.124  16.081 -1.7185 -0.0582 -0.7650
  198MPD1     N 3018   1.283   1.931  15.968  0.1968  0.3071 -0.0888
  198MPD1    H5 3019   1.340   1.888  15.896  1.0214 -0.5361  1.0766
  198MPD1    N1 3020   0.896   1.943  15.673 -0.8390  0.0652  0.0008
  198MPD1    H6 3021   0.853   2.028  15.639  1.2219  1.7239  1.5193
  198MPD1    H7 3022   0.963   1.907  15.605 -0.2094  1.2283  0.0098
  199MPD1     C 3023   4.141   2.584   9.818 -0.3324  0.4734  0.1166
  199MPD1    C1 3024   4.124   2.699   9.739 -0.3845  0.2926  0.2690
  199MPD1    C2 3025   4.026   2.693   9.641 -0.0252  0.3604 -0.5124
  199MPD1    C3 3026   3.925   2.604   9.649 -0.0071  0.6617  0.6445
  199MPD1    C4 3027   3.928   2.502   9.745  0.3168 -0.8372 -0.1003
  199MPD1    C5 3028   4.032   2.503   9.831 -0.4015  0.5409 -0.1868
  199MPD1     H 3029   4.032   2.766   9.560  1.7988 -1.2651 -1.8726
  199MPD1    H1 3030   3.857   2.423   9.726 -0.0435 -0.8479  1.3227
  199MPD1    H2 3031   4.220   2.567   9.891 -0.8186  0.6950  0.6862
  199MPD1    H3 3032   4.045   2.423   9.903 -2.0354  0.3428 -0.1227
  199MPD1     N 3033   3.816   2.602   9.558  0.5491  0.4177  0.2083
  199MPD1    H5 3034   3.760   2.518   9.564 -0.1417  0.8486 -0.3039
  199MPD1    N1 3035   4.216   2.804   9.739 -0.5509  0.4389  0.4662
  199MPD1    H6 3036   4.182   2.884   9.685  0.1124 -0.4932 -1.3459
  199MPD1    H7 3037   4.266   2.828   9.825 -1.4015 -1.5479  1.4979
  200MPD1     C 3038   2.676   3.609  14.398  0.4897  0.2959 -0.3270
  200MPD1    C1 3039   2.695   3.621  14.535  0.2096 -0.1076 -0.5973
  200MPD1    C2 3040   2.748   3.740  14.582  0.3676 -0.9055 -0.2615
  200MPD1    C3 3041   2.802   3.835  14.493  0.7898 -0.3747 -0.0230
  200MPD1    C4 3042   2.796   3.805  14.356 -0.8460 -0.7270 -0.0800
  200MPD1    C5 3043   2.737   3.686  14.308  0.5105  0.1336 -0.0677
  200MPD1     H 3044   2.761   3.756  14.689  0.4515 -2.7187 -0.0055
  200MPD1    H1 3045   2.844   3.867  14.281 -0.6449 -1.0190 -0.1947
  200MPD1    H2 3046   2.631   3.517  14.363  1.5313 -0.2030 -0.3540
  200MPD1    H3 3047   2.723   3.663  14.203  0.7153 -2.2648  0.4318
  200MPD1     N 3048   2.863   3.942  14.548 -0.0820 -0.1723 -0.2259
  200MPD1    H5 3049   2.862   3.947  14.649  2.8703  1.7925 -0.2853
  200MPD1    N1 3050   2.656   3.527  14.627  0.3099 -0.1806 -0.1032
  200MPD1    H6 3051   2.657   3.433  14.588  0.1980  0.5479 -1.8661
  200MPD1    H7 3052   2.691   3.523  14.722  1.5327 -1.3693 -0.6115
  201MPD1     C 3053   1.486   1.614  12.372 -0.6077 -0.1258  0.3035
  201MPD1    C1 3054   1.466   1.479  12.396  0.1740 -0.3083 -0.9441
  201MPD1    C2 3055   1.418   1.441  12.522 -0.5178 -0.3978  0.6685
  201MPD1    C3 3056   1.405   1.531  12.628 -0.9732  0.3584 -0.0813
  201MPD1    C4 3057   1.421   1.667  12.600  0.3116  0.4079  0.3825
  201MPD1    C5 3058   1.463   1.706  12.476  0.5018 -0.2497  0.5800
  201MPD1     H 3059   1.391   1.339  12.549 -0.6520 -0.5418 -0.0167
  201MPD1    H1 3060   1.405   1.742  12.675 -0.4753  1.5754 -0.9584
  201MPD1    H2 3061   1.522   1.649  12.276 -1.6285  1.0241  0.3438
  201MPD1    H3 3062   1.477   1.812  12.460 -1.4525 -0.0403  0.2566
  201MPD1     N 3063   1.366   1.478  12.747 -0.7126 -0.1070  0.7116
  201MPD1    H5 3064   1.361   1.377  12.760  3.7792 -0.1552  1.7809
  201MPD1    N1 3065   1.477   1.390  12.287  0.0352 -0.6643 -0.1743
  201MPD1    H6 3066   1.500   1.297  12.322 -1.4208 -0.4206  1.3783
  201MPD1    H7 3067   1.543   1.421  12.215  1.4000 -3.2650 -0.0410
  202MPD1     C 3068   0.362   2.310   9.523  0.0427 -0.0154  0.4067
  202MPD1    C1 3069   0.445   2.262   9.622 -0.9399  0.3127 -0.9007
  202MPD1    C2 3070   0.384   2.164   9.692  0.6089  0.5031  0.0545
  202MPD1    C3 3071   0.248   2.131   9.699  0.1267  0.5432  0.4953
  202MPD1    C4 3072   0.166   2.197   9.610 -0.2438  0.1373  0.3013
  202MPD1    C5 3073   0.230   2.283   9.520 -0.1822 -0.8101 -0.5113
  202MPD1     H 3074   0.449   2.121   9.769  0.1115  0.3164  0.3696
  202MPD1    H1 3075   0.059   2.179   9.602 -0.5380  2.2665 -0.5152
  202MPD1    H2 3076   0.417   2.371   9.452  1.2066  0.5626  1.8009
  202MPD1    H3 3077   0.171   2.329   9.441 -0.4057  0.7177  0.5440
  202MPD1     N 3078   0.194   2.034   9.783  0.3274  0.5970 -0.2281
  202MPD1    H5 3079   0.105   1.992   9.757 -0.4192  1.5944  0.6884
  202MPD1    N1 3080   0.583   2.274   9.615  0.2627 -0.1838 -0.0861
  202MPD1    H6 3081   0.641   2.250   9.695  1.0853 -3.4053 -1.6505
  202MPD1    H7 3082   0.601   2.372   9.593 -0.9958 -0.1374 -0.9254
  203MPD1     C 3083   4.205   2.710  12.094 -0.5249 -0.2232 -0.2801
  203MPD1    C1 3084   4.230   2.593  12.033  0.2762 -0.6313  0.3762
  203MPD1    C2 3085   4.189   2.476  12.099 -0.4072  0.1826  0.3783
  203MPD1    C3 3086   4.134   2.478  12.223  0.4296  0.1360 -0.0758
  203MPD1    C4 3087   4.103   2.600  12.282  0.1271 -0.1081 -0.3440
  203MPD1    C5 3088   4.134   2.719  12.218  0.4874  1.0452  0.0742
  203MPD1     H 3089   4.224   2.382  12.059 -0.8295  0.5349 -0.8020
  203MPD1    H1 3090   4.044   2.607  12.373 -0.3085 -0.9851 -0.5569
  203MPD1    H2 3091   4.217   2.808  12.049  2.6795 -0.6217 -0.3324
  203MPD1    H3 3092   4.108   2.817  12.255 -2.2254  0.2924  0.1488
  203MPD1     N 3093   4.118   2.349  12.287  0.0656 -0.7369  0.1402
  203MPD1    H5 3094   4.126   2.267  12.228  3.7070 -0.3616  0.1243
  203MPD1    N1 3095   4.271   2.590  11.898 -0.0021 -0.0898 -0.2114
  203MPD1    H6 3096   4.344   2.521  11.882  0.2360  0.1797 -0.2872
  203MPD1    H7 3097   4.315   2.677  11.871  2.9483 -0.7275  2.4922
  204MPD1     C 3098   4.050   2.805   0.468  0.0561 -0.4765  0.9665
  204MPD1    C1 3099   4.043   2.755   0.344 -0.2348 -0.2804 -0.2897
  204MPD1    C2 3100   3.999   2.838   0.239 -0.4036 -0.3755  0.1158
  204MPD1    C3 3101   3.980   2.974   0.268  0.7065 -0.0020  0.0851
  204MPD1    C4 3102   4.002   3.021   0.400  0.9198  0.4930  0.2938
  204MPD1    C5 3103   4.039   2.941   0.502  0.2604 -0.5452  0.5589
  204MPD1     H 3104   3.979   2.798   0.140  2.2946  1.1990 -1.0757
  204MPD1    H1 3105   3.982   3.123   0.431 -1.6060  0.0619  0.1265
  204MPD1    H2 3106   4.059   2.742   0.556  0.5378  0.4269  1.5593
  204MPD1    H3 3107   4.038   2.980   0.603 -0.7861  1.6431 -0.2629
  204MPD1     N 3108   3.946   3.064   0.167  0.0525 -0.7292  0.1526
  204MPD1    H5 3109   3.953   3.029   0.072  0.7319  1.4256 -0.5671
  204MPD1    N1 3110   4.034   2.618   0.321 -0.1167  0.4434  0.3990
  204MPD1    H6 3111   4.067   2.602   0.226  1.7528  2.0381  0.7889
  204MPD1    H7 3112   4.090   2.558   0.380  1.8625  0.7569 -1.1965
  205MPD1     C 3113   4.100   2.680  17.059  0.4203  0.4031 -0.1746
  205MPD1    C1 3114   4.022   2.601  16.982  0.0323  0.0178  0.6319
  205MPD1    C2 3115   3.886   2.610  16.987  0.2818  0.4112 -0.1203
  205MPD1    C3 3116   3.826   2.702  17.068  0.1738 -0.2099 -0.5801
  205MPD1    C4 3117   3.908   2.784  17.143  0.3996 -0.1967  0.6547
  205MPD1    C5 3118   4.041   2.774  17.140  0.0449  0.6095  1.0581
  205MPD1     H 3119   3.825   2.541  16.930 -1.9178  2.6095 -0.4398
  205MPD1    H1 3120   3.864   2.864  17.203  0.2207 -1.0642  1.6887
  205MPD1    H2 3121   4.209   2.675  17.064  0.3881 -0.1839 -0.1160
  205MPD1    H3 3122   4.107   2.837  17.199 -0.8961  0.4513  2.2778
  205MPD1     N 3123   3.687   2.714  17.086  0.6371  0.6496 -0.1915
  205MPD1    H5 3124   3.660   2.794  17.143 -1.2558 -0.2176  0.1131
  205MPD1    N1 3125   4.087   2.511  16.893 -0.0310  0.4027  0.2584
  205MPD1    H6 3126   4.179   2.486  16.930  0.4630  0.8642 -0.6657
  205MPD1    H7 3127   4.042   2.420  16.901 -2.7972  1.7860  0.5311
  206MPD1     C 3128   3.634   1.340  16.850 -0.4465 -0.2816 -0.5665
  206MPD1    C1 3129   3.718   1.256  16.784  0.5471  0.4343  0.0465
  206MPD1    C2 3130   3.682   1.200  16.671 -0.5932 -0.3090  0.9485
  206MPD1    C3 3131   3.541   1.187  16.641 -0.2635  0.0260 -0.1306
  206MPD1    C4 3132   3.453   1.257  16.717  0.1513 -0.0189  0.2012
  206MPD1    C5 3133   3.501   1.336  16.819  0.6081  0.8320  0.1867
  206MPD1     H 3134   3.759   1.159  16.607 -0.5346  0.4198  0.5583
  206MPD1    H1 3135   3.348   1.269  16.694  0.7425  0.7507 -2.0913
  206MPD1    H2 3136   3.663   1.400  16.936 -2.2614  0.0722 -0.2046
  206MPD1    H3 3137   3.436   1.402  16.875 -1.3020  1.1566 -2.3938
  206MPD1     N 3138   3.494   1.113  16.529  0.0184  0.7401  0.8483
  206MPD1    H5 3139   3.398   1.136  16.505 -0.2755  0.9840  2.2544
  206MPD1    N1 3140   3.857   1.252  16.816 -0.4281  0.2948 -0.2204
  206MPD1    H6 3141   3.903   1.172  16.774  0.0543  0.8495 -0.7426
  206MPD1    H7 3142   3.876   1.247  16.916  1.4305 -4.3262 -0.8127
  207MPD1     C 3143   2.163   4.042  10.164  0.1430  0.8889 -0.0738
  207MPD1    C1 3144   2.032   4.058  10.180 -0.3361 -0.1643 -0.6232
  207MPD1    C2 3145   1.950   3.948  10.196  0.9988  0.5629 -0.3658
  207MPD1    C3 3146   2.003   3.820  10.220 -0.0981  0.1027  0.4583
  207MPD1    C4 3147   2.136   3.800  10.198  0.5399  0.1516 -0.8677
  207MPD1    C5 3148   2.216   3.915  10.181  0.5093  0.6682 -0.2506
  207MPD1     H 3149   1.844   3.962  10.213  0.8296 -1.2002  0.0478
  207MPD1    H1 3150   2.178   3.701  10.187 -0.2156 -0.3288  0.5441
  207MPD1    H2 3151   2.222   4.123  10.122 -2.4834  1.6379 -2.2429
  207MPD1    H3 3152   2.321   3.902  10.154  0.7582 -0.2129  1.1662
  207MPD1     N 3153   1.924   3.702  10.251  0.1067  0.3109 -0.4286
  207MPD1    H5 3154   1.983   3.620  10.261  0.1708  0.8753  3.5862
  207MPD1    N1 3155   1.973   4.182  10.154  0.5511  0.1899 -0.3622
  207MPD1    H6 3156   2.040   4.252  10.184  1.4346 -0.0228 -1.8186
  207MPD1    H7 3157   1.886   4.177  10.207 -0.5056 -1.6028 -2.2505
  208MPD1     C 3158   3.712   1.262  17.175 -0.1468  0.4847  0.6184
  208MPD1    C1 3159   3.657   1.202  17.288 -0.3731  0.0098 -0.3178
  208MPD1    C2 3160   3.616   1.275  17.395 -0.0767  0.0511  0.5447
  208MPD1    C3 3161   3.632   1.413  17.400 -0.0693  0.0113 -0.1885
  208MPD1    C4 3162   3.699   1.473  17.296 -0.4423  0.6187  0.6402
  208MPD1    C5 3163   3.735   1.395  17.191 -0.8499 -0.3362  0.8155
  208MPD1     H 3164   3.552   1.228  17.469 -1.2240 -2.0333 -1.7666
  208MPD1    H1 3165   3.725   1.577  17.306  2.3070 -0.0182  0.3213
  208MPD1    H2 3166   3.736   1.205  17.086 -2.8012 -2.4299  1.7555
  208MPD1    H3 3167   3.801   1.450  17.125 -0.3127  1.3483  2.7567
  208MPD1     N 3168   3.587   1.487  17.507 -0.1019 -0.1003 -0.2998
  208MPD1    H5 3169   3.552   1.434  17.586  0.4853 -0.6619 -0.4100
  208MPD1    N1 3170   3.630   1.061  17.285  0.2456 -0.2007 -0.7462
  208MPD1    H6 3171   3.696   1.008  17.230 -0.4433 -0.5412 -1.2425
  208MPD1    H7 3172   3.634   1.019  17.378  2.6157 -0.8035 -1.1245
  209MPD1     C 3173   0.944   2.123   9.759 -0.6215 -0.9486  0.4780
  209MPD1    C1 3174   1.025   2.229   9.746  0.7242 -0.5595  0.0206
  209MPD1    C2 3175   1.104   2.263   9.858 -0.8388 -0.3757  0.6027
  209MPD1    C3 3176   1.097   2.212   9.986 -0.3896 -0.6225 -0.3013
  209MPD1    C4 3177   1.008   2.108   9.994  0.5070 -0.8558 -0.7241
  209MPD1    C5 3178   0.928   2.067   9.883  0.1245 -0.6941  0.1216
  209MPD1     H 3179   1.182   2.335   9.838  2.6565 -3.8388  1.7137
  209MPD1    H1 3180   0.987   2.063  10.090  0.9981  0.6833  0.1163
  209MPD1    H2 3181   0.859   2.089   9.700  0.7552 -1.2228 -1.3312
  209MPD1    H3 3182   0.852   1.992   9.902 -0.8011 -0.3235 -2.1155
  209MPD1     N 3183   1.175   2.271  10.095  0.0821  0.0184 -0.5809
  209MPD1    H5 3184   1.235   2.346  10.061  0.8394  0.0777  0.9016
  209MPD1    N1 3185   1.049   2.285   9.616 -0.6031 -0.2196 -0.6067
  209MPD1    H6 3186   1.073   2.383   9.603 -2.0477  0.1825 -0.2414
  209MPD1    H7 3187   0.971   2.259   9.556 -0.7179  0.6061 -0.8214
  210MPD1     C 3188   1.414   1.941  10.999  0.2779  0.2422  0.0198
  210MPD1    C1 3189   1.462   2.075  10.996 -0.1622 -0.2784 -0.0152
  210MPD1    C2 3190   1.479   2.135  10.871 -0.0893 -0.5324 -0.6285
  210MPD1    C3 3191   1.429   2.070  10.758  0.2639 -0.2486  0.3600
  210MPD1    C4 3192   1.361   1.953  10.761 -0.1836 -0.3265  0.5726
  210MPD1    C5 3193   1.370   1.881  10.885  0.4564 -0.3344 -0.6256
  210MPD1     H 3194   1.528   2.231  10.876  0.5236 -0.7929 -1.7224
  210MPD1    H1 3195   1.322   1.902  10.674 -1.6280  1.7670  0.0159
  210MPD1    H2 3196   1.388   1.890  11.091 -1.6978 -1.0672 -1.2908
  210MPD1    H3 3197   1.316   1.787  10.894  0.6924 -0.8437 -4.3334
  210MPD1     N 3198   1.423   2.136  10.632 -0.2199  0.2409  0.2977
  210MPD1    H5 3199   1.390   2.072  10.561  1.3092 -1.2086  0.9036
  210MPD1    N1 3200   1.515   2.129  11.114  0.7842 -0.1504 -0.4476
  210MPD1    H6 3201   1.524   2.230  11.102 -1.9799  0.0813 -0.4483
  210MPD1    H7 3202   1.449   2.111  11.189  2.3055  1.0604  1.1827
  211MPD1     C 3203   4.184   2.233  17.364 -0.5655 -0.6822  0.1965
  211MPD1    C1 3204   4.111   2.119  17.383  0.3357 -0.0817  0.5958
  211MPD1    C2 3205   4.005   2.099  17.297 -0.1190  0.0965 -0.0454
  211MPD1    C3 3206   3.983   2.187  17.189  0.1436  0.6173 -0.0015
  211MPD1    C4 3207   4.063   2.298  17.165 -0.4186  0.9263  0.3188
  211MPD1    C5 3208   4.155   2.319  17.265  0.7907  0.1262  0.3539
  211MPD1     H 3209   3.935   2.018  17.310 -1.1277  1.0396  0.3509
  211MPD1    H1 3210   4.034   2.375  17.095 -1.4234 -0.3735 -0.6830
  211MPD1    H2 3211   4.254   2.266  17.439  1.7537 -1.5625 -1.5862
  211MPD1    H3 3212   4.207   2.414  17.265  0.0422  0.5410  1.2560
  211MPD1     N 3213   3.873   2.156  17.106  0.2221  0.2890 -0.9585
  211MPD1    H5 3214   3.813   2.080  17.137  1.2209 -0.4376 -0.7833
  211MPD1    N1 3215   4.147   2.033  17.490  0.1099 -0.0249  0.1582
  211MPD1    H6 3216   4.159   2.082  17.578  0.0365 -1.7486  1.1201
  211MPD1    H7 3217   4.076   1.960  17.503  0.2210 -0.0766  0.4612
  212MPD1     C 3218   3.450   0.493  16.579  0.1569 -0.2626  0.5550
  212MPD1    C1 3219   3.405   0.576  16.680  0.0881  0.2538 -0.0411
  212MPD1    C2 3220   3.288   0.539  16.747 -0.0571  0.0421 -0.2382
  212MPD1    C3 3221   3.225   0.415  16.727  0.8258  0.5559  0.1802
  212MPD1    C4 3222   3.275   0.334  16.625 -0.3494 -0.4385  0.7176
  212MPD1    C5 3223   3.383   0.378  16.551  0.3224 -0.1557  0.5802
  212MPD1     H 3224   3.253   0.607  16.824  0.9389  0.1037  0.1722
  212MPD1    H1 3225   3.239   0.235  16.598 -1.4535  0.1400  0.0597
  212MPD1    H2 3226   3.538   0.517  16.520 -1.9125  1.0724 -1.9838
  212MPD1    H3 3227   3.408   0.321  16.462 -1.2571 -0.8332  0.5754
  212MPD1     N 3228   3.115   0.371  16.801 -1.0558  0.5952 -0.1675
  212MPD1    H5 3229   3.071   0.285  16.768  0.0555  0.2581 -0.7677
  212MPD1    N1 3230   3.449   0.708  16.687 -0.1015  0.3896  0.0826
  212MPD1    H6 3231   3.428   0.752  16.776  0.0399  2.2041 -0.7771
  212MPD1    H7 3232   3.545   0.721  16.659 -0.2218  1.3537  0.1336
  213MPD1     C 3233   1.445   0.934  15.596 -0.5493  0.4390  1.0337
  213MPD1    C1 3234   1.322   0.887  15.552 -0.1222 -0.8768  0.6119
  213MPD1    C2 3235   1.243   0.992  15.503 -0.1268  0.4084  0.4060
  213MPD1    C3 3236   1.274   1.133  15.514 -0.2251  0.0807 -0.4038
  213MPD1    C4 3237   1.395   1.166  15.573 -0.2093 -0.9066  0.4964
  213MPD1    C5 3238   1.476   1.063  15.606  0.4223  0.3258 -0.3609
  213MPD1     H 3239   1.151   0.965  15.453  1.9246 -0.3996 -2.9635
  213MPD1    H1 3240   1.440   1.264  15.574  1.2390 -1.5678  0.0024
  213MPD1    H2 3241   1.521   0.862  15.624 -0.0784  1.1013  1.4609
  213MPD1    H3 3242   1.580   1.088  15.624  0.0605  0.7667  1.0792
  213MPD1     N 3243   1.192   1.230  15.446  0.3837 -0.4102 -0.8263
  213MPD1    H5 3244   1.126   1.188  15.382 -0.5210  1.9139 -1.4405
  213MPD1    N1 3245   1.296   0.750  15.509  0.7510  0.0565  0.4641
  213MPD1    H6 3246   1.329   0.676  15.569  2.0318 -0.0328 -0.3565
  213MPD1    H7 3247   1.200   0.732  15.479 -1.0835  1.2811  5.5531
  214MPD1     C 3248   0.654   0.961  14.872 -0.7683  0.4050  0.4835
  214MPD1    C1 3249   0.683   1.089  14.831 -0.1037  0.3173  0.2077
  214MPD1    C2 3250   0.745   1.187  14.909 -0.4187  0.1729  0.7368
  214MPD1    C3 3251   0.809   1.148  15.032 -0.0392 -1.2105 -0.1456
  214MPD1    C4 3252   0.773   1.024  15.076  0.0123 -0.3815  0.5104
  214MPD1    C5 3253   0.703   0.930  14.998  0.6804  0.4216  0.3827
  214MPD1     H 3254   0.762   1.281  14.859  1.6512  0.0876  1.2399
  214MPD1    H1 3255   0.799   1.006  15.180  3.0213  0.9090 -0.0128
  214MPD1    H2 3256   0.595   0.896  14.808 -0.2353 -0.5341  0.9396
  214MPD1    H3 3257   0.683   0.835  15.046  0.1155  0.5947  0.4936
  214MPD1     N 3258   0.880   1.238  15.113 -0.7402  0.0882 -0.1758
  214MPD1    H5 3259   0.927   1.206  15.198 -1.7195  1.9080  1.0595
  214MPD1    N1 3260   0.658   1.118  14.698 -0.0925  0.5192  0.8520
  214MPD1    H6 3261   0.634   1.215  14.675  0.3475  1.0023  2.4279
  214MPD1    H7 3262   0.580   1.067  14.659 -0.2738  2.6973 -1.7120
  215MPD1     C 3263   0.976   1.629  10.275 -0.4516 -0.5779 -0.3664
  215MPD1    C1 3264   1.044   1.739  10.214 -1.1513 -0.5563  0.2539
  215MPD1    C2 3265   1.061   1.855  10.290 -0.1957 -0.3407 -0.1496
  215MPD1    C3 3266   0.996   1.866  10.408 -0.0319 -0.5963  0.6739
  215MPD1    C4 3267   0.915   1.770  10.456 -0.0275  0.0323 -0.2648
  215MPD1    C5 3268   0.906   1.650  10.391 -0.4941 -0.3094  0.2114
  215MPD1     H 3269   1.133   1.932  10.264 -0.7065 -0.6949 -2.5660
  215MPD1    H1 3270   0.861   1.771  10.550 -0.0536  0.2844 -0.2840
  215MPD1    H2 3271   0.978   1.528  10.236  0.6115 -1.0000  0.8179
  215MPD1    H3 3272   0.856   1.566  10.437  0.0750 -1.9180 -2.1169
  215MPD1     N 3273   1.021   1.985  10.483  0.0839 -0.3577 -0.1315
  215MPD1    H5 3274   1.063   2.061  10.430  3.0704 -2.8672 -1.3229
  215MPD1    N1 3275   1.122   1.711  10.102  0.1622  0.9234  0.0926
  215MPD1    H6 3276   1.153   1.789  10.045  0.5853  0.9127  0.3136
  215MPD1    H7 3277   1.084   1.637  10.043 -0.6803  0.6601  0.9472
  216MPD1     C 3278   3.147   4.368  17.137  0.9391 -0.7796 -0.6322
  216MPD1    C1 3279   3.106   4.347  17.265  0.0287 -0.1037  0.5470
  216MPD1    C2 3280   3.178   4.259  17.342 -0.4768 -0.5816 -0.0395
  216MPD1    C3 3281   3.304   4.205  17.304 -0.1779 -0.1010 -0.8252
  216MPD1    C4 3282   3.353   4.248  17.182  0.0850 -0.5929 -0.5769
  216MPD1    C5 3283   3.273   4.329  17.100 -0.3953 -0.2987 -0.8691
  216MPD1     H 3284   3.134   4.226  17.436  2.9559 -1.1907  1.3295
  216MPD1    H1 3285   3.457   4.231  17.158  0.1651  0.4822 -0.9783
  216MPD1    H2 3286   3.093   4.433  17.068  1.8391  2.3961  1.6566
  216MPD1    H3 3287   3.311   4.354  17.002 -1.4745  0.3449 -1.1142
  216MPD1     N 3288   3.382   4.132  17.401 -0.1657  0.3073  0.6537
  216MPD1    H5 3289   3.332   4.102  17.484 -0.7329 -0.1703  0.1339
  216MPD1    N1 3290   2.979   4.387  17.309  0.3558 -0.4963  0.1813
  216MPD1    H6 3291   2.965   4.390  17.409  1.4009 -0.9999  0.3373
  216MPD1    H7 3292   2.954   4.482  17.280 -1.5711 -0.9336  0.3795
  217MPD1     C 3293   3.913   1.382   8.312 -0.2789 -0.0137 -0.4208
  217MPD1    C1 3294   3.800   1.352   8.381 -0.2467 -0.1401  0.1333
  217MPD1    C2 3295   3.808   1.350   8.524 -0.3101 -0.6286 -0.1798
  217MPD1    C3 3296   3.932   1.362   8.589  0.7640  0.3909  1.4633
  217MPD1    C4 3297   4.044   1.389   8.514 -0.1811  0.0561 -0.2392
  217MPD1    C5 3298   4.033   1.394   8.376  0.8067  0.8331  0.7624
  217MPD1     H 3299   3.713   1.334   8.573 -1.1545 -0.6645 -1.8431
  217MPD1    H1 3300   4.139   1.410   8.561 -0.3661  2.5090 -0.9498
  217MPD1    H2 3301   3.917   1.385   8.204 -0.3398  1.3239 -0.3792
  217MPD1    H3 3302   4.123   1.411   8.318 -0.1846  0.2984 -0.9037
  217MPD1     N 3303   3.949   1.351   8.733  0.4999 -0.1336 -0.9441
  217MPD1    H5 3304   4.033   1.382   8.782 -0.1598  0.8219 -0.4065
  217MPD1    N1 3305   3.685   1.296   8.319 -0.2153 -0.5141 -0.5840
  217MPD1    H6 3306   3.666   1.344   8.232 -0.5613  1.4284  0.5546
  217MPD1    H7 3307   3.599   1.311   8.371  1.0787  1.5065  1.0140
  218MPD1     C 3308   0.718   2.394  12.624  0.0206  1.1145  0.3414
  218MPD1    C1 3309   0.800   2.295  12.665 -0.4875 -0.5793  0.5755
  218MPD1    C2 3310   0.930   2.330  12.678  0.3099 -0.4077  0.4857
  218MPD1    C3 3311   0.967   2.460  12.682  0.4428 -0.9655 -0.7871
  218MPD1    C4 3312   0.877   2.560  12.658  0.5912 -0.4846 -0.1847
  218MPD1    C5 3313   0.753   2.525  12.619  0.0222  0.5818 -0.5389
  218MPD1     H 3314   0.996   2.245  12.695  2.2964  1.5532  2.4779
  218MPD1    H1 3315   0.904   2.665  12.658  0.8225 -0.5454  1.7519
  218MPD1    H2 3316   0.614   2.379  12.595  0.2674 -0.6471  0.3956
  218MPD1    H3 3317   0.678   2.601  12.602  1.1614  1.3714 -2.0595
  218MPD1     N 3318   1.105   2.488  12.713  0.1697  0.2336 -0.6123
  218MPD1    H5 3319   1.162   2.409  12.740 -1.2281 -0.0737  1.4427
  218MPD1    N1 3320   0.770   2.160  12.641 -0.4000 -0.4831 -0.8746
  218MPD1    H6 3321   0.814   2.100  12.711  0.9972  0.8389 -0.5970
  218MPD1    H7 3322   0.670   2.158  12.655 -0.4450  1.1071 -0.9153
  219MPD1     C 3323   1.960   3.155  12.591  0.1058 -0.5424  0.3213
  219MPD1    C1 3324   1.894   3.089  12.490  0.9407  0.2588  0.9209
  219MPD1    C2 3325   1.809   2.982  12.519 -0.2229  0.3793  0.4118
  219MPD1    C3 3326   1.788   2.937  12.649 -1.0476 -0.4915 -0.6270
  219MPD1    C4 3327   1.863   3.004  12.747 -0.1851  0.1684  0.3937
  219MPD1    C5 3328   1.946   3.111  12.722  0.0964  1.2728 -0.1883
  219MPD1     H 3329   1.767   2.932  12.433 -1.6006  0.4816  1.0203
  219MPD1    H1 3330   1.836   2.984  12.850  2.1029  0.3343  1.0258
  219MPD1    H2 3331   2.019   3.242  12.568 -0.9552 -0.3726 -1.8013
  219MPD1    H3 3332   1.996   3.169  12.799 -2.2334 -0.8554  2.9608
  219MPD1     N 3333   1.710   2.823  12.685 -0.1495 -0.1244 -0.0321
  219MPD1    H5 3334   1.714   2.788  12.781 -1.4023 -2.6626 -0.9040
  219MPD1    N1 3335   1.894   3.145  12.361  0.4048  0.2262 -0.7137
  219MPD1    H6 3336   1.983   3.192  12.350  0.6454 -0.5739 -2.2733
  219MPD1    H7 3337   1.889   3.071  12.291 -0.1520 -0.1424 -0.2925
  220MPD1     C 3338   0.079   2.678   9.148  0.0654 -0.1627  0.0571
  220MPD1    C1 3339   4.717   2.629   9.246  0.4058 -0.1315  0.4386
  220MPD1    C2 3340   0.051   2.606   9.371 -0.8431 -0.3207 -0.5890
  220MPD1    C3 3341   0.175   2.637   9.404 -0.2181 -0.7878  0.0521
  220MPD1    C4 3342   0.257   2.692   9.301 -0.1030  0.3472 -0.3790
  220MPD1    C5 3343   0.214   2.708   9.171  0.0994 -0.7418 -0.1507
  220MPD1     H 3344   4.707   2.571   9.448 -0.1108  1.7367  0.9809
  220MPD1    H1 3345   0.360   2.724   9.311 -0.0636  0.3778 -0.8928
  220MPD1    H2 3346   0.041   2.693   9.048  0.5959  2.3614  0.2245
  220MPD1    H3 3347   0.278   2.727   9.086 -1.4999  2.8226 -0.5585
  220MPD1     N 3348   0.212   2.620   9.538 -0.1417 -0.3454  0.0745
  220MPD1    H5 3349   0.135   2.586   9.594  0.5037  0.1855  1.2761
  220MPD1    N1 3350   4.601   2.559   9.205  0.3264 -0.1030 -0.4217
  220MPD1    H6 3351   4.555   2.576   9.116  1.8008 -0.5630 -1.2653
  220MPD1    H7 3352   4.523   2.567   9.271 -0.6926  0.8253 -1.7379
  221MPD1     C 3353   2.967   1.709  16.926  0.7495 -0.4459  1.0480
  221MPD1    C1 3354   3.071   1.791  16.974  0.1512  0.3189  0.5656
  221MPD1    C2 3355   3.195   1.790  16.915 -0.7098 -0.1901  0.1367
  221MPD1    C3 3356   3.212   1.723  16.799 -0.3229  0.1660 -0.0282
  221MPD1    C4 3357   3.114   1.633  16.757  0.7415 -0.0311 -0.1183
  221MPD1    C5 3358   2.990   1.630  16.822  0.4368 -0.4764 -0.4198
  221MPD1     H 3359   3.271   1.854  16.957 -0.4038 -0.4512 -0.0215
  221MPD1    H1 3360   3.135   1.565  16.675 -0.9676  0.4995 -0.9746
  221MPD1    H2 3361   2.868   1.713  16.969  1.3645 -0.4678  2.4901
  221MPD1    H3 3362   2.913   1.566  16.781  1.4975 -0.5403 -2.3112
  221MPD1     N 3363   3.332   1.721  16.718 -0.2223  1.1530  0.4852
  221MPD1    H5 3364   3.343   1.640  16.657  0.8689  2.8626 -1.5876
  221MPD1    N1 3365   3.058   1.872  17.081 -0.4533  0.1864  0.0185
  221MPD1    H6 3366   3.093   1.963  17.054  1.0329 -0.9956 -2.0091
  221MPD1    H7 3367   2.961   1.891  17.104 -0.2345  2.1970 -0.7719
  222MPD1     C 3368   2.277   4.670   1.064 -0.8102  0.3173 -0.1115
  222MPD1    C1 3369   2.387   4.620   1.003  0.7945 -0.1394  0.4136
  222MPD1    C2 3370   2.416   4.666   0.872 -0.0363  0.3037  0.1710
  222MPD1    C3 3371   2.332   0.034   0.814  0.5951 -0.5142 -0.0911
  222MPD1    C4 3372   2.230   0.095   0.879  0.9584 -0.0146  0.4500
  222MPD1    C5 3373   2.201   0.051   1.003  0.5386  0.1889 -1.1196
  222MPD1     H 3374   2.498   4.617   0.821  0.8574  2.1128 -0.1218
  222MPD1    H1 3375   2.158   0.162   0.834  0.2921 -0.1275  1.3355
  222MPD1    H2 3376   2.249   4.648   1.166 -1.7895 -2.1483 -0.9036
  222MPD1    H3 3377   2.125   0.107   1.058  1.3076  0.5376 -0.4179
  222MPD1     N 3378   2.353   0.077   0.685 -0.7305 -0.0281  0.6500
  222MPD1    H5 3379   2.296   0.158   0.661  1.3281  1.8230  1.8748
  222MPD1    N1 3380   2.467   4.529   1.059 -0.0686 -0.2645  0.1332
  222MPD1    H6 3381   2.518   4.462   1.002 -1.3334 -1.3859  0.3143
  222MPD1    H7 3382   2.433   4.470   1.135  0.3652  0.1053  0.6131
  223MPD1     C 3383   2.818   0.009  17.397  0.3292 -0.8177 -0.6619
  223MPD1    C1 3384   2.845   0.114  17.477  1.2016  0.3922 -0.0073
  223MPD1    C2 3385   2.786   0.140  17.594  0.3667  0.3012 -0.1814
  223MPD1    C3 3386   2.695   0.042  17.644  0.3352  0.7845 -0.0399
  223MPD1    C4 3387   2.672   4.647  17.575  0.1906 -0.2028 -0.7974
  223MPD1    C5 3388   2.726   4.640  17.446  0.6190  0.2854  0.1665
  223MPD1     H 3389   2.831   0.214  17.658 -1.4417  1.1591  0.1093
  223MPD1    H1 3390   2.603   4.569  17.605  1.8145 -0.7538  1.4935
  223MPD1    H2 3391   2.872   4.706  17.306  2.3017  0.2773  0.1905
  223MPD1    H3 3392   2.713   4.542  17.401 -1.5717  0.9103 -0.5739
  223MPD1     N 3393   2.619   0.077   0.067 -0.0651  0.4875  0.8083
  223MPD1    H5 3394   2.650   0.160   0.116 -0.5753  0.5163  1.0845
  223MPD1    N1 3395   2.950   0.190  17.428 -0.4543 -0.5672  0.3368
  223MPD1    H6 3396   2.955   0.186  17.326  1.1424  0.7318  0.3487
  223MPD1    H7 3397   2.942   0.288  17.456  0.3567 -0.7289  1.1345
  224MPD1     C 3398   4.405   2.248   9.168  0.0479 -0.4048  0.4714
  224MPD1    C1 3399   4.465   2.204   9.279  0.7369 -0.2954  0.0112
  224MPD1    C2 3400   4.407   2.101   9.352  0.5823  0.2399 -0.1159
  224MPD1    C3 3401   4.292   2.041   9.309 -0.1111  0.4823 -0.0517
  224MPD1    C4 3402   4.229   2.087   9.198 -1.0204 -0.0298 -0.2125
  224MPD1    C5 3403   4.296   2.185   9.125 -0.1574  0.2176  0.3043
  224MPD1     H 3404   4.458   2.076   9.445 -0.6384  0.5886  0.6458
  224MPD1    H1 3405   4.137   2.050   9.155 -1.1721 -0.0200  0.1098
  224MPD1    H2 3406   4.443   2.327   9.104  0.2438 -0.2315  0.8015
  224MPD1    H3 3407   4.250   2.225   9.036 -0.0240  1.3539  0.7504
  224MPD1     N 3408   4.226   1.933   9.385  0.2367  0.1531  0.3355
  224MPD1    H5 3409   4.135   1.904   9.352 -0.6683  1.5415  1.6117
  224MPD1    N1 3410   4.584   2.263   9.322  0.4861  0.6490  0.1924
  224MPD1    H6 3411   4.581   2.277   9.423 -1.0790  1.2949  0.0467
  224MPD1    H7 3412   4.592   2.357   9.285 -1.1753  1.1220  1.0538
  225MPD1     C 3413   1.071   3.552  12.252  0.1067 -0.1616 -0.5447
  225MPD1    C1 3414   1.024   3.449  12.170 -0.2342 -0.4969 -0.9254
  225MPD1    C2 3415   0.918   3.374  12.206  0.2257  0.1707 -0.4771
  225MPD1    C3 3416   0.845   3.410  12.321 -0.3895 -0.4683 -0.1002
  225MPD1    C4 3417   0.882   3.528  12.386 -0.7155 -0.1723  0.0724
  225MPD1    C5 3418   1.002   3.592  12.367  0.2086 -0.3101 -0.3696
  225MPD1     H 3419   0.895   3.280  12.157  1.3180 -0.2993 -0.1024
  225MPD1    H1 3420   0.825   3.561  12.472 -1.3907  0.6658 -0.6925
  225MPD1    H2 3421   1.168   3.598  12.236  0.4806  0.2198  2.6901
  225MPD1    H3 3422   1.049   3.674  12.419 -1.7118  0.3338  0.3732
  225MPD1     N 3423   0.730   3.344  12.368  0.3975  0.4506  0.3290
  225MPD1    H5 3424   0.677   3.392  12.440 -0.7985  0.5487 -0.5973
  225MPD1    N1 3425   1.111   3.399  12.070 -0.3322  0.3504  0.6634
  225MPD1    H6 3426   1.060   3.340  12.005  0.3223 -0.6242  1.0276
  225MPD1    H7 3427   1.157   3.475  12.020  1.4875  1.1017  3.5007
  226MPD1     C 3428   3.124   1.540   8.999  0.0955  0.7588 -0.6273
  226MPD1    C1 3429   3.062   1.597   9.105 -0.9095  0.3402  0.0874
  226MPD1    C2 3430   3.065   1.736   9.127  0.0188 -0.1629  0.4333
  226MPD1    C3 3431   3.125   1.814   9.035 -0.1319 -0.1006 -0.1201
  226MPD1    C4 3432   3.198   1.756   8.930  0.3735 -0.0094 -0.3376
  226MPD1    C5 3433   3.195   1.621   8.912 -0.0136 -0.2438 -0.3875
  226MPD1     H 3434   3.031   1.773   9.223 -0.3977 -0.2830  0.3305
  226MPD1    H1 3435   3.248   1.817   8.855  3.5784 -1.1440  0.8795
  226MPD1    H2 3436   3.136   1.434   8.978  1.2843  0.2462  2.7402
  226MPD1    H3 3437   3.246   1.569   8.832 -0.1612  0.0503 -0.6727
  226MPD1     N 3438   3.131   1.964   9.049 -0.7449  0.3729  0.0113
  226MPD1    H5 3439   3.062   1.994   9.117  0.3523  0.7682  0.9515
  226MPD1    N1 3440   3.025   1.515   9.212  0.9058 -0.2142 -0.4268
  226MPD1    H6 3441   2.992   1.424   9.180  1.4734 -1.3604  2.3093
  226MPD1    H7 3442   2.957   1.562   9.271 -1.2717 -1.6493 -1.7574
  227MPD1     C 3443   2.374   2.233   9.294  0.1195 -0.0248 -0.5876
  227MPD1    C1 3444   2.445   2.130   9.252  0.0222 -1.0753 -0.0653
  227MPD1    C2 3445   2.577   2.145   9.215  0.0588  1.2061 -0.1198
  227MPD1    C3 3446   2.637   2.266   9.206  0.5576  0.3976 -0.4989
  227MPD1    C4 3447   2.562   2.371   9.231  0.0539  0.3030 -0.2083
  227MPD1    C5 3448   2.432   2.356   9.284  0.6270  1.2410  0.4571
  227MPD1     H 3449   2.626   2.050   9.198 -1.9463  0.0562  0.4871
  227MPD1    H1 3450   2.589   2.472   9.203 -0.0623  0.2267 -0.5942
  227MPD1    H2 3451   2.276   2.223   9.340 -0.4615 -3.3449 -2.5222
  227MPD1    H3 3452   2.367   2.437   9.315  0.2169  1.2565 -0.4490
  227MPD1     N 3453   2.774   2.270   9.166 -0.5391 -0.2869 -0.1096
  227MPD1    H5 3454   2.813   2.176   9.159  0.8147  0.3241 -0.7573
  227MPD1    N1 3455   2.396   2.003   9.286 -0.2197  0.0139 -0.0976
  227MPD1    H6 3456   2.434   1.929   9.228 -0.3059 -0.0732 -0.0420
  227MPD1    H7 3457   2.295   2.000   9.294 -0.1348  2.1184  1.8971
  228MPD1     C 3458   2.567   1.216  12.662 -0.0186 -0.1091  0.1746
  228MPD1    C1 3459   2.493   1.319  12.720 -0.4761  0.4671 -0.0340
  228MPD1    C2 3460   2.417   1.302  12.839 -0.1918  0.5497  0.5741
  228MPD1    C3 3461   2.403   1.175  12.893 -0.3851 -0.1897 -0.1017
  228MPD1    C4 3462   2.465   1.066  12.829  0.4745  0.1373  0.0525
  228MPD1    C5 3463   2.546   1.091  12.721  0.9749 -0.0454 -0.2644
  228MPD1     H 3464   2.362   1.382  12.888 -0.7498  0.1580  0.5860
  228MPD1    H1 3465   2.448   0.964  12.862  2.7221 -0.7198 -1.4278
  228MPD1    H2 3466   2.640   1.229  12.583 -0.4576  3.0035  0.2504
  228MPD1    H3 3467   2.603   1.008  12.681 -1.4940 -1.9482  0.1710
  228MPD1     N 3468   2.295   1.159  12.988  0.2593  0.2686  0.1517
  228MPD1    H5 3469   2.252   1.244  13.022  0.3037  0.3462  0.0163
  228MPD1    N1 3470   2.503   1.453  12.672 -0.0102 -0.4278  0.0269
  228MPD1    H6 3471   2.548   1.451  12.580  1.0373  0.8807  0.5040
  228MPD1    H7 3472   2.409   1.492  12.668  0.1446 -0.0619 -0.0172
  229MPD1     C 3473   1.629   0.387  14.935 -0.1584 -0.2891  0.3807
  229MPD1    C1 3474   1.673   0.430  15.057 -0.2214  0.6603  0.1469
  229MPD1    C2 3475   1.721   0.337  15.152  0.6777 -0.1804 -0.1086
  229MPD1    C3 3476   1.702   0.203  15.132  0.0348  0.3727 -0.1593
  229MPD1    C4 3477   1.641   0.162  15.016 -0.3934 -0.0619  0.2436
  229MPD1    C5 3478   1.616   0.254  14.922  0.2021  0.4070  0.3654
  229MPD1     H 3479   1.750   0.369  15.251 -1.1842  0.5935  0.2007
  229MPD1    H1 3480   1.624   0.057  14.994  1.7081  0.1752 -2.6247
  229MPD1    H2 3481   1.606   0.457  14.855 -0.8189  0.1564  0.9560
  229MPD1    H3 3482   1.590   0.218  14.823 -0.4170  0.3343  0.5572
  229MPD1     N 3483   1.750   0.100  15.220 -0.2092  0.5896 -0.3128
  229MPD1    H5 3484   1.740   0.002  15.197  0.3467  0.4200  0.1682
  229MPD1    N1 3485   1.672   0.569  15.091 -0.0746 -0.2338  0.6033
  229MPD1    H6 3486   1.700   0.623  15.009 -2.9048 -0.7828 -0.7281
  229MPD1    H7 3487   1.748   0.587  15.156  0.1024  0.7979  0.1058
  230MPD1     C 3488   2.463   0.290  15.814  0.7846  0.1290 -0.4573
  230MPD1    C1 3489   2.410   0.359  15.709 -0.5362  0.8463  0.8585
  230MPD1    C2 3490   2.336   0.290  15.612 -0.1175 -1.0112 -0.2292
  230MPD1    C3 3491   2.327   0.149  15.625  0.6102  0.6634 -0.4471
  230MPD1    C4 3492   2.386   0.079  15.732 -0.4233 -0.2011  0.3253
  230MPD1    C5 3493   2.464   0.152  15.815 -0.0594 -0.3547  0.5391
  230MPD1     H 3494   2.271   0.339  15.541 -0.0874 -1.3098 -0.4656
  230MPD1    H1 3495   2.374   4.696  15.754 -2.8939  0.3954  1.9539
  230MPD1    H2 3496   2.526   0.334  15.890  0.1876  1.1689 -0.5674
  230MPD1    H3 3497   2.518   0.102  15.895 -1.3365  0.6406  2.0363
  230MPD1     N 3498   2.237   0.076  15.544 -0.5046 -0.4162 -0.2176
  230MPD1    H5 3499   2.181   0.133  15.481  2.2933  2.2799 -0.2360
  230MPD1    N1 3500   2.412   0.496  15.708  0.6711 -0.5949 -0.4549
  230MPD1    H6 3501   2.497   0.531  15.751 -0.2863  0.6986  0.4057
  230MPD1    H7 3502   2.399   0.543  15.619  0.4943  2.4438  1.1428
  231MPD1     C 3503   0.337   0.535  15.172  0.1965 -0.0160  0.3965
  231MPD1    C1 3504   0.332   0.582  15.043 -0.4340 -0.3476  0.1235
  231MPD1    C2 3505   0.329   0.719  15.011  0.5295  0.5164 -0.4441
  231MPD1    C3 3506   0.331   0.810  15.111  0.2558  0.6480  0.1488
  231MPD1    C4 3507   0.341   0.768  15.238 -0.1423  0.1757 -0.2880
  231MPD1    C5 3508   0.340   0.632  15.271 -0.4502 -0.8130  0.0408
  231MPD1     H 3509   0.325   0.752  14.908 -2.3419  1.3514 -0.0674
  231MPD1    H1 3510   0.348   0.840  15.318  0.4787  4.3284 -4.0604
  231MPD1    H2 3511   0.355   0.430  15.195  0.5151 -0.3423 -1.3159
  231MPD1    H3 3512   0.330   0.613  15.377 -0.3758  0.6711  0.3088
  231MPD1     N 3513   0.322   0.950  15.089 -0.4325 -0.1786 -0.1909
  231MPD1    H5 3514   0.328   1.010  15.170  1.9114 -0.2265 -0.3287
  231MPD1    N1 3515   0.349   0.485  14.940  0.4861  0.8854  0.0241
  231MPD1    H6 3516   0.306   0.401  14.977  1.1676  0.2095 -0.7213
  231MPD1    H7 3517   0.306   0.507  14.851 -0.6405  1.0528  0.6094
  232MPD1     C 3518   2.113   3.216   0.933 -0.1136  0.8225 -0.6509
  232MPD1    C1 3519   1.977   3.220   0.902 -0.3022 -0.2369 -0.1791
  232MPD1    C2 3520   1.954   3.247   0.769  0.6849 -0.4629  0.1642
  232MPD1    C3 3521   2.045   3.259   0.670 -1.0350 -0.0210 -0.5892
  232MPD1    C4 3522   2.177   3.263   0.705 -0.6112 -1.2789  0.0912
  232MPD1    C5 3523   2.207   3.242   0.838  0.0407 -0.1266  0.5822
  232MPD1     H 3524   1.848   3.257   0.751  0.9733  0.6667 -0.8679
  232MPD1    H1 3525   2.259   3.256   0.635  1.2503  1.6788  1.9420
  232MPD1    H2 3526   2.148   3.205   1.035  2.3951  0.4335 -1.5562
  232MPD1    H3 3527   2.310   3.258   0.865  0.4198 -2.4373  0.5468
  232MPD1     N 3528   1.995   3.275   0.536  0.1189 -0.3882 -0.0274
  232MPD1    H5 3529   1.893   3.274   0.531  0.2166  0.1478 -2.1539
  232MPD1    N1 3530   1.876   3.220   0.998  0.1174  0.0430 -0.3674
  232MPD1    H6 3531   1.890   3.156   1.076 -1.6143 -0.6578 -0.6347
  232MPD1    H7 3532   1.789   3.197   0.950  0.2566 -2.0520  0.4019
  233MPD1     C 3533   2.889   2.692   1.388 -0.5451 -0.4166 -0.1255
  233MPD1    C1 3534   3.013   2.741   1.358 -0.2796  0.0325  0.5162
  233MPD1    C2 3535   3.125   2.662   1.387  0.8050  0.5261  0.3248
  233MPD1    C3 3536   3.113   2.529   1.420  0.0839 -0.0386  0.2480
  233MPD1    C4 3537   2.985   2.475   1.439  0.1116  0.4693  0.6611
  233MPD1    C5 3538   2.881   2.555   1.427 -0.2237 -0.3531 -0.2090
  233MPD1     H 3539   3.224   2.704   1.374  1.8857 -1.8107  0.9829
  233MPD1    H1 3540   2.965   2.372   1.466 -0.9678  0.1305 -1.4689
  233MPD1    H2 3541   2.797   2.745   1.368 -0.7336 -1.6434 -2.5831
  233MPD1    H3 3542   2.781   2.519   1.448 -0.4935  0.3609 -0.2660
  233MPD1     N 3543   3.223   2.448   1.440  0.2707  0.1169  0.4905
  233MPD1    H5 3544   3.206   2.355   1.476 -0.2037 -0.4355 -1.1619
  233MPD1    N1 3545   3.028   2.873   1.331 -0.3882  0.4626 -0.0112
  233MPD1    H6 3546   3.123   2.895   1.302 -0.7646 -1.1210 -2.5094
  233MPD1    H7 3547   2.957   2.913   1.268 -0.1665  0.8843  0.0041
  234MPD1     C 3548   0.727   1.098   9.797 -0.0907 -0.5516  0.5357
  234MPD1    C1 3549   0.634   1.141   9.891  0.1395 -0.0609  0.5068
  234MPD1    C2 3550   0.503   1.100   9.884 -0.9740  0.5894  0.0909
  234MPD1    C3 3551   0.467   1.022   9.780 -0.5542 -0.6965  0.2381
  234MPD1    C4 3552   0.562   0.970   9.694 -0.5924 -0.3290  0.4051
  234MPD1    C5 3553   0.691   1.009   9.703  0.4317  0.8001 -0.3735
  234MPD1     H 3554   0.428   1.131   9.955 -2.0103 -0.0403 -0.7239
  234MPD1    H1 3555   0.542   0.900   9.614  2.0851 -0.5430 -0.0617
  234MPD1    H2 3556   0.830   1.131   9.789 -0.1886 -0.0386  1.3645
  234MPD1    H3 3557   0.760   0.964   9.634  0.4752  2.6234 -1.5158
  234MPD1     N 3558   0.330   0.977   9.763  0.0355 -1.0183 -0.1285
  234MPD1    H5 3559   0.267   1.012   9.834  1.2070  2.1196 -0.6044
  234MPD1    N1 3560   0.666   1.241   9.983 -0.3660 -0.3691 -0.1997
  234MPD1    H6 3561   0.754   1.219  10.028 -0.5876  1.8439  1.3711
  234MPD1    H7 3562   0.597   1.252  10.058 -1.2995 -1.3677 -0.9124
  235MPD1     C 3563   1.171   3.094   9.612  0.0892  0.6669  0.4067
  235MPD1    C1 3564   1.139   3.145   9.734 -0.1290 -1.0270 -0.2596
  235MPD1    C2 3565   1.236   3.219   9.797 -0.0998  0.4170  0.0158
  235MPD1    C3 3566   1.361   3.244   9.742 -0.4151 -0.2660  0.0794
  235MPD1    C4 3567   1.382   3.208   9.615 -0.7293  0.0096  0.6151
  235MPD1    C5 3568   1.295   3.114   9.563  0.4085 -0.3915  0.7186
  235MPD1     H 3569   1.220   3.266   9.894  2.1829 -0.0149  0.6186
  235MPD1    H1 3570   1.470   3.228   9.555  0.6633 -0.7700  2.3867
  235MPD1    H2 3571   1.101   3.041   9.549  1.2983  0.9111 -1.1391
  235MPD1    H3 3572   1.302   3.096   9.457 -0.3004 -0.8112  0.7445
  235MPD1     N 3573   1.454   3.322   9.815 -0.0307 -0.3303  0.1676
  235MPD1    H5 3574   1.431   3.363   9.905 -2.5686  0.5667 -0.8746
  235MPD1    N1 3575   1.004   3.154   9.769  0.8718 -0.6966  0.5495
  235MPD1    H6 3576   0.988   3.165   9.869 -0.1454 -1.5625  0.4871
  235MPD1    H7 3577   0.935   3.090   9.728 -0.1696  0.9300 -0.2137
  236MPD1     C 3578   0.476   0.082  10.291  0.0238  0.2905 -0.1059
  236MPD1    C1 3579   0.442   4.668  10.311 -0.5093 -0.5210  0.4624
  236MPD1    C2 3580   0.540   4.580  10.351 -0.1586  0.5286  0.9434
  236MPD1    C3 3581   0.661   4.634  10.395  0.1154 -0.0724 -0.3743
  236MPD1    C4 3582   0.684   0.043  10.390 -0.4277 -0.0166  0.1612
  236MPD1    C5 3583   0.593   0.135  10.338 -0.2538 -0.5989 -0.0353
  236MPD1     H 3584   0.522   4.474  10.332 -0.0167  0.2209  2.4897
  236MPD1    H1 3585   0.776   0.093  10.418  0.3383 -0.9670 -0.6450
  236MPD1    H2 3586   0.412   0.153  10.240  0.4087  3.3477  3.6499
  236MPD1    H3 3587   0.608   0.243  10.333  0.3025 -0.6927 -0.4339
  236MPD1     N 3588   0.772   4.550  10.430  0.2659  0.7951  0.4954
  236MPD1    H5 3589   0.856   4.601  10.453  0.4573  1.3608 -1.4175
  236MPD1    N1 3590   0.319   4.623  10.251 -0.2096 -0.5007 -0.6324
  236MPD1    H6 3591   0.249   4.697  10.251 -1.6126 -1.8196  0.2653
  236MPD1    H7 3592   0.276   4.545  10.301 -0.8581  0.6815  0.6643
  237MPD1     C 3593   0.543   3.622  15.765 -0.7208 -0.0659 -0.0133
  237MPD1    C1 3594   0.640   3.529  15.799 -0.5394  0.7812 -0.1530
  237MPD1    C2 3595   0.641   3.406  15.733 -0.2509 -0.3200  0.1003
  237MPD1    C3 3596   0.544   3.378  15.640 -0.3593  0.1146 -0.1832
  237MPD1    C4 3597   0.448   3.472  15.603 -0.2290 -1.0158 -0.2449
  237MPD1    C5 3598   0.454   3.590  15.669 -0.2387 -0.1744  0.0736
  237MPD1     H 3599   0.735   3.351  15.741 -0.5109 -0.6842  0.6971
  237MPD1    H1 3600   0.370   3.461  15.529  0.1622 -3.2929 -0.3061
  237MPD1    H2 3601   0.532   3.721  15.806 -0.4887  0.2596 -0.7263
  237MPD1    H3 3602   0.379   3.664  15.641  0.7507  0.1853 -1.6231
  237MPD1     N 3603   0.545   3.253  15.570 -0.4090  0.2093  0.4242
  237MPD1    H5 3604   0.478   3.251  15.494  0.9559 -0.9489 -0.7489
  237MPD1    N1 3605   0.750   3.564  15.881 -0.3178  0.0942  0.0631
  237MPD1    H6 3606   0.811   3.483  15.881  0.3723  0.6058 -0.8681
  237MPD1    H7 3607   0.720   3.594  15.973 -2.4540  0.1314 -0.6313
  238MPD1     C 3608   1.929   1.606  16.013  0.2781  0.0406 -0.6229
  238MPD1    C1 3609   2.028   1.602  15.919  1.1084  0.4297 -0.0003
  238MPD1    C2 3610   1.998   1.608  15.788  0.5745  0.6282 -0.0244
  238MPD1    C3 3611   1.870   1.596  15.741 -0.1704 -0.0347  0.2441
  238MPD1    C4 3612   1.771   1.585  15.832 -1.0118 -0.1012 -0.8486
  238MPD1    C5 3613   1.800   1.593  15.969  0.0639 -0.5390  0.1861
  238MPD1     H 3614   2.085   1.617  15.725  0.1507  0.6283 -0.6131
  238MPD1    H1 3615   1.665   1.584  15.810 -0.9068 -1.0900 -1.2959
  238MPD1    H2 3616   1.955   1.612  16.118  1.9529 -1.1953 -0.9769
  238MPD1    H3 3617   1.724   1.593  16.046  1.9111 -0.9410  2.0076
  238MPD1     N 3618   1.838   1.588  15.604 -0.0991 -0.8953  0.6800
  238MPD1    H5 3619   1.738   1.580  15.589  0.0715 -1.8288  0.0302
  238MPD1    N1 3620   2.163   1.609  15.958  0.7421 -0.1184 -0.7905
  238MPD1    H6 3621   2.179   1.573  16.052 -0.8637  1.7188  0.1815
  238MPD1    H7 3622   2.220   1.567  15.886 -1.5069 -0.5182 -2.3362
  239MPD1     C 3623   2.723   2.331  15.150 -0.3897 -0.0253  0.4986
  239MPD1    C1 3624   2.748   2.261  15.038  0.7683 -0.2619 -0.6255
  239MPD1    C2 3625   2.703   2.320  14.913 -0.1192 -0.8515 -0.0567
  239MPD1    C3 3626   2.607   2.416  14.915  0.6989  0.3262 -0.1655
  239MPD1    C4 3627   2.568   2.470  15.038 -0.2748  0.6285  0.3447
  239MPD1    C5 3628   2.623   2.425  15.151 -0.6296 -0.4928 -0.2583
  239MPD1     H 3629   2.733   2.284  14.815 -1.9162 -0.7595 -0.6374
  239MPD1    H1 3630   2.499   2.554  15.042 -1.1223 -0.1157  1.1223
  239MPD1    H2 3631   2.775   2.299  15.240 -0.5551  0.1636  0.6616
  239MPD1    H3 3632   2.593   2.471  15.245 -0.1849 -0.8453  0.0610
  239MPD1     N 3633   2.548   2.466  14.797  0.0119 -0.3523  0.4107
  239MPD1    H5 3634   2.480   2.542  14.801 -0.0879 -0.3258 -1.5067
  239MPD1    N1 3635   2.857   2.175  15.028  0.4698  0.4151  0.4278
  239MPD1    H6 3636   2.884   2.111  15.103 -1.1013  2.0030  2.3482
  239MPD1    H7 3637   2.846   2.122  14.942  2.8130  0.9279 -0.2050
  240MPD1     C 3638   1.769   2.429  14.389 -0.9237  0.2823  0.4304
  240MPD1    C1 3639   1.699   2.411  14.508  0.9560  0.4831 -0.3859
  240MPD1    C2 3640   1.674   2.278  14.547 -0.0547  1.2092  0.0487
  240MPD1    C3 3641   1.719   2.167  14.479  0.5625  0.0804 -0.1276
  240MPD1    C4 3642   1.789   2.189  14.362 -0.1493 -0.0870 -0.1227
  240MPD1    C5 3643   1.793   2.319  14.314  0.1409 -0.2141 -0.2533
  240MPD1     H 3644   1.611   2.271  14.635  1.5509  1.0943  1.1932
  240MPD1    H1 3645   1.825   2.106  14.302 -0.2230 -0.1494 -0.0791
  240MPD1    H2 3646   1.794   2.529  14.357 -0.9452 -0.1139 -0.8288
  240MPD1    H3 3647   1.851   2.334  14.224  0.8586 -1.5010 -0.0079
  240MPD1     N 3648   1.694   2.039  14.532  0.1924 -0.3071  0.4096
  240MPD1    H5 3649   1.651   2.040  14.624 -1.7927  2.5071 -0.5514
  240MPD1    N1 3650   1.687   2.513  14.596 -0.5904 -0.2215 -0.6851
  240MPD1    H6 3651   1.712   2.604  14.558  1.1045 -0.6949 -0.7032
  240MPD1    H7 3652   1.600   2.518  14.649 -0.5640 -0.0966 -0.6548
  241MPD1     C 3653   1.658   1.924  15.397 -0.4382 -0.3531 -0.5283
  241MPD1    C1 3654   1.546   1.864  15.333  0.2802 -0.2056 -0.3748
  241MPD1    C2 3655   1.560   1.841  15.198 -0.2980 -0.6790 -0.2406
  241MPD1    C3 3656   1.660   1.895  15.119 -0.6125  0.7727  0.5490
  241MPD1    C4 3657   1.758   1.963  15.179  0.3730  0.1103 -0.5049
  241MPD1    C5 3658   1.754   1.981  15.313  0.4642  0.1657 -0.3051
  241MPD1     H 3659   1.479   1.781  15.158 -2.0830  1.1123  0.6617
  241MPD1    H1 3660   1.839   2.006  15.122  1.3800  0.2603  1.0516
  241MPD1    H2 3661   1.670   1.937  15.504  0.6740 -0.9800 -0.5743
  241MPD1    H3 3662   1.834   2.038  15.359  1.6631 -1.1812 -0.7335
  241MPD1     N 3663   1.675   1.868  14.978 -0.5353  0.6175  0.0085
  241MPD1    H5 3664   1.739   1.918  14.918 -0.2784  0.8111  0.4431
  241MPD1    N1 3665   1.437   1.816  15.408 -0.6485 -0.0978 -0.3234
  241MPD1    H6 3666   1.417   1.882  15.482 -2.6210 -1.0880  0.0337
  241MPD1    H7 3667   1.348   1.808  15.359  0.4806 -1.2224 -2.2084
  242MPD1     C 3668   1.305   4.294  16.455 -0.7326 -0.4929  0.4908
  242MPD1    C1 3669   1.230   4.318  16.342 -0.9934 -0.2375  0.1642
  242MPD1    C2 3670   1.296   4.334  16.223 -0.3014  0.3375 -0.3101
  242MPD1    C3 3671   1.434   4.330  16.214  0.1012  0.0305  0.1474
  242MPD1    C4 3672   1.506   4.308  16.326 -0.6645 -0.2324  0.3881
  242MPD1    C5 3673   1.441   4.299  16.445  0.1052  0.1306  0.2188
  242MPD1     H 3674   1.232   4.330  16.136  0.2359 -0.1909 -0.6741
  242MPD1    H1 3675   1.613   4.322  16.324 -0.9254  1.9063  0.5828
  242MPD1    H2 3676   1.262   4.274  16.552 -3.3445 -2.5661 -1.0707
  242MPD1    H3 3677   1.501   4.283  16.534 -1.6348 -3.1638  0.7669
  242MPD1     N 3678   1.503   4.347  16.098 -0.8477  0.0960  0.2161
  242MPD1    H5 3679   1.601   4.322  16.095 -0.6330  1.0990 -1.1873
  242MPD1    N1 3680   1.090   4.301  16.349  0.3000 -0.2818 -0.0538
  242MPD1    H6 3681   1.052   4.324  16.441  0.9796 -0.9409  0.3995
  242MPD1    H7 3682   1.042   4.358  16.280 -1.7191  0.7169  2.1743
  243MPD1     C 3683   3.736   0.049  16.973  0.1210 -0.8292 -0.1170
  243MPD1    C1 3684   3.842   0.022  17.065  0.2120 -0.1870 -0.1204
  243MPD1    C2 3685   3.855   4.613  17.091  0.3343 -0.0842 -0.0569
  243MPD1    C3 3686   3.781   4.513  17.019 -0.0573  0.1060 -0.1236
  243MPD1    C4 3687   3.680   4.546  16.931  0.0801 -0.4705 -0.5053
  243MPD1    C5 3688   3.663   4.679  16.906 -0.3090  0.3823  0.2881
  243MPD1     H 3689   3.929   4.575  17.160  1.0884 -0.2362 -0.9545
  243MPD1    H1 3690   3.610   4.475  16.887 -1.3597  0.0532  0.9270
  243MPD1    H2 3691   3.714   0.150  16.941  0.4264 -0.5603  0.5171
  243MPD1    H3 3692   3.595   4.706  16.827  0.2363  0.0216 -0.2990
  243MPD1     N 3693   3.810   4.371  17.039  0.0528 -1.1579 -0.6980
  243MPD1    H5 3694   3.882   4.350  17.107  0.0316  0.4326 -0.1743
  243MPD1    N1 3695   3.905   0.122  17.144  0.5033 -0.0292  0.0375
  243MPD1    H6 3696   3.907   0.217  17.107 -0.3159  0.2813  0.7898
  243MPD1    H7 3697   3.996   0.101  17.184 -0.7581 -1.1308  2.3534
  244MPD1     C 3698   4.609   4.234  17.176  1.0034  0.2023  0.0284
  244MPD1    C1 3699   4.565   4.291  17.058  0.4779 -0.2003 -0.1310
  244MPD1    C2 3700   4.442   4.245  17.020  0.2876  0.4269 -0.2281
  244MPD1    C3 3701   4.362   4.162  17.094 -0.8351 -0.1241 -0.3615
  244MPD1    C4 3702   4.404   4.126  17.218 -0.0378  0.2888  0.6936
  244MPD1    C5 3703   4.526   4.160  17.255  0.0051  0.3071 -0.5446
  244MPD1     H 3704   4.426   4.268  16.915  0.3458  1.0580 -0.0956
  244MPD1    H1 3705   4.357   4.054  17.283  0.9160  0.3768  1.4762
  244MPD1    H2 3706   4.705   4.255  17.222  0.8384 -1.0095  0.9040
  244MPD1    H3 3707   4.568   4.119  17.346  2.3811 -4.3251 -3.7105
  244MPD1     N 3708   4.230   4.131  17.054 -0.5892 -0.6093  0.2331
  244MPD1    H5 3709   4.195   4.180  16.973 -1.0479  0.2284  0.9354
  244MPD1    N1 3710   4.662   4.342  16.974  0.1651 -0.8034  0.4615
  244MPD1    H6 3711   4.625   4.405  16.903  2.7713 -0.1200 -0.2926
  244MPD1    H7 3712   0.009   4.397  17.024 -1.9394  0.0582  2.4992
  245MPD1     C 3713   4.330   4.001  13.336  0.0901 -0.4834 -0.2242
  245MPD1    C1 3714   4.353   4.040  13.464 -0.2520 -0.0657  0.2330
  245MPD1    C2 3715   4.480   4.094  13.483  0.6798 -0.2401 -0.4034
  245MPD1    C3 3716   4.569   4.105  13.381 -0.9575 -0.2062  0.8352
  245MPD1    C4 3717   4.539   4.057  13.256 -0.7114 -0.6547 -0.3530
  245MPD1    C5 3718   4.423   4.003  13.238 -0.2586  0.5666  0.3750
  245MPD1     H 3719   4.503   4.146  13.575 -0.8077  0.3846 -0.3925
  245MPD1    H1 3720   4.605   4.058  13.170  0.6760  2.5394  0.7528
  245MPD1    H2 3721   4.230   3.969  13.310 -0.1475  0.4479 -0.4694
  245MPD1    H3 3722   4.411   3.967  13.136  1.5140  1.1539 -0.0376
  245MPD1     N 3723   4.692   4.176  13.404  0.1281 -0.0144 -0.0667
  245MPD1    H5 3724   4.711   4.195  13.502  0.7325  0.3809 -0.2618
  245MPD1    N1 3725   4.254   4.044  13.562  0.9290 -0.5863 -0.3854
  245MPD1    H6 3726   4.198   3.960  13.551 -0.0531  0.1996 -1.2420
  245MPD1    H7 3727   4.289   4.044  13.658 -0.5596 -2.5056  0.1552
  246MPD1     C 3728   1.755   1.632   9.223  0.1499 -0.0829  0.5005
  246MPD1    C1 3729   1.855   1.536   9.202  0.1132  0.1042 -0.4149
  246MPD1    C2 3730   1.834   1.410   9.241  1.0984 -0.0809  0.9390
  246MPD1    C3 3731   1.713   1.379   9.314  0.4315  0.5710 -0.7662
  246MPD1    C4 3732   1.620   1.476   9.336  0.8028 -0.6082 -0.4515
  246MPD1    C5 3733   1.633   1.599   9.281  0.2255  0.1358  0.0631
  246MPD1     H 3734   1.908   1.332   9.232  1.3024  0.1210  0.8685
  246MPD1    H1 3735   1.517   1.452   9.358  0.6519  1.4650  1.0964
  246MPD1    H2 3736   1.761   1.731   9.180 -0.7685  0.3383  1.3365
  246MPD1    H3 3737   1.556   1.669   9.312 -0.2122  1.2419 -3.5586
  246MPD1     N 3738   1.692   1.242   9.343 -0.9994 -0.0945  0.0499
  246MPD1    H5 3739   1.753   1.170   9.307 -0.1812  0.5884  0.0718
  246MPD1    N1 3740   1.958   1.571   9.113 -0.9385  0.7107  0.1135
  246MPD1    H6 3741   2.001   1.659   9.142  1.2438 -0.0098 -0.9253
  246MPD1    H7 3742   2.035   1.505   9.121 -1.6307  0.0568  1.3202
  247MPD1     C 3743   3.788   3.977  16.202  0.4306 -0.3823 -0.2428
  247MPD1    C1 3744   3.778   3.868  16.273  0.1336  0.1546 -1.0927
  247MPD1    C2 3745   3.897   3.795  16.292  0.4038  0.0874  0.4609
  247MPD1    C3 3746   4.018   3.842  16.252  0.0190 -0.4152  0.6399
  247MPD1    C4 3747   4.030   3.958  16.182  0.3362  0.0329  0.4556
  247MPD1    C5 3748   3.912   4.024  16.154  0.4741 -0.7433 -0.3277
  247MPD1     H 3749   3.892   3.702  16.348 -0.7832  0.1551  0.4715
  247MPD1    H1 3750   4.124   3.996  16.146  0.4351 -0.1759  0.4926
  247MPD1    H2 3751   3.703   4.041  16.181  1.5955  1.8908  2.0505
  247MPD1    H3 3752   3.915   4.112  16.090  0.0643 -0.2557  0.3268
  247MPD1     N 3753   4.138   3.770  16.274 -0.1083 -0.1692  0.5752
  247MPD1    H5 3754   4.224   3.809  16.238  0.4633 -1.5194  0.4845
  247MPD1    N1 3755   3.654   3.819  16.315 -0.1545 -0.3833  0.3614
  247MPD1    H6 3756   3.588   3.894  16.333 -1.6535 -2.2098  2.5027
  247MPD1    H7 3757   3.683   3.771  16.400  0.6315 -0.2846  0.1462
  248MPD1     C 3758   1.377   0.466   0.098  0.2737 -1.1224  0.1302
  248MPD1    C1 3759   1.270   0.467   0.188  0.4777  0.0226  0.1520
  248MPD1    C2 3760   1.204   0.353   0.201  0.6729 -0.6718 -0.9329
  248MPD1    C3 3761   1.216   0.243   0.121  0.0003  0.3712 -0.5398
  248MPD1    C4 3762   1.324   0.246   0.034  0.6769  0.1806 -0.3908
  248MPD1    C5 3763   1.406   0.358   0.025  0.2777 -0.2421  0.6407
  248MPD1     H 3764   1.120   0.359   0.268  0.6323 -1.2290 -0.9318
  248MPD1    H1 3765   1.357   0.163  17.668 -0.4452  0.1357 -0.9434
  248MPD1    H2 3766   1.431   0.559   0.084  1.1808 -1.2894  2.4715
  248MPD1    H3 3767   1.489   0.366  17.651  0.7439 -1.9529  1.0005
  248MPD1     N 3768   1.136   0.129   0.142 -0.2277 -0.5207  0.0506
  248MPD1    H5 3769   1.076   0.137   0.223 -1.3357 -0.3462 -0.7849
  248MPD1    N1 3770   1.268   0.568   0.284  0.5007  0.2727  0.1937
  248MPD1    H6 3771   1.174   0.587   0.320  0.5142 -0.2523  0.5005
  248MPD1    H7 3772   1.316   0.651   0.252  0.2912 -0.3766 -1.7594
  249MPD1     C 3773   0.933   2.594   9.664 -0.2352 -0.4669  0.5384
  249MPD1    C1 3774   0.971   2.659   9.550  1.0196 -0.2171  0.2013
  249MPD1    C2 3775   1.100   2.709   9.535  0.6232  0.1807 -0.0780
  249MPD1    C3 3776   1.186   2.696   9.642 -0.0719 -0.4583 -0.6110
  249MPD1    C4 3777   1.145   2.640   9.756  0.3320 -0.8923  0.3353
  249MPD1    C5 3778   1.019   2.585   9.769  0.5775 -0.8714  0.4441
  249MPD1     H 3779   1.128   2.737   9.434 -2.3999  1.2561 -0.6356
  249MPD1    H1 3780   1.206   2.641   9.846  1.0441  0.5759 -0.1578
  249MPD1    H2 3781   0.837   2.545   9.680 -0.1479  0.2184  3.2488
  249MPD1    H3 3782   0.986   2.541   9.862  0.6068  1.7670  1.6902
  249MPD1     N 3783   1.315   2.765   9.628  0.2086  0.0272  0.1993
  249MPD1    H5 3784   1.324   2.819   9.543 -0.0634 -1.7743 -0.9851
  249MPD1    N1 3785   0.884   2.660   9.441  0.3412 -0.4673 -0.3527
  249MPD1    H6 3786   0.797   2.614   9.468 -0.2993 -0.1522 -1.8632
  249MPD1    H7 3787   0.921   2.627   9.352 -2.1523 -2.7839 -0.5396
  250MPD2     C 3788   3.546   2.584  13.813 -0.0290  0.3817 -0.5658
  250MPD2    C1 3789   3.489   2.665  13.719  0.0478 -0.1045  0.0492
  250MPD2    C2 3790   3.372   2.630  13.652  0.3962  0.3311 -1.2363
  250MPD2    C3 3791   3.312   2.506  13.673 -0.4133  0.1339  0.1115
  250MPD2    C4 3792   3.387   2.416  13.748  0.0086 -0.0442  0.0488
  250MPD2    C5 3793   3.493   2.459  13.824 -0.1839 -0.0964 -0.2162
  250MPD2     H 3794   3.325   2.699  13.583 -1.2647  0.7738  0.3269
  250MPD2    H1 3795   3.358   2.314  13.769 -3.9578  0.9985 -0.4003
  250MPD2    H2 3796   3.633   2.604  13.874 -0.1466 -1.1352  0.1174
  250MPD2    H3 3797   3.541   2.384  13.886  1.4797  1.8256  0.8297
  250MPD2     N 3798   3.199   2.459  13.604 -0.4040 -0.3055  0.5293
  250MPD2    H5 3799   3.159   2.370  13.632 -1.4580  0.3682  1.1836
  250MPD2    N1 3800   3.561   2.792  13.704 -0.0495  0.2800  0.0436
  250MPD2    H7 3801   3.638   2.810  13.767  0.8912  1.8239 -1.5565
  251TMC3    C1 3802   3.612   3.008  13.617  0.0557  0.9448  0.3393
  251TMC3    C2 3803   3.538   3.129  13.637  0.5826  0.2374 -0.0163
  251TMC3    C3 3804   3.614   3.224  13.700  0.5841  0.0397  0.5255
  251TMC3    C4 3805   3.727   2.981  13.674  0.2680  0.3546 -0.0861
  251TMC3    C5 3806   3.785   3.071  13.750 -0.3510  0.7990  0.0120
  251TMC3    C6 3807   3.729   3.193  13.771  1.0921  0.0272 -0.4076
  251TMC3     C 3808   3.528   2.888  13.608 -0.4606 -0.1631  0.0508
  251TMC3     O 3809   3.432   2.892  13.531  0.1095  0.0007  0.2082
  251TMC3     H 3810   3.441   3.138  13.589  0.6967  0.8677 -0.1320
  251TMC3    H1 3811   3.780   2.888  13.661 -2.0719 -1.0081  0.1593
  251TMC3    H2 3812   3.774   3.272  13.831 -0.0799  0.4141 -0.0350
  251TMC3    C7 3813   3.876   3.007  13.839  0.0550 -0.5042  0.0043
  251TMC3    C8 3814   3.550   3.346  13.734  0.0293 -0.3010  0.3767
  251TMC3    O1 3815   3.852   2.892  13.865  0.7923  0.3721  0.4912
  251TMC3    O2 3816   3.569   3.383  13.848  0.1955  0.1246  0.5086
  252TMC3    C1 3817   3.099   3.705   9.086 -0.4383 -1.0509 -0.2328
  252TMC3    C2 3818   3.199   3.783   9.138 -0.2194 -0.5025 -0.4082
  252TMC3    C3 3819   3.309   3.723   9.182  0.0793 -0.5731  0.3323
  252TMC3    C4 3820   3.113   3.565   9.086  0.6592  0.1074  0.1233
  252TMC3    C5 3821   3.229   3.510   9.136  0.2094 -0.2709  0.4033
  252TMC3    C6 3822   3.332   3.590   9.181  0.4559 -0.2645 -0.2188
  252TMC3     C 3823   2.973   3.764   9.035 -0.5717  0.1571  0.1120
  252TMC3     O 3824   2.934   3.868   9.089  0.1388 -0.4304  0.6651
  252TMC3     H 3825   3.180   3.889   9.131 -0.6470 -0.4922  0.8498
  252TMC3    H1 3826   3.023   3.511   9.056 -0.5930  0.8197  2.5640
  252TMC3    H2 3827   3.428   3.545   9.206  1.0803  0.2113 -1.8088
  252TMC3    C7 3828   3.226   3.367   9.164  0.6758  0.0288  0.0122
  252TMC3    C8 3829   3.423   3.817   9.201  0.0883 -0.0508  0.0299
  252TMC3    O1 3830   3.329   3.331   9.216 -0.1384 -0.2359  0.1949
  252TMC3    O2 3831   3.404   3.934   9.167  0.2287 -0.1290 -0.6594
  253MPD2     C 3832   0.232   3.095  15.820  0.1855  0.0846 -0.5450
  253MPD2    C1 3833   0.119   3.031  15.858 -0.1931  0.6078 -0.0546
  253MPD2    C2 3834   0.129   2.916  15.934 -0.9498 -0.7108  0.4550
  253MPD2    C3 3835   0.251   2.861  15.978  0.4735  0.4528  0.0493
  253MPD2    C4 3836   0.364   2.933  15.936  0.3988 -0.4165 -0.4685
  253MPD2    C5 3837   0.353   3.047  15.860 -0.0078 -0.6443 -0.4004
  253MPD2     H 3838   0.036   2.867  15.960 -0.7305 -0.5217  1.5977
  253MPD2    H1 3839   0.463   2.896  15.964  1.0003 -0.4581 -2.6418
  253MPD2    H2 3840   0.230   3.191  15.770 -0.5786 -0.3444 -1.3410
  253MPD2    H3 3841   0.440   3.104  15.829  0.2954 -0.6081  0.5219
  253MPD2     N 3842   0.257   2.743  16.059  0.2774 -0.1571 -0.0090
  253MPD2    H5 3843   0.352   2.714  16.079  0.5184  1.4703  1.1386
  253MPD2    N1 3844   4.716   3.085  15.838 -0.5301  0.4135 -0.4615
  253MPD2    H7 3845   4.639   3.031  15.876  0.5884 -1.4518 -0.8384
  254TMC3    C1 3846   0.184   2.539  16.160 -0.4050  0.4690 -0.2513
  254TMC3    C2 3847   0.072   2.466  16.155  0.3381  0.4642 -0.0130
  254TMC3    C3 3848   0.055   2.371  16.252 -0.1425  0.1360  0.6092
  254TMC3    C4 3849   0.269   2.537  16.266 -0.0811  0.0772  0.5690
  254TMC3    C5 3850   0.243   2.455  16.363  0.3225 -0.2865 -0.5830
  254TMC3    C6 3851   0.145   2.362  16.357 -0.2484 -0.3439  0.7815
  254TMC3     C 3852   0.152   2.658  16.093 -0.0579 -0.2458  0.5713
  254TMC3     O 3853   0.032   2.683  16.068 -0.5248  0.4651 -0.6590
  254TMC3     H 3854   0.014   2.464  16.063  1.0518 -0.9269 -0.4393
  254TMC3    H1 3855   0.351   2.607  16.272 -0.2103  0.0041  3.1551
  254TMC3    H2 3856   0.136   2.280  16.427  0.4654 -0.9986  0.1143
  254TMC3    C7 3857   0.307   2.468  16.494 -0.0756  0.6508  0.1780
  254TMC3    C8 3858   4.642   2.366  16.305  0.0825 -0.4544  0.1651
  254TMC3    O1 3859   0.254   2.404  16.589  0.2526 -0.3723  0.2349
  254TMC3    O2 3860   4.631   2.314  16.416 -0.3162 -0.0091  0.1206
  255MPD2     C 3861   2.159   1.027  10.685 -0.1925 -0.0040 -0.8614
  255MPD2    C1 3862   2.213   1.124  10.605  0.4328  0.8848 -0.5940
  255MPD2    C2 3863   2.332   1.098  10.545  1.1908  0.0115 -0.0403
  255MPD2    C3 3864   2.396   0.978  10.568  0.4407 -0.1760  0.2960
  255MPD2    C4 3865   2.340   0.886  10.654  0.1005  0.4780 -0.6900
  255MPD2    C5 3866   2.217   0.905  10.706  0.2634  0.5226 -0.0658
  255MPD2     H 3867   2.378   1.163  10.470 -0.8790  1.5445  0.0369
  255MPD2    H1 3868   2.393   0.796  10.681  0.8407  1.3386  0.7642
  255MPD2    H2 3869   2.060   1.042  10.726  0.2391 -2.9712  1.2005
  255MPD2    H3 3870   2.187   0.836  10.783 -0.6666 -0.1533 -1.0240
  255MPD2     N 3871   2.509   0.950  10.486  0.4637 -0.8057 -0.3418
  255MPD2    H5 3872   2.536   1.014  10.412  0.7756 -0.8116 -0.2342
  255MPD2    N1 3873   2.142   1.244  10.592 -0.1002 -0.4765 -0.2268
  255MPD2    H7 3874   2.041   1.240  10.587 -0.1319  0.6568 -0.4909
  256TMC3    C1 3875   2.113   1.438  10.458 -0.2230 -0.3555  0.1960
  256TMC3    C2 3876   2.175   1.545  10.405  0.0699 -0.2031 -1.2335
  256TMC3    C3 3877   2.197   1.561  10.269 -0.0229  0.1326 -0.0106
  256TMC3    C4 3878   2.041   1.360  10.371  0.1234  0.0266  0.2405
  256TMC3    C5 3879   2.072   1.369  10.237 -0.3489  0.2775 -0.1291
  256TMC3    C6 3880   2.147   1.466  10.183 -0.0449  0.5990  0.3971
  256TMC3     C 3881   2.201   1.358  10.541 -0.1065  0.2791  0.1096
  256TMC3     O 3882   2.317   1.389  10.528 -0.2571 -0.2717  0.2047
  256TMC3     H 3883   2.240   1.594  10.478  0.6322  0.1676 -1.9840
  256TMC3    H1 3884   1.991   1.267  10.397  2.8083 -1.2873  0.7616
  256TMC3    H2 3885   2.170   1.471  10.078 -0.7078  1.7441  0.2994
  256TMC3    C7 3886   2.040   1.258  10.153 -0.3783  0.1085 -0.1958
  256TMC3    C8 3887   2.299   1.650  10.221  0.5117  0.4927 -0.5714
  256TMC3    O1 3888   2.043   1.146  10.202 -0.1803  0.0538  0.1365
  256TMC3    O2 3889   2.322   1.746  10.293 -0.3481 -0.4256  0.5148
  257MPD2     C 3890   2.123   3.515  13.297  0.1265  0.3884  0.3787
  257MPD2    C1 3891   2.075   3.411  13.224  0.4310  0.0501  0.2575
  257MPD2    C2 3892   2.092   3.283  13.271  1.2659 -0.4518 -0.2172
  257MPD2    C3 3893   2.142   3.260  13.395  0.4112 -0.3028  0.8564
  257MPD2    C4 3894   2.176   3.367  13.472 -0.1799  0.0794  0.1614
  257MPD2    C5 3895   2.180   3.495  13.420  0.5721 -0.0806  0.5048
  257MPD2     H 3896   2.060   3.194  13.217 -0.7590  1.2391 -1.8278
  257MPD2    H1 3897   2.226   3.362  13.569 -0.8902  0.6913  0.5647
  257MPD2    H2 3898   2.112   3.618  13.266 -1.9911  0.6527  2.0080
  257MPD2    H3 3899   2.209   3.579  13.482  0.6166  2.1143 -2.4969
  257MPD2     N 3900   2.129   3.132  13.449 -0.2330  0.2408  0.5856
  257MPD2    H5 3901   2.075   3.074  13.386  2.3732  1.1582 -2.4633
  257MPD2    N1 3902   2.014   3.439  13.106 -0.4385 -0.0998  0.4757
  257MPD2    H7 3903   2.023   3.537  13.082 -0.3732 -0.1370  0.3459
  258TMC3    C1 3904   2.109   2.966  13.611  0.4828  0.3015  0.5507
  258TMC3    C2 3905   2.081   2.880  13.515 -0.6764 -0.8769 -0.2484
  258TMC3    C3 3906   2.051   2.749  13.550  0.5299  0.2149 -0.2446
  258TMC3    C4 3907   2.108   2.937  13.743  0.2339 -0.0153  0.4180
  258TMC3    C5 3908   2.062   2.811  13.774  0.8687  0.2514 -0.1559
  258TMC3    C6 3909   2.027   2.722  13.679  0.3834  0.2226  0.1552
  258TMC3     C 3910   2.172   3.085  13.572 -0.0210 -0.6510 -0.6279
  258TMC3     O 3911   2.256   3.138  13.647  0.2458 -0.3600  0.3471
  258TMC3     H 3912   2.119   2.900  13.416  0.6877 -1.8327  0.0897
  258TMC3    H1 3913   2.144   3.008  13.817  0.8546 -0.1379  0.2298
  258TMC3    H2 3914   1.981   2.625  13.695 -1.7712  1.0932 -0.7179
  258TMC3    C7 3915   2.034   2.791  13.916  0.4101  0.4810 -0.2012
  258TMC3    C8 3916   2.027   2.647  13.452  0.1441  0.0402 -0.0806
  258TMC3    O1 3917   1.995   2.885  13.979  0.5063  0.4590 -0.3682
  258TMC3    O2 3918   2.018   2.529  13.488 -0.3150 -0.0870 -0.2868
  259MPD2     C 3919   1.189   4.472   0.617  0.0407  0.3331 -0.2246
  259MPD2    C1 3920   1.304   4.408   0.666  0.2652 -0.6812  0.3627
  259MPD2    C2 3921   1.405   4.386   0.580  0.1673 -0.4353 -0.0062
  259MPD2    C3 3922   1.386   4.418   0.443 -1.1693  0.5524 -0.2150
  259MPD2    C4 3923   1.279   4.494   0.404 -0.2795  0.2492 -0.4338
  259MPD2    C5 3924   1.176   4.515   0.498 -0.4289  0.0477 -0.1974
  259MPD2     H 3925   1.499   4.338   0.604  0.8368  1.0134  0.2881
  259MPD2    H1 3926   1.261   4.529   0.303 -0.3692  2.0173  0.1997
  259MPD2    H2 3927   1.110   4.483   0.690  1.0411  0.6594  0.8066
  259MPD2    H3 3928   1.086   4.565   0.462 -0.3579  0.2313 -0.1206
  259MPD2     N 3929   1.493   4.381   0.358 -0.3574  0.3736  0.5299
  259MPD2    H5 3930   1.579   4.345   0.399  0.0728  0.4309 -0.3123
  259MPD2    N1 3931   1.307   4.366   0.799 -0.3135  0.4728 -0.0095
  259MPD2    H7 3932   1.224   4.379   0.855 -1.7354 -2.0182 -1.5410
  260TMC3    C1 3933   1.616   4.365   0.163 -0.1791 -0.0835  0.4788
  260TMC3    C2 3934   1.619   4.333   0.036  0.5344  0.0619 -0.3972
  260TMC3    C3 3935   1.735   4.299  17.679  0.2858  0.1592 -0.3025
  260TMC3    C4 3936   1.726   4.351   0.241 -0.3169  0.2519  0.3133
  260TMC3    C5 3937   1.844   4.309   0.187  0.0616  0.0017 -0.0716
  260TMC3    C6 3938   1.853   4.299   0.056 -0.4210  0.2400  0.3718
  260TMC3     C 3939   1.486   4.397   0.222  0.4706  0.7024  0.2528
  260TMC3     O 3940   1.388   4.398   0.152  0.0584  0.5382  0.1513
  260TMC3     H 3941   1.531   4.345  17.670  0.7319  0.0232 -0.6868
  260TMC3    H1 3942   1.731   4.391   0.342 -0.3343 -0.5734  0.6414
  260TMC3    H2 3943   1.931   4.251  17.694 -1.7452 -0.8614 -0.5080
  260TMC3    C7 3944   1.885   4.179   0.252  0.2099  0.2452  0.0548
  260TMC3    C8 3945   1.710   4.200  17.581  0.2367 -0.5665  0.1612
  260TMC3    O1 3946   1.911   4.093   0.168  0.0215  0.2576  0.3897
  260TMC3    O2 3947   1.620   4.220  17.497 -0.2036 -0.1785 -0.2059
  261MPD2     C 3948   2.637   2.683  13.046  0.1954  0.1719  0.0286
  261MPD2    C1 3949   2.764   2.682  13.017 -0.2200  0.2563  0.4168
  261MPD2    C2 3950   2.813   2.762  12.913  0.0415  0.9127 -0.1903
  261MPD2    C3 3951   2.730   2.843  12.842 -0.1806 -0.8093 -1.2915
  261MPD2    C4 3952   2.597   2.857  12.882 -1.0353  0.2467  0.0136
  261MPD2    C5 3953   2.553   2.777  12.986 -0.2832 -0.7626 -0.9066
  261MPD2     H 3954   2.914   2.750  12.877 -0.3419  2.0579 -1.6723
  261MPD2    H1 3955   2.519   2.911  12.828 -1.2584 -0.0422  0.0461
  261MPD2    H2 3956   2.598   2.638  13.136  0.3521 -0.2103 -0.0959
  261MPD2    H3 3957   2.446   2.770  13.001 -0.5195  1.7882 -1.4222
  261MPD2     N 3958   2.784   2.907  12.731 -0.4402 -0.6830 -0.1376
  261MPD2    H5 3959   2.872   2.874  12.691 -0.2962  0.2369 -0.5714
  261MPD2    N1 3960   2.845   2.595  13.096 -0.2231  0.1777  0.8116
  261MPD2    H7 3961   2.945   2.613  13.090 -0.4994  1.0849 -0.8950
  262TMC3    C1 3962   2.774   3.010  12.522 -0.7370 -0.3017 -0.2532
  262TMC3    C2 3963   2.718   3.104  12.443  0.7287  0.4032  0.1669
  262TMC3    C3 3964   2.792   3.133  12.330  0.1085 -0.2099 -0.3259
  262TMC3    C4 3965   2.889   2.932  12.485 -0.1083 -0.0530 -0.6076
  262TMC3    C5 3966   2.948   2.962  12.364 -0.1709  0.3518  0.1808
  262TMC3    C6 3967   2.907   3.069  12.283  0.2578  0.1783  0.4857
  262TMC3     C 3968   2.717   2.999  12.655 -0.0288  0.0575 -1.1795
  262TMC3     O 3969   2.630   3.078  12.687  0.5452 -0.0790 -0.3511
  262TMC3     H 3970   2.627   3.151  12.479  1.2546  1.2361  0.4312
  262TMC3    H1 3971   2.935   2.856  12.547 -2.7459 -0.5054  0.8009
  262TMC3    H2 3972   2.952   3.079  12.184 -3.2258 -1.5686 -1.2982
  262TMC3    C7 3973   2.987   2.847  12.288 -0.1644  0.5457 -0.0890
  262TMC3    C8 3974   2.748   3.235  12.239 -0.0496 -0.6300  0.1666
  262TMC3    O1 3975   2.930   2.747  12.325  0.5143  0.1119 -0.3611
  262TMC3    O2 3976   2.840   3.286  12.171 -0.0692  0.0950  0.1959
  263MPD2     C 3977   3.418   1.630  11.264  0.2863 -0.6850  0.0105
  263MPD2    C1 3978   3.515   1.707  11.323 -0.4819 -0.0636  0.5118
  263MPD2    C2 3979   3.507   1.843  11.296 -0.0295  0.6941  0.4068
  263MPD2    C3 3980   3.418   1.893  11.197  0.1665 -0.4884 -0.7486
  263MPD2    C4 3981   3.324   1.803  11.146  0.1672  0.3688  0.0870
  263MPD2    C5 3982   3.324   1.677  11.179  0.2133  0.0933 -0.3655
  263MPD2     H 3983   3.577   1.910  11.345  0.5174 -0.6520  1.4518
  263MPD2    H1 3984   3.251   1.835  11.073 -2.1080  0.1786  2.2829
  263MPD2    H2 3985   3.417   1.522  11.277 -1.4283 -0.6416  0.2444
  263MPD2    H3 3986   3.245   1.612  11.145  0.9233 -0.7323 -0.4541
  263MPD2     N 3987   3.427   2.028  11.151  0.2128 -0.7495 -0.3987
  263MPD2    H5 3988   3.501   2.087  11.188  1.0524 -2.3424  0.4451
  263MPD2    N1 3989   3.614   1.645  11.402  0.5112 -0.5185 -0.4703
  263MPD2    H7 3990   3.601   1.545  11.419  0.0454 -0.5297 -0.8756
  264TMC3    C1 3991   3.420   2.207  10.998 -0.2409  0.8168 -0.1261
  264TMC3    C2 3992   3.490   2.295  11.080 -0.7270 -0.1542  0.2078
  264TMC3    C3 3993   3.563   2.394  11.016 -0.3799  0.4955 -0.5957
  264TMC3    C4 3994   3.423   2.221  10.855  0.3688  0.2844 -0.9281
  264TMC3    C5 3995   3.500   2.317  10.794 -0.4960  0.4099 -0.2410
  264TMC3    C6 3996   3.571   2.402  10.876 -0.1673  0.5763 -0.4422
  264TMC3     C 3997   3.358   2.084  11.044  0.4372  0.0475  0.1169
  264TMC3     O 3998   3.269   2.034  10.977  0.1582  0.2464 -0.4242
  264TMC3     H 3999   3.497   2.280  11.188 -2.2071 -1.2205  0.1661
  264TMC3    H1 4000   3.359   2.158  10.795  0.6972 -0.1121 -0.8627
  264TMC3    H2 4001   3.639   2.470  10.828  1.9171 -0.8689  0.4679
  264TMC3    C7 4002   3.541   2.307  10.652 -0.5290  0.2757  0.4322
  264TMC3    C8 4003   3.680   2.458  11.079 -0.0814 -0.6700 -0.5445
  264TMC3    O1 4004   3.527   2.197  10.601 -0.3478  0.2521  0.4191
  264TMC3    O2 4005   3.774   2.480  11.004  0.1539 -0.6316  0.4452
  265MPD2     C 4006   0.991   2.452  15.736  0.2777  0.0895 -0.0972
  265MPD2    C1 4007   1.030   2.578  15.680 -0.4042  0.5832 -0.1578
  265MPD2    C2 4008   1.108   2.595  15.570 -0.0814 -0.3606  0.3230
  265MPD2    C3 4009   1.144   2.478  15.501 -0.1961  0.3062 -0.2414
  265MPD2    C4 4010   1.101   2.354  15.549  0.1596 -0.0004 -0.3266
  265MPD2    C5 4011   1.032   2.337  15.665  0.8261  0.7794  0.0149
  265MPD2     H 4012   1.138   2.695  15.539 -0.3791 -0.6537 -0.9155
  265MPD2    H1 4013   1.125   2.267  15.489  0.6274  0.1282 -0.3271
  265MPD2    H2 4014   0.933   2.437  15.826 -2.0795  0.9637 -1.5029
  265MPD2    H3 4015   1.020   2.235  15.701  0.8012  0.6026 -0.4972
  265MPD2     N 4016   1.217   2.492  15.377 -0.4977 -0.1916  0.4616
  265MPD2    H5 4017   1.234   2.409  15.322  3.2452  0.7112  0.2366
  265MPD2    N1 4018   1.006   2.695  15.755  0.1286  0.7380 -0.1049
  265MPD2    H7 4019   1.029   2.782  15.709  0.1689 -0.4390 -2.3287
  266TMC3    C1 4020   0.946   2.837  15.935  0.2387  0.3605  0.1533
  266TMC3    C2 4021   0.918   2.855  16.063  0.6079 -0.1711  0.9542
  266TMC3    C3 4022   0.913   2.978  16.117  0.6466 -0.5467 -1.1131
  266TMC3    C4 4023   0.965   2.943  15.859 -0.4401 -0.5612  0.1210
  266TMC3    C5 4024   0.960   3.068  15.911  0.0762 -0.1180  0.3854
  266TMC3    C6 4025   0.940   3.088  16.038  0.2844  0.2523 -0.7301
  266TMC3     C 4026   0.947   2.701  15.881  0.4314 -0.8008  0.2721
  266TMC3     O 4027   0.883   2.613  15.931 -0.0336 -0.4422 -0.5002
  266TMC3     H 4028   0.898   2.767  16.123  1.6186  0.2249  1.8931
  266TMC3    H1 4029   0.980   2.929  15.753 -0.0029 -0.0114  0.1096
  266TMC3    H2 4030   0.903   3.184  16.074  0.1083  1.0159 -2.9324
  266TMC3    C7 4031   0.997   3.174  15.820  0.2120  0.3262  0.0311
  266TMC3    C8 4032   0.877   2.989  16.259  0.3646 -0.7572 -0.2199
  266TMC3    O1 4033   1.044   3.137  15.717  0.4449 -0.0078  0.2912
  266TMC3    O2 4034   0.808   2.903  16.314  0.1322  0.3153  0.3289
  267MPD2     C 4035   4.301   3.725   0.151  0.1987  0.3653 -0.5272
  267MPD2    C1 4036   4.279   3.838   0.070  0.1902  0.6725 -0.5055
  267MPD2    C2 4037   4.154   3.865   0.016  0.2897  0.0029  0.8386
  267MPD2    C3 4038   4.051   3.782   0.057 -0.0420 -0.4646  0.1207
  267MPD2    C4 4039   4.071   3.676   0.143  0.1973  0.2532  0.2673
  267MPD2    C5 4040   4.196   3.640   0.185  0.1455 -0.4714 -0.5213
  267MPD2     H 4041   4.142   3.952  17.648 -0.9130  0.2121  1.3648
  267MPD2    H1 4042   3.988   3.611   0.168  3.7086 -3.4526  2.2222
  267MPD2    H2 4043   4.400   3.701   0.189 -0.3049 -1.7556 -0.5260
  267MPD2    H3 4044   4.217   3.559   0.254  0.4795 -0.3562 -0.4864
  267MPD2     N 4045   3.915   3.807   0.015  0.2041  0.0879  0.2160
  267MPD2    H5 4046   3.844   3.758   0.069  0.0008  0.2597  0.1031
  267MPD2    N1 4047   4.380   3.931   0.064  0.3192 -0.3003  0.4788
  267MPD2    H7 4048   4.462   3.923   0.124  0.8398  1.0846 -0.0314
  268TMC3    C1 4049   4.447   4.152   0.031  0.6743 -0.4877  0.1324
  268TMC3    C2 4050   4.473   4.257  17.639  0.2850  0.2430  0.2573
  268TMC3    C3 4051   4.525   4.368  17.694 -0.1491  0.0350  0.1785
  268TMC3    C4 4052   4.447   4.157   0.169  0.5207 -0.0177 -0.6351
  268TMC3    C5 4053   4.496   4.275   0.219 -0.3029 -0.9223  0.9383
  268TMC3    C6 4054   4.546   4.378   0.134  0.4441  0.0038  0.6575
  268TMC3     C 4055   4.383   4.036  17.673  0.1868  0.5911 -0.2168
  268TMC3     O 4056   4.330   4.052  17.559 -0.3874  0.5817  0.0003
  268TMC3     H 4057   4.451   4.251  17.533 -2.1481  0.5687  0.7291
  268TMC3    H1 4058   4.419   4.081   0.241 -1.2271  1.0350 -0.1921
  268TMC3    H2 4059   4.597   4.464   0.176  1.5969 -1.5970  2.5704
  268TMC3    C7 4060   4.519   4.281   0.363  0.0050 -1.1042 -0.5269
  268TMC3    C8 4061   4.585   4.472  17.605  0.5268 -0.0967 -0.5248
  268TMC3    O1 4062   4.530   4.171   0.418  0.1540  0.3945 -0.0970
  268TMC3    O2 4063   4.644   4.561  17.661 -0.4110 -0.3778 -0.6414
  269MPD2     C 4064   4.102   3.209  16.008  0.5379  1.1984 -0.0521
  269MPD2    C1 4065   3.963   3.226  15.996  0.4393 -0.1842 -0.4660
  269MPD2    C2 4066   3.913   3.352  15.980  0.1418 -0.1029  0.9081
  269MPD2    C3 4067   3.997   3.462  15.972  0.1373 -0.4558  0.6183
  269MPD2    C4 4068   4.132   3.441  15.979 -0.8579 -0.0883 -0.5513
  269MPD2    C5 4069   4.184   3.316  16.005  0.4860  0.0077  0.8402
  269MPD2     H 4070   3.807   3.371  15.971  0.2545 -1.5403 -3.4762
  269MPD2    H1 4071   4.205   3.520  15.976  0.8019 -1.5668  1.1290
  269MPD2    H2 4072   4.155   3.121  16.044 -1.0084 -0.0005 -0.7051
  269MPD2    H3 4073   4.291   3.306  16.015  0.4424  0.6414  2.0722
  269MPD2     N 4074   3.935   3.588  15.940 -0.7780 -1.2029 -0.1305
  269MPD2    H5 4075   3.834   3.592  15.937 -0.7021  1.6714  0.4830
  269MPD2    N1 4076   3.881   3.115  16.012  0.1687 -0.0054 -0.0684
  269MPD2    H7 4077   3.932   3.029  16.031  2.4361  1.5947  1.0556
  270TMC3    C1 4078   3.694   2.964  16.037 -0.8502  0.3301 -0.5599
  270TMC3    C2 4079   3.567   2.941  15.997  0.5493  0.6861 -0.8279
  270TMC3    C3 4080   3.532   2.811  15.987  0.0729 -0.2891 -0.8396
  270TMC3    C4 4081   3.784   2.863  16.063  0.2178  0.7760  0.0577
  270TMC3    C5 4082   3.740   2.736  16.057 -0.4531  0.6163 -0.3653
  270TMC3    C6 4083   3.612   2.704  16.016 -0.2289 -0.2093  0.0972
  270TMC3     C 4084   3.740   3.105  16.017 -0.1136  0.5750  0.7887
  270TMC3     O 4085   3.651   3.187  15.989  0.0690 -0.3727 -0.2561
  270TMC3     H 4086   3.494   3.019  15.980 -0.4598  0.0176  0.4738
  270TMC3    H1 4087   3.884   2.878  16.099  0.1894  0.3196  0.3252
  270TMC3    H2 4088   3.584   2.599  16.006 -0.4239 -0.1013 -0.5247
  270TMC3    C7 4089   3.836   2.627  16.071 -0.4334 -0.7381 -0.1567
  270TMC3    C8 4090   3.400   2.779  15.931  0.2148 -0.3842  0.0075
  270TMC3    O1 4091   3.943   2.655  16.023  0.2790  0.2113  0.3611
  270TMC3    O2 4092   3.312   2.862  15.934  0.1493  0.9159 -0.6799
  271MPD2     C 4093   2.740   2.950  14.124  0.0257  0.9260  0.4507
  271MPD2    C1 4094   2.661   2.931  14.239  0.0633 -0.2751  0.2634
  271MPD2    C2 4095   2.544   3.005  14.255 -0.1502 -0.2814  0.4140
  271MPD2    C3 4096   2.512   3.101  14.159 -0.3526 -0.9500 -0.8183
  271MPD2    C4 4097   2.592   3.118  14.047  0.0796  0.4507  0.7950
  271MPD2    C5 4098   2.710   3.047  14.034  0.8844 -0.4122  0.2672
  271MPD2     H 4099   2.472   2.992  14.336 -0.9853 -0.4203 -0.3521
  271MPD2    H1 4100   2.569   3.188  13.968 -1.0399  1.8458  2.3915
  271MPD2    H2 4101   2.823   2.885  14.099 -2.3705 -1.5186 -1.1262
  271MPD2    H3 4102   2.780   3.072  13.955 -0.1423  0.5523 -0.3430
  271MPD2     N 4103   2.390   3.168  14.157 -0.1513  0.1171  0.4603
  271MPD2    H5 4104   2.368   3.194  14.062  0.8822  0.4206  0.3086
  271MPD2    N1 4105   2.689   2.836  14.339  0.4579  0.3978  0.0406
  271MPD2    H7 4106   2.645   2.852  14.429 -0.2468 -2.0485  0.1234
  272TMC3    C1 4107   2.838   2.669  14.437 -0.1984  0.3512  0.5552
  272TMC3    C2 4108   2.875   2.540  14.419 -0.5605 -0.4740  0.3360
  272TMC3    C3 4109   2.898   2.473  14.535  0.9678  0.0811 -0.4393
  272TMC3    C4 4110   2.828   2.733  14.560  0.1232 -0.3163 -0.3072
  272TMC3    C5 4111   2.842   2.662  14.678 -0.5012  0.3328 -0.2475
  272TMC3    C6 4112   2.879   2.533  14.666  0.5979 -0.3275 -0.2470
  272TMC3     C 4113   2.777   2.731  14.320  1.1136 -0.3338 -0.2967
  272TMC3     O 4114   2.809   2.679  14.216 -0.1841 -0.0008  0.0131
  272TMC3     H 4115   2.907   2.499  14.324  1.2421 -0.0239  0.7497
  272TMC3    H1 4116   2.803   2.838  14.569 -0.3281 -0.4195 -0.3571
  272TMC3    H2 4117   2.866   2.465  14.749 -1.1880 -0.3954 -0.5878
  272TMC3    C7 4118   2.774   2.711  14.790 -0.1843 -0.0571  0.6414
  272TMC3    C8 4119   2.899   2.328  14.520 -0.0483  0.0477  0.2317
  272TMC3    O1 4120   2.681   2.786  14.768 -0.7027  0.2633 -0.1495
  272TMC3    O2 4121   2.844   2.278  14.424 -0.4681 -0.5931  0.1947
  273MPD2     C 4122   3.470   1.031  11.487 -0.2888 -0.3175 -0.2906
  273MPD2    C1 4123   3.608   1.008  11.488  0.1801  0.3409  0.3860
  273MPD2    C2 4124   3.668   0.964  11.371 -0.4789 -0.8498  0.1044
  273MPD2    C3 4125   3.595   0.934  11.256  0.3620  0.1610  0.2597
  273MPD2    C4 4126   3.460   0.962  11.263  0.9453 -0.2879  0.0104
  273MPD2    C5 4127   3.402   1.014  11.373  0.0546 -0.9278 -1.0895
  273MPD2     H 4128   3.775   0.953  11.385 -0.6291 -1.0927  1.0083
  273MPD2    H1 4129   3.404   0.963  11.170  0.2781  1.1767  0.4176
  273MPD2    H2 4130   3.415   1.055  11.577 -1.6147  0.7682 -1.3901
  273MPD2    H3 4131   3.294   1.021  11.370  0.1392  0.4387 -1.1900
  273MPD2     N 4132   3.653   0.891  11.129 -0.2430  0.2277 -0.0476
  273MPD2    H5 4133   3.593   0.877  11.049  0.5729 -3.2175 -0.0277
  273MPD2    N1 4134   3.693   1.018  11.595  0.0827 -0.4568  0.2331
  273MPD2    H7 4135   3.791   1.002  11.574 -0.1047 -0.1555 -0.8958
  274TMC3    C1 4136   3.826   0.795  10.989  0.2086  0.8524  0.7243
  274TMC3    C2 4137   3.773   0.859  10.887  0.1208 -0.4894 -0.5402
  274TMC3    C3 4138   3.865   0.912  10.795  0.5953  0.0636 -0.7187
  274TMC3    C4 4139   3.965   0.778  10.999 -0.7076 -0.7293 -0.4825
  274TMC3    C5 4140   4.049   0.838  10.908 -0.2823  0.3628 -0.0354
  274TMC3    C6 4141   4.001   0.912  10.804 -0.3421 -0.0703  0.4456
  274TMC3     C 4142   3.780   0.834  11.124 -0.3818 -0.1920 -0.2373
  274TMC3     O 4143   3.866   0.841  11.211 -0.0049  0.1253  0.3856
  274TMC3     H 4144   3.669   0.883  10.869 -0.0203  0.6213  1.8596
  274TMC3    H1 4145   3.997   0.714  11.081 -0.4012  1.5626  1.1811
  274TMC3    H2 4146   4.075   0.955  10.737 -0.2887 -0.0047  0.5463
  274TMC3    C7 4147   4.166   0.896  10.980  0.4617 -0.5239 -0.1643
  274TMC3    C8 4148   3.799   0.980  10.685  0.8754 -0.5077 -0.4042
  274TMC3    O1 4149   4.262   0.913  10.917  0.5812  0.1688 -0.4931
  274TMC3    O2 4150   3.689   0.937  10.650  0.7291  0.0451  0.3781
  275MPD2     C 4151   4.076   3.738  14.772  0.5950  0.1365  1.0523
  275MPD2    C1 4152   3.992   3.787  14.878 -0.0990  0.1644 -0.3852
  275MPD2    C2 4153   3.867   3.737  14.891  0.9238  0.1079 -0.3459
  275MPD2    C3 4154   3.825   3.644  14.805 -0.3793  0.3403  0.2036
  275MPD2    C4 4155   3.895   3.617  14.692  0.3322 -0.1051  0.3060
  275MPD2    C5 4156   4.022   3.661  14.679  0.1097  0.3009 -0.9116
  275MPD2     H 4157   3.796   3.771  14.966 -0.3580 -0.4500 -1.3159
  275MPD2    H1 4158   3.855   3.554  14.613  0.4906  1.3454 -0.9389
  275MPD2    H2 4159   4.180   3.767  14.763  0.4041  0.4446 -0.1519
  275MPD2    H3 4160   4.075   3.630  14.590 -2.1145 -0.0903 -2.1200
  275MPD2     N 4161   3.697   3.577  14.801 -0.1210  0.3186  0.0347
  275MPD2    H5 4162   3.667   3.521  14.722 -0.8677 -0.5603  0.9511
  275MPD2    N1 4163   4.035   3.887  14.978 -0.4589 -0.4575  0.2750
  275MPD2    H7 4164   3.970   3.893  15.056 -1.9970 -0.3217 -1.0332
  276TMC3    C1 4165   4.177   4.043  15.095  0.0699 -0.7718 -0.0566
  276TMC3    C2 4166   4.078   4.071  15.189 -0.0812 -0.2484  0.6850
  276TMC3    C3 4167   4.121   4.091  15.317 -0.0585 -1.1111  0.0105
  276TMC3    C4 4168   4.312   4.055  15.117  0.4058 -0.6099  0.4277
  276TMC3    C5 4169   4.345   4.070  15.248  0.4722 -0.0493 -0.4370
  276TMC3    C6 4170   4.250   4.099  15.349  0.0373  0.2109 -0.0345
  276TMC3     C 4171   4.148   3.967  14.973 -0.1268  0.2441  0.5680
  276TMC3     O 4172   4.223   3.976  14.875 -0.5631 -0.0576 -0.2671
  276TMC3     H 4173   3.972   4.056  15.171  0.3088  0.0165 -1.8161
  276TMC3    H1 4174   4.393   4.039  15.045  1.1322 -0.0660  1.1323
  276TMC3    H2 4175   4.283   4.109  15.452 -1.3923 -2.2133  0.6663
  276TMC3    C7 4176   4.476   4.065  15.284  0.4699  0.0959 -0.4545
  276TMC3    C8 4177   4.031   4.017  15.405  0.1747  0.5048  0.2536
  276TMC3    O1 4178   4.503   4.140  15.381  0.2160  0.1178 -0.1786
  276TMC3    O2 4179   3.915   4.050  15.402 -0.3612 -0.5060 -0.2254
  277MPD2     C 4180   1.080   3.058  13.295  0.1932 -0.0996  0.2920
  277MPD2    C1 4181   0.962   3.050  13.239 -0.1343 -0.9850  0.0103
  277MPD2    C2 4182   0.898   2.929  13.257 -0.1577  0.3352  0.0102
  277MPD2    C3 4183   0.953   2.825  13.331 -0.4217 -0.6343  0.3099
  277MPD2    C4 4184   1.081   2.839  13.383 -0.1499  0.3295 -0.5457
  277MPD2    C5 4185   1.143   2.954  13.364  0.0280 -0.2352  0.2991
  277MPD2     H 4186   0.796   2.917  13.222  0.6650  0.1534 -2.2803
  277MPD2    H1 4187   1.125   2.770  13.454 -0.4735 -1.0122 -1.6448
  277MPD2    H2 4188   1.151   3.138  13.275 -0.1915 -0.3086 -1.9144
  277MPD2    H3 4189   1.246   2.967  13.396  0.2769 -0.3032 -0.4722
  277MPD2     N 4190   0.868   2.713  13.349 -0.2836  0.0654  0.3049
  277MPD2    H5 4191   0.772   2.725  13.318 -1.1786  0.0996  3.1407
  277MPD2    N1 4192   0.915   3.158  13.166  0.1751 -0.3376 -0.0965
  277MPD2    H7 4193   0.970   3.243  13.165  1.1447 -0.9736 -0.7526
  278TMC3    C1 4194   0.815   2.484  13.386 -0.7141  0.2196 -0.2347
  278TMC3    C2 4195   0.858   2.354  13.377 -0.6655 -0.0725  0.5030
  278TMC3    C3 4196   0.767   2.258  13.347  0.0358  0.8401  0.0324
  278TMC3    C4 4197   0.684   2.512  13.371 -0.1407 -0.7540  0.1684
  278TMC3    C5 4198   0.589   2.414  13.367  0.4728 -0.0846  0.0266
  278TMC3    C6 4199   0.630   2.286  13.351  0.2030 -0.0777 -0.1259
  278TMC3     C 4200   0.910   2.593  13.404  0.7940  0.1186  0.1369
  278TMC3     O 4201   1.017   2.568  13.454  0.4025  0.2820 -0.0892
  278TMC3     H 4202   0.961   2.323  13.384 -0.5349  0.6031  1.6787
  278TMC3    H1 4203   0.650   2.613  13.393 -0.6680 -0.7971 -0.4370
  278TMC3    H2 4204   0.559   2.205  13.364  1.3415 -0.4061  3.8539
  278TMC3    C7 4205   0.451   2.458  13.338  0.2430  0.3941 -0.2501
  278TMC3    C8 4206   0.812   2.136  13.416 -0.1549  0.3710  0.1934
  278TMC3    O1 4207   0.442   2.574  13.293 -0.0316  0.6036 -0.0352
  278TMC3    O2 4208   0.869   2.155  13.523  0.3042  0.0030 -0.0486
  279MPD2     C 4209   0.491   2.150   0.843 -0.0987 -0.3135 -0.2480
  279MPD2    C1 4210   0.455   2.275   0.894 -0.4536  0.9188 -0.4038
  279MPD2    C2 4211   0.504   2.395   0.845  0.0933  0.2590 -0.3316
  279MPD2    C3 4212   0.595   2.384   0.738 -0.3619  0.5316 -0.9235
  279MPD2    C4 4213   0.632   2.260   0.693  0.0933  0.1979  0.6013
  279MPD2    C5 4214   0.582   2.140   0.742 -0.3273  0.2274 -0.5469
  279MPD2     H 4215   0.482   2.488   0.895  1.5323  0.2058  0.4118
  279MPD2    H1 4216   0.690   2.249   0.603 -0.4632  1.1919  0.1165
  279MPD2    H2 4217   0.448   2.054   0.872 -0.9435  0.0854 -0.1796
  279MPD2    H3 4218   0.611   2.043   0.702  0.6861  0.0477  0.6371
  279MPD2     N 4219   0.655   2.493   0.669 -0.4108  0.3954  0.3467
  279MPD2    H5 4220   0.703   2.470   0.583  1.3528  2.1290  0.8685
  279MPD2    N1 4221   0.338   2.267   0.970  0.9608 -0.2596  0.2915
  279MPD2    H7 4222   0.292   2.176   0.976 -0.5038  0.5138  0.6322
  280TMC3    C1 4223   0.124   2.363   0.990  0.2873 -0.2899  0.3564
  280TMC3    C2 4224   0.074   2.260   0.914 -0.2619  0.1609 -0.3807
  280TMC3    C3 4225   4.685   2.288   0.842 -0.1814 -0.3529 -0.3805
  280TMC3    C4 4226   0.059   2.484   0.991 -0.0948 -0.2861 -0.1244
  280TMC3    C5 4227   4.673   2.505   0.915 -0.1145  0.2520  0.3830
  280TMC3    C6 4228   4.621   2.410   0.834  0.6445  0.1842 -0.0547
  280TMC3     C 4229   0.265   2.376   1.003 -0.6246  0.0817  0.2566
  280TMC3     O 4230   0.301   2.487   1.045 -0.5616 -0.2158  0.0136
  280TMC3     H 4231   0.108   2.157   0.920  0.6892  0.4192 -1.5001
  280TMC3    H1 4232   0.080   2.569   1.055 -0.2184 -1.2011  1.1136
  280TMC3    H2 4233   4.525   2.417   0.785  1.4879 -0.7529 -1.8371
  280TMC3    C7 4234   4.631   2.640   0.903  0.0009  0.5406 -0.0707
  280TMC3    C8 4235   4.616   2.175   0.789  0.1351  0.1477  0.3712
  280TMC3    O1 4236   4.658   2.723   0.991 -0.0808 -0.7474 -0.2268
  280TMC3    O2 4237   4.495   2.176   0.786 -0.5678  0.1059 -0.6495
  281TMC3    C1 4238   3.662   3.157  14.214 -0.3117  0.2001  0.0028
  281TMC3    C2 4239   3.714   3.063  14.295 -0.6262 -0.1962 -0.0091
  281TMC3    C3 4240   3.702   2.928  14.275 -0.0335 -0.1218  0.5518
  281TMC3    C4 4241   3.578   3.112  14.113  0.1899 -1.0573  0.4217
  281TMC3    C5 4242   3.548   2.974  14.105 -0.0203 -0.4488  0.2872
  281TMC3    C6 4243   3.619   2.877  14.175 -0.3549  0.1171  0.1263
  281TMC3     C 4244   3.671   3.296  14.242  0.1216  0.2567 -0.0413
  281TMC3     O 4245   3.623   3.322  14.349  0.1003  0.1465 -0.0489
  281TMC3     H 4246   3.780   3.094  14.375 -2.0217  1.2935  0.5574
  281TMC3    H1 4247   3.518   3.186  14.062  0.5101 -1.4757 -0.5606
  281TMC3    H2 4248   3.617   2.771  14.155  1.9217  0.1205 -0.1212
  281TMC3    C7 4249   3.434   2.929  14.026  0.4064  0.1499  0.2328
  281TMC3    C8 4250   3.808   2.841  14.330 -0.1591  0.1866  0.6724
  281TMC3    O1 4251   3.400   3.000  13.931  0.0709 -0.1853 -0.3722
  281TMC3    O2 4252   3.775   2.727  14.367 -0.2773 -0.4108 -0.1652
  282MPD2     C 4253   1.249   4.291  15.244 -0.1335 -0.6056 -0.2046
  282MPD2    C1 4254   1.149   4.384  15.257 -0.3765 -0.1216  0.3356
  282MPD2    C2 4255   1.068   4.420  15.154  0.2350 -0.3676 -0.1017
  282MPD2    C3 4256   1.089   4.351  15.033  0.4869 -0.2417 -0.2605
  282MPD2    C4 4257   1.178   4.243  15.024  0.5558 -1.2062 -0.8184
  282MPD2    C5 4258   1.266   4.230  15.125  0.0944 -0.3391  0.2316
  282MPD2     H 4259   0.981   4.481  15.173 -1.0722 -2.0933 -0.5331
  282MPD2    H1 4260   1.189   4.195  14.928 -2.0751 -3.6510  0.1130
  282MPD2    H2 4261   1.319   4.259  15.320 -0.1429 -1.1012 -0.4052
  282MPD2    H3 4262   1.359   4.175  15.113 -0.4132 -1.2060  0.2287
  282MPD2     N 4263   1.002   4.387  14.925  0.4451 -0.4764 -0.4388
  282MPD2    H5 4264   0.950   4.469  14.953  0.7498 -0.2491 -0.5509
  282MPD2    N1 4265   1.124   4.454  15.382 -0.2405  0.1089 -0.6541
  282MPD2    H7 4266   1.044   4.516  15.380 -0.0520  0.4457  1.9110
  283TMC3    C1 4267   1.127   4.487  15.617 -0.3525 -0.1732  0.6505
  283TMC3    C2 4268   1.087   4.619  15.611 -0.3960  0.6336  0.3328
  283TMC3    C3 4269   1.021   4.672  15.715  0.0395  0.0061  0.2331
  283TMC3    C4 4270   1.088   4.402  15.716  0.3904 -0.6285  0.1743
  283TMC3    C5 4271   1.022   4.457  15.816  0.4834  0.1262  0.1309
  283TMC3    C6 4272   0.989   4.592  15.819  0.0529  0.2369  0.0717
  283TMC3     C 4273   1.192   4.429  15.502 -0.1971  0.2732 -0.0150
  283TMC3     O 4274   1.289   4.361  15.522  0.3684 -0.0300 -0.0746
  283TMC3     H 4275   1.103   4.681  15.524 -0.0255  0.2810  0.1499
  283TMC3    H1 4276   1.134   4.305  15.730  1.0940 -0.2158  0.7146
  283TMC3    H2 4277   0.936   4.634  15.903 -1.1581  2.4093 -1.7994
  283TMC3    C7 4278   0.957   4.370  15.907 -0.2661  0.5592  0.2148
  283TMC3    C8 4279   1.020   0.089  15.748 -0.2689  0.2615  0.0508
  283TMC3    O1 4280   0.905   4.423  16.006 -0.1374  0.0465  0.0866
  283TMC3    O2 4281   1.049   0.124  15.861  0.2562 -0.3060  0.7907
  284MPD2     C 4282   0.126   3.882  11.686 -0.5316  0.3370  0.3139
  284MPD2    C1 4283   0.023   3.791  11.704 -0.3663 -0.4751 -0.3932
  284MPD2    C2 4284   0.045   3.659  11.738 -0.1595 -0.7043  0.0954
  284MPD2    C3 4285   0.175   3.608  11.748  0.6175  0.0791  0.7568
  284MPD2    C4 4286   0.280   3.702  11.736 -0.7057  0.1175  1.1934
  284MPD2    C5 4287   0.253   3.833  11.707  0.8119 -0.4921 -0.3603
  284MPD2     H 4288   4.685   3.591  11.751 -1.4161  0.6588 -0.7384
  284MPD2    H1 4289   0.387   3.685  11.727 -1.0030 -1.9488  1.5641
  284MPD2    H2 4290   0.116   3.987  11.663 -0.7147  0.1814 -0.2964
  284MPD2    H3 4291   0.338   3.900  11.693  0.2386  0.5881  1.3468
  284MPD2     N 4292   0.216   3.472  11.748  0.4860  0.1266  0.2570
  284MPD2    H5 4293   0.315   3.449  11.753  0.1107 -1.3165  1.1756
  284MPD2    N1 4294   4.618   3.822  11.655  0.2186  0.4958  0.7805
  284MPD2    H7 4295   4.549   3.748  11.645  0.2369  0.6886 -0.8475
  285TMC3    C1 4296   4.452   3.958  11.535 -0.2856 -0.0380  0.1524
  285TMC3    C2 4297   4.412   3.850  11.465 -0.6643  0.0676 -0.7093
  285TMC3    C3 4298   4.336   3.856  11.350 -0.3674 -0.5130 -0.0389
  285TMC3    C4 4299   4.405   4.081  11.494 -0.6551 -0.1770 -0.1922
  285TMC3    C5 4300   4.324   4.082  11.385 -0.2660 -0.1948 -0.2595
  285TMC3    C6 4301   4.297   3.975  11.311  0.4630 -0.3925  0.8239
  285TMC3     C 4302   4.566   3.946  11.634  0.3804 -0.2710 -0.3717
  285TMC3     O 4303   4.610   4.059  11.662 -0.4395  0.1720  0.4379
  285TMC3     H 4304   4.451   3.753  11.497  2.9364  1.2204 -1.5703
  285TMC3    H1 4305   4.433   4.169  11.549  0.8226 -0.3591 -0.6682
  285TMC3    H2 4306   4.246   3.969  11.215 -0.2567  1.2240  1.1029
  285TMC3    C7 4307   4.338   4.208  11.312 -0.2137  0.1475 -0.0402
  285TMC3    C8 4308   4.335   3.754  11.251 -0.3696 -0.5165 -0.5735
  285TMC3    O1 4309   4.421   4.283  11.357 -0.4910  0.1482  0.0665
  285TMC3    O2 4310   4.238   3.744  11.173  0.1627  0.1661 -0.7628
  286MPD2     C 4311   4.042   1.494   1.927 -0.0768  0.1039  0.3573
  286MPD2    C1 4312   4.075   1.619   1.869 -0.3022 -0.3656  0.3505
  286MPD2    C2 4313   4.203   1.628   1.810 -0.2045 -0.2472  0.2573
  286MPD2    C3 4314   4.287   1.515   1.803  0.2659 -0.2319  0.7551
  286MPD2    C4 4315   4.266   1.400   1.882  0.5199 -0.4008  0.1415
  286MPD2    C5 4316   4.138   1.395   1.944 -1.0647 -0.6440  0.2896
  286MPD2     H 4317   4.231   1.722   1.762 -0.6577 -0.0620  0.3573
  286MPD2    H1 4318   4.332   1.314   1.886  0.3889 -0.5083 -0.0303
  286MPD2    H2 4319   3.946   1.478   1.975 -1.8625  3.4087 -2.1358
  286MPD2    H3 4320   4.104   1.299   1.979 -3.3300  0.5346  1.3090
  286MPD2     N 4321   4.398   1.511   1.714 -0.0240  0.1742  0.2014
  286MPD2    H5 4322   4.464   1.434   1.714 -0.1285  0.0850 -0.4291
  286MPD2    N1 4323   3.990   1.732   1.859 -0.3713  0.2393  0.6121
  286MPD2    H7 4324   4.023   1.822   1.825 -1.0351  0.7183  1.2099
  287TMC3    C1 4325   4.530   1.556   1.537  0.7087 -0.5968 -0.0103
  287TMC3    C2 4326   4.509   1.565   1.404 -0.0178  0.7079 -0.0973
  287TMC3    C3 4327   4.578   1.475   1.318 -0.1710 -0.6670  0.5927
  287TMC3    C4 4328   4.612   1.462   1.596  0.3543  0.1646 -0.7171
  287TMC3    C5 4329   4.687   1.385   1.510 -0.3298 -0.3582 -0.6795
  287TMC3    C6 4330   4.671   1.392   1.374  0.0915  0.8911  0.3375
  287TMC3     C 4331   4.422   1.604   1.619 -0.0906 -0.1170 -0.4073
  287TMC3     O 4332   4.362   1.702   1.581 -0.2658  0.0279 -0.1609
  287TMC3     H 4333   4.421   1.617   1.368 -0.6220 -1.0795 -1.2517
  287TMC3    H1 4334   4.626   1.467   1.704 -0.4272  0.6160 -0.6432
  287TMC3    H2 4335   4.717   1.314   1.315  1.7552  2.7815 -0.8508
  287TMC3    C7 4336   0.092   1.335   1.557 -0.1898  0.1630 -0.5491
  287TMC3    C8 4337   4.518   1.441   1.192  0.1125 -0.2051 -1.1778
  287TMC3    O1 4338   0.101   1.336   1.682  0.7533 -0.3389  0.2818
  287TMC3    O2 4339   4.530   1.327   1.148 -0.1425  0.0963  0.2944
  288TMC3    C1 4340   0.997   2.171  14.770  0.6805 -0.0680 -0.4363
  288TMC3    C2 4341   0.964   2.082  14.874  0.0026 -0.3821 -0.4648
  288TMC3    C3 4342   0.960   2.122  15.004 -0.4371 -0.4113 -0.2427
  288TMC3    C4 4343   1.021   2.302  14.800  0.0547 -0.7284 -0.1758
  288TMC3    C5 4344   1.008   2.334  14.933 -0.4378  0.2012 -0.4133
  288TMC3    C6 4345   0.986   2.253  15.039 -0.0199 -0.1153 -0.3221
  288TMC3     C 4346   1.020   2.113  14.639  0.3389  0.2951  0.5111
  288TMC3     O 4347   0.954   2.013  14.605  0.5602 -0.4595 -0.9430
  288TMC3     H 4348   0.965   1.978  14.844  0.2090 -0.5050 -0.0215
  288TMC3    H1 4349   1.035   2.373  14.719  0.1836  0.9988  1.3488
  288TMC3    H2 4350   0.997   2.287  15.142 -2.4529  0.6564 -0.3258
  288TMC3    C7 4351   1.051   2.468  14.966  0.8064 -0.1062  0.4130
  288TMC3    C8 4352   0.926   2.019  15.107  0.6173 -0.2201  0.6499
  288TMC3    O1 4353   1.106   2.484  15.077 -0.0984  0.5501  0.0980
  288TMC3    O2 4354   0.949   2.052  15.221 -0.5593  0.0994  0.0349
  289MPD2     C 4355   1.472   1.152  14.634  0.1610 -0.0433 -0.2395
  289MPD2    C1 4356   1.428   1.280  14.598 -0.3159  0.3321  0.2560
  289MPD2    C2 4357   1.303   1.298  14.538 -0.3501  0.5391 -0.5085
  289MPD2    C3 4358   1.210   1.193  14.537 -0.3252  0.3108  0.1922
  289MPD2    C4 4359   1.265   1.074  14.577  0.0972  0.6650  0.0653
  289MPD2    C5 4360   1.390   1.050  14.626  0.9043  0.0074 -0.1450
  289MPD2     H 4361   1.275   1.398  14.506 -0.4453  0.8941  0.6657
  289MPD2    H1 4362   1.198   0.989  14.588  1.9836 -0.7242  0.9600
  289MPD2    H2 4363   1.567   1.144  14.686  1.0091  1.5907 -1.5071
  289MPD2    H3 4364   1.416   0.949  14.655  1.0389  0.0360 -0.1689
  289MPD2     N 4365   1.078   1.201  14.507  0.7628  0.2293  0.0618
  289MPD2    H5 4366   1.034   1.109  14.506  0.1520  0.5297 -0.4331
  289MPD2    N1 4367   1.521   1.378  14.617  0.6225 -0.2785 -0.6394
  289MPD2    H7 4368   1.599   1.367  14.681  0.8755 -0.2971 -0.9499
  290TMC3    C1 4369   0.888   1.292  14.418  0.7066  0.4880 -0.1381
  290TMC3    C2 4370   0.845   1.393  14.341  0.3376 -0.4300 -0.6847
  290TMC3    C3 4371   0.792   1.358  14.219  0.1429 -0.5159  0.0608
  290TMC3    C4 4372   0.859   1.161  14.394  0.2218 -0.3578 -0.8448
  290TMC3    C5 4373   0.812   1.134  14.267 -0.1271  0.0685  0.1697
  290TMC3    C6 4374   0.782   1.228  14.174 -1.2210  0.0000 -0.3555
  290TMC3     C 4375   1.016   1.315  14.484  0.2497  0.1344 -0.3710
  290TMC3     O 4376   1.060   1.426  14.457 -0.5021  0.1676 -0.2646
  290TMC3     H 4377   0.863   1.497  14.367 -1.3613  0.0970 -1.6437
  290TMC3    H1 4378   0.865   1.083  14.469  1.4289  0.7825  0.2533
  290TMC3    H2 4379   0.755   1.195  14.075 -1.8215 -0.6808  0.0357
  290TMC3    C7 4380   0.826   0.994  14.234 -0.3502 -0.0890 -0.2609
  290TMC3    C8 4381   0.829   1.452  14.112  0.4317 -0.2567  0.3608
  290TMC3    O1 4382   0.824   0.906  14.319 -0.2806 -0.5931 -0.1344
  290TMC3    O2 4383   0.862   1.410  14.007  0.5131 -0.0449 -0.5587
  291MPD2     C 4384   0.570   1.283   1.056 -0.2317  0.3484  0.9279
  291MPD2    C1 4385   0.630   1.204   0.954  0.0906 -0.1667  0.0463
  291MPD2    C2 4386   0.676   1.280   0.851  0.0440  0.4025 -0.4698
  291MPD2    C3 4387   0.659   1.419   0.839  0.1657  0.4709 -0.4167
  291MPD2    C4 4388   0.605   1.492   0.947  0.3896  0.3936  0.5925
  291MPD2    C5 4389   0.553   1.418   1.052  0.3151 -0.8370 -0.4233
  291MPD2     H 4390   0.696   1.222   0.761  1.1074  0.8372 -0.5089
  291MPD2    H1 4391   0.584   1.598   0.935  1.7280  0.5972  0.0182
  291MPD2    H2 4392   0.517   1.230   1.135 -0.0567 -0.6600  0.3705
  291MPD2    H3 4393   0.500   1.478   1.125 -0.3691 -2.7384  0.6452
  291MPD2     N 4394   0.719   1.494   0.737 -0.1662  0.3317  0.1447
  291MPD2    H5 4395   0.698   1.593   0.741 -1.3380  0.0650  0.6070
  291MPD2    N1 4396   0.629   1.065   0.947  1.1838 -0.7398  0.0608
  291MPD2    H7 4397   0.650   1.027   0.855  1.2655 -5.2606  1.9543
  292TMC3    C1 4398   0.615   0.838   1.029 -0.4880 -0.1160  0.1446
  292TMC3    C2 4399   0.677   0.763   1.123 -0.2314 -0.1168  0.9275
  292TMC3    C3 4400   0.658   0.627   1.119  0.5675  0.7467  0.9962
  292TMC3    C4 4401   0.530   0.787   0.937 -0.2558  0.3838 -0.1446
  292TMC3    C5 4402   0.506   0.650   0.940 -0.6151 -0.6145  0.3284
  292TMC3    C6 4403   0.567   0.574   1.033  0.2798  0.7861 -0.2195
  292TMC3     C 4404   0.617   0.982   1.054 -0.1548 -0.7080 -0.0434
  292TMC3     O 4405   0.628   1.018   1.171 -0.5545  0.1860 -0.0615
  292TMC3     H 4406   0.734   0.819   1.196 -1.1535  2.0637 -0.0086
  292TMC3    H1 4407   0.484   0.839   0.854 -2.3709  1.1319  1.4843
  292TMC3    H2 4408   0.540   0.469   1.037  1.7961  0.4117  0.3352
  292TMC3    C7 4409   0.422   0.585   0.843  0.3688  0.1408  0.0487
  292TMC3    C8 4410   0.733   0.544   1.206  0.4208  0.3491 -0.2394
  292TMC3    O1 4411   0.432   0.619   0.725  0.3642  0.0864 -0.6590
  292TMC3    O2 4412   0.759   0.431   1.171  0.1295  0.1488  0.1554
  293MPD2     C 4413   2.320   3.359  12.811  0.1989 -0.4224 -0.4850
  293MPD2    C1 4414   2.327   3.226  12.831  0.6601  0.6650  0.0520
  293MPD2    C2 4415   2.377   3.185  12.959 -0.6200  0.7173  0.8469
  293MPD2    C3 4416   2.410   3.280  13.057  0.6498 -0.4703  0.0965
  293MPD2    C4 4417   2.403   3.412  13.020 -0.2670  0.4833  0.7420
  293MPD2    C5 4418   2.363   3.452  12.902  0.5427 -0.8408 -0.1254
  293MPD2     H 4419   2.390   3.078  12.970 -1.4759  0.5311 -0.0185
  293MPD2    H1 4420   2.428   3.495  13.086 -1.1557  1.0499  0.3590
  293MPD2    H2 4421   2.283   3.396  12.716 -1.1588  1.9170  0.9572
  293MPD2    H3 4422   2.348   3.556  12.874  2.7199 -0.3809  0.4152
  293MPD2     N 4423   2.464   3.242  13.184  0.3982 -0.2690  0.0971
  293MPD2    H5 4424   2.457   3.143  13.207 -0.8960  0.5181  3.0337
  293MPD2    N1 4425   2.298   3.133  12.724 -0.1159  0.9948 -0.3237
  293MPD2    H7 4426   2.288   3.170  12.630  1.0474  0.6908 -0.5678
  294TMC3    C1 4427   2.271   2.924  12.611 -0.5009 -0.2326  0.2722
  294TMC3    C2 4428   2.178   2.826  12.611  0.1910 -0.1560 -0.4755
  294TMC3    C3 4429   2.133   2.777  12.494  0.2055 -0.0775 -0.2329
  294TMC3    C4 4430   2.329   2.968  12.497 -0.4304 -0.0288  0.8930
  294TMC3    C5 4431   2.287   2.912  12.384 -0.2406 -0.7479 -0.0668
  294TMC3    C6 4432   2.181   2.826  12.377  0.4677  0.0555 -0.5441
  294TMC3     C 4433   2.280   2.997  12.741 -0.8806 -0.1003  0.0691
  294TMC3     O 4434   2.255   2.932  12.846  0.1229  0.6912  0.1640
  294TMC3     H 4435   2.160   2.773  12.704 -0.4367 -0.7095 -0.9108
  294TMC3    H1 4436   2.415   3.033  12.502  0.7239 -1.3282 -1.8497
  294TMC3    H2 4437   2.150   2.784  12.282  1.7691 -0.9549 -0.5185
  294TMC3    C7 4438   2.374   2.939  12.276 -0.3503  0.3147  0.5571
  294TMC3    C8 4439   2.049   2.651  12.500  0.0656  0.2958 -0.0650
  294TMC3    O1 4440   2.451   3.033  12.289 -0.0169 -0.2823  0.3262
  294TMC3    O2 4441   1.967   2.636  12.592  0.0270  0.5061  0.2135
  295MPD2     C 4442   1.968   0.974   1.162  0.1900 -0.3094 -0.3146
  295MPD2    C1 4443   2.092   0.947   1.110 -0.0366 -0.1184 -0.0356
  295MPD2    C2 4444   2.170   0.858   1.183  0.1198 -0.6455  0.0120
  295MPD2    C3 4445   2.128   0.805   1.301 -0.4080  0.5265 -0.1343
  295MPD2    C4 4446   1.995   0.821   1.340  0.1527 -0.7962 -0.3859
  295MPD2    C5 4447   1.919   0.909   1.272 -0.1457 -0.3478  0.8425
  295MPD2     H 4448   2.272   0.838   1.150 -0.5386 -0.3501 -2.2351
  295MPD2    H1 4449   1.956   0.782   1.433  0.2553  1.3102  0.5424
  295MPD2    H2 4450   1.900   1.045   1.117 -1.2199 -1.2179  0.3879
  295MPD2    H3 4451   1.817   0.917   1.306  0.0696  0.5739  1.2704
  295MPD2     N 4452   2.198   0.720   1.386  0.4740  0.1465 -0.0934
  295MPD2    H5 4453   2.145   0.685   1.465  2.1898 -1.2950  0.4239
  295MPD2    N1 4454   2.154   1.002   0.997  0.6479 -0.3798  0.0718
  295MPD2    H7 4455   2.248   0.976   0.972  0.5550 -0.2423 -0.4189
  296TMC3    C1 4456   2.398   0.605   1.473 -0.5571  0.0739  0.6894
  296TMC3    C2 4457   2.349   0.582   1.601 -0.6427  0.1142 -0.6094
  296TMC3    C3 4458   2.433   0.522   1.687 -0.6462 -0.8685  0.5139
  296TMC3    C4 4459   2.524   0.565   1.437 -0.0210 -0.2326 -0.6141
  296TMC3    C5 4460   2.603   0.511   1.530 -0.1399  0.3449  0.1052
  296TMC3    C6 4461   2.564   0.487   1.655 -0.0331 -0.5964 -0.2066
  296TMC3     C 4462   2.332   0.687   1.370 -0.0189  0.2119  0.3216
  296TMC3     O 4463   2.406   0.734   1.284  0.0525 -0.0848 -0.2844
  296TMC3     H 4464   2.251   0.619   1.630 -1.3820  0.3264 -3.3827
  296TMC3    H1 4465   2.545   0.572   1.330 -0.0979 -1.3811 -0.7070
  296TMC3    H2 4466   2.628   0.437   1.728 -0.0948 -0.4141 -0.0283
  296TMC3    C7 4467   2.733   0.481   1.479  0.5204  0.3681 -0.0529
  296TMC3    C8 4468   2.378   0.473   1.811  0.4958  0.1380  0.2188
  296TMC3    O1 4469   2.764   0.562   1.394  0.0775 -0.2694  0.3184
  296TMC3    O2 4470   2.258   0.449   1.800  0.0429  0.0029  0.0033
  297MPD2     C 4471   0.312   3.061  16.828 -0.5082  0.1004 -0.4484
  297MPD2    C1 4472   0.309   3.085  16.694  0.1523  0.2920 -0.0612
  297MPD2    C2 4473   0.353   3.205  16.642  0.4542 -0.4192  0.0640
  297MPD2    C3 4474   0.400   3.304  16.729  0.5554  0.1960  0.3892
  297MPD2    C4 4475   0.395   3.283  16.861  0.4130  0.2519 -0.1770
  297MPD2    C5 4476   0.359   3.160  16.911 -0.3170  0.1157 -0.8223
  297MPD2     H 4477   0.351   3.211  16.534  0.4751  1.7429  0.1978
  297MPD2    H1 4478   0.400   3.365  16.931  0.1265  1.3781 -1.4721
  297MPD2    H2 4479   0.288   2.963  16.868 -0.6926  0.3514  0.0677
  297MPD2    H3 4480   0.359   3.159  17.019  1.0308  0.7788 -0.8217
  297MPD2     N 4481   0.445   3.416  16.658  0.2083 -0.0557 -0.8914
  297MPD2    H5 4482   0.437   3.417  16.557 -1.9004 -2.8878 -0.7356
  297MPD2    N1 4483   0.279   2.988  16.592  0.3973 -0.3111 -0.0793
  297MPD2    H7 4484   0.279   3.034  16.501 -0.9995  0.9934  0.5785
  298TMC3    C1 4485   0.156   2.816  16.501  0.4711 -0.0592  0.5782
  298TMC3    C2 4486   0.207   2.888  16.398 -0.0591 -0.2405  0.3175
  298TMC3    C3 4487   0.118   2.946  16.319 -0.2974  0.5620 -0.4292
  298TMC3    C4 4488   0.019   2.799  16.522 -0.5069 -0.5821 -0.2462
  298TMC3    C5 4489   4.656   2.852  16.437 -0.3123 -0.2071  0.3719
  298TMC3    C6 4490   4.703   2.922  16.331  0.2497  0.4670  0.0778
  298TMC3     C 4491   0.231   2.855  16.615  0.2318 -0.1570  0.1271
  298TMC3     O 4492   0.201   2.800  16.722 -0.4260  0.5173  0.1034
  298TMC3     H 4493   0.312   2.886  16.371  0.0247 -0.3262  0.6565
  298TMC3    H1 4494   4.709   2.757  16.617  1.2715 -0.9691  0.2171
  298TMC3    H2 4495   4.633   2.963  16.259  0.3803  0.6987  0.0845
  298TMC3    C7 4496   4.530   2.896  16.501 -0.1885 -0.4703  0.1344
  298TMC3    C8 4497   0.166   3.074  16.260 -0.7316 -0.2279  0.1833
  298TMC3    O1 4498   4.525   2.896  16.624  0.2404 -0.2397  0.2613
  298TMC3    O2 4499   0.283   3.101  16.276 -0.3098  0.2801 -0.2929
  299MPD2     C 4500   0.433   2.561  10.424 -0.3637 -0.6457 -0.1203
  299MPD2    C1 4501   0.446   2.677  10.355  0.0050 -0.7058  1.2173
  299MPD2    C2 4502   0.349   2.709  10.258  0.0403 -0.8721  0.0831
  299MPD2    C3 4503   0.233   2.639  10.248  0.4431 -0.0802 -0.0939
  299MPD2    C4 4504   0.214   2.531  10.331  0.2516 -0.9100  0.4456
  299MPD2    C5 4505   0.317   2.490  10.406  0.0506  0.0620 -0.3700
  299MPD2     H 4506   0.376   2.783  10.184  1.6062 -0.1492  1.3730
  299MPD2    H1 4507   0.122   2.476  10.317 -0.7016  0.5129  1.2382
  299MPD2    H2 4508   0.511   2.516  10.485 -0.7671 -1.6323 -0.3365
  299MPD2    H3 4509   0.309   2.386  10.435 -1.1845  0.4121  0.5363
  299MPD2     N 4510   0.129   2.663  10.151 -0.0391 -0.6803 -0.3969
  299MPD2    H5 4511   0.036   2.623  10.162  0.1773 -1.6081 -1.9724
  299MPD2    N1 4512   0.573   2.741  10.362 -0.1348 -0.2483 -0.8982
  299MPD2    H7 4513   0.633   2.711  10.438  1.6023  4.2076 -0.4749
  300TMC3    C1 4514   0.009   2.774   9.981  0.5637 -0.0606  0.9941
  300TMC3    C2 4515   0.022   2.828   9.859 -0.2602 -0.1159 -0.2298
  300TMC3    C3 4516   4.658   2.925   9.812  0.1023  0.2729 -0.8636
  300TMC3    C4 4517   4.616   2.798  10.046 -1.0367 -0.0121 -0.5116
  300TMC3    C5 4518   4.524   2.888   9.995  0.1980 -0.0594  0.1836
  300TMC3    C6 4519   4.547   2.953   9.879  0.2312  0.1652  0.3495
  300TMC3     C 4520   0.138   2.755  10.046 -0.2123 -0.3728  0.3145
  300TMC3     O 4521   0.240   2.796   9.993 -0.5366  0.2307  0.1778
  300TMC3     H 4522   0.118   2.812   9.810  0.5592  2.2028  0.5951
  300TMC3    H1 4523   4.596   2.736  10.133 -1.8147  0.9847  0.0185
  300TMC3    H2 4524   4.470   3.013   9.832 -0.8298  0.6999  2.7599
  300TMC3    C7 4525   4.389   2.886  10.045 -0.1212  0.0926 -0.8135
  300TMC3    C8 4526   4.720   3.028   9.734  0.1022 -0.3306  0.4918
  300TMC3    O1 4527   4.298   2.925   9.966  0.3943 -0.1278  0.2608
  300TMC3    O2 4528   0.100   2.995   9.670 -0.0333 -0.0103  0.3172
  301MPD2     C 4529   3.052   4.604   1.306  0.1128  0.7797  0.2866
  301MPD2    C1 4530   2.959   4.504   1.321  1.2789 -0.2334 -0.2012
  301MPD2    C2 4531   2.991   4.374   1.295  0.2331  0.1451  0.5886
  301MPD2    C3 4532   3.118   4.348   1.248 -0.7642 -0.0110  0.4351
  301MPD2    C4 4533   3.212   4.446   1.231 -0.6096 -0.3101 -0.2532
  301MPD2    C5 4534   3.171   4.575   1.250 -0.4291 -0.4885  0.0718
  301MPD2     H 4535   2.917   4.299   1.316  2.6459 -1.8559  1.9741
  301MPD2    H1 4536   3.313   4.420   1.203 -0.5509 -0.1147 -0.2209
  301MPD2    H2 4537   3.025   4.705   1.335  1.3430  1.0417  0.5035
  301MPD2    H3 4538   3.248   4.649   1.234  0.9987 -2.3442 -1.6454
  301MPD2     N 4539   3.154   4.214   1.217 -0.2477 -0.3844  0.6998
  301MPD2    H5 4540   3.254   4.196   1.209 -0.6183 -2.7892  1.6493
  301MPD2    N1 4541   2.833   4.523   1.383  0.3944  0.1290  0.2000
  301MPD2    H7 4542   2.782   4.435   1.388  0.9306 -0.2407 -0.8653
  302TMC3    C1 4543   3.114   3.996   1.149  1.3404 -0.1698  0.1387
  302TMC3    C2 4544   3.232   3.948   1.201 -0.1019  0.1677  0.1091
  302TMC3    C3 4545   3.292   3.844   1.142  0.0774 -0.4527 -0.6237
  302TMC3    C4 4546   3.042   3.930   1.052  0.6240 -0.0176 -0.7838
  302TMC3    C5 4547   3.102   3.816   1.001 -0.3870 -0.1097 -0.1803
  302TMC3    C6 4548   3.228   3.771   1.040 -0.1177 -0.4930  0.1771
  302TMC3     C 4549   3.058   4.122   1.188  0.7151  0.0713 -0.0245
  302TMC3     O 4550   2.936   4.132   1.160  0.2426  0.2778  0.6537
  302TMC3     H 4551   3.284   4.000   1.280 -0.6177  0.8530 -0.0066
  302TMC3    H1 4552   2.949   3.964   1.007  0.2199 -1.3774 -0.9856
  302TMC3    H2 4553   3.271   3.690   0.983  0.9648  0.3248 -0.1775
  302TMC3    C7 4554   3.043   3.751   0.881  0.1309  0.1850  0.1573
  302TMC3    C8 4555   3.396   3.770   1.215 -0.3904  0.6331  0.3614
  302TMC3    O1 4556   3.114   3.676   0.814 -0.0390  0.2174  0.2220
  302TMC3    O2 4557   3.442   3.675   1.159  0.8330  0.4087  0.8922
  303MPD2     C 4558   2.350   2.746   9.668 -0.3390  0.5109 -0.4162
  303MPD2    C1 4559   2.305   2.662   9.766 -0.7211 -0.2009  0.6518
  303MPD2    C2 4560   2.358   2.538   9.778 -0.6806 -0.4488 -0.0629
  303MPD2    C3 4561   2.440   2.492   9.674 -0.0707 -0.0864 -0.6523
  303MPD2    C4 4562   2.488   2.574   9.576 -0.0992  0.2738  0.2825
  303MPD2    C5 4563   2.442   2.711   9.575 -0.3319  0.2078  0.1297
  303MPD2     H 4564   2.324   2.468   9.854 -1.3064 -0.9215 -0.7784
  303MPD2    H1 4565   2.562   2.550   9.500  0.9795  0.4561  1.2726
  303MPD2    H2 4566   2.314   2.848   9.658  1.6788  1.4563  1.9007
  303MPD2    H3 4567   2.490   2.781   9.508  0.0041 -0.0470  0.1069
  303MPD2     N 4568   2.490   2.359   9.673 -0.1350 -0.7827 -0.5561
  303MPD2    H5 4569   2.575   2.340   9.620  0.9987  1.6019  0.4133
  303MPD2    N1 4570   2.202   2.712   9.854  0.3016 -0.4109 -0.8049
  303MPD2    H7 4571   2.165   2.806   9.839 -0.6124 -0.5457  0.5726
  304TMC3    C1 4572   2.037   2.697  10.011 -0.4948  0.4357 -0.4506
  304TMC3    C2 4573   1.941   2.721   9.916  0.7079  0.0990  0.2725
  304TMC3    C3 4574   1.811   2.694   9.950  0.1872 -0.3616 -0.0671
  304TMC3    C4 4575   2.006   2.662  10.139 -0.1789 -0.3498  0.2762
  304TMC3    C5 4576   1.879   2.642  10.179  0.6576 -0.2253  0.6407
  304TMC3    C6 4577   1.772   2.666  10.082  0.2603  0.3645  0.0387
  304TMC3     C 4578   2.166   2.656   9.973  0.8424  0.5609  0.3494
  304TMC3     O 4579   2.212   2.557  10.032  0.4060 -0.2745  0.2032
  304TMC3     H 4580   1.956   2.751   9.813 -3.4803  1.1854 -0.0206
  304TMC3    H1 4581   2.085   2.623  10.202 -0.0847  1.6742  1.3916
  304TMC3    H2 4582   1.670   2.650  10.113  0.1266  0.2754 -0.4440
  304TMC3    C7 4583   1.858   2.527  10.264 -0.8189  0.3437 -0.0320
  304TMC3    C8 4584   1.739   2.597   9.865 -0.2546 -0.0298 -0.0473
  304TMC3    O1 4585   1.917   2.515  10.367 -0.2459 -0.7686 -0.2891
  304TMC3    O2 4586   1.683   2.516   9.936  0.5900 -0.1086 -0.6357
  305MPD2     C 4587   1.253   0.195  14.347 -0.4154  0.4605 -0.2945
  305MPD2    C1 4588   1.230   0.058  14.340  0.2862  0.3315  0.3192
  305MPD2    C2 4589   1.209   4.718  14.218 -0.0757 -0.2173 -0.2796
  305MPD2    C3 4590   1.244   0.065  14.102 -0.2472  0.0833 -0.4272
  305MPD2    C4 4591   1.275   0.198  14.108  0.9221  0.0877 -0.5478
  305MPD2    C5 4592   1.277   0.265  14.230 -0.1220  0.0912  0.5155
  305MPD2     H 4593   1.193   4.611  14.213  3.3583 -0.7282 -0.9263
  305MPD2    H1 4594   1.307   0.248  14.017  2.8710 -0.2111 -0.0204
  305MPD2    H2 4595   1.279   0.247  14.439 -0.3378 -0.0369 -0.0347
  305MPD2    H3 4596   1.320   0.364  14.242  0.8093 -0.1847 -0.4772
  305MPD2     N 4597   1.235   0.010  13.969  0.4341  0.1759 -0.6398
  305MPD2    H5 4598   1.249   0.080  13.898  1.2348  0.2955 -0.3621
  305MPD2    N1 4599   1.224   4.717  14.470 -0.3516  0.3274  0.0433
  305MPD2    H7 4600   1.242   0.053  14.551  0.8632 -1.6223  1.1843
  306TMC3    C1 4601   1.257   4.542  14.623 -0.3807 -0.0563 -0.3517
  306TMC3    C2 4602   1.332   4.428  14.623  0.7302  0.3396  0.0820
  306TMC3    C3 4603   1.382   4.387  14.746 -0.2281  0.4780 -0.5960
  306TMC3    C4 4604   1.239   4.629  14.729 -0.3182 -0.2805 -0.2856
  306TMC3    C5 4605   1.306   4.597  14.837  0.3588  0.3265  0.7433
  306TMC3    C6 4606   1.381   4.479  14.847 -0.3660  0.2334  0.3755
  306TMC3     C 4607   1.207   4.583  14.490  0.5124 -0.6504  0.1007
  306TMC3     O 4608   1.172   4.498  14.410 -0.2954 -0.4794 -0.2442
  306TMC3     H 4609   1.351   4.376  14.530 -1.2790 -0.0381 -0.1175
  306TMC3    H1 4610   1.187   0.000  14.723  1.5565  0.9195  2.5407
  306TMC3    H2 4611   1.411   4.436  14.942 -0.5781  0.1587  0.4089
  306TMC3    C7 4612   1.277   4.666  14.962  0.0312  0.3351  0.4429
  306TMC3    C8 4613   1.503   4.310  14.749  0.2108  0.3740  0.1308
  306TMC3    O1 4614   1.164   4.710  14.968  1.4705  0.4598 -0.2934
  306TMC3    O2 4615   1.603   4.357  14.802 -0.4415  0.4369  0.2903
  307MPD2     C 4616   3.733   1.828   0.691  0.3950  0.0181 -0.0116
  307MPD2    C1 4617   3.716   1.944   0.619 -0.5881  0.0869 -0.1914
  307MPD2    C2 4618   3.675   2.060   0.671 -0.0393 -0.3132  0.3611
  307MPD2    C3 4619   3.624   2.056   0.801  1.1066  0.7061  0.4580
  307MPD2    C4 4620   3.647   1.939   0.874  0.5391  0.3570  0.8742
  307MPD2    C5 4621   3.702   1.825   0.823  0.5430 -0.2894 -0.0954
  307MPD2     H 4622   3.672   2.148   0.609  3.2058  1.6247  2.9778
  307MPD2    H1 4623   3.622   1.929   0.979  1.7705 -1.1181  1.0220
  307MPD2    H2 4624   3.780   1.742   0.644  0.8363 -0.2575  0.9230
  307MPD2    H3 4625   3.723   1.732   0.874 -0.7852 -0.6910 -0.2796
  307MPD2     N 4626   3.561   2.168   0.868 -0.0445  0.9197 -0.5133
  307MPD2    H5 4627   3.575   2.259   0.824  0.3885 -0.2015 -2.7296
  307MPD2    N1 4628   3.738   1.952   0.479  0.5446  0.8022  0.7854
  307MPD2    H7 4629   3.731   2.047   0.445 -0.8366  0.0377 -1.0440
  308TMC3    C1 4630   3.190   2.360   1.065  0.8368 -0.1531  0.0406
  308TMC3    C2 4631   3.223   2.478   1.010 -0.2584  0.4634  0.6553
  308TMC3    C3 4632   3.345   2.491   0.960 -0.3182  0.9706  0.3124
  308TMC3    C4 4633   3.283   2.264   1.063 -0.1167 -0.3229  0.6025
  308TMC3    C5 4634   3.400   2.274   1.001 -0.5444  0.2316 -0.1627
  308TMC3    C6 4635   3.436   2.393   0.948  0.4542 -0.8981  0.1609
  308TMC3     C 4636   3.057   2.337   1.120 -0.2169  0.0867 -0.3943
  308TMC3     O 4637   3.040   2.239   1.188  0.5053  0.0250  0.1607
  308TMC3     H 4638   3.155   2.556   1.045 -0.3745 -0.3992  2.3321
  308TMC3    H1 4639   3.260   2.179   1.126 -0.1177  0.7780  2.1017
  308TMC3    H2 4640   3.539   2.409   0.919  1.5205 -2.8419  2.8748
  308TMC3    C7 4641   3.477   2.158   0.975 -0.1090 -0.2945 -0.3465
  308TMC3    C8 4642   3.389   2.625   0.955 -0.1980 -0.3019 -0.0493
  308TMC3    O1 4643   3.447   2.071   1.052 -0.5977 -0.3577  0.3612
  308TMC3    O2 4644   3.336   2.697   1.038  0.0212 -0.1570 -0.2478
  309MPD2     C 4645   2.876   2.950  17.405  0.2799 -0.5649 -0.2511
  309MPD2    C1 4646   2.799   3.021  17.306 -0.6446  0.3311 -0.0582
  309MPD2    C2 4647   2.693   3.103  17.350  0.2807 -0.3681  0.2924
  309MPD2    C3 4648   2.665   3.125  17.487 -0.8164 -0.0957 -0.7205
  309MPD2    C4 4649   2.748   3.057  17.575  0.3384  0.7246  0.5086
  309MPD2    C5 4650   2.852   2.978  17.533  0.5324  0.0168  0.0972
  309MPD2     H 4651   2.623   3.139  17.275  0.1157 -0.4549  0.4056
  309MPD2    H1 4652   2.726   3.063  17.681  2.8193 -0.2976  1.0859
  309MPD2    H2 4653   2.955   2.877  17.389  0.6615  0.0709 -1.2652
  309MPD2    H3 4654   2.903   2.915  17.605 -2.2815 -1.4146  0.8385
  309MPD2     N 4655   2.562   3.201  17.542 -0.1191 -0.1041  0.5334
  309MPD2    H5 4656   2.535   3.186  17.639  2.0615  1.0246  1.2973
  309MPD2    N1 4657   2.817   3.003  17.163  0.5041 -0.8172 -0.2154
  309MPD2    H7 4658   2.748   3.047  17.102 -0.1897 -1.9386 -0.2419
  310TMC3    C1 4659   2.920   2.986  16.959 -0.7522 -0.5287 -0.7496
  310TMC3    C2 4660   2.810   3.052  16.901  0.4539 -0.4650  0.2957
  310TMC3    C3 4661   2.816   3.072  16.770  0.3082  0.4944 -0.0978
  310TMC3    C4 4662   3.033   2.952  16.890 -0.1548  0.6027 -0.5593
  310TMC3    C5 4663   3.031   2.983  16.752 -0.7375  0.6487 -0.5151
  310TMC3    C6 4664   2.924   3.045  16.693 -0.4427  0.8095  0.1086
  310TMC3     C 4665   2.930   2.959  17.103 -0.6065 -0.5019 -0.0870
  310TMC3     O 4666   3.040   2.937  17.148 -0.1979 -0.2147 -0.0647
  310TMC3     H 4667   2.722   3.078  16.959  1.4746 -0.5268  1.8697
  310TMC3    H1 4668   3.115   2.905  16.943 -1.5513 -1.2758 -0.0865
  310TMC3    H2 4669   2.928   3.053  16.585 -3.1204  0.0058 -0.0538
  310TMC3    C7 4670   3.134   2.939  16.659  0.0071  0.4157  0.2516
  310TMC3    C8 4671   2.695   3.114  16.695 -0.0550 -0.1355 -0.1031
  310TMC3    O1 4672   3.124   2.957  16.538 -0.3463 -0.0841  0.5089
  310TMC3    O2 4673   2.705   3.102  16.573  0.2164 -0.4980  0.2263
  311MPD2     C 4674   0.151   4.390  12.527  0.0017  0.7291  0.2209
  311MPD2    C1 4675   0.179   4.458  12.642 -0.0045  0.5771 -0.4912
  311MPD2    C2 4676   0.104   4.434  12.752  0.3992 -0.8505  0.0481
  311MPD2    C3 4677   0.010   4.334  12.746 -0.2047  0.6768  0.0094
  311MPD2    C4 4678   4.708   4.264  12.630 -0.1127 -1.2040  0.4278
  311MPD2    C5 4679   0.052   4.301  12.521 -0.1379 -0.2109  0.2764
  311MPD2     H 4680   0.123   4.493  12.841  1.4581 -0.5170 -0.4116
  311MPD2    H1 4681   4.635   4.186  12.610 -1.2272 -0.1710  0.4029
  311MPD2    H2 4682   0.214   4.403  12.440  2.2058  2.0771  2.0058
  311MPD2    H3 4683   0.029   4.258  12.424 -0.2414 -0.5210  0.4416
  311MPD2     N 4684   4.652   4.322  12.862  0.4232 -0.6644  0.8660
  311MPD2    H5 4685   4.671   4.381  12.942 -3.0882 -1.9583  2.6577
  311MPD2    N1 4686   0.283   4.549  12.658  0.0738  0.2052  0.5936
  311MPD2    H7 4687   0.303   4.582  12.752  1.7617 -0.4092  0.4363
  312TMC3    C1 4688   4.464   4.270  12.993 -0.5256  0.2948  0.5577
  312TMC3    C2 4689   4.338   4.210  12.996 -0.3542 -0.5029 -0.2438
  312TMC3    C3 4690   4.254   4.261  13.092  0.6317 -0.0097  0.7070
  312TMC3    C4 4691   4.499   4.369  13.084 -0.0460  0.0445  0.1537
  312TMC3    C5 4692   4.409   4.408  13.179  0.2289  0.1078 -0.2846
  312TMC3    C6 4693   4.286   4.354  13.190  0.2243 -0.7491  0.1553
  312TMC3     C 4694   4.533   4.250  12.869  0.0138  0.1562  0.3316
  312TMC3     O 4695   4.476   4.189  12.780  0.6087  0.0940 -0.6811
  312TMC3     H 4696   4.304   4.134  12.928  2.0110 -0.0184 -1.9583
  312TMC3    H1 4697   4.597   4.410  13.105 -0.3446  1.2615 -0.7763
  312TMC3    H2 4698   4.219   4.382  13.270 -0.2862 -2.5310  0.3418
  312TMC3    C7 4699   4.468   4.490  13.283 -0.5403  0.3825  0.5653
  312TMC3    C8 4700   4.121   4.211  13.094 -0.2305  0.3674  0.6782
  312TMC3    O1 4701   4.545   4.575  13.236 -0.2017 -0.3209  0.1465
  312TMC3    O2 4702   4.114   4.091  13.060  0.6036  0.1097 -0.1353
  313MPD2     C 4703   4.585   3.496  10.179  0.7257  0.3638  0.7869
  313MPD2    C1 4704   4.532   3.421  10.286 -0.0843 -0.3921 -0.4432
  313MPD2    C2 4705   4.438   3.323  10.255  0.7119  0.0854  0.4803
  313MPD2    C3 4706   4.389   3.307  10.122  0.6218 -0.6453  0.2572
  313MPD2    C4 4707   4.447   3.376  10.024  0.2951 -0.0947 -0.2817
  313MPD2    C5 4708   4.547   3.464  10.053 -0.3936  0.3437  0.1906
  313MPD2     H 4709   4.380   3.276  10.334 -0.4338 -1.1429 -1.0935
  313MPD2    H1 4710   4.438   3.361   9.917 -0.0647  0.8068 -0.3741
  313MPD2    H2 4711   4.661   3.573  10.191  0.2027  0.7637  1.5052
  313MPD2    H3 4712   4.604   3.507   9.972  0.6902 -0.3900  0.5772
  313MPD2     N 4713   4.278   3.227  10.103 -0.5456  0.1272  0.0473
  313MPD2    H5 4714   4.239   3.186  10.187  1.5612 -2.1043 -0.0603
  313MPD2    N1 4715   4.575   3.447  10.412 -0.2956  0.8262  0.7410
  313MPD2    H7 4716   4.530   3.388  10.482  0.9473 -0.4303  0.4810
  314TMC3    C1 4717   4.621   3.569  10.616  0.9545 -0.0041 -0.2216
  314TMC3    C2 4718   4.677   3.678  10.678  0.4188 -0.0715 -0.1677
  314TMC3    C3 4719   4.603   3.738  10.781  0.8127  0.1906 -0.1453
  314TMC3    C4 4720   4.493   3.523  10.649 -0.4212  0.1803 -0.4870
  314TMC3    C5 4721   4.423   3.595  10.742 -0.4881 -0.3429  0.9676
  314TMC3    C6 4722   4.474   3.706  10.805  0.4203 -0.4074  0.2638
  314TMC3     C 4723   4.646   3.553  10.468 -0.3600 -0.1443  0.1629
  314TMC3     O 4724   0.004   3.631  10.422 -0.3157 -0.1237  0.2039
  314TMC3     H 4725   0.055   3.706  10.651  0.8028  0.0781  1.4256
  314TMC3    H1 4726   4.444   3.434  10.611  0.2570 -0.0367 -0.8606
  314TMC3    H2 4727   4.398   3.739  10.875  0.9029 -0.5965  0.8794
  314TMC3    C7 4728   4.285   3.604  10.696 -0.3238 -0.1107 -0.8560
  314TMC3    C8 4729   4.666   3.841  10.860 -0.4123 -0.3479 -0.1629
  314TMC3    O1 4730   4.198   3.587  10.779  0.1286 -0.6455  0.0638
  314TMC3    O2 4731   4.585   3.918  10.906  0.2023  0.5279  0.2426
  315MPD2     C 4732   4.061   2.418  17.645 -0.5470  0.3725 -0.0259
  315MPD2    C1 4733   4.145   2.432   0.064 -0.0317  0.2386 -0.1117
  315MPD2    C2 4734   4.205   2.552   0.076  0.2302  0.3558  0.4870
  315MPD2    C3 4735   4.184   2.653  17.690  0.9341  0.1474  0.2216
  315MPD2    C4 4736   4.086   2.649  17.594 -0.0643  0.2397  0.1119
  315MPD2    C5 4737   4.022   2.527  17.571  0.3873 -0.1728 -0.2731
  315MPD2     H 4738   4.279   2.568   0.153 -0.5169  0.3280  1.2048
  315MPD2    H1 4739   4.072   2.727  17.521 -2.7660  1.2099  1.6741
  315MPD2    H2 4740   4.013   2.323  17.625  1.9072 -1.0345  0.8138
  315MPD2    H3 4741   3.954   2.517  17.487  1.1599  0.5183 -0.9836
  315MPD2     N 4742   4.247   2.773   0.029  0.0570  0.0469 -0.4537
  315MPD2    H5 4743   4.318   2.758   0.100 -1.0198 -0.2310  0.5662
  315MPD2    N1 4744   4.172   2.338   0.164  0.8051  0.1667 -0.5533
  315MPD2    H7 4745   4.219   2.371   0.249  0.1499 -2.2286  0.7363
  316TMC3    C1 4746   4.293   3.006   0.048  0.4645 -0.0111  0.3486
  316TMC3    C2 4747   4.304   2.989   0.184 -0.2697 -0.0962  0.5028
  316TMC3    C3 4748   4.340   3.095   0.259 -0.3525 -0.4323  0.0844
  316TMC3    C4 4749   4.297   3.131  17.689 -0.1306 -0.9185  0.2041
  316TMC3    C5 4750   4.330   3.232   0.076 -0.2758 -0.2302  0.4193
  316TMC3    C6 4751   4.355   3.220   0.207 -0.5392 -0.8983 -0.3999
  316TMC3     C 4752   4.229   2.897  17.665 -0.7696 -0.4668 -0.6085
  316TMC3     O 4753   4.176   2.922  17.558  0.5865 -0.3112  0.2096
  316TMC3     H 4754   4.276   2.897   0.233 -1.4578  0.5934  1.1256
  316TMC3    H1 4755   4.280   3.137  17.582 -0.4282  0.9208  0.3556
  316TMC3    H2 4756   4.376   3.309   0.266  0.0248  0.8711 -3.2423
  316TMC3    C7 4757   4.375   3.358   0.017 -0.1970 -0.2382 -0.2436
  316TMC3    C8 4758   4.335   3.088   0.406  0.3596 -0.4700  0.2374
  316TMC3    O1 4759   4.441   3.435   0.094 -0.1675 -0.1555  0.5085
  316TMC3    O2 4760   4.302   3.190   0.464  0.6302  0.0753 -0.0112
  317MPD2     C 4761   1.265   1.652  13.748 -0.0747  0.3277  0.0381
  317MPD2    C1 4762   1.335   1.617  13.638 -0.6620 -0.0295 -0.0577
  317MPD2    C2 4763   1.427   1.511  13.652  0.2729 -0.4328  0.6291
  317MPD2    C3 4764   1.437   1.436  13.766  0.6142  0.1769  0.8366
  317MPD2    C4 4765   1.357   1.466  13.870  0.3796  0.0197 -0.1312
  317MPD2    C5 4766   1.261   1.564  13.855 -0.5308 -0.4284 -0.3706
  317MPD2     H 4767   1.488   1.494  13.564  0.4812 -0.4344  0.7735
  317MPD2    H1 4768   1.345   1.406  13.960  0.3790  0.1879 -0.0174
  317MPD2    H2 4769   1.185   1.724  13.738 -0.3904 -0.2247 -1.5633
  317MPD2    H3 4770   1.193   1.571  13.939  0.4031  1.9124  0.1944
  317MPD2     N 4771   1.538   1.336  13.766 -0.1678 -0.0957  0.0547
  317MPD2    H5 4772   1.591   1.326  13.680 -2.0103 -2.5880 -0.7994
  317MPD2    N1 4773   1.348   1.695  13.522  0.0308  0.2438  0.3620
  317MPD2    H7 4774   1.393   1.657  13.440 -0.6611 -0.2752  0.2279
  318TMC3    C1 4775   1.659   1.145  13.837 -0.1095  0.1145 -0.1315
  318TMC3    C2 4776   1.650   1.010  13.869  1.0663 -0.0025  0.1063
  318TMC3    C3 4777   1.758   0.934  13.831 -0.1174 -0.3320 -0.7185
  318TMC3    C4 4778   1.779   1.205  13.783  0.1987 -0.1833 -0.6463
  318TMC3    C5 4779   1.881   1.120  13.761 -0.3821 -0.0924  0.3547
  318TMC3    C6 4780   1.876   0.985  13.780  0.7026  0.3638 -0.0605
  318TMC3     C 4781   1.547   1.235  13.863 -0.1424 -0.0005 -0.3109
  318TMC3     O 4782   1.476   1.214  13.958  0.4539 -0.3468  0.1098
  318TMC3     H 4783   1.560   0.966  13.908 -0.5026  3.0320 -0.0805
  318TMC3    H1 4784   1.794   1.311  13.766  3.3854 -0.3954  0.8316
  318TMC3    H2 4785   1.939   0.911  13.731 -2.3265 -0.4123 -2.7878
  318TMC3    C7 4786   1.973   1.172  13.668  0.4010 -0.2359  0.2954
  318TMC3    C8 4787   1.747   0.787  13.819 -0.0398  0.4164  0.8236
  318TMC3    O1 4788   1.955   1.288  13.631  0.0988  0.3091 -0.0673
  318TMC3    O2 4789   1.844   0.711  13.823  0.3258 -0.0890  0.3446
  319MPD2     C 4790   2.146   2.623  16.728 -0.2834  0.6498  0.0774
  319MPD2    C1 4791   2.058   2.561  16.814 -0.0485 -1.1048  0.0686
  319MPD2    C2 4792   1.975   2.458  16.775 -0.5100  0.5659 -0.0106
  319MPD2    C3 4793   1.975   2.417  16.644 -0.1809 -0.2998  0.7204
  319MPD2    C4 4794   2.066   2.468  16.559  0.9130  0.0746  0.0937
  319MPD2    C5 4795   2.143   2.573  16.597 -0.3658  0.5901 -0.0485
  319MPD2     H 4796   1.898   2.421  16.842 -0.4072 -0.5377 -0.5023
  319MPD2    H1 4797   2.078   2.433  16.457 -2.9579  0.1856 -0.3994
  319MPD2    H2 4798   2.215   2.704  16.742  0.7958 -0.6417  2.2603
  319MPD2    H3 4799   2.212   2.617  16.526  1.0158 -1.3760  0.0562
  319MPD2     N 4800   1.887   2.316  16.599 -0.3921 -1.6047  0.0264
  319MPD2    H5 4801   1.890   2.300  16.499 -0.2960 -0.3525 -0.1696
  319MPD2    N1 4802   2.060   2.596  16.952  0.0074  0.0876  0.2882
  319MPD2    H7 4803   1.992   2.553  17.014 -0.4634  0.1499 -0.1899
  320TMC3    C1 4804   1.692   2.167  16.604  0.1721 -0.5785  0.0375
  320TMC3    C2 4805   1.650   2.239  16.497  0.4218 -0.5963  0.4082
  320TMC3    C3 4806   1.527   2.203  16.453  0.1223  0.1879 -0.1486
  320TMC3    C4 4807   1.632   2.060  16.660 -0.4728 -0.3172  0.2016
  320TMC3    C5 4808   1.510   2.017  16.606  0.2619  0.0685 -0.0010
  320TMC3    C6 4809   1.458   2.087  16.495 -0.2259  0.2751 -0.0345
  320TMC3     C 4810   1.807   2.236  16.673 -0.5466  0.9191  0.7089
  320TMC3     O 4811   1.818   2.213  16.795  0.5618 -0.7663 -0.0877
  320TMC3     H 4812   1.680   2.339  16.467 -0.1177 -0.4287  0.4257
  320TMC3    H1 4813   1.688   2.008  16.738  1.1433  1.1532  0.0099
  320TMC3    H2 4814   1.358   2.061  16.461 -0.5981  1.1759  0.3721
  320TMC3    C7 4815   1.476   1.880  16.609 -0.0145 -0.3398 -0.0963
  320TMC3    C8 4816   1.450   2.316  16.405  0.4901  0.2928  0.2874
  320TMC3    O1 4817   1.429   1.842  16.504 -0.2171 -0.2614 -0.2262
  320TMC3    O2 4818   1.476   2.418  16.460  0.1941 -0.1331  0.4634
  321TMC3    C1 4819   2.094   2.733  17.146  0.7671  0.3826 -0.0096
  321TMC3    C2 4820   2.003   2.658  17.224 -0.7099  0.5178  0.3930
  321TMC3    C3 4821   1.965   2.714  17.348 -0.2668 -0.4011  0.0802
  321TMC3    C4 4822   2.153   2.847  17.193 -0.8099  0.2946 -0.6971
  321TMC3    C5 4823   2.122   2.893  17.320  0.0626 -0.1895 -0.1039
  321TMC3    C6 4824   2.019   2.827  17.393 -0.0587 -0.9407  0.4678
  321TMC3     C 4825   2.140   2.691  17.010  0.4961  0.3798 -0.4663
  321TMC3     O 4826   2.230   2.755  16.957  0.4410 -0.2702 -0.2698
  321TMC3     H 4827   1.970   2.559  17.194 -0.0023 -0.3417  2.4374
  321TMC3    H1 4828   2.228   2.901  17.135  0.5494 -0.6190  0.2176
  321TMC3    H2 4829   1.989   2.862  17.491  0.5397 -0.4343  0.4679
  321TMC3    C7 4830   2.237   2.920  17.407 -0.7005 -0.2241  0.3575
  321TMC3    C8 4831   1.955   2.620  17.458  0.8954  0.3520 -0.0604
  321TMC3    O1 4832   2.330   2.973  17.351  0.0278  0.0103  0.0220
  321TMC3    O2 4833   2.004   2.643  17.570 -0.0491 -0.1659  0.5079
  322MPD2     C 4834   1.238   4.089  13.625 -0.1772  0.1377 -0.0619
  322MPD2    C1 4835   1.164   4.040  13.731  0.2021 -0.0527  0.3049
  322MPD2    C2 4836   1.118   3.903  13.718  0.2866 -0.1040 -0.1935
  322MPD2    C3 4837   1.146   3.828  13.608  0.5163 -0.0030 -0.8393
  322MPD2    C4 4838   1.212   3.878  13.500  0.1269 -0.2195  0.5299
  322MPD2    C5 4839   1.250   4.013  13.512 -0.3134 -0.3274 -0.0904
  322MPD2     H 4840   1.065   3.857  13.800  1.6352  0.9236  1.2657
  322MPD2    H1 4841   1.232   3.822  13.410  1.2938  0.6365  0.2519
  322MPD2    H2 4842   1.277   4.189  13.639  0.2235  0.4488 -3.3476
  322MPD2    H3 4843   1.297   4.053  13.423 -0.3921  0.8945  0.4238
  322MPD2     N 4844   1.110   3.690  13.616  0.1734  0.4653 -0.0486
  322MPD2    H5 4845   1.074   3.659  13.705 -0.4086  0.2729 -0.3492
  322MPD2    N1 4846   1.148   4.107  13.848 -0.5289 -0.3553  0.1739
  322MPD2    H7 4847   1.226   4.167  13.873 -0.2950 -1.4714  2.1114
  323TMC3    C1 4848   1.064   4.133  14.070  0.2180  0.4947  0.4346
  323TMC3    C2 4849   1.178   4.207  14.095 -0.1812 -0.0013  0.7145
  323TMC3    C3 4850   1.209   4.207  14.228 -0.0370  0.1396 -0.3908
  323TMC3    C4 4851   0.985   4.082  14.167 -0.0227 -0.4964  0.2447
  323TMC3    C5 4852   1.019   4.102  14.302  0.4382  0.2757  0.0159
  323TMC3    C6 4853   1.141   4.157  14.329 -0.1103 -0.1262 -0.1788
  323TMC3     C 4854   1.044   4.088  13.934  0.3635 -0.0632  0.8642
  323TMC3     O 4855   0.935   4.040  13.903  0.0892  0.0308 -0.2969
  323TMC3     H 4856   1.251   4.237  14.021 -0.2598 -0.3524  0.4928
  323TMC3    H1 4857   0.894   4.030  14.140  0.2561 -0.2083 -1.2129
  323TMC3    H2 4858   1.184   4.159  14.428  0.9244  2.5443 -0.6758
  323TMC3    C7 4859   1.008   3.977  14.367 -0.4512  0.4240 -0.2970
  323TMC3    C8 4860   1.344   4.260  14.271  0.2239 -0.3572 -0.7397
  323TMC3    O1 4861   1.108   3.941  14.424 -0.3310 -0.7202  0.7986
  323TMC3    O2 4862   1.419   4.212  14.357 -0.0024 -0.1969 -0.5502
  324MPD2     C 4863   2.850   0.854  15.247 -0.4190  0.4979 -0.1718
  324MPD2    C1 4864   2.884   0.839  15.112  0.1902 -0.5361 -0.2387
  324MPD2    C2 4865   2.785   0.809  15.019 -0.3216 -0.0854 -0.4422
  324MPD2    C3 4866   2.654   0.797  15.061  0.1526 -0.0395  0.0691
  324MPD2    C4 4867   2.620   0.814  15.193  0.0220  0.5408 -0.1069
  324MPD2    C5 4868   2.721   0.851  15.279 -0.4592 -0.5999  0.2491
  324MPD2     H 4869   2.802   0.809  14.912  0.0002  1.0695 -0.3895
  324MPD2    H1 4870   2.516   0.827  15.221 -0.0604  3.6984 -1.9150
  324MPD2    H2 4871   2.916   0.893  15.325  2.3777 -0.0468 -2.2515
  324MPD2    H3 4872   2.694   0.871  15.382  2.4592 -0.3009  0.9762
  324MPD2     N 4873   2.548   0.784  14.969  0.4222 -0.0589 -0.3304
  324MPD2    H5 4874   2.456   0.787  15.013 -0.7925 -1.0842 -2.7699
  324MPD2    N1 4875   3.014   0.849  15.051 -0.4245  0.2474  0.2119
  324MPD2    H7 4876   3.014   0.837  14.951  1.6683  2.1265 -0.0296
  325TMC3    C1 4877   2.428   0.737  14.787  0.4434 -0.7304 -0.6250
  325TMC3    C2 4878   2.399   0.629  14.711 -0.1128  0.4159  0.5708
  325TMC3    C3 4879   2.268   0.598  14.704  0.1386 -0.2133  0.2336
  325TMC3    C4 4880   2.333   0.828  14.817 -0.2045 -0.0576 -0.5694
  325TMC3    C5 4881   2.204   0.800  14.791 -0.9182 -0.0193 -0.2829
  325TMC3    C6 4882   2.163   0.686  14.732  0.5773 -0.3692  0.3400
  325TMC3     C 4883   2.559   0.750  14.838  0.1833 -0.4163 -0.5100
  325TMC3     O 4884   2.654   0.731  14.764  0.2914  0.2282  0.3778
  325TMC3     H 4885   2.481   0.561  14.691  0.8577  1.0204  2.5115
  325TMC3    H1 4886   2.364   0.921  14.864  0.8697 -0.8566  0.2992
  325TMC3    H2 4887   2.059   0.660  14.718  0.8861 -2.0968  1.2923
  325TMC3    C7 4888   2.104   0.893  14.841  0.4415 -0.4596 -0.0688
  325TMC3    C8 4889   2.238   0.474  14.632  0.9337 -0.2172 -0.0363
  325TMC3    O1 4890   2.150   0.997  14.887  0.0180 -0.1189  0.0921
  325TMC3    O2 4891   2.332   0.428  14.568  0.3655 -0.1912 -0.3765
  326MPD2     C 4892   3.145   1.341  10.993 -0.1093 -0.1189  0.2189
  326MPD2    C1 4893   3.236   1.306  10.892  0.1146  0.3233 -0.4597
  326MPD2    C2 4894   3.364   1.270  10.921  0.0676 -0.1867 -0.2877
  326MPD2    C3 4895   3.410   1.272  11.049 -0.3263  0.1137  0.2850
  326MPD2    C4 4896   3.319   1.294  11.148 -0.1233  0.1257  0.3898
  326MPD2    C5 4897   3.192   1.340  11.123  0.4018 -0.4008  0.5529
  326MPD2     H 4898   3.435   1.254  10.841 -0.2573  1.6516 -0.9315
  326MPD2    H1 4899   3.360   1.290  11.248  0.3442 -1.7240  0.1271
  326MPD2    H2 4900   3.041   1.369  10.975 -0.5547 -0.3027  2.4780
  326MPD2    H3 4901   3.134   1.380  11.205  1.1040  0.7416  0.4970
  326MPD2     N 4902   3.549   1.276  11.077  0.1886 -0.2855 -0.0372
  326MPD2    H5 4903   3.589   1.317  11.161  1.1616 -0.2641 -0.5054
  326MPD2    N1 4904   3.212   1.314  10.752  0.7579  0.4475 -0.3859
  326MPD2    H7 4905   3.292   1.277  10.701  1.1995 -1.6361  1.7757
  327TMC3    C1 4906   3.149   1.412  10.556  0.8393 -0.9248 -0.0577
  327TMC3    C2 4907   3.086   1.519  10.496 -0.9304 -0.2859 -0.6314
  327TMC3    C3 4908   3.155   1.585  10.400 -0.3199 -0.1475  0.4385
  327TMC3    C4 4909   3.273   1.366  10.507 -0.3759  0.2725 -0.6101
  327TMC3    C5 4910   3.331   1.427  10.397  0.4072 -0.3747 -0.0012
  327TMC3    C6 4911   3.270   1.539  10.350  0.2910  0.1687  0.7771
  327TMC3     C 4912   3.110   1.379  10.689  0.2222 -0.6347  0.1148
  327TMC3     O 4913   3.019   1.433  10.745 -0.4088  0.3818 -0.4361
  327TMC3     H 4914   2.987   1.541  10.536 -0.9005 -1.0298 -0.1538
  327TMC3    H1 4915   3.305   1.266  10.535  0.4884  0.7952  0.2523
  327TMC3    H2 4916   3.314   1.590  10.265  0.9238  0.2475  1.1530
  327TMC3    C7 4917   3.477   1.421  10.362 -0.2272 -0.5050  0.0185
  327TMC3    C8 4918   3.119   1.725  10.374 -0.2408  0.3812  0.0553
  327TMC3    O1 4919   3.528   1.514  10.304  0.1398  0.4151 -0.4203
  327TMC3    O2 4920   3.200   1.793  10.311  0.2450 -0.1237 -0.1360
  328MPD2     C 4921   1.545   1.280  17.626 -1.2006  0.0276  0.5314
  328MPD2    C1 4922   1.478   1.184  17.548  0.3672 -0.0599  0.1503
  328MPD2    C2 4923   1.467   1.211  17.416 -0.2064 -0.6651  0.7091
  328MPD2    C3 4924   1.509   1.335  17.361  0.0572  0.2211  0.5452
  328MPD2    C4 4925   1.581   1.422  17.436  0.0537  0.1719  0.4864
  328MPD2    C5 4926   1.593   1.393  17.569 -0.2282  0.1565 -0.1323
  328MPD2     H 4927   1.406   1.145  17.354 -0.1138 -0.0560 -0.0264
  328MPD2    H1 4928   1.600   1.522  17.398  0.1748 -1.1152 -2.8420
  328MPD2    H2 4929   1.561   1.267   0.037 -0.0701  3.4450  0.7670
  328MPD2    H3 4930   1.647   1.469  17.624  0.1911 -0.0553 -0.2510
  328MPD2     N 4931   1.486   1.374  17.228  0.9214 -0.0770 -0.0230
  328MPD2    H5 4932   1.499   1.474  17.215  1.1501  0.1040  1.5110
  328MPD2    N1 4933   1.442   1.064  17.608  0.1725 -0.4970  0.0132
  328MPD2    H7 4934   1.427   1.066   0.014 -0.9571  2.1925 -0.2026
  329TMC3    C1 4935   1.366   0.840  17.623  0.9042  0.0429 -0.0862
  329TMC3    C2 4936   1.258   0.869   0.006  0.0527 -0.6801 -0.1307
  329TMC3    C3 4937   1.134   0.805  17.684  0.0958 -0.2128 -0.1760
  329TMC3    C4 4938   1.365   0.724  17.557  0.1451  0.7062 -0.1418
  329TMC3    C5 4939   1.247   0.651  17.549  0.2186  0.8746 -0.8999
  329TMC3    C6 4940   1.131   0.688  17.617 -0.0688  0.7041 -0.3570
  329TMC3     C 4941   1.424   0.949  17.548  0.0886 -0.2211 -0.7938
  329TMC3     O 4942   1.427   0.929  17.429 -0.1396 -0.1138  0.2903
  329TMC3     H 4943   1.252   0.968   0.049  0.4251  0.3093 -2.3694
  329TMC3    H1 4944   1.455   0.701  17.502  1.5386 -0.1997  2.5209
  329TMC3    H2 4945   1.032   0.649  17.596  0.3030  0.1481 -1.0520
  329TMC3    C7 4946   1.229   0.556  17.438  0.6011  0.2362  0.5792
  329TMC3    C8 4947   1.022   0.890  17.668  0.5390 -0.0677 -0.3453
  329TMC3    O1 4948   1.113   0.551  17.403 -0.1965 -0.1937 -0.5347
  329TMC3    O2 4949   0.934   0.866  17.586 -0.2539  0.3199 -0.7129
  330TMC3    C1 4950   3.913   0.242   9.526  0.5994  0.2310 -0.2954
  330TMC3    C2 4951   3.836   0.172   9.433  0.5341  0.0908 -0.3160
  330TMC3    C3 4952   3.809   0.039   9.460  0.4661  0.0412 -0.1122
  330TMC3    C4 4953   3.974   0.176   9.627 -0.6727  0.2209 -0.0123
  330TMC3    C5 4954   3.936   0.045   9.657 -0.6618  0.0282  0.6384
  330TMC3    C6 4955   3.849   4.703   9.580 -0.3092  0.0973 -0.1982
  330TMC3     C 4956   3.982   0.358   9.473 -0.1367  0.3599  0.2155
  330TMC3     O 4957   4.103   0.351   9.489  0.1164  0.5647  0.1030
  330TMC3     H 4958   3.786   0.223   9.352 -1.0588 -1.2965 -0.1915
  330TMC3    H1 4959   4.045   0.231   9.688  0.3534  1.2383 -2.1280
  330TMC3    H2 4960   3.841   4.597   9.604 -1.7893  1.0238  3.3130
  330TMC3    C7 4961   4.009   4.708   9.768 -0.1358  0.8528 -0.0725
  330TMC3    C8 4962   3.715   4.693   9.380  0.0195 -0.1219 -0.0564
  330TMC3    O1 4963   4.119   0.030   9.786 -0.2949  0.7460 -0.4538
  330TMC3    O2 4964   3.674   0.033   9.284 -0.3873 -0.3155  0.0092
  331MPD2     C 4965   2.096   4.411  13.072  0.2110 -0.7505  0.3228
  331MPD2    C1 4966   2.199   4.421  12.985 -0.5452 -0.1892  0.4970
  331MPD2    C2 4967   2.257   4.307  12.932  0.1186  0.9171  0.0938
  331MPD2    C3 4968   2.204   4.182  12.966 -0.0609 -0.5413 -0.3569
  331MPD2    C4 4969   2.098   4.175  13.058 -0.6236  0.2013 -0.3018
  331MPD2    C5 4970   2.043   4.287  13.109  0.3226 -0.7369 -0.0843
  331MPD2     H 4971   2.342   4.311  12.865 -1.0075  1.5365 -1.3007
  331MPD2    H1 4972   2.056   4.078  13.084 -0.2125  0.5894  1.7638
  331MPD2    H2 4973   2.047   4.495  13.119  0.5365 -0.4433  0.1079
  331MPD2    H3 4974   1.958   4.276  13.175  1.9050  2.6905  2.4982
  331MPD2     N 4975   2.278   4.065  12.926 -0.2052  0.4768  0.3803
  331MPD2    H5 4976   2.349   4.079  12.855 -1.1565  0.2694 -0.6162
  331MPD2    N1 4977   2.240   4.552  12.950 -0.3371 -0.7999  1.0467
  331MPD2    H7 4978   2.184   4.632  12.977 -1.5100 -2.0713  2.3772
  332TMC3    C1 4979   2.340   3.855  12.890 -0.4916  0.6699  0.6473
  332TMC3    C2 4980   2.349   3.883  12.752 -0.2690 -0.4700  0.1064
  332TMC3    C3 4981   2.451   3.824  12.682  0.5646  0.3937 -0.3971
  332TMC3    C4 4982   2.430   3.785  12.960  0.2039  0.2433  0.4797
  332TMC3    C5 4983   2.542   3.745  12.886  0.9133  0.4572  0.2882
  332TMC3    C6 4984   2.552   3.760  12.751  0.5117 -0.4612  0.1017
  332TMC3     C 4985   2.261   3.939  12.974  0.6767  0.0607 -0.2810
  332TMC3     O 4986   2.190   3.904  13.064  0.0035 -0.2836 -0.1180
  332TMC3     H 4987   2.272   3.936  12.698  0.4701  1.7303  1.2223
  332TMC3    H1 4988   2.427   3.775  13.068  0.7463  0.2803  0.5000
  332TMC3    H2 4989   2.639   3.714  12.705  0.2839  1.4809 -2.2301
  332TMC3    C7 4990   2.660   3.698  12.959  0.1322 -0.1397 -0.2204
  332TMC3    C8 4991   2.504   3.904  12.565 -0.2525 -0.7978 -0.3155
  332TMC3    O1 4992   2.640   3.647  13.071  0.3542  0.0954 -0.1580
  332TMC3    O2 4993   2.624   3.892  12.557  0.5742 -0.3363  1.1520
  333MPD2     C 4994   2.782   4.138  11.661 -0.0795  0.3569  0.4374
  333MPD2    C1 4995   2.771   4.148  11.526 -0.0429  0.2361  0.0702
  333MPD2    C2 4996   2.669   4.087  11.453 -0.0033  0.6484 -0.3037
  333MPD2    C3 4997   2.572   4.022  11.519  0.4596  0.1309  0.5093
  333MPD2    C4 4998   2.577   4.015  11.658 -0.4162  0.0636  0.5248
  333MPD2    C5 4999   2.685   4.063  11.726  0.1495  0.0312  0.0522
  333MPD2     H 5000   2.673   4.082  11.345  0.9625  5.2651 -0.4725
  333MPD2    H1 5001   2.501   3.958  11.710 -1.3725  0.8512 -0.0193
  333MPD2    H2 5002   2.867   4.178  11.715  0.5474  0.1611 -0.4146
  333MPD2    H3 5003   2.691   4.063  11.834 -0.4285 -0.0999  0.0842
  333MPD2     N 5004   2.474   3.956  11.446  0.2129 -0.3793 -0.0879
  333MPD2    H5 5005   2.483   3.956  11.345  0.8160  0.3998 -0.0366
  333MPD2    N1 5006   2.883   4.199  11.463 -0.0835  0.1866  0.0043
  333MPD2    H7 5007   2.961   4.226  11.522  0.2746  0.1967 -0.4669
  334TMC3    C1 5008   2.996   4.310  11.295 -0.2573 -0.6182 -0.1758
  334TMC3    C2 5009   3.115   4.277  11.363  0.6744 -0.9356  0.0762
  334TMC3    C3 5010   3.234   4.337  11.319  0.0949 -0.3893  0.1208
  334TMC3    C4 5011   2.994   4.399  11.194 -0.2160 -0.5700 -0.1609
  334TMC3    C5 5012   3.108   4.470  11.168 -0.5355 -0.8518  0.1018
  334TMC3    C6 5013   3.229   4.442  11.227 -0.0081 -0.1852 -0.5974
  334TMC3     C 5014   2.879   4.236  11.331  0.2522  0.7402 -0.5921
  334TMC3     O 5015   2.790   4.238  11.247 -0.0470  0.3827 -0.3487
  334TMC3     H 5016   3.123   4.184  11.419  0.8368 -1.9900 -1.6869
  334TMC3    H1 5017   2.903   4.435  11.147 -1.5473 -0.7608  2.3246
  334TMC3    H2 5018   3.315   4.502  11.199  0.0422  0.7581  1.5518
  334TMC3    C7 5019   3.089   4.574  11.069 -0.3869  0.6554  0.1215
  334TMC3    C8 5020   3.347   4.251  11.309 -0.7407 -0.7246  0.0313
  334TMC3    O1 5021   3.189   4.608  11.008  0.3633 -0.3542 -0.1527
  334TMC3    O2 5022   3.367   4.178  11.406 -0.0889 -0.0687  0.4091
  335TMC3    C1 5023   2.499   1.404   0.003 -0.4961  0.3867  0.5026
  335TMC3    C2 5024   2.432   1.352  17.587 -0.3099  0.0894 -0.1496
  335TMC3    C3 5025   2.421   1.426  17.472  0.8907 -0.7170  0.1319
  335TMC3    C4 5026   2.567   1.522  17.689  0.0797 -0.5778  0.1661
  335TMC3    C5 5027   2.558   1.585  17.568 -0.3188  0.7522 -0.2926
  335TMC3    C6 5028   2.485   1.549  17.461  0.5674 -0.3239  0.3855
  335TMC3     C 5029   2.513   1.316   0.112 -0.0708  0.0600  0.0569
  335TMC3     O 5030   2.476   1.203   0.097  0.4618 -0.3252  0.0146
  335TMC3     H 5031   2.368   1.265  17.595 -0.7755  0.3115 -1.4392
  335TMC3    H1 5032   2.643   1.552   0.065  1.6407  1.0976 -2.2026
  335TMC3    H2 5033   2.481   1.608  17.371  0.1159 -2.9120 -1.2997
  335TMC3    C7 5034   2.658   1.677  17.535 -0.2195  0.4448 -0.2024
  335TMC3    C8 5035   2.381   1.360  17.350 -0.3660 -0.5300 -0.3989
  335TMC3    O1 5036   2.683   1.681  17.416 -0.0536 -0.1602  0.2709
  335TMC3    O2 5037   2.429   1.412  17.253 -0.2737  0.2809 -0.1792
  336MPD2     C 5038   1.997   3.585  16.648  0.5260  0.5299 -0.4096
  336MPD2    C1 5039   1.969   3.561  16.516 -0.0269  0.3663  0.7030
  336MPD2    C2 5040   1.980   3.429  16.466 -0.0975 -0.2918 -0.3520
  336MPD2    C3 5041   2.016   3.322  16.552 -0.1390  0.0803 -0.2895
  336MPD2    C4 5042   2.022   3.344  16.692 -0.1297  0.2704 -0.0200
  336MPD2    C5 5043   2.021   3.479  16.731 -0.1584 -0.5915 -0.2268
  336MPD2     H 5044   1.962   3.413  16.361  0.5921 -1.7979 -0.2467
  336MPD2    H1 5045   2.040   3.267  16.766  2.3848  1.8804  1.0476
  336MPD2    H2 5046   1.979   3.682  16.695  3.0151 -0.2206  2.0919
  336MPD2    H3 5047   2.045   3.503  16.834  0.7036  0.5419 -0.6861
  336MPD2     N 5048   2.041   3.194  16.507  0.0264 -0.0767  0.1862
  336MPD2    H5 5049   2.080   3.134  16.579 -0.2436  0.4742  0.7969
  336MPD2    N1 5050   1.933   3.671  16.432  0.0418 -0.2840 -0.0051
  336MPD2    H7 5051   1.927   3.646  16.334 -0.4863 -0.3517  0.0417
  337TMC3    C1 5052   1.894   3.889  16.352 -0.2027 -0.2029 -0.7600
  337TMC3    C2 5053   1.813   3.836  16.256 -0.5319 -0.1615 -0.1781
  337TMC3    C3 5054   1.781   3.919  16.154  0.5073  0.6098 -0.1986
  337TMC3    C4 5055   1.940   4.021  16.357 -0.1211 -0.5656  1.0063
  337TMC3    C5 5056   1.898   4.102  16.251 -0.1258  0.1211 -0.0536
  337TMC3    C6 5057   1.824   4.049  16.155  0.1091  0.5491 -0.0313
  337TMC3     C 5058   1.926   3.802  16.469 -0.6536  0.2150 -0.0269
  337TMC3     O 5059   1.978   3.862  16.561  0.3181  0.0426 -0.0309
  337TMC3     H 5060   1.762   3.740  16.260  1.2487 -1.0575  1.2821
  337TMC3    H1 5061   2.002   4.064  16.435 -1.1935  0.2834  1.3754
  337TMC3    H2 5062   1.788   4.116  16.078  1.2767 -0.5766 -1.5618
  337TMC3    C7 5063   1.881   4.243  16.265  0.7183  0.3600  0.0610
  337TMC3    C8 5064   1.635   3.917  16.128  0.2018  0.2543  0.3949
  337TMC3    O1 5065   1.791   4.293  16.198  0.3839  0.2758  0.7377
  337TMC3    O2 5066   1.570   3.866  16.219  0.2733  0.2197  0.1600
  338MPD2     C 5067   1.882   2.854   1.236  0.3900  0.6850 -0.0242
  338MPD2    C1 5068   1.888   2.825   1.100 -0.6212  0.9160  0.8880
  338MPD2    C2 5069   1.774   2.784   1.036 -1.4655  0.0209 -0.1170
  338MPD2    C3 5070   1.658   2.761   1.100  0.9082 -0.1414  0.4640
  338MPD2    C4 5071   1.653   2.775   1.234  0.4571 -0.4847 -0.4714
  338MPD2    C5 5072   1.764   2.834   1.303 -0.0498 -0.1718 -1.0681
  338MPD2     H 5073   1.769   2.773   0.929 -0.9607 -0.0818 -0.1320
  338MPD2    H1 5074   1.562   2.760   1.292  2.3273  1.0840  2.8843
  338MPD2    H2 5075   1.966   2.882   1.299  1.1479  0.1841 -0.8083
  338MPD2    H3 5076   1.760   2.851   1.410  0.4395 -0.6855 -0.9704
  338MPD2     N 5077   1.556   2.711   1.021  0.2882  0.0558  0.2174
  338MPD2    H5 5078   1.580   2.679   0.927 -3.6174  1.4906 -1.2398
  338MPD2    N1 5079   2.006   2.824   1.014 -0.5692  0.2028  0.3631
  338MPD2    H7 5080   2.005   2.803   0.915  2.1769  0.4980  0.2682
  339TMC3    C1 5081   1.372   2.636   0.937  0.0231 -0.3781 -0.3368
  339TMC3    C2 5082   1.354   2.504   0.916  0.1267 -0.2216 -0.3282
  339TMC3    C3 5083   1.340   2.452   0.791 -0.0885  0.0700 -0.0153
  339TMC3    C4 5084   1.384   2.729   0.837  0.2722 -0.4623 -0.3223
  339TMC3    C5 5085   1.375   2.678   0.710  0.1579  0.8395  0.9835
  339TMC3    C6 5086   1.358   2.543   0.687 -0.4770 -0.3275  0.1226
  339TMC3     C 5087   1.437   2.665   1.062  0.6220 -0.0458  0.1238
  339TMC3     O 5088   1.395   2.619   1.165 -0.2944  0.0531 -0.3531
  339TMC3     H 5089   1.358   2.438   1.002 -0.5328 -0.3684 -0.4096
  339TMC3    H1 5090   1.384   2.835   0.861  0.7322 -1.1908  2.7758
  339TMC3    H2 5091   1.379   2.499   0.590 -2.4174  2.0778 -1.3695
  339TMC3    C7 5092   1.396   2.774   0.603  0.4324 -0.1081 -0.1842
  339TMC3    C8 5093   1.334   2.311   0.771 -0.3354 -0.4395 -0.7079
  339TMC3    O1 5094   1.404   2.895   0.637 -0.1606  0.5117 -0.6305
  339TMC3    O2 5095   1.390   2.278   0.670  0.5843  0.2932  0.3728
  340MPD2     C 5096   2.090   1.074   9.677 -0.8838  0.6601  0.5486
  340MPD2    C1 5097   2.113   1.009   9.798  0.0013 -0.0174  0.1288
  340MPD2    C2 5098   2.090   1.075   9.916 -0.2378  0.4063  0.7025
  340MPD2    C3 5099   2.038   1.203   9.912 -0.1345  0.5274  0.2852
  340MPD2    C4 5100   2.009   1.259   9.796  0.5663 -0.3452 -0.2207
  340MPD2    C5 5101   2.043   1.200   9.675 -0.7938  0.3542  0.6501
  340MPD2     H 5102   2.126   1.035  10.010  2.2159  2.4931  0.6640
  340MPD2    H1 5103   1.974   1.361   9.796  0.6511 -0.3156 -0.3125
  340MPD2    H2 5104   2.107   1.033   9.578 -2.0297  0.0328  0.6181
  340MPD2    H3 5105   2.025   1.242   9.577  1.8895 -0.3806 -0.1599
  340MPD2     N 5106   2.026   1.294  10.021 -0.2647  0.0999  0.1990
  340MPD2    H5 5107   2.005   1.390   9.995  0.3736  0.3441  0.5581
  340MPD2    N1 5108   2.149   0.873   9.795  0.3508  0.0899 -0.0464
  340MPD2    H7 5109   2.170   0.828   9.706 -0.5074  0.6438 -0.5370
  341TMC3    C1 5110   2.230   0.677   9.888 -0.0444  0.5710  0.3877
  341TMC3    C2 5111   2.204   0.575   9.968  0.2933 -0.0116  0.0698
  341TMC3    C3 5112   2.283   0.460   9.968  0.9224 -0.1063  1.0063
  341TMC3    C4 5113   2.332   0.674   9.795 -0.0017  0.5733  0.1422
  341TMC3    C5 5114   2.406   0.559   9.795 -0.5836  0.3102  0.1145
  341TMC3    C6 5115   2.383   0.449   9.875 -0.3242 -0.0888 -0.4656
  341TMC3     C 5116   2.162   0.798   9.911  0.6664 -0.1554 -0.5193
  341TMC3     O 5117   2.115   0.811  10.024 -0.4887 -0.0540 -0.5859
  341TMC3     H 5118   2.129   0.588  10.045 -1.1779 -1.1983 -1.1577
  341TMC3    H1 5119   2.354   0.760   9.733  1.8565 -0.5014 -0.6885
  341TMC3    H2 5120   2.460   0.373   9.873 -2.4947 -2.2487 -1.8496
  341TMC3    C7 5121   2.528   0.556   9.716  0.1511  0.5927 -0.6316
  341TMC3    C8 5122   2.282   0.373  10.083 -0.2414  0.3250  0.1402
  341TMC3    O1 5123   2.634   0.500   9.749 -0.1249 -0.0849 -0.3143
  341TMC3    O2 5124   2.206   0.408  10.171 -0.1711 -0.1751  0.2652
  342MPD2     C 5125   0.223   3.978   0.342 -0.6294 -0.3513 -0.6705
  342MPD2    C1 5126   0.337   4.018   0.265 -0.2499  0.4779 -0.0206
  342MPD2    C2 5127   0.352   4.151   0.239 -0.1482 -0.2680  0.0130
  342MPD2    C3 5128   0.260   4.247   0.276  0.0137 -0.0885 -0.3719
  342MPD2    C4 5129   0.147   4.204   0.340  0.2072  0.2857  0.3108
  342MPD2    C5 5130   0.127   4.074   0.372  0.3532  0.1380 -0.1134
  342MPD2     H 5131   0.440   4.185   0.187  0.6299 -1.8306  0.3065
  342MPD2    H1 5132   0.079   4.282   0.374 -1.0943  0.1843 -2.0574
  342MPD2    H2 5133   0.206   3.877   0.376  1.0691 -0.0439  1.0777
  342MPD2    H3 5134   0.035   4.041   0.419 -0.7046  1.2744 -1.4190
  342MPD2     N 5135   0.286   4.382   0.250  0.0770 -0.1365 -0.0545
  342MPD2    H5 5136   0.217   4.447   0.287 -1.3798 -0.4346 -2.1905
  342MPD2    N1 5137   0.438   3.920   0.227  0.2060  0.0273 -0.3355
  342MPD2    H7 5138   0.418   3.824   0.256  0.9058  0.0611  0.2740
  343TMC3    C1 5139   0.645   3.825   0.143 -0.4913 -0.5769  0.9893
  343TMC3    C2 5140   0.745   3.843   0.046  0.3739 -0.2021 -0.5403
  343TMC3    C3 5141   0.837   3.746   0.024 -0.4197 -0.1480 -0.2584
  343TMC3    C4 5142   0.653   3.712   0.221 -0.0953  0.1121 -0.8222
  343TMC3    C5 5143   0.739   3.613   0.187  0.0207 -0.0928  0.7417
  343TMC3    C6 5144   0.827   3.626   0.091 -0.2640  0.5038  0.2923
  343TMC3     C 5145   0.559   3.946   0.172 -0.7533  0.2648  0.1643
  343TMC3     O 5146   0.597   4.053   0.126  0.0098  0.1655  0.1459
  343TMC3     H 5147   0.759   3.943   0.006  0.4401 -1.1921 -3.0391
  343TMC3    H1 5148   0.598   3.724   0.314  0.5110 -1.8056 -0.2209
  343TMC3    H2 5149   0.900   3.546   0.077 -0.7958 -0.4791  3.2426
  343TMC3    C7 5150   0.706   3.482   0.232  0.1054 -0.9651  1.1881
  343TMC3    C8 5151   0.938   3.775  17.617 -0.1592 -0.1116  0.2944
  343TMC3    O1 5152   0.751   3.389   0.163  0.0419 -0.0582 -0.1455
  343TMC3    O2 5153   0.990   3.886  17.623 -0.6927 -0.6119  0.2569
  344MPD2     C 5154   0.973   3.393  10.033  0.7350  0.3953  0.3670
  344MPD2    C1 5155   1.054   3.350  10.142  0.1915 -0.1814 -0.0431
  344MPD2    C2 5156   1.150   3.443  10.193 -0.4915  0.3552 -0.6045
  344MPD2    C3 5157   1.182   3.560  10.118  0.1701  0.2783 -0.5427
  344MPD2    C4 5158   1.107   3.589  10.001 -0.6076  0.5889 -0.2748
  344MPD2    C5 5159   0.996   3.516   9.969  1.1648 -0.0837 -0.2272
  344MPD2     H 5160   1.199   3.420  10.286  0.0894 -1.3643 -1.3358
  344MPD2    H1 5161   1.122   3.680   9.944  3.3856 -0.5757 -1.0443
  344MPD2    H2 5162   0.892   3.329   9.999  2.1091 -1.1913  0.0568
  344MPD2    H3 5163   0.941   3.540   9.879  1.3781 -1.2525 -0.6684
  344MPD2     N 5164   1.273   3.662  10.161  0.2542 -0.4487 -1.0089
  344MPD2    H5 5165   1.287   3.742  10.102  0.4431 -1.2027 -1.9808
  344MPD2    N1 5166   1.034   3.223  10.206  0.4456 -1.2981 -0.7451
  344MPD2    H7 5167   1.063   3.218  10.304  0.5575 -0.3691 -0.7313
  345TMC3    C1 5168   1.361   3.803  10.324 -0.0941 -0.5268  0.0952
  345TMC3    C2 5169   1.466   3.823  10.411 -0.0933  0.2528 -0.0727
  345TMC3    C3 5170   1.476   3.954  10.451  0.1051 -0.5347  0.3467
  345TMC3    C4 5171   1.258   3.896  10.302  0.8108 -0.0908 -0.1947
  345TMC3    C5 5172   1.268   4.020  10.354  0.1410  0.3099  0.1823
  345TMC3    C6 5173   1.372   4.047  10.441  0.6506 -0.0824  0.2692
  345TMC3     C 5174   1.337   3.668  10.281  0.4140  0.1967  0.4056
  345TMC3     O 5175   1.347   3.583  10.365 -0.4579 -0.5749  0.4301
  345TMC3     H 5176   1.542   3.750  10.438  1.2141  1.8247  0.5228
  345TMC3    H1 5177   1.171   3.873  10.241  1.2760 -0.4540 -0.7177
  345TMC3    H2 5178   1.384   4.147  10.483  2.4077 -0.5690  0.8855
  345TMC3    C7 5179   1.176   4.131  10.326  0.4328 -0.1790 -0.1981
  345TMC3    C8 5180   1.587   4.012  10.532 -0.2769 -0.9143 -0.2206
  345TMC3    O1 5181   1.199   4.235  10.390 -0.2808  0.3986  0.4580
  345TMC3    O2 5182   1.553   4.092  10.623  0.3755 -0.0686  0.5824
  346MPD2     C 5183   1.694   0.156  14.427 -0.0140 -0.0551  0.5993
  346MPD2    C1 5184   1.687   0.292  14.409  0.4680 -0.5357 -0.1093
  346MPD2    C2 5185   1.603   0.362  14.497  0.1553 -0.2424  0.2073
  346MPD2    C3 5186   1.513   0.307  14.580  0.1562 -0.4346 -0.3552
  346MPD2    C4 5187   1.512   0.165  14.582  0.9598 -0.2835 -0.0383
  346MPD2    C5 5188   1.599   0.096  14.506  0.2850 -0.3286 -0.7464
  346MPD2     H 5189   1.587   0.466  14.473 -0.0833 -0.5088 -0.7878
  346MPD2    H1 5190   1.441   0.116  14.647 -0.7028  1.3351 -0.6552
  346MPD2    H2 5191   1.766   0.098  14.371 -0.9604 -1.0465  0.4159
  346MPD2    H3 5192   1.602   4.714  14.532 -1.8918 -0.0745  0.5570
  346MPD2     N 5193   1.420   0.391  14.641 -0.3134 -0.0022 -0.3206
  346MPD2    H5 5194   1.435   0.491  14.637  0.1891 -0.0315  0.9063
  346MPD2    N1 5195   1.773   0.357  14.321  0.3752 -0.4545  0.0160
  346MPD2    H7 5196   1.772   0.457  14.337  0.9691 -0.4373 -0.0647
  347TMC3    C1 5197   1.275   0.452  14.811 -0.0336 -0.1795 -0.2437
  347TMC3    C2 5198   1.321   0.573  14.780  0.3943  0.1026 -0.3937
  347TMC3    C3 5199   1.369   0.651  14.877 -0.7575  0.0553 -0.3872
  347TMC3    C4 5200   1.261   0.406  14.937  0.1242  0.4279  0.1362
  347TMC3    C5 5201   1.312   0.487  15.037 -0.6380 -0.0069  0.0975
  347TMC3    C6 5202   1.364   0.612  15.004  0.6021  0.1177 -0.3398
  347TMC3     C 5203   1.322   0.346  14.722 -0.7690  0.0038  0.0107
  347TMC3     O 5204   1.288   0.234  14.742  0.5415 -0.2558 -0.1654
  347TMC3     H 5205   1.317   0.607  14.677  1.5190  1.4490  0.0001
  347TMC3    H1 5206   1.243   0.301  14.958  3.4511  0.0774  1.1382
  347TMC3    H2 5207   1.411   0.680  15.074 -1.0173  1.7778 -0.8676
  347TMC3    C7 5208   1.308   0.445  15.172  0.4813  0.6719  0.2390
  347TMC3    C8 5209   1.471   0.742  14.829 -0.3922  1.2728 -0.0646
  347TMC3    O1 5210   1.227   0.363  15.201 -0.3643  0.0876  0.0291
  347TMC3    O2 5211   1.527   0.703  14.726  0.0170  0.0145  0.3625
  348MPD2     C 5212   4.415   4.308  11.859  0.7887 -0.6808  0.1532
  348MPD2    C1 5213   4.473   4.432  11.865 -0.1641 -0.0216  0.1647
  348MPD2    C2 5214   4.435   4.532  11.774  0.6094  0.0195  0.2537
  348MPD2    C3 5215   4.342   4.504  11.680  0.6612  0.2610  0.1678
  348MPD2    C4 5216   4.284   4.382  11.680 -0.0838 -0.1669 -0.5782
  348MPD2    C5 5217   4.319   4.281  11.764  0.1696  0.3045  0.9106
  348MPD2     H 5218   4.472   4.632  11.790  0.3763  0.1117  0.2091
  348MPD2    H1 5219   4.200   4.375  11.613 -0.6380 -0.4786  0.1488
  348MPD2    H2 5220   4.453   4.232  11.926 -4.7569 -1.8031  2.0112
  348MPD2    H3 5221   4.276   4.182  11.754  0.2824  0.2030  1.4421
  348MPD2     N 5222   4.294   4.605  11.597  0.0212 -0.1648 -0.2174
  348MPD2    H5 5223   4.211   4.579  11.544 -1.1555  1.4614  0.8336
  348MPD2    N1 5224   4.575   4.466  11.956 -0.2579  0.0598 -0.4414
  348MPD2    H7 5225   4.608   4.561  11.946 -1.7393  0.9316  2.7992
  349TMC3    C1 5226   0.022   4.464  12.112  0.6134 -0.6160 -0.2357
  349TMC3    C2 5227   0.132   4.393  12.150 -0.2834  0.3926  0.3353
  349TMC3    C3 5228   0.247   4.450  12.132  0.0666  0.3451 -0.0495
  349TMC3    C4 5229   0.024   4.601  12.093  0.6483 -0.0570 -0.0432
  349TMC3    C5 5230   0.147   4.657  12.065  0.3862  0.4408  0.1429
  349TMC3    C6 5231   0.258   4.581  12.084 -0.7606  0.5747  0.4102
  349TMC3     C 5232   4.642   4.387  12.046 -0.6428 -0.8098 -0.5801
  349TMC3     O 5233   4.659   4.264  12.056 -0.1896  0.4440  0.0107
  349TMC3     H 5234   0.122   4.290  12.180  3.0605  1.0247  3.5681
  349TMC3    H1 5235   4.653   4.651  12.072  0.9672  0.9994  1.0252
  349TMC3    H2 5236   0.358   4.623  12.084 -0.8413  0.7631  0.8539
  349TMC3    C7 5237   0.145   4.716  11.932 -0.9619 -0.0044  0.0236
  349TMC3    C8 5238   0.357   4.387  12.206  0.0700 -0.0713 -0.0044
  349TMC3    O1 5239   0.168   4.646  11.834  0.2035  0.0830 -0.2055
  349TMC3    O2 5240   0.326   4.282  12.260  0.3282 -0.6522  0.0570
  350MPD2     C 5241   3.381   2.805   9.648  0.0390 -0.2208  0.5374
  350MPD2    C1 5242   3.441   2.705   9.727 -0.0798  0.1743 -0.1046
  350MPD2    C2 5243   3.563   2.740   9.790  0.7604 -0.4391 -0.1149
  350MPD2    C3 5244   3.610   2.871   9.779  0.7057  0.0329 -0.2685
  350MPD2    C4 5245   3.546   2.973   9.705 -0.1166  0.2158  0.5398
  350MPD2    C5 5246   3.428   2.932   9.638 -0.0896 -0.8456 -0.3107
  350MPD2     H 5247   3.613   2.660   9.844 -0.4792 -0.4416  1.0114
  350MPD2    H1 5248   3.576   3.077   9.696  1.3448 -0.3710 -1.4869
  350MPD2    H2 5249   3.302   2.781   9.578  1.1160  0.0700 -0.7841
  350MPD2    H3 5250   3.389   3.003   9.565  1.6783  2.4971  1.9691
  350MPD2     N 5251   3.728   2.904   9.847  1.1629 -0.1013  0.0339
  350MPD2    H5 5252   3.769   2.841   9.916 -1.1534  0.0815  1.5609
  350MPD2    N1 5253   3.382   2.576   9.741 -0.0698 -0.1084  0.4929
  350MPD2    H7 5254   3.434   2.510   9.799  0.9173 -0.6612 -1.0165
  351TMC3    C1 5255   3.230   2.402   9.721  0.2106 -0.2250  0.3911
  351TMC3    C2 5256   3.338   2.321   9.730 -0.4428 -0.7284 -0.5940
  351TMC3    C3 5257   3.307   2.197   9.777  0.6293 -0.3385  0.9538
  351TMC3    C4 5258   3.107   2.370   9.758 -0.0677 -0.4473  0.6850
  351TMC3    C5 5259   3.086   2.249   9.809 -0.4214 -0.2104 -0.3371
  351TMC3    C6 5260   3.186   2.159   9.811  0.3138 -0.4672  0.1031
  351TMC3     C 5261   3.267   2.530   9.678  0.5646  0.0223 -0.2169
  351TMC3     O 5262   3.180   2.597   9.627  0.4696  0.1757  1.0719
  351TMC3     H 5263   3.438   2.339   9.693 -0.2545  0.7313  0.6513
  351TMC3    H1 5264   3.031   2.447   9.744  1.3459  0.8759  0.3827
  351TMC3    H2 5265   3.162   2.067   9.864  0.9619  0.9884  2.9092
  351TMC3    C7 5266   2.981   2.254   9.916 -0.4902  1.0113  0.2195
  351TMC3    C8 5267   3.406   2.096   9.750 -0.1625  0.2148  0.3937
  351TMC3    O1 5268   2.924   2.365   9.929  0.4264 -0.2847  0.2294
  351TMC3    O2 5269   3.515   2.131   9.710  0.0358  0.1644  0.4309
  352MPD2     C 5270   2.337   0.479   0.981  0.0357 -0.1302 -0.4521
  352MPD2    C1 5271   2.234   0.436   1.071 -0.0146 -0.1957 -0.9986
  352MPD2    C2 5272   2.262   0.337   1.169 -0.6879  0.3775  0.0856
  352MPD2    C3 5273   2.388   0.283   1.174 -0.0296 -0.3204 -0.6022
  352MPD2    C4 5274   2.482   0.319   1.073 -0.5847  0.0041 -0.1590
  352MPD2    C5 5275   2.461   0.414   0.978  0.5871 -0.5858 -0.6942
  352MPD2     H 5276   2.183   0.328   1.243 -0.3580 -1.3039  0.2358
  352MPD2    H1 5277   2.580   0.272   1.077 -0.0242  1.0837 -1.0502
  352MPD2    H2 5278   2.315   0.556   0.908 -0.9975 -0.1011 -0.1117
  352MPD2    H3 5279   2.537   0.437   0.903  1.9477  0.9677  1.1468
  352MPD2     N 5280   2.436   0.197   1.275 -0.3764  0.1268  0.0106
  352MPD2    H5 5281   2.531   0.165   1.262 -0.3932 -0.2785  0.8901
  352MPD2    N1 5282   2.111   0.506   1.069  0.5947 -0.5536  0.4712
  352MPD2    H7 5283   2.112   0.591   1.014  1.6176 -0.5278  0.5382
  353TMC3    C1 5284   2.428   0.046   1.454 -0.4703  0.0877  0.5127
  353TMC3    C2 5285   2.567   0.039   1.447  0.4092  0.5549 -0.3156
  353TMC3    C3 5286   2.635   4.643   1.419 -0.2413  0.6074  0.9503
  353TMC3    C4 5287   2.366   4.654   1.416 -0.5883 -0.1455 -0.1635
  353TMC3    C5 5288   2.428   4.536   1.407 -0.3857  0.7266  0.2769
  353TMC3    C6 5289   2.568   4.524   1.411  0.5228  0.1984  0.7148
  353TMC3     C 5290   2.362   0.158   1.386  0.5525 -0.6749  0.1588
  353TMC3     O 5291   2.238   0.173   1.406  0.0135  1.0097 -0.2649
  353TMC3     H 5292   2.617   0.126   1.489  1.1037  0.1292 -0.2652
  353TMC3    H1 5293   2.259   4.666   1.401 -0.4746 -0.9036 -1.5414
  353TMC3    H2 5294   2.609   4.428   1.382 -3.4313 -1.2480 -0.0848
  353TMC3    C7 5295   2.361   4.427   1.346  0.3633 -0.0699  0.4697
  353TMC3    C8 5296   2.776   4.653   1.401  0.3157 -0.9270  0.2016
  353TMC3    O1 5297   2.432   4.351   1.284  0.9713 -0.3255 -0.1069
  353TMC3    O2 5298   2.827   0.038   1.413 -0.2616  0.1356  0.0143
  354TMC3    C1 5299   4.334   1.570  13.541 -0.0891 -0.8054 -0.1372
  354TMC3    C2 5300   4.296   1.666  13.453 -0.2183  0.6452 -0.3099
  354TMC3    C3 5301   4.353   1.678  13.328 -0.4631  1.0040 -0.2834
  354TMC3    C4 5302   4.432   1.484  13.507  0.7132 -0.1399  0.6133
  354TMC3    C5 5303   4.479   1.491  13.381 -0.1357  0.2690  0.2479
  354TMC3    C6 5304   4.449   1.587  13.294 -0.6551 -0.2058  0.1107
  354TMC3     C 5305   4.243   1.538  13.645  0.2407  0.0554 -0.0082
  354TMC3     O 5306   4.128   1.560  13.622  0.3822 -0.1638 -0.7627
  354TMC3     H 5307   4.209   1.718  13.490  1.1092  2.6709 -0.0131
  354TMC3    H1 5308   4.445   1.398  13.571  0.1465 -0.7427 -0.0825
  354TMC3    H2 5309   4.491   1.593  13.194  0.0942 -3.6644  0.2269
  354TMC3    C7 5310   4.553   1.377  13.337 -0.9964  0.6836 -0.0887
  354TMC3    C8 5311   4.293   1.764  13.227  0.1989 -0.2597  0.1269
  354TMC3    O1 5312   4.583   1.288  13.419 -0.2140 -0.3236  0.4994
  354TMC3    O2 5313   4.342   1.748  13.118 -0.1729 -0.7694 -0.3549
  355MPD2     C 5314   4.211   1.944  11.775  0.2773  0.4288 -0.3007
  355MPD2    C1 5315   4.272   2.065  11.739 -0.0702 -0.5811  0.0460
  355MPD2    C2 5316   4.403   2.084  11.765  0.6473 -0.1072 -0.0255
  355MPD2    C3 5317   4.469   1.987  11.844 -0.7496 -0.3586  0.6114
  355MPD2    C4 5318   4.396   1.881  11.894 -0.0964 -0.0575  0.5449
  355MPD2    C5 5319   4.269   1.860  11.860  0.2382 -0.0527 -0.0850
  355MPD2     H 5320   4.460   2.167  11.724  0.4172  0.3292  0.5357
  355MPD2    H1 5321   4.443   1.807  11.958 -1.6714  0.2168  2.0336
  355MPD2    H2 5322   4.113   1.908  11.746 -0.0866  0.7188  0.5539
  355MPD2    H3 5323   4.218   1.767  11.883 -0.7807  0.4831 -0.1610
  355MPD2     N 5324   4.601   1.997  11.878 -0.5350  0.0510 -0.5904
  355MPD2    H5 5325   4.644   1.940  11.951 -2.4757  1.2092  1.4425
  355MPD2    N1 5326   4.194   2.159  11.661 -0.3985 -0.5513  0.1766
  355MPD2    H7 5327   4.099   2.133  11.641 -1.6383  1.4124  3.4204
  356TMC3    C1 5328   0.099   2.083  11.870 -0.4027 -0.2349  0.2405
  356TMC3    C2 5329   0.202   2.122  11.789  0.0478 -0.0615 -0.5806
  356TMC3    C3 5330   0.276   2.230  11.827  0.4052  0.0780 -0.4664
  356TMC3    C4 5331   0.083   2.140  11.994 -0.6872 -0.5097 -0.2656
  356TMC3    C5 5332   0.171   2.232  12.043  0.1458 -0.4068  0.3618
  356TMC3    C6 5333   0.260   2.286  11.954 -0.2794 -0.5640 -0.3316
  356TMC3     C 5334   4.692   2.064  11.804 -0.5881 -0.1891 -1.1581
  356TMC3     O 5335   4.682   2.101  11.690  0.2021  0.0859  0.6331
  356TMC3     H 5336   0.201   2.098  11.683 -0.0626  2.8101 -1.2374
  356TMC3    H1 5337   4.718   2.117  12.053  0.6470 -1.3609  1.3624
  356TMC3    H2 5338   0.327   2.366  11.981  0.7302 -1.2393 -0.8365
  356TMC3    C7 5339   0.157   2.266  12.182 -0.2871 -0.3066  0.3329
  356TMC3    C8 5340   0.315   2.319  11.718  0.1947  0.0043  0.3230
  356TMC3    O1 5341   0.101   2.194  12.252  0.0677  0.4367 -0.0284
  356TMC3    O2 5342   0.310   2.275  11.603 -0.6140 -0.4803 -0.5219
  357MPD2     C 5343   3.996   2.125   0.877  0.4494 -0.3077 -0.0766
  357MPD2    C1 5344   3.964   2.035   0.974  0.1262  0.7652  0.1128
  357MPD2    C2 5345   3.893   2.076   1.087 -0.9015  0.5020 -0.1728
  357MPD2    C3 5346   3.846   2.210   1.105  0.2877  0.5033 -0.6417
  357MPD2    C4 5347   3.889   2.296   1.009  0.4603 -0.3756  0.3331
  357MPD2    C5 5348   3.957   2.252   0.901  0.1270  0.6767  0.1363
  357MPD2     H 5349   3.871   1.999   1.160 -2.0662 -0.6557 -1.7584
  357MPD2    H1 5350   3.874   2.402   1.027  1.2033 -0.3646  0.8984
  357MPD2    H2 5351   4.055   2.097   0.790 -1.6997  2.3949 -2.4340
  357MPD2    H3 5352   3.976   2.327   0.826 -0.4185  1.3992  0.7254
  357MPD2     N 5353   3.766   2.264   1.208  0.3312 -0.3880 -0.0045
  357MPD2    H5 5354   3.759   2.365   1.208  2.5331 -0.2570 -1.1714
  357MPD2    N1 5355   4.021   1.907   0.964  0.0646 -0.2680  0.4214
  357MPD2    H7 5356   4.044   1.887   0.867  0.4343 -0.7608  0.6120
  358TMC3    C1 5357   4.028   1.679   1.009 -0.1142 -0.9035  0.1914
  358TMC3    C2 5358   3.981   1.653   0.882  0.0020 -0.5668  0.0097
  358TMC3    C3 5359   3.977   1.520   0.838  0.0250  0.2499  0.2904
  358TMC3    C4 5360   4.063   1.579   1.097  0.4128  0.5967 -0.1938
  358TMC3    C5 5361   4.053   1.455   1.051  1.0009 -0.5476  0.8791
  358TMC3    C6 5362   3.998   1.420   0.932 -0.1217 -0.0267 -0.6841
  358TMC3     C 5363   4.022   1.816   1.061  0.1029 -0.1424 -0.3598
  358TMC3     O 5364   4.043   1.840   1.180  0.1259 -0.4199  0.0409
  358TMC3     H 5365   3.976   1.733   0.809  1.3450 -0.5215 -0.0231
  358TMC3    H1 5366   4.110   1.612   1.190  1.7381 -2.3280  0.1875
  358TMC3    H2 5367   4.004   1.316   0.901 -1.5273 -0.6893  1.2818
  358TMC3    C7 5368   4.123   1.355   1.128  0.1359  0.2626 -0.1152
  358TMC3    C8 5369   3.876   1.486   0.737 -0.2524 -0.6472 -0.5989
  358TMC3    O1 5370   4.172   1.259   1.071 -0.2399 -0.4076  0.0481
  358TMC3    O2 5371   3.922   1.483   0.621 -0.0093  0.3605  0.2054
  359MPD2     C 5372   3.865   0.877  12.437 -0.0237  0.2005  0.0226
  359MPD2    C1 5373   3.966   0.840  12.348  0.5012  0.3416  0.2971
  359MPD2    C2 5374   4.078   0.776  12.400 -0.1896 -0.1650 -0.4483
  359MPD2    C3 5375   4.095   0.748  12.538  1.2318  0.1740  0.6808
  359MPD2    C4 5376   3.986   0.789  12.621  0.3172  0.1846 -0.6754
  359MPD2    C5 5377   3.880   0.856  12.567  0.5006  0.1347 -0.3986
  359MPD2     H 5378   4.156   0.748  12.331 -0.4560  2.0146 -1.6308
  359MPD2    H1 5379   3.984   0.778  12.728 -1.0568  2.2381 -0.4991
  359MPD2    H2 5380   3.772   0.926  12.408  0.1138 -0.0564 -0.8593
  359MPD2    H3 5381   3.794   0.881  12.628  1.8221 -0.6818  1.8116
  359MPD2     N 5382   4.211   0.687  12.600 -0.0473  0.3189  0.3450
  359MPD2    H5 5383   4.205   0.665  12.699  0.5534  0.8251  0.4911
  359MPD2    N1 5384   3.966   0.872  12.207 -0.4234 -0.3313  0.0221
  359MPD2    H7 5385   4.052   0.841  12.162  0.8903  2.7355  0.4219
  360TMC3    C1 5386   3.881   0.943  11.989  0.1289  0.8606 -0.2425
  360TMC3    C2 5387   4.006   0.973  11.950 -0.1259  0.2480  0.0145
  360TMC3    C3 5388   4.017   1.036  11.827 -0.3571  0.2848 -0.1317
  360TMC3    C4 5389   3.766   0.979  11.928 -0.0405  0.1784  0.1845
  360TMC3    C5 5390   3.780   1.038  11.814  0.5158 -0.5956 -0.7244
  360TMC3    C6 5391   3.904   1.072  11.760 -0.1051  0.6676 -0.4411
  360TMC3     C 5392   3.858   0.915  12.135  0.1385 -0.3095 -0.6767
  360TMC3     O 5393   3.752   0.954  12.175 -0.4508  0.3167 -0.0651
  360TMC3     H 5394   4.093   0.987  12.013 -0.0267  1.7150 -0.4484
  360TMC3    H1 5395   3.674   0.939  11.967 -0.2472 -0.1740 -0.6480
  360TMC3    H2 5396   3.911   1.136  11.673 -0.7571  0.0802 -0.9299
  360TMC3    C7 5397   3.662   1.048  11.725  0.3924 -0.1149  0.1385
  360TMC3    C8 5398   4.128   1.126  11.810 -1.0004 -0.7302 -0.2630
  360TMC3    O1 5399   3.550   1.062  11.769  0.0513  0.4679 -0.4875
  360TMC3    O2 5400   4.105   1.247  11.824 -0.3386 -0.0754  0.3819
  361MPD2     C 5401   1.221   4.664  16.677  0.3622  0.8373 -0.0157
  361MPD2    C1 5402   1.219   4.680  16.811 -0.0188  0.2457  0.8804
  361MPD2    C2 5403   1.324   4.623  16.883 -0.1861 -0.4069  0.3345
  361MPD2    C3 5404   1.432   4.554  16.817  0.4852 -0.2260  0.1493
  361MPD2    C4 5405   1.419   4.528  16.682 -0.2940 -0.0855  0.5964
  361MPD2    C5 5406   1.323   4.596  16.613 -0.9478 -0.2032 -0.6978
  361MPD2     H 5407   1.319   4.628  16.991  0.4303  3.8672  0.1702
  361MPD2    H1 5408   1.496   4.467  16.635 -0.9552 -0.9509  0.6227
  361MPD2    H2 5409   1.144   4.709  16.615  0.3303 -0.5181 -0.9775
  361MPD2    H3 5410   1.321   4.590  16.505 -1.2645  1.7684 -0.8154
  361MPD2     N 5411   1.548   4.483  16.879 -0.2046  0.3824 -0.1507
  361MPD2    H5 5412   1.600   4.418  16.821 -1.3604  0.4263 -1.2328
  361MPD2    N1 5413   1.097   0.014  16.864 -0.4770 -0.2783  0.3511
  361MPD2    H7 5414   1.035   0.047  16.791 -0.1600 -0.4254  0.0137
  362TMC3    C1 5415   0.934   0.046  17.027  0.2506  0.3942 -0.9745
  362TMC3    C2 5416   0.857   4.718  17.131  0.1307 -0.4805 -0.2306
  362TMC3    C3 5417   0.739   0.062  17.168 -0.0794  0.3947 -0.3101
  362TMC3    C4 5418   0.880   0.145  16.943  0.3060  0.6142 -0.2224
  362TMC3    C5 5419   0.765   0.205  16.979  0.0724  0.5556 -0.1955
  362TMC3    C6 5420   0.684   0.164  17.087 -0.0781  0.1338  0.4536
  362TMC3     C 5421   1.066   4.719  16.999 -0.2390  0.1433 -0.4237
  362TMC3     O 5422   1.117   4.651  17.089  0.1398  0.1750  0.7535
  362TMC3     H 5423   0.884   4.630  17.189 -0.9745  0.5297  1.8225
  362TMC3    H1 5424   0.931   0.192  16.860  0.7261 -0.4794 -0.5819
  362TMC3    H2 5425   0.601   0.232  17.105 -0.2145 -0.0165  0.3946
  362TMC3    C7 5426   0.699   0.271  16.870 -0.3463 -0.0010 -0.0967
  362TMC3    C8 5427   0.659   0.002  17.268 -0.3354  0.0181 -0.9412
  362TMC3    O1 5428   0.732   0.384  16.853  0.1290  0.7502  0.8478
  362TMC3    O2 5429   0.681   4.614  17.307 -0.0622  0.6417 -0.0541
  363TMC3    C1 5430   4.231   2.490   9.381 -0.1811 -0.2389  0.6650
  363TMC3    C2 5431   4.245   2.384   9.464 -0.7043  0.1401 -0.2427
  363TMC3    C3 5432   4.141   2.288   9.478 -0.1404 -1.0650  0.0477
  363TMC3    C4 5433   4.131   2.514   9.296  0.1214  0.4194  0.2659
  363TMC3    C5 5434   4.027   2.421   9.312 -0.0814  0.2441 -0.7433
  363TMC3    C6 5435   4.028   2.322   9.400 -0.4546  0.5383  0.6571
  363TMC3     C 5436   4.328   2.598   9.394 -0.6270  0.2616 -0.0955
  363TMC3     O 5437   4.441   2.563   9.439  0.6207  0.5269  0.4515
  363TMC3     H 5438   4.327   2.394   9.535  1.9346  1.6279 -3.4999
  363TMC3    H1 5439   4.126   2.585   9.214 -0.4026  1.5126  1.2570
  363TMC3    H2 5440   3.949   2.248   9.407 -2.2287  2.5410  1.6333
  363TMC3    C7 5441   3.902   2.439   9.243 -0.5026 -0.2896  0.4391
  363TMC3    C8 5442   4.111   2.222   9.608 -0.5111  0.2900 -0.4272
  363TMC3    O1 5443   3.853   2.330   9.223  0.1400 -0.2430  0.5349
  363TMC3    O2 5444   3.995   2.201   9.635 -0.2479  0.6984  0.6015
  364MPD2     C 5445   2.873   2.149  10.527  0.4511  0.9985 -0.5101
  364MPD2    C1 5446   2.993   2.144  10.463  0.3568 -0.3274  0.1577
  364MPD2    C2 5447   3.048   2.013  10.429  0.7024 -0.0348  0.1562
  364MPD2    C3 5448   2.986   1.901  10.485  0.1418 -0.3279 -0.3916
  364MPD2    C4 5449   2.863   1.916  10.559  0.3623  0.9155 -0.1437
  364MPD2    C5 5450   2.813   2.042  10.581 -0.3760 -0.5340  0.2497
  364MPD2     H 5451   3.135   2.002  10.365  1.4710  3.1454  0.6598
  364MPD2    H1 5452   2.799   1.834  10.590  0.7164  0.8489  0.4174
  364MPD2    H2 5453   2.806   2.234  10.533 -1.2166 -0.2677 -1.2362
  364MPD2    H3 5454   2.714   2.052  10.625 -1.3679 -1.4585 -1.7510
  364MPD2     N 5455   3.021   1.770  10.457  0.2747 -0.3760  0.1727
  364MPD2    H5 5456   2.966   1.698  10.504 -1.4923  1.1021  0.3850
  364MPD2    N1 5457   3.056   2.258  10.414  0.7695 -0.1317  0.0387
  364MPD2    H7 5458   3.006   2.346  10.427 -0.7666 -0.6095 -2.8253
  365TMC3    C1 5459   3.212   2.394  10.290 -0.2813 -0.0464  0.3120
  365TMC3    C2 5460   3.254   2.414  10.158 -0.6775  0.6920 -0.1425
  365TMC3    C3 5461   3.347   2.511  10.136  0.3150 -0.3237  0.3967
  365TMC3    C4 5462   3.240   2.481  10.384  0.3896 -0.3219 -0.1583
  365TMC3    C5 5463   3.317   2.586  10.355  0.0339 -0.2255 -0.5472
  365TMC3    C6 5464   3.378   2.595  10.235  0.6293 -0.1802 -0.7185
  365TMC3     C 5465   3.166   2.263  10.332  0.7280  0.2343  1.1742
  365TMC3     O 5466   3.233   2.176  10.278 -0.1938 -0.3686 -0.5289
  365TMC3     H 5467   3.229   2.346  10.078  1.1626  0.8435 -0.8591
  365TMC3    H1 5468   3.215   2.455  10.487  2.1052  1.3538  0.6834
  365TMC3    H2 5469   3.449   2.676  10.219 -0.4668  0.7223 -1.0322
  365TMC3    C7 5470   3.379   2.654  10.472 -0.7403  0.7862  0.6944
  365TMC3    C8 5471   3.466   2.467  10.073 -0.0260  0.1189 -0.0725
  365TMC3    O1 5472   3.456   2.742  10.446  0.9164  0.3786  0.3630
  365TMC3    O2 5473   3.548   2.551  10.040  0.3062 -0.0528 -0.4053
  366MPD2     C 5474   1.810   2.710  15.415 -0.8329 -0.5313  0.3914
  366MPD2    C1 5475   1.760   2.826  15.362  1.0799 -0.1255  0.0259
  366MPD2    C2 5476   1.832   2.903  15.270 -0.0098 -0.1341 -0.9066
  366MPD2    C3 5477   1.962   2.869  15.249  0.4552 -0.1890 -0.2477
  366MPD2    C4 5478   2.015   2.755  15.304  0.3241  0.0846 -0.7043
  366MPD2    C5 5479   1.942   2.677  15.390  0.4686 -0.1317 -0.3590
  366MPD2     H 5480   1.792   2.996  15.231 -2.1500  0.4436  2.6285
  366MPD2    H1 5481   2.118   2.732  15.277  0.3933  1.9922 -2.1134
  366MPD2    H2 5482   1.756   2.652  15.489  1.1109 -1.2516  1.2719
  366MPD2    H3 5483   1.989   2.587  15.429 -1.0254 -1.6942 -2.1509
  366MPD2     N 5484   2.029   2.944  15.156 -0.0705 -0.0617 -0.1525
  366MPD2    H5 5485   1.974   3.016  15.112 -0.8246 -0.6543 -0.1867
  366MPD2    N1 5486   1.632   2.874  15.394  0.2239  0.2684  0.1553
  366MPD2    H7 5487   1.606   2.961  15.348  0.2366  0.7370  1.0224
  367TMC3    C1 5488   1.456   2.919  15.532 -0.6758 -1.3380 -0.0161
  367TMC3    C2 5489   1.451   2.950  15.664 -0.0282 -0.0280 -0.0775
  367TMC3    C3 5490   1.392   3.066  15.700 -0.4193 -0.7013  0.3889
  367TMC3    C4 5491   1.392   3.004  15.445  0.1163  0.8059 -0.2948
  367TMC3    C5 5492   1.317   3.107  15.496 -0.1905  0.0528  0.1608
  367TMC3    C6 5493   1.327   3.142  15.623  0.3849  0.0938 -0.1285
  367TMC3     C 5494   1.557   2.822  15.497 -0.1845  1.1304  0.0882
  367TMC3     O 5495   1.573   2.736  15.581 -0.4944  0.5036  0.2844
  367TMC3     H 5496   1.524   2.899  15.726  1.6591  0.8780 -1.2970
  367TMC3    H1 5497   1.393   2.999  15.336  0.3187 -1.2087 -0.1940
  367TMC3    H2 5498   1.273   3.227  15.664 -0.3947 -0.6750  0.4384
  367TMC3    C7 5499   1.288   3.223  15.414 -0.2390 -0.1877 -1.0456
  367TMC3    C8 5500   1.476   3.134  15.795 -0.1175  0.2684 -0.3409
  367TMC3    O1 5501   1.321   3.326  15.470 -0.1928 -0.7063 -0.2657
  367TMC3    O2 5502   1.563   3.070  15.857  0.1677 -0.5552  0.4004
  368MPD2     C 5503   3.165   0.024  13.546  0.2429  0.0982 -0.0399
  368MPD2    C1 5504   3.201   0.019  13.413 -0.1065 -0.6993  1.1713
  368MPD2    C2 5505   3.333   0.039  13.375  0.4900  0.0379 -0.2433
  368MPD2    C3 5506   3.425   0.085  13.474  0.4027  0.9796  0.5320
  368MPD2    C4 5507   3.380   0.088  13.607  0.7854  0.1013  0.1323
  368MPD2    C5 5508   3.251   0.069  13.645  0.6824 -0.9774  0.5904
  368MPD2     H 5509   3.359   0.028  13.270 -0.1768  0.4310 -0.4506
  368MPD2    H1 5510   3.448   0.117  13.686 -1.4333  0.5142  1.8977
  368MPD2    H2 5511   3.069   0.002  13.591  0.2610 -0.5778 -0.3266
  368MPD2    H3 5512   3.213   0.081  13.746  2.1043 -2.1786  1.2699
  368MPD2     N 5513   3.560   0.115  13.454 -0.0093 -0.7412 -0.3192
  368MPD2    H5 5514   3.604   0.150  13.539  2.0247 -1.9295 -0.8825
  368MPD2    N1 5515   3.095   4.709  13.327  0.3294 -0.1897  0.7125
  368MPD2    H7 5516   3.005   4.708  13.373  0.1090  0.4569  0.2973
  369TMC3    C1 5517   2.959   4.687  13.154  0.6081  0.3477  0.6534
  369TMC3    C2 5518   2.898   0.045  13.061 -0.5804 -0.2446 -0.1014
  369TMC3    C3 5519   2.764   0.057  13.067  0.0360  0.1735 -0.4245
  369TMC3    C4 5520   2.887   4.594  13.222 -0.1038  0.4748 -0.1123
  369TMC3    C5 5521   2.755   4.585  13.197  0.0840 -0.5406  0.0262
  369TMC3    C6 5522   2.691   4.685  13.130  0.1686 -0.0544 -0.0261
  369TMC3     C 5523   3.094   4.705  13.190 -0.5666  0.0944  0.2545
  369TMC3     O 5524   3.175   0.014  13.107 -0.6250  0.3993 -0.0791
  369TMC3     H 5525   2.958   0.114  13.004  0.0674 -0.8794 -0.2025
  369TMC3    H1 5526   2.944   4.531  13.290 -0.0512  1.0088  0.3317
  369TMC3    H2 5527   2.585   4.676  13.111  0.2357  0.2348 -0.5364
  369TMC3    C7 5528   2.676   4.515  13.303 -0.4346  1.2385  0.0069
  369TMC3    C8 5529   2.699   0.166  13.001 -0.6219  0.0789  0.3564
  369TMC3    O1 5530   2.737   4.464  13.399  0.0449  0.4192  0.2820
  369TMC3    O2 5531   2.761   0.206  12.906  0.0779 -0.2521  0.1195
  370TMC3    C1 5532   2.586   0.844  16.438 -0.5487  0.0333 -0.4128
  370TMC3    C2 5533   2.548   0.753  16.531 -0.6997 -0.1411  0.0469
  370TMC3    C3 5534   2.490   0.630  16.475 -0.7021  0.0276  0.6540
  370TMC3    C4 5535   2.610   0.817  16.307 -0.5367 -0.0195 -0.2689
  370TMC3    C5 5536   2.569   0.694  16.269 -0.6360 -0.1911 -0.4921
  370TMC3    C6 5537   2.513   0.596  16.348  0.8377 -0.3550 -0.8734
  370TMC3     C 5538   2.653   0.955  16.495  0.1767  0.3587 -0.0314
  370TMC3     O 5539   2.671   0.944  16.614  0.3006 -0.4489 -0.2969
  370TMC3     H 5540   2.545   0.773  16.637 -0.7924  0.6679 -0.1083
  370TMC3    H1 5541   2.651   0.887  16.235 -0.7304  2.5685  2.1391
  370TMC3    H2 5542   2.469   0.505  16.309  0.0296 -0.5134  0.4148
  370TMC3    C7 5543   2.646   0.645  16.152  0.2846  0.0143  0.0698
  370TMC3    C8 5544   2.450   0.519  16.564 -0.5292 -0.1208 -0.4084
  370TMC3    O1 5545   2.684   0.734  16.078 -0.3480  0.7502 -0.3608
  370TMC3    O2 5546   2.448   0.405  16.519 -0.2558 -0.0519  0.2078
  371TMC3    C1 5547   3.904   3.817  15.882 -0.2819  0.2652 -0.8056
  371TMC3    C2 5548   3.769   3.790  15.886  0.3558 -0.7007 -0.3404
  371TMC3    C3 5549   3.698   3.882  15.816  0.2233  0.5621  0.3478
  371TMC3    C4 5550   3.971   3.925  15.832 -0.2675  0.0340 -0.2730
  371TMC3    C5 5551   3.891   4.015  15.772  0.6204  0.0571  0.3628
  371TMC3    C6 5552   3.755   3.987  15.751  0.6150 -0.1118 -0.5774
  371TMC3     C 5553   3.998   3.710  15.917  0.5096  0.2415 -0.3775
  371TMC3     O 5554   4.119   3.738  15.925 -0.7722 -0.0913  0.0749
  371TMC3     H 5555   3.725   3.707  15.939  0.1288  0.5012  1.3325
  371TMC3    H1 5556   4.079   3.935  15.838  0.1151 -4.1018 -0.6801
  371TMC3    H2 5557   3.696   4.053  15.688  0.0692  0.8986  0.9725
  371TMC3    C7 5558   3.946   4.137  15.716  0.0602 -0.1859  0.0817
  371TMC3    C8 5559   3.558   3.872  15.820 -0.3746 -0.0083 -0.7199
  371TMC3    O1 5560   3.866   4.218  15.672 -0.3245  0.3003  0.1841
  371TMC3    O2 5561   3.519   3.759  15.821  0.3812 -0.4505 -0.0906
  372MPD2     C 5562   2.762   0.188  13.386 -0.8472 -0.0284  0.5386
  372MPD2    C1 5563   2.878   0.216  13.458  0.2011 -0.0606  0.0255
  372MPD2    C2 5564   2.888   0.161  13.589  0.1358 -0.3836 -0.2870
  372MPD2    C3 5565   2.783   0.088  13.640  0.2840  0.8348  0.7908
  372MPD2    C4 5566   2.673   0.057  13.561  0.5891 -0.2528  0.4221
  372MPD2    C5 5567   2.661   0.120  13.436 -0.1038 -0.4439  0.0072
  372MPD2     H 5568   2.968   0.181  13.659 -0.9317  0.1711  0.7744
  372MPD2    H1 5569   2.579   0.009  13.584  0.3954 -0.9876 -1.8493
  372MPD2    H2 5570   2.742   0.239  13.293  2.3253 -2.0345 -1.2814
  372MPD2    H3 5571   2.568   0.119  13.380 -0.9018 -0.1614  1.3219
  372MPD2     N 5572   2.798   0.033  13.770 -0.9599 -0.3254  0.1442
  372MPD2    H5 5573   2.878   0.059  13.826  0.2301 -1.6424 -0.9507
  372MPD2    N1 5574   2.982   0.286  13.400 -0.1771  0.2846  0.1712
  372MPD2    H7 5575   3.063   0.286  13.461 -0.0795 -0.2842  0.0427
  373TMC3    C1 5576   2.752   4.639  13.960  0.0179 -0.0811 -0.0271
  373TMC3    C2 5577   2.726   4.705  14.081  0.2404 -0.3956 -0.7444
  373TMC3    C3 5578   2.816   4.701  14.179  0.2726 -0.0871  0.7423
  373TMC3    C4 5579   2.859   4.549  13.953 -0.4243  0.5105  0.0408
  373TMC3    C5 5580   2.940   4.542  14.061  0.2049  0.3655  0.2322
  373TMC3    C6 5581   2.927   4.614  14.175 -0.4216 -0.1751  0.8797
  373TMC3     C 5582   2.705   4.685  13.837 -1.1364 -0.6269 -0.5406
  373TMC3     O 5583   2.595   4.644  13.805  0.5409  0.1534 -0.7373
  373TMC3     H 5584   2.643   0.052  14.084  1.5049  0.9955  1.0473
  373TMC3    H1 5585   2.880   4.511  13.854  1.9032  2.6577 -0.2699
  373TMC3    H2 5586   3.016   4.630  14.235 -0.5074 -0.0283  0.9680
  373TMC3    C7 5587   3.068   4.484  14.032  0.1594  0.0360 -0.0827
  373TMC3    C8 5588   2.876   0.107  14.228  0.6412  0.6100  0.0461
  373TMC3    O1 5589   3.078   4.441  13.915  0.1014 -0.3269 -0.0423
  373TMC3    O2 5590   2.991   0.134  14.241  0.5038  0.4937 -0.3210
  374TMC3    C1 5591   3.261   4.530   9.657  0.2076 -0.5452 -0.8796
  374TMC3    C2 5592   3.347   4.636   9.687 -0.4890 -0.4702  0.3606
  374TMC3    C3 5593   3.351   0.012   9.599  0.3670  0.4283 -0.1774
  374TMC3    C4 5594   3.198   4.517   9.543 -0.0598 -0.0514  0.1287
  374TMC3    C5 5595   3.207   4.625   9.461  0.6532  0.1090 -0.0642
  374TMC3    C6 5596   3.277   0.009   9.484 -0.0584  0.2469  0.5269
  374TMC3     C 5597   3.279   4.410   9.735  0.0825  0.5010 -0.3501
  374TMC3     O 5598   3.397   4.400   9.780  0.5057 -0.3415  0.1263
  374TMC3     H 5599   3.391   4.644   9.786 -0.8694 -1.3281  0.6039
  374TMC3    H1 5600   3.169   4.416   9.515 -2.1451  1.0483 -1.6440
  374TMC3    H2 5601   3.273   0.085   9.407 -0.9494  0.0519  0.3819
  374TMC3    C7 5602   3.116   4.630   9.350 -0.6090  0.3064  0.6014
  374TMC3    C8 5603   3.433   0.130   9.620 -0.1564  0.1835  0.1955
  374TMC3    O1 5604   3.127   4.717   9.264  0.0311  0.1553  0.4762
  374TMC3    O2 5605   3.419   0.225   9.543 -0.6292 -0.3216 -0.1868
  375MPD2     C 5606   3.874   1.843  16.944  0.2172  0.1078 -0.4581
  375MPD2    C1 5607   3.817   1.713  16.943 -0.3651 -0.6250 -0.2327
  375MPD2    C2 5608   3.869   1.611  16.874 -0.3198 -0.5532  0.4310
  375MPD2    C3 5609   3.990   1.622  16.813 -0.2871  0.4250 -0.5783
  375MPD2    C4 5610   4.055   1.744  16.813 -0.1420 -0.1590 -0.4833
  375MPD2    C5 5611   3.990   1.855  16.871  0.6401 -0.9888 -0.3627
  375MPD2     H 5612   3.813   1.518  16.875  0.4390 -1.0205 -1.4073
  375MPD2    H1 5613   4.155   1.767  16.778 -0.2231  0.8027 -0.0820
  375MPD2    H2 5614   3.831   1.935  16.981  1.1895  0.6049 -0.5679
  375MPD2    H3 5615   4.049   1.945  16.865  0.2519 -0.7170 -0.1679
  375MPD2     N 5616   4.057   1.506  16.755  0.2155 -0.4488 -0.1004
  375MPD2    H5 5617   4.001   1.422  16.744 -0.6581  0.1966 -0.6023
  375MPD2    N1 5618   3.701   1.683  17.016 -0.3441  0.0795  0.1756
  375MPD2    H7 5619   3.656   1.591  17.014 -2.0978  0.9472 -0.3611
  376TMC3    C1 5620   4.234   1.363  16.673 -0.1301 -0.2018 -0.2207
  376TMC3    C2 5621   4.360   1.324  16.694  0.3616 -0.8036  0.1426
  376TMC3    C3 5622   4.405   1.200  16.658  0.3798  0.1993  0.1921
  376TMC3    C4 5623   4.141   1.280  16.612 -0.7700 -0.8792 -0.4625
  376TMC3    C5 5624   4.180   1.154  16.570 -0.4918  0.4877 -0.0221
  376TMC3    C6 5625   4.309   1.113  16.599  1.2640 -0.5271  0.1200
  376TMC3     C 5626   4.193   1.498  16.717 -0.3316  0.5226 -0.2247
  376TMC3     O 5627   4.287   1.571  16.752  0.2947 -0.5757  0.4505
  376TMC3     H 5628   4.437   1.388  16.737  0.8357 -2.4650  1.7659
  376TMC3    H1 5629   4.037   1.304  16.596 -0.3656  0.4873 -1.0865
  376TMC3    H2 5630   4.353   1.027  16.551  3.3923 -0.2307  1.5069
  376TMC3    C7 5631   4.126   1.111  16.442 -0.7524 -0.3197  0.5822
  376TMC3    C8 5632   4.542   1.186  16.621  0.1324  0.3683 -0.2949
  376TMC3    O1 5633   4.074   1.194  16.371  0.0063 -0.3959  0.3381
  376TMC3    O2 5634   4.612   1.288  16.608 -0.0237 -0.2282 -0.1650
  377MPD2     C 5635   1.721   1.037  12.598 -0.1407  0.1461 -0.3717
  377MPD2    C1 5636   1.772   0.921  12.646 -0.1368  0.8593  0.9601
  377MPD2    C2 5637   1.763   0.891  12.782  0.4174 -0.3900 -0.2355
  377MPD2    C3 5638   1.693   0.970  12.873 -0.6075 -0.1585 -0.0639
  377MPD2    C4 5639   1.645   1.087  12.818 -0.1637 -0.5270 -0.7151
  377MPD2    C5 5640   1.658   1.120  12.686 -0.7195 -0.5241 -0.4926
  377MPD2     H 5641   1.815   0.804  12.821 -0.3843 -0.3177  1.0061
  377MPD2    H1 5642   1.595   1.160  12.881  0.6233 -1.0703  0.5419
  377MPD2    H2 5643   1.719   1.065  12.493  0.0655  3.4677  0.5172
  377MPD2    H3 5644   1.603   1.202  12.642 -1.2712  0.0367  1.2660
  377MPD2     N 5645   1.672   0.947  13.012  0.0443  0.0968  0.5826
  377MPD2    H5 5646   1.614   1.020  13.053 -0.7166 -1.5774  2.4973
  377MPD2    N1 5647   1.839   0.835  12.550  0.0449  0.3310 -0.2969
  377MPD2    H7 5648   1.837   0.859  12.452  0.4186 -0.5596 -0.5244
  378TMC3    C1 5649   1.969   0.592  12.244 -0.7650 -0.0472 -0.2591
  378TMC3    C2 5650   1.904   0.652  12.349  0.6856  0.0109  0.0977
  378TMC3    C3 5651   1.978   0.664  12.465 -0.4025  0.5863 -0.3756
  378TMC3    C4 5652   2.082   0.515  12.259 -0.2422 -0.0510  0.0211
  378TMC3    C5 5653   2.144   0.520  12.383 -0.2927 -0.0791  0.5869
  378TMC3    C6 5654   2.098   0.595  12.484  0.2103 -0.2482  0.0055
  378TMC3     C 5655   1.893   0.582  12.119  0.0526  0.1416 -0.6984
  378TMC3     O 5656   1.775   0.616  12.130  0.9866 -0.2024 -0.1268
  378TMC3     H 5657   1.800   0.682  12.353  0.8435  0.4405  0.9663
  378TMC3    H1 5658   2.108   0.433  12.194  0.0335 -1.5993  2.0856
  378TMC3    H2 5659   2.160   0.595  12.573 -1.3022  1.3204  1.0561
  378TMC3    C7 5660   2.279   0.470  12.386 -0.1716 -0.4370  0.4363
  378TMC3    C8 5661   1.923   0.730  12.586 -0.6762 -0.2331  0.1588
  378TMC3    O1 5662   2.320   0.446  12.499  0.5878 -0.8152  0.0683
  378TMC3    O2 5663   1.980   0.699  12.693 -0.1822  0.8396  0.5512
  379MPD2     C 5664   2.331   3.474  16.643 -0.5757  0.4485  0.3182
  379MPD2    C1 5665   2.377   3.383  16.547 -0.5633  0.1718 -0.0993
  379MPD2    C2 5666   2.474   3.291  16.585  0.2497  0.7517 -1.1212
  379MPD2    C3 5667   2.517   3.292  16.719  0.6932 -0.4898 -0.1462
  379MPD2    C4 5668   2.463   3.381  16.812 -0.0113 -0.5167  0.1779
  379MPD2    C5 5669   2.378   3.474  16.768 -0.0825  0.0985 -0.9817
  379MPD2     H 5670   2.522   3.221  16.518 -0.6356  0.0790 -1.0495
  379MPD2    H1 5671   2.512   3.389  16.908  1.1850 -1.3486 -0.3579
  379MPD2    H2 5672   2.257   3.549  16.619 -0.7845  1.1816  3.3175
  379MPD2    H3 5673   2.332   3.545  16.836 -0.0856 -0.2729 -0.5971
  379MPD2     N 5674   2.618   3.207  16.769 -0.5816 -0.2995 -0.4329
  379MPD2    H5 5675   2.647   3.228  16.864 -0.5042 -0.1304 -0.4934
  379MPD2    N1 5676   2.328   3.403  16.417 -0.1420  0.0058  0.0041
  379MPD2    H7 5677   2.254   3.472  16.409 -0.7969 -0.7199 -0.2459
  380TMC3    C1 5678   2.293   3.372  16.187 -0.4330  0.1417  0.2658
  380TMC3    C2 5679   2.308   3.284  16.081 -0.3698 -0.3704 -0.7396
  380TMC3    C3 5680   2.231   3.288  15.971 -0.3939  0.0420  0.2023
  380TMC3    C4 5681   2.172   3.440  16.186 -0.0868 -0.5614 -0.5755
  380TMC3    C5 5682   2.090   3.438  16.079 -0.1927  0.5624 -1.2414
  380TMC3    C6 5683   2.120   3.368  15.971  0.0983 -0.4960  0.0743
  380TMC3     C 5684   2.360   3.326  16.312 -0.1834  0.3724 -0.5979
  380TMC3     O 5685   2.432   3.226  16.306  0.0081  0.3862  0.5091
  380TMC3     H 5686   2.404   3.234  16.075 -0.0406 -0.0848  2.1620
  380TMC3    H1 5687   2.148   3.502  16.271 -0.2030  0.5020 -1.3754
  380TMC3    H2 5688   2.055   3.382  15.885  1.2186 -1.5228 -0.9322
  380TMC3    C7 5689   1.953   3.478  16.093 -0.0332 -0.2238 -0.3547
  380TMC3    C8 5690   2.300   3.310  15.845 -0.0387  0.5771  0.3135
  380TMC3    O1 5691   1.925   3.569  16.173 -0.0318 -0.8830 -0.0538
  380TMC3    O2 5692   2.259   3.393  15.771  0.1093 -0.1739  0.4799
  381TMC3    C1 5693   2.374   0.171  16.302 -0.4424  0.1341 -0.1611
  381TMC3    C2 5694   2.507   0.127  16.285 -0.0509  0.0364 -0.1731
  381TMC3    C3 5695   2.559   0.048  16.383  0.2765 -0.4345 -0.0459
  381TMC3    C4 5696   2.305   0.150  16.417 -0.0135  0.5307  0.6944
  381TMC3    C5 5697   2.359   0.071  16.512  0.4897  0.5115 -0.1382
  381TMC3    C6 5698   2.485   0.019  16.493 -0.2659  0.1455  0.5778
  381TMC3     C 5699   2.316   0.247  16.192  0.2874  0.1801 -0.0343
  381TMC3     O 5700   2.387   0.318  16.128 -0.3903  0.0987  0.0720
  381TMC3     H 5701   2.558   0.158  16.194 -1.1532  2.4760  0.0159
  381TMC3    H1 5702   2.207   0.195  16.429  0.5496  1.7723  0.5819
  381TMC3    H2 5703   2.538   4.693  16.574  0.0493  0.1655  0.3839
  381TMC3    C7 5704   2.283   0.017  16.624  1.2158 -0.0546 -0.2369
  381TMC3    C8 5705   2.689   0.103  16.402  0.1982 -0.3866  0.1855
  381TMC3    O1 5706   2.320   4.629  16.661  0.0213  0.0474  0.5734
  381TMC3    O2 5707   2.757   0.089  16.303  0.0804  0.5423 -0.7591
  382MPD2     C 5708   1.480   2.228  17.350  0.3825  0.2691  0.9001
  382MPD2    C1 5709   1.407   2.221  17.466  0.1510  0.5315 -0.2587
  382MPD2    C2 5710   1.372   2.099  17.523  0.7965  0.4751 -0.3092
  382MPD2    C3 5711   1.398   1.981  17.454 -0.9242 -0.2700  0.4533
  382MPD2    C4 5712   1.462   1.990  17.336 -0.0855  0.0022 -0.7009
  382MPD2    C5 5713   1.499   2.113  17.281  0.1340 -0.2595 -0.0536
  382MPD2     H 5714   1.316   2.104  17.616  0.7582 -2.4932 -0.1859
  382MPD2    H1 5715   1.489   1.907  17.272  1.7254 -0.2581  0.4148
  382MPD2    H2 5716   1.510   2.320  17.301 -1.5725  0.4473  0.0404
  382MPD2    H3 5717   1.551   2.117  17.186  0.1954  0.2420  0.0016
  382MPD2     N 5718   1.346   1.856  17.495 -0.4423 -0.7085 -0.1270
  382MPD2    H5 5719   1.343   1.780  17.428  0.3936  0.0595 -1.0235
  382MPD2    N1 5720   1.363   2.342  17.510  0.1581  0.1159 -0.0251
  382MPD2    H7 5721   1.407   2.420  17.462  1.0473 -1.3705 -1.6218
  383TMC3    C1 5722   1.265   1.693  17.643 -0.3509  0.2091  0.4790
  383TMC3    C2 5723   1.201   1.630  17.534 -0.1449 -0.4390 -0.0144
  383TMC3    C3 5724   1.186   1.494  17.532  0.0223 -0.1616 -0.0498
  383TMC3    C4 5725   1.295   1.619   0.058 -0.3654 -0.1548  0.7147
  383TMC3    C5 5726   1.281   1.482   0.049 -0.2525  0.3025 -0.0824
  383TMC3    C6 5727   1.225   1.413  17.639  0.1453  0.4519  0.2713
  383TMC3     C 5728   1.308   1.830  17.628 -0.9579  0.0599  0.4663
  383TMC3     O 5729   1.324   1.900   0.037 -0.1003 -0.0130 -0.1892
  383TMC3     H 5730   1.171   1.694  17.453 -2.5077 -0.4144  0.8872
  383TMC3    H1 5731   1.370   1.669   0.118 -0.5518 -0.4500  1.1881
  383TMC3    H2 5732   1.218   1.305  17.645  1.1051  0.5050  2.3489
  383TMC3    C7 5733   1.303   1.408   0.164 -0.6202 -0.4815 -0.3347
  383TMC3    C8 5734   1.114   1.435  17.425 -0.3400 -0.3934  0.8713
  383TMC3    O1 5735   1.319   1.287   0.150 -0.1412 -0.2091  0.5300
  383TMC3    O2 5736   1.044   1.506  17.354 -0.0254 -0.2890  0.2274
  384MPD2     C 5737   3.072   3.499  11.952  0.6305  0.1801 -0.1507
  384MPD2    C1 5738   3.094   3.468  12.085 -0.1290  0.0314  0.7074
  384MPD2    C2 5739   3.179   3.370  12.125  0.1856  0.0945  0.4931
  384MPD2    C3 5740   3.248   3.297  12.027  0.1964  0.5743  0.0088
  384MPD2    C4 5741   3.243   3.334  11.896 -0.2329  0.2940  0.0182
  384MPD2    C5 5742   3.160   3.444  11.863 -0.0868  0.1827  0.2145
  384MPD2     H 5743   3.182   3.345  12.230  1.7080  1.0337  0.6802
  384MPD2    H1 5744   3.291   3.272  11.821 -1.5943 -2.9731  1.8436
  384MPD2    H2 5745   2.997   3.571  11.921  0.3282  0.0730  0.3342
  384MPD2    H3 5746   3.126   3.454  11.760  0.2098 -1.9496 -0.0944
  384MPD2     N 5747   3.320   3.176  12.063  0.7389  0.5944  0.0781
  384MPD2    H5 5748   3.386   3.137  11.997 -1.5361 -1.9165 -0.7398
  384MPD2    N1 5749   3.015   3.530  12.190 -0.1433 -0.4062 -0.1078
  384MPD2    H7 5750   3.042   3.500  12.283 -2.3310 -1.2904  0.2377
  385TMC3    C1 5751   3.417   3.020  12.226  0.4582 -0.3022  0.4359
  385TMC3    C2 5752   3.423   2.899  12.159 -0.7496 -0.1856  0.2229
  385TMC3    C3 5753   3.414   2.785  12.236 -0.0408 -0.5854 -0.1132
  385TMC3    C4 5754   3.420   3.021  12.364 -0.6208  0.2462  0.6732
  385TMC3    C5 5755   3.403   2.910  12.433 -0.1702  0.4507  0.8163
  385TMC3    C6 5756   3.399   2.787  12.370  0.5715  0.0967  0.1062
  385TMC3     C 5757   3.319   3.120  12.194  0.5854 -0.2718  0.0873
  385TMC3     O 5758   3.221   3.111  12.270  0.0925 -0.2249 -0.7555
  385TMC3     H 5759   3.434   2.890  12.052 -0.8341  0.1237  0.1886
  385TMC3    H1 5760   3.429   3.121  12.406  0.5158 -0.4285  2.0587
  385TMC3    H2 5761   3.375   2.699  12.429 -0.7647 -1.4139 -2.7214
  385TMC3    C7 5762   3.342   2.925  12.565  0.0872 -0.0812 -0.1821
  385TMC3    C8 5763   3.453   2.653  12.191 -0.4691 -0.4568  0.0672
  385TMC3    O1 5764   3.357   2.845  12.656  0.2051  0.5793 -0.7878
  385TMC3    O2 5765   3.486   2.571  12.283  0.2910  0.0265 -0.3968
  386TMC3    C1 5766   3.476   0.684  11.839 -0.2687  0.1788 -0.4011
  386TMC3    C2 5767   3.499   0.691  11.707 -0.2539  0.0068  0.3306
  386TMC3    C3 5768   3.393   0.727  11.626  0.0194  0.5706 -0.3095
  386TMC3    C4 5769   3.354   0.716  11.888 -0.0649 -0.4793 -0.5691
  386TMC3    C5 5770   3.253   0.749  11.804  0.4117  0.0086 -0.4530
  386TMC3    C6 5771   3.263   0.751  11.672 -0.2691  0.6190 -0.3028
  386TMC3     C 5772   3.577   0.658  11.942  0.6516  0.7145 -0.3852
  386TMC3     O 5773   3.577   0.725  12.044  0.5022  0.6312 -0.3523
  386TMC3     H 5774   3.599   0.666  11.673 -1.2084 -2.7079 -0.5084
  386TMC3    H1 5775   3.342   0.705  11.995  0.2569  0.0596 -0.4796
  386TMC3    H2 5776   3.183   0.769  11.600  0.0888 -0.2828 -0.9322
  386TMC3    C7 5777   3.121   0.715  11.866  0.1076  0.1324  0.6810
  386TMC3    C8 5778   3.396   0.670  11.484  0.4528 -0.2579 -0.0808
  386TMC3    O1 5779   3.128   0.661  11.976  0.4905  0.0139 -0.3574
  386TMC3    O2 5780   3.292   0.674  11.420  0.2040  0.2705 -0.2080
  387MPD2     C 5781   0.753   0.913  10.129 -0.4898 -0.4315 -0.8038
  387MPD2    C1 5782   0.875   0.886  10.191  1.2264 -0.1483 -0.5348
  387MPD2    C2 5783   0.909   0.756  10.212 -0.0803  0.2103 -0.3046
  387MPD2    C3 5784   0.836   0.651  10.167 -1.2091 -0.1509  0.5637
  387MPD2    C4 5785   0.712   0.680  10.111 -0.3537 -0.3251 -0.0146
  387MPD2    C5 5786   0.673   0.808  10.093 -0.3348  0.6754 -0.0428
  387MPD2     H 5787   1.002   0.746  10.266 -1.5459 -0.0419  2.1681
  387MPD2    H1 5788   0.644   0.605  10.071 -1.1694 -0.1212  0.9912
  387MPD2    H2 5789   0.716   1.015  10.119  0.8421  0.1482  0.1575
  387MPD2    H3 5790   0.581   0.832  10.041 -0.8145  0.1387  0.5641
  387MPD2     N 5791   0.894   0.520  10.173  0.0855  0.3337 -1.0384
  387MPD2    H5 5792   0.982   0.507  10.222 -0.8721 -0.6318  0.4192
  387MPD2    N1 5793   0.981   0.974  10.214 -0.2401 -0.1449 -0.6095
  387MPD2    H7 5794   1.060   0.926  10.255 -0.3340 -0.6302 -0.9837
  388TMC3    C1 5795   1.128   1.141  10.145  0.2215 -0.8132 -0.0609
  388TMC3    C2 5796   1.140   1.265  10.091 -0.3882 -0.1497  0.4376
  388TMC3    C3 5797   1.203   1.274   9.972 -0.4070  0.3436  0.3198
  388TMC3    C4 5798   1.214   1.040  10.109 -0.3606 -0.0016  0.3127
  388TMC3    C5 5799   1.288   1.061   9.998 -0.1868  0.2954 -0.4770
  388TMC3    C6 5800   1.295   1.175   9.927  0.9809 -0.2476 -0.0748
  388TMC3     C 5801   0.991   1.104  10.169 -0.2586  0.6054  0.1668
  388TMC3     O 5802   0.914   1.182  10.117 -0.1012 -0.0754 -0.1506
  388TMC3     H 5803   1.057   1.331  10.113 -0.1176 -0.8557  3.5780
  388TMC3    H1 5804   1.212   0.944  10.160 -2.5648 -0.9549 -1.5760
  388TMC3    H2 5805   1.362   1.182   9.843  1.3059 -0.4847  0.1646
  388TMC3    C7 5806   1.370   0.949   9.945  1.0583 -0.4785 -0.2608
  388TMC3    C8 5807   1.177   1.394   9.904  0.0972 -0.6752  0.0464
  388TMC3    O1 5808   1.418   0.962   9.834 -0.0346 -0.1326 -0.1455
  388TMC3    O2 5809   1.085   1.469   9.937 -0.3004  0.4312 -0.1652
  389MPD2     C 5810   0.097   3.202  10.101 -0.7759 -0.2985  0.7708
  389MPD2    C1 5811   0.208   3.168  10.177  0.5555  0.7057  0.2881
  389MPD2    C2 5812   0.199   3.083  10.284  0.1587 -0.2752  0.0754
  389MPD2    C3 5813   0.083   3.012  10.307 -0.1743  0.1265 -0.1970
  389MPD2    C4 5814   4.694   3.045  10.226 -0.8968  0.5300  0.5089
  389MPD2    C5 5815   4.700   3.141  10.130 -0.6586  0.3000 -0.4921
  389MPD2     H 5816   0.288   3.058  10.340  1.1957  0.6677 -1.1621
  389MPD2    H1 5817   4.595   3.002  10.243 -0.3875 -1.5259 -1.6690
  389MPD2    H2 5818   0.092   3.290  10.038 -2.5247 -1.4795 -0.7336
  389MPD2    H3 5819   4.609   3.175  10.083  0.1434  0.4765 -1.9094
  389MPD2     N 5820   0.077   2.926  10.414  0.3246  0.1179 -0.0703
  389MPD2    H5 5821   0.156   2.929  10.478  0.7616  0.0557 -0.6003
  389MPD2    N1 5822   0.322   3.239  10.144  0.4071 -0.0323  0.2064
  389MPD2    H7 5823   0.314   3.298  10.062  3.5537 -0.5732 -0.5014
  390TMC3    C1 5824   4.718   2.782  10.567  0.0434  0.3110 -0.1669
  390TMC3    C2 5825   4.606   2.770  10.646 -0.4687  0.6191  0.9596
  390TMC3    C3 5826   4.623   2.749  10.779  0.1194 -0.9983  0.1611
  390TMC3    C4 5827   0.119   2.775  10.616 -0.6734  0.1603  0.1927
  390TMC3    C5 5828   0.130   2.765  10.754  0.8049  0.3210 -0.2032
  390TMC3    C6 5829   0.022   2.754  10.839 -0.2384  0.0215  0.2026
  390TMC3     C 5830   4.689   2.842  10.446  0.0165 -0.6374  0.1527
  390TMC3     O 5831   4.590   2.810  10.381  0.6173  0.4225 -0.6593
  390TMC3     H 5832   4.508   2.772  10.599  0.4870  1.5794 -0.9803
  390TMC3    H1 5833   0.201   2.741  10.554 -0.9969  0.6354 -0.5041
  390TMC3    H2 5834   0.027   2.735  10.946  1.3138  2.9621  0.6383
  390TMC3    C7 5835   0.253   2.812  10.806  0.5457  0.4029  0.6071
  390TMC3    C8 5836   4.501   2.736  10.860  0.1207  0.5069  0.3730
  390TMC3    O1 5837   0.339   2.847  10.733  0.5699 -0.2483 -0.1958
  390TMC3    O2 5838   4.413   2.654  10.837  0.4339 -0.1834  0.3309
  391MPD2     C 5839   3.944   4.532  11.086  0.4052  0.3125 -0.8349
  391MPD2    C1 5840   4.004   4.655  11.067  0.2988  0.3247  0.4463
  391MPD2    C2 5841   4.019   4.701  10.936 -0.1039 -0.6041 -0.7233
  391MPD2    C3 5842   3.966   4.638  10.824  0.3451  0.4359 -0.1274
  391MPD2    C4 5843   3.921   4.506  10.839 -0.1203 -0.5309  0.0543
  391MPD2    C5 5844   3.910   4.464  10.967 -0.1724  0.3497  0.3123
  391MPD2     H 5845   4.082   0.065  10.919 -1.3209  0.5046  0.4341
  391MPD2    H1 5846   3.891   4.437  10.761 -0.0524 -0.9069  0.3581
  391MPD2    H2 5847   3.932   4.486  11.184  1.1663  0.7830 -0.5208
  391MPD2    H3 5848   3.864   4.365  10.971  0.4548  0.0945  1.2871
  391MPD2     N 5849   3.995   4.700  10.701  0.9611 -0.6815 -0.4008
  391MPD2    H5 5850   4.044   0.065  10.709  1.5502 -1.3207  3.0140
  391MPD2    N1 5851   4.046   0.002  11.182  0.0832 -0.2785  0.4784
  391MPD2    H7 5852   4.055   4.663  11.262 -0.4669  2.8181  2.9648
  392TMC3    C1 5853   3.974   0.029  10.475  0.4138 -0.6642  0.1134
  392TMC3    C2 5854   3.900   0.014  10.360  0.6213  0.2607  0.3227
  392TMC3    C3 5855   3.929   0.103  10.264  0.4636  0.8419  0.3139
  392TMC3    C4 5856   4.065   0.134  10.495 -0.2138 -0.6935 -0.1023
  392TMC3    C5 5857   4.087   0.214  10.384 -0.3568 -0.1208  1.0534
  392TMC3    C6 5858   4.015   0.209  10.272  0.5167  0.0821 -0.0034
  392TMC3     C 5859   3.950   4.653  10.575  0.0353 -0.5443 -0.2349
  392TMC3     O 5860   3.878   4.556  10.544 -1.0221  0.2325  0.8339
  392TMC3     H 5861   3.828   4.657  10.347 -0.5223  0.8645  2.8718
  392TMC3    H1 5862   4.127   0.156  10.581 -2.3792 -1.9453  1.7496
  392TMC3    H2 5863   4.036   0.267  10.182 -1.8692  0.8495 -0.0604
  392TMC3    C7 5864   4.222   0.283  10.388 -0.2841 -0.6607 -0.5642
  392TMC3    C8 5865   3.830   0.095  10.151  0.0100 -0.8224  0.1511
  392TMC3    O1 5866   4.282   0.301  10.496 -0.5882 -0.7198  0.3285
  392TMC3    O2 5867   3.755   4.723  10.141  0.5155  0.8163 -0.2157
  393TMC3    C1 5868   3.113   2.936  10.676 -0.3934  0.7904 -1.2235
  393TMC3    C2 5869   3.047   2.901  10.789 -0.3252  0.0535 -0.2343
  393TMC3    C3 5870   3.113   2.911  10.907 -0.3538  0.4472  0.0579
  393TMC3    C4 5871   3.231   3.009  10.689 -0.5026  0.3973 -0.6372
  393TMC3    C5 5872   3.306   3.010  10.805 -0.6907  0.1596 -0.2242
  393TMC3    C6 5873   3.239   2.971  10.922 -0.5413 -0.2898  0.2628
  393TMC3     C 5874   3.078   2.896  10.543  0.2186 -0.7209  0.3594
  393TMC3     O 5875   3.143   2.937  10.447 -0.1143  0.3557 -0.0626
  393TMC3     H 5876   2.948   2.856  10.797  1.0726 -2.6504  2.0038
  393TMC3    H1 5877   3.262   3.051  10.594 -1.8001  0.9621 -0.8085
  393TMC3    H2 5878   3.302   2.962  11.009  0.5953 -2.0954 -0.7448
  393TMC3    C7 5879   3.441   3.060  10.809 -0.3193  0.5592 -0.7226
  393TMC3    C8 5880   3.059   2.835  11.020 -0.0702 -0.3898 -0.2593
  393TMC3    O1 5881   3.477   3.119  10.913 -0.3455  0.1030 -0.1534
  393TMC3    O2 5882   2.966   2.758  10.997 -0.0839  0.2470 -0.3068
  394TMC3    C1 5883   0.540   3.316  10.148 -0.6151 -0.9924  0.8879
  394TMC3    C2 5884   0.519   3.329  10.015 -0.4357  0.3031  0.7532
  394TMC3    C3 5885   0.541   3.448   9.949  0.4122 -0.1038  0.0691
  394TMC3    C4 5886   0.599   3.412  10.225 -0.3084 -0.6208 -0.7601
  394TMC3    C5 5887   0.619   3.534  10.154 -0.1177  0.1153 -1.0727
  394TMC3    C6 5888   0.591   3.552  10.020  0.3313  0.3914  0.9360
  394TMC3     C 5889   0.436   3.249  10.215 -0.4159  0.4179 -0.5048
  394TMC3     O 5890   0.459   3.209  10.329 -0.3457 -0.5553 -0.0420
  394TMC3     H 5891   0.492   3.241   9.958 -1.4796  0.3117  1.2212
  394TMC3    H1 5892   0.591   3.400  10.332  2.6388 -0.1583 -0.5072
  394TMC3    H2 5893   0.622   3.642   9.970 -1.1595  0.5731  0.3227
  394TMC3    C7 5894   0.714   3.620  10.212 -0.4806 -0.5130  0.0651
  394TMC3    C8 5895   0.425   3.487   9.866  0.1041  0.0115 -0.3495
  394TMC3    O1 5896   0.749   3.725  10.156  0.8964 -0.1751 -0.0554
  394TMC3    O2 5897   0.404   3.610   9.857  0.1256  0.2251 -0.2670
  395TMC3    C1 5898   4.545   0.926  14.043  0.1877 -0.5964  0.0501
  395TMC3    C2 5899   4.424   0.922  13.982  0.7715  0.2595  0.5535
  395TMC3    C3 5900   4.374   1.043  13.942  1.2599 -0.0444  0.0506
  395TMC3    C4 5901   4.609   1.043  14.072 -0.9323  0.7122  0.3413
  395TMC3    C5 5902   4.555   1.157  14.032 -0.1549  0.0174 -0.9125
  395TMC3    C6 5903   4.446   1.164  13.953  0.4077  0.5313  0.3053
  395TMC3     C 5904   4.603   0.799  14.092 -0.5929 -0.0824 -0.3930
  395TMC3     O 5905   4.530   0.707  14.122  0.4049  0.1269 -0.6353
  395TMC3     H 5906   4.380   0.826  13.961  1.9628  0.0207 -0.8266
  395TMC3    H1 5907   4.696   1.049  14.136 -0.5914  2.9032 -0.3004
  395TMC3    H2 5908   4.412   1.263  13.927  2.0178  0.6678 -1.3223
  395TMC3    C7 5909   4.606   1.279  14.099  0.3385 -0.5120  0.1619
  395TMC3    C8 5910   4.239   1.053  13.964 -0.6406  0.0596  0.1317
  395TMC3    O1 5911   4.610   1.383  14.033  0.6742  0.7764  0.6092
  395TMC3    O2 5912   4.186   1.154  13.931 -0.3248 -0.5488  0.1856
  396MPD2     C 5913   4.539   1.916  17.517 -0.0326 -0.0197 -0.1955
  396MPD2    C1 5914   4.655   1.871  17.457  0.6495 -0.9245  0.0322
  396MPD2    C2 5915   0.015   1.960  17.399  0.0159 -0.0090 -0.5268
  396MPD2    C3 5916   4.707   2.093  17.397 -0.0128 -0.4264  0.1744
  396MPD2    C4 5917   4.590   2.145  17.452  0.6889 -0.1144  0.4490
  396MPD2    C5 5918   4.512   2.054  17.505 -0.0840 -0.0739  0.1973
  396MPD2     H 5919   0.117   1.933  17.373  0.0974  0.8453 -1.1264
  396MPD2    H1 5920   4.558   2.248  17.447 -1.1580 -0.6957  0.1218
  396MPD2    H2 5921   4.468   1.849  17.563 -1.4427  1.0817 -0.7606
  396MPD2    H3 5922   4.424   2.093  17.555  0.3224 -2.5411  2.8521
  396MPD2     N 5923   0.084   2.176  17.343 -0.0808  0.1847  0.1887
  396MPD2    H5 5924   0.176   2.138  17.324 -1.5691 -2.2496 -2.1371
  396MPD2    N1 5925   4.679   1.736  17.469 -0.7829 -0.1583 -0.8527
  396MPD2    H7 5926   4.613   1.682  17.523 -0.3709 -0.4764 -0.6618
  397TMC3    C1 5927   0.046   1.517  17.441  0.4589 -0.0753  0.5418
  397TMC3    C2 5928   0.151   1.444  17.380  0.4732  0.2382 -0.3803
  397TMC3    C3 5929   0.120   1.344  17.290 -0.3257 -0.2972  0.7244
  397TMC3    C4 5930   4.644   1.473  17.413  0.7336  0.3412 -0.5537
  397TMC3    C5 5931   4.612   1.374  17.328 -0.6766 -0.2554  0.9366
  397TMC3    C6 5932   4.713   1.303  17.271 -0.0432  0.2998  0.3636
  397TMC3     C 5933   0.060   1.664  17.423  0.5709  0.1193 -0.4287
  397TMC3     O 5934   0.168   1.704  17.381  0.7857  0.3011 -0.5315
  397TMC3     H 5935   0.247   1.493  17.392  0.6092  0.0284 -0.6185
  397TMC3    H1 5936   4.558   1.527  17.453 -0.9421 -2.8522  0.1982
  397TMC3    H2 5937   4.680   1.237  17.192 -4.5077 -0.0846  2.5713
  397TMC3    C7 5938   4.484   1.315  17.327 -0.1283  0.3128 -0.5994
  397TMC3    C8 5939   0.187   1.361  17.165  0.6080  0.0126  0.7841
  397TMC3    O1 5940   4.449   1.262  17.223 -0.1582 -0.1429 -0.1492
  397TMC3    O2 5941   0.121   1.330  17.071  0.2110 -0.2211  0.1950
  398MPD2     C 5942   2.853   3.157   0.235  0.4002 -0.3007  0.4335
  398MPD2    C1 5943   2.905   3.029   0.209  0.4074 -0.0084  0.5971
  398MPD2    C2 5944   3.032   3.014   0.155  0.4609  0.1685 -0.0808
  398MPD2    C3 5945   3.121   3.114   0.150  0.3320  0.2669  0.0510
  398MPD2    C4 5946   3.068   3.241   0.179  0.1370 -0.5849 -0.8630
  398MPD2    C5 5947   2.938   3.263   0.214  0.4035  0.0993  0.0976
  398MPD2     H 5948   3.084   2.919   0.151 -1.0551 -0.6846  0.3615
  398MPD2    H1 5949   3.130   3.330   0.180 -0.4617 -0.1788  0.0333
  398MPD2    H2 5950   2.753   3.183   0.269  0.3277 -1.3100  1.0095
  398MPD2    H3 5951   2.908   3.367   0.228 -1.5047 -0.5990  1.2340
  398MPD2     N 5952   3.254   3.078   0.124  0.1120  0.2388  0.0356
  398MPD2    H5 5953   3.260   2.988   0.078 -1.2163 -0.6109  1.5121
  398MPD2    N1 5954   2.835   2.915   0.242  0.3463  0.2972 -0.3945
  398MPD2    H7 5955   2.888   2.830   0.226  0.7479  0.4444  0.1934
  399TMC3    C1 5956   2.696   2.779   0.378  0.2987 -0.5231  0.1855
  399TMC3    C2 5957   2.803   2.734   0.460 -0.7671 -0.4397 -0.1016
  399TMC3    C3 5958   2.771   2.647   0.562 -0.0722  0.6979 -0.0411
  399TMC3    C4 5959   2.563   2.739   0.400  0.1794 -0.3851 -0.1499
  399TMC3    C5 5960   2.539   2.642   0.492 -0.1846  0.4875  0.7593
  399TMC3    C6 5961   2.642   2.598   0.576  0.2889 -0.7714 -0.2096
  399TMC3     C 5962   2.715   2.901   0.308  0.6724  0.4507  0.6469
  399TMC3     O 5963   2.626   2.982   0.336  0.3775  0.4303  0.2596
  399TMC3     H 5964   2.906   2.758   0.436 -0.2582 -0.3801  2.0709
  399TMC3    H1 5965   2.492   2.785   0.333  1.4378  0.8585 -0.6222
  399TMC3    H2 5966   2.618   2.530   0.656  0.8018  0.5015  1.0346
  399TMC3    C7 5967   2.416   2.561   0.490 -0.5350  0.4168  0.0168
  399TMC3    C8 5968   2.884   2.572   0.618  0.0082 -0.8618 -0.0543
  399TMC3    O1 5969   2.412   2.476   0.578  0.0844 -0.4868  0.1198
  399TMC3    O2 5970   2.994   2.616   0.584  0.0733 -0.0700  0.0223
  400TMC3    C1 5971   1.357   1.385  17.039 -0.1689  0.3907 -0.4771
  400TMC3    C2 5972   1.250   1.319  16.992  0.2579 -0.5104 -0.4685
  400TMC3    C3 5973   1.135   1.397  16.972  0.1457 -0.2673 -0.3097
  400TMC3    C4 5974   1.356   1.517  17.071  0.7500  0.5350 -0.0996
  400TMC3    C5 5975   1.237   1.582  17.058  0.3441 -0.3208 -0.5762
  400TMC3    C6 5976   1.121   1.519  17.021 -0.1752 -0.4741  0.5898
  400TMC3     C 5977   1.423   1.299  17.128 -0.0214  0.0338  0.5653
  400TMC3     O 5978   1.394   1.178  17.134  0.6985  0.1623  0.4883
  400TMC3     H 5979   1.245   1.214  16.967  1.2436 -0.6207 -0.1981
  400TMC3    H1 5980   1.437   1.570  17.121  0.8391 -0.2481  0.5852
  400TMC3    H2 5981   1.026   1.571  17.024 -0.2300 -0.5061 -0.6193
  400TMC3    C7 5982   1.225   1.712  17.119 -0.0789 -0.2945  0.5059
  400TMC3    C8 5983   1.029   1.345  16.891 -0.0266  0.4239 -0.0677
  400TMC3    O1 5984   1.329   1.772  17.126  0.4527 -0.0135  0.5764
  400TMC3    O2 5985   0.923   1.406  16.895  0.6176 -0.0574  0.4329
  401MPD2     C 5986   4.722   0.429   1.614  0.0309  0.0124  1.2882
  401MPD2    C1 5987   0.131   0.378   1.623 -0.5156  0.4930  0.0802
  401MPD2    C2 5988   0.172   0.295   1.519  0.1749 -0.3039  0.3219
  401MPD2    C3 5989   0.090   0.263   1.413  0.3981  0.0604  0.1591
  401MPD2    C4 5990   4.684   0.306   1.410 -0.1124  0.0262 -0.4237
  401MPD2    C5 5991   4.638   0.398   1.504  0.6403 -0.2842 -0.7888
  401MPD2     H 5992   0.280   0.284   1.516  0.0580 -0.6995 -2.0194
  401MPD2    H1 5993   4.616   0.285   1.328 -0.8583 -0.5736  0.3474
  401MPD2    H2 5994   4.671   0.491   1.687 -2.2059  0.2911 -0.4735
  401MPD2    H3 5995   4.539   0.442   1.511  0.2739 -1.3671  0.7869
  401MPD2     N 5996   0.157   0.178   1.325  0.2638 -0.3842  0.4179
  401MPD2    H5 5997   0.258   0.165   1.329  0.3534  0.2498  0.2409
  401MPD2    N1 5998   0.222   0.406   1.731  0.1616  0.7461 -0.1841
  401MPD2    H7 5999   0.313   0.360   1.734 -0.4179 -0.4498 -1.1869
  402TMC3    C1 6000   0.194   0.020   1.157 -0.4502 -0.1057 -0.3559
  402TMC3    C2 6001   0.154   4.623   1.100  0.1547 -0.1961  0.3693
  402TMC3    C3 6002   0.225   4.560   1.000 -0.5043 -0.4801 -0.2807
  402TMC3    C4 6003   0.288   0.090   1.090  0.6665 -0.4842 -0.2295
  402TMC3    C5 6004   0.357   0.025   0.989  0.1689  0.5806 -0.2982
  402TMC3    C6 6005   0.332   4.626   0.948  0.4387  0.5531  0.2710
  402TMC3     C 6006   0.096   0.098   1.232  0.2422 -1.1081 -0.0102
  402TMC3     O 6007   4.700   0.070   1.230 -0.2127  0.1152  0.1446
  402TMC3     H 6008   0.079   4.559   1.144 -1.3737  0.3118 -1.5045
  402TMC3    H1 6009   0.313   0.191   1.121 -0.3106 -0.6241  1.0244
  402TMC3    H2 6010   0.407   4.570   0.894 -0.6111 -0.2373 -0.3679
  402TMC3    C7 6011   0.466   0.099   0.932 -0.8591 -0.2319  0.8901
  402TMC3    C8 6012   0.252   4.419   1.017  1.0717  0.7027  0.1219
  402TMC3    O1 6013   0.503   0.198   0.993  0.0147 -0.0556 -0.1157
  402TMC3    O2 6014   0.235   4.380   1.132  0.2433 -0.7017 -0.5255
  403MPD2     C 6015   2.897   3.649  13.678 -0.2517 -0.2480  0.2828
  403MPD2    C1 6016   2.846   3.544  13.745 -0.0161  0.5900  0.3647
  403MPD2    C2 6017   2.874   3.525  13.876 -0.5447  0.1965 -0.1859
  403MPD2    C3 6018   2.959   3.606  13.942 -0.0016  0.0142  1.0909
  403MPD2    C4 6019   3.006   3.714  13.878 -0.4392 -0.4023 -0.8289
  403MPD2    C5 6020   2.977   3.727  13.750  0.5301 -0.2872  0.4022
  403MPD2     H 6021   2.828   3.447  13.935 -1.2169  2.0502  1.7279
  403MPD2    H1 6022   3.083   3.771  13.930 -0.7499 -1.6221  0.9753
  403MPD2    H2 6023   2.883   3.663  13.571 -2.6145 -0.8601  0.5120
  403MPD2    H3 6024   3.032   3.811  13.708 -1.0630  0.0932 -0.9299
  403MPD2     N 6025   2.982   3.569  14.079  0.0554  0.2615  0.2618
  403MPD2    H5 6026   2.940   3.488  14.121  2.2724 -0.6579  0.6825
  403MPD2    N1 6027   2.765   3.464  13.664  0.0982 -0.2265 -0.4684
  403MPD2    H7 6028   2.735   3.492  13.571 -1.4525 -0.8884 -0.1664
  404TMC3    C1 6029   2.680   3.260  13.593  0.0099  0.9173  0.4397
  404TMC3    C2 6030   2.653   3.127  13.620 -0.5258  0.3755  0.0197
  404TMC3    C3 6031   2.554   3.070  13.548 -0.3933 -0.7590 -0.5502
  404TMC3    C4 6032   2.630   3.331  13.486 -0.3556  0.0003  0.5344
  404TMC3    C5 6033   2.546   3.260  13.409 -0.5747  0.1133 -0.1083
  404TMC3    C6 6034   2.511   3.129  13.436  0.4769  0.4001 -0.6732
  404TMC3     C 6035   2.737   3.335  13.700 -0.1528 -0.0178 -0.0799
  404TMC3     O 6036   2.745   3.272  13.805  0.0471 -0.0882  0.3256
  404TMC3     H 6037   2.698   3.076  13.703 -0.4639  2.0198  0.9930
  404TMC3    H1 6038   2.659   3.433  13.463  0.2221 -0.4161 -0.6083
  404TMC3    H2 6039   2.428   3.092  13.377  0.9665  2.3521 -2.5692
  404TMC3    C7 6040   2.507   3.328  13.286  0.5935  1.1696 -0.2452
  404TMC3    C8 6041   2.495   2.945  13.591 -0.2951 -0.6268  0.2236
  404TMC3    O1 6042   2.539   3.447  13.285  0.0786  0.8643 -0.5187
  404TMC3    O2 6043   2.458   2.870  13.500 -0.2931 -0.6198  0.1607
  405MPD2     C 6044   2.757   4.114  15.101 -0.5973 -0.1956  1.3122
  405MPD2    C1 6045   2.859   4.195  15.065  0.1137  0.1707 -0.2550
  405MPD2    C2 6046   2.865   4.325  15.115 -0.1641  0.3161  0.2656
  405MPD2    C3 6047   2.764   4.369  15.202 -0.2714  0.1320  0.0692
  405MPD2    C4 6048   2.661   4.284  15.235  0.1258  0.2179  0.4813
  405MPD2    C5 6049   2.657   4.155  15.191  0.9617  0.3090 -0.2387
  405MPD2     H 6050   2.941   4.394  15.081  0.8369 -1.1730 -0.5315
  405MPD2    H1 6051   2.590   4.310  15.313 -1.8435 -3.0253 -0.2213
  405MPD2    H2 6052   2.759   4.007  15.078  0.6736  0.2901 -0.9284
  405MPD2    H3 6053   2.586   4.084  15.231 -0.7356  1.2820 -1.5562
  405MPD2     N 6054   2.763   4.503  15.250 -0.0713  1.0274  0.8696
  405MPD2    H5 6055   2.850   4.553  15.232 -0.0987  1.1422  1.0528
  405MPD2    N1 6056   2.946   4.151  14.962 -0.0941 -0.3786  0.9725
  405MPD2    H7 6057   2.917   4.069  14.910 -1.3965  1.7474 -1.6649
  406TMC3    C1 6058   2.523   0.186  15.272  0.6705 -0.2852 -0.3512
  406TMC3    C2 6059   2.601   0.237  15.167  0.5864  0.4109  0.3559
  406TMC3    C3 6060   2.720   0.171  15.145 -0.6420  0.3745 -0.5677
  406TMC3    C4 6061   2.552   0.071  15.340  0.1963 -0.3452 -0.1729
  406TMC3    C5 6062   2.668   0.002  15.309 -0.2002 -0.0728  0.0412
  406TMC3    C6 6063   2.756   0.056  15.214 -0.6239  0.0211 -0.6541
  406TMC3     C 6064   2.385   0.173  15.222 -0.1897  0.0235 -0.7764
  406TMC3     O 6065   2.327   0.276  15.197 -0.1335 -0.0594  0.3630
  406TMC3     H 6066   2.559   0.312  15.100  2.6060 -0.0231 -1.4077
  406TMC3    H1 6067   2.491   0.041  15.424  0.7384  1.3894  0.8340
  406TMC3    H2 6068   2.850   0.004  15.199 -0.5126 -0.0527  0.2942
  406TMC3    C7 6069   2.655   4.577  15.309  0.1858 -0.2705  0.5567
  406TMC3    C8 6070   2.771   0.197  15.007  0.4597  0.7843 -0.2699
  406TMC3    O1 6071   2.538   4.541  15.330 -0.4358  0.2505 -0.2102
  406TMC3    O2 6072   2.754   0.302  14.954 -0.1729  0.3419 -0.0070
  407MPD2     C 6073   0.374   0.112   9.859 -0.4455 -0.2249  0.1474
  407MPD2    C1 6074   0.452   0.220   9.874  0.0900 -0.2003 -0.3617
  407MPD2    C2 6075   0.411   0.333   9.933  0.1565  0.0207  0.0631
  407MPD2    C3 6076   0.290   0.341   9.997 -0.1088  0.3843  0.3531
  407MPD2    C4 6077   0.216   0.222  10.007  0.1359  0.2048  0.1806
  407MPD2    C5 6078   0.261   0.111   9.937 -0.0036  1.0242 -0.0722
  407MPD2     H 6079   0.482   0.416   9.931  0.9658 -0.6883 -0.8746
  407MPD2    H1 6080   0.129   0.211  10.071 -0.7165 -0.1972 -1.0517
  407MPD2    H2 6081   0.412   0.017   9.825  3.1330  1.2662 -0.0472
  407MPD2    H3 6082   0.203   0.020   9.937 -0.5738  1.3863  0.0396
  407MPD2     N 6083   0.249   0.451  10.076  0.6129  0.4122 -0.8005
  407MPD2    H5 6084   0.201   0.431  10.164  2.7823  0.9104  0.5048
  407MPD2    N1 6085   0.582   0.213   9.823 -0.5180  0.0914  0.4150
  407MPD2    H7 6086   0.639   0.289   9.860  1.4870 -1.9496  1.5531
  408TMC3    C1 6087   0.793   0.129   9.755 -0.7023  0.3263  0.1572
  408TMC3    C2 6088   0.857   0.018   9.707  0.1417  0.5605  0.3868
  408TMC3    C3 6089   0.994   0.024   9.712 -0.4255  0.4573 -0.4014
  408TMC3    C4 6090   0.847   0.254   9.769  0.2042 -0.5272  0.5796
  408TMC3    C5 6091   0.981   0.257   9.748 -0.1943 -0.0601  0.4881
  408TMC3    C6 6092   1.057   0.142   9.735 -0.7672 -0.1509 -0.2983
  408TMC3     C 6093   0.646   0.114   9.755  0.2096 -0.1355  0.3270
  408TMC3     O 6094   0.596   0.013   9.706  0.1724 -0.5045  0.2178
  408TMC3     H 6095   0.805   4.647   9.714 -0.1436  0.6418 -0.7846
  408TMC3    H1 6096   0.785   0.342   9.783  1.6719  0.7101 -0.6350
  408TMC3    H2 6097   1.164   0.153   9.754 -1.1518  0.4569  1.4917
  408TMC3    C7 6098   1.038   0.383   9.719 -0.2941 -0.6719 -0.2911
  408TMC3    C8 6099   1.051   4.610   9.724  0.2199 -0.0668 -0.0207
  408TMC3    O1 6100   1.153   0.377   9.686 -0.1543 -0.1503  0.4412
  408TMC3    O2 6101   0.980   4.513   9.710  0.1870 -0.1811 -0.4110
  409MPD2     C 6102   4.501   0.880  17.107  0.7194 -0.1145  0.2775
  409MPD2    C1 6103   4.613   0.814  17.156  0.9468  0.3622  0.4464
  409MPD2    C2 6104   0.017   0.864  17.120 -0.4473 -1.0532  0.4249
  409MPD2    C3 6105   0.023   0.977  17.044 -0.8138  0.8932 -0.2129
  409MPD2    C4 6106   4.632   1.049  17.012  0.1711  0.5026 -0.1188
  409MPD2    C5 6107   4.513   1.001  17.040  0.4343 -0.5412 -0.5610
  409MPD2     H 6108   0.102   0.814  17.166 -1.2269 -1.4548  1.4319
  409MPD2    H1 6109   4.644   1.146  16.965 -0.6811  0.8598  0.4087
  409MPD2    H2 6110   4.405   0.854  17.149  0.5370  0.5606  0.2734
  409MPD2    H3 6111   4.427   1.064  17.018 -0.3407 -0.8645  1.4680
  409MPD2     N 6112   0.144   1.030  17.003 -0.2948  0.4452 -0.1323
  409MPD2    H5 6113   0.149   1.123  16.963 -0.9206  0.3204 -0.5043
  409MPD2    N1 6114   4.601   0.702  17.237  0.0804  0.2917  0.1317
  409MPD2    H7 6115   4.686   0.650  17.252  0.6524  1.0187 -0.5864
  410TMC3    C1 6116   0.373   1.052  16.994 -0.7095  0.3827  0.6283
  410TMC3    C2 6117   0.495   1.009  17.027 -0.4391  0.7650 -0.4803
  410TMC3    C3 6118   0.594   1.095  17.000 -0.7223  0.9240 -0.0464
  410TMC3    C4 6119   0.355   1.168  16.921  0.6644 -0.0155 -0.0086
  410TMC3    C5 6120   0.462   1.252  16.901 -0.3646  0.3574 -0.8160
  410TMC3    C6 6121   0.584   1.210  16.943 -0.4011 -0.5971  0.1637
  410TMC3     C 6122   0.262   0.959  17.011 -0.1868  0.4693 -0.8470
  410TMC3     O 6123   0.285   0.841  17.029  0.2980  0.5264 -0.3842
  410TMC3     H 6124   0.512   0.922  17.090 -0.1871  2.3871  1.6686
  410TMC3    H1 6125   0.256   1.198  16.888  0.4770 -3.6948 -2.7829
  410TMC3    H2 6126   0.678   1.259  16.919  0.3281 -1.4743  1.2357
  410TMC3    C7 6127   0.459   1.334  16.780 -0.2780  0.5498 -0.4456
  410TMC3    C8 6128   0.726   1.056  17.049 -0.2860  0.1027  0.0698
  410TMC3    O1 6129   0.352   1.318  16.723  0.3561  0.8676  0.1669
  410TMC3    O2 6130   0.758   0.941  17.015  0.0147  0.1499 -0.1810
  411MPD2     C 6131   0.491   1.479  14.002  0.0799 -0.3807 -0.2236
  411MPD2    C1 6132   0.490   1.609  13.954 -0.1540 -0.0076  0.2701
  411MPD2    C2 6133   0.520   1.634  13.822 -0.5291 -0.0456 -0.6583
  411MPD2    C3 6134   0.559   1.529  13.736 -0.3756 -0.1258  0.4541
  411MPD2    C4 6135   0.565   1.402  13.790 -0.3647 -0.4984  0.0561
  411MPD2    C5 6136   0.533   1.371  13.921 -0.4565 -0.4348 -0.4379
  411MPD2     H 6137   0.511   1.733  13.779  1.9412  1.2013  1.6439
  411MPD2    H1 6138   0.586   1.315  13.729  1.1934 -0.3994  0.4459
  411MPD2    H2 6139   0.459   1.457  14.104  1.9548 -0.6472  0.3040
  411MPD2    H3 6140   0.548   1.269  13.955  0.9457 -0.4070 -1.0026
  411MPD2     N 6141   0.562   1.542  13.593 -0.7349  0.1350  0.0571
  411MPD2    H5 6142   0.589   1.462  13.537 -1.6465 -0.1325  0.0127
  411MPD2    N1 6143   0.452   1.710  14.045  0.0637 -0.6462  0.3004
  411MPD2    H7 6144   0.433   1.690  14.143 -0.6322  0.8178  0.4756
  412TMC3    C1 6145   0.536   1.638  13.378 -0.1666  0.5449  0.3201
  412TMC3    C2 6146   0.478   1.722  13.283  0.3665  0.3429 -0.9137
  412TMC3    C3 6147   0.448   1.666  13.159 -0.2533 -0.0905 -0.0452
  412TMC3    C4 6148   0.602   1.527  13.330  0.3715  0.4154 -0.1344
  412TMC3    C5 6149   0.584   1.480  13.202  0.5369 -0.6431 -0.1250
  412TMC3    C6 6150   0.498   1.542  13.121 -0.5067 -0.2869 -0.4603
  412TMC3     C 6151   0.534   1.661  13.519  0.0656  0.5323  0.4406
  412TMC3     O 6152   0.509   1.780  13.550 -0.2352  0.6423  0.1540
  412TMC3     H 6153   0.433   1.818  13.307  3.6667  1.9859 -1.3636
  412TMC3    H1 6154   0.671   1.480  13.398  1.9407  2.6262 -0.2009
  412TMC3    H2 6155   0.474   1.500  13.024  1.7919 -0.6000 -0.8734
  412TMC3    C7 6156   0.701   1.447  13.117 -0.3779  0.1363 -0.5965
  412TMC3    C8 6157   0.441   1.761  13.051  0.1277  0.1577  0.0027
  412TMC3    O1 6158   0.714   1.522  13.021 -0.3585 -0.3103 -0.4188
  412TMC3    O2 6159   0.361   1.852  13.043  0.1586 -1.1325 -0.4511
  413MPD2     C 6160   2.101   4.542  16.111 -0.6251  0.2269 -0.2278
  413MPD2    C1 6161   2.093   4.488  15.984  0.3897 -0.6307  1.1473
  413MPD2    C2 6162   2.211   4.478  15.913  0.3615 -0.2818 -0.8280
  413MPD2    C3 6163   2.332   4.521  15.959 -0.3660 -0.1315  0.2280
  413MPD2    C4 6164   2.341   4.581  16.090 -0.3286  0.0558 -0.4685
  413MPD2    C5 6165   2.222   4.589  16.160  0.6046 -0.5311 -0.1364
  413MPD2     H 6166   2.210   4.426  15.818  1.1791 -1.4469 -0.1920
  413MPD2    H1 6167   2.431   4.623  16.133 -0.0480  1.5658 -2.5302
  413MPD2    H2 6168   2.013   4.560  16.172 -0.1512  1.4122  0.1072
  413MPD2    H3 6169   2.228   4.634  16.258 -0.4885 -0.8361  0.0691
  413MPD2     N 6170   2.445   4.495  15.890 -0.5569 -0.2193  0.2886
  413MPD2    H5 6171   2.435   4.443  15.803 -0.2825  1.5866 -0.8025
  413MPD2    N1 6172   1.959   4.449  15.943 -0.9285 -0.3576 -0.4670
  413MPD2    H7 6173   1.890   4.466  16.016 -0.6984  2.3926 -0.8855
  414TMC3    C1 6174   2.660   4.514  15.808  0.5982  0.6387  0.1185
  414TMC3    C2 6175   2.665   4.388  15.766  0.1119 -0.1086 -0.9282
  414TMC3    C3 6176   2.757   4.367  15.665  0.2249 -0.1565 -0.7187
  414TMC3    C4 6177   2.721   4.624  15.756 -0.3669 -0.1071 -0.7431
  414TMC3    C5 6178   2.798   4.600  15.641  0.0570 -0.3617 -0.3181
  414TMC3    C6 6179   2.823   4.470  15.598  0.3634 -0.2891 -0.3399
  414TMC3     C 6180   2.568   4.546  15.909  0.2979  0.1093  0.4392
  414TMC3     O 6181   2.617   4.619  15.994  0.1512 -0.0597 -0.1188
  414TMC3     H 6182   2.608   4.312  15.817  1.2864  0.1768  0.8213
  414TMC3    H1 6183   2.699   0.002  15.789 -0.7463 -0.2996 -0.3986
  414TMC3    H2 6184   2.909   4.450  15.534  2.3390  0.5530  2.0410
  414TMC3    C7 6185   2.869   4.707  15.575  0.2180 -0.3275  0.5534
  414TMC3    C8 6186   2.782   4.231  15.629 -0.1925  0.2177 -0.3471
  414TMC3    O1 6187   2.932   4.672  15.480 -0.6934  0.2169 -0.9572
  414TMC3    O2 6188   2.687   4.155  15.649 -0.2222 -0.2244  0.2496
  415TMC3    C1 6189   2.478   2.131   9.671 -0.1974 -0.0293 -0.6602
  415TMC3    C2 6190   2.606   2.131   9.638 -1.1246  0.2915 -0.1374
  415TMC3    C3 6191   2.650   2.018   9.576  0.1088 -0.4562 -0.5140
  415TMC3    C4 6192   2.391   2.032   9.643  0.1984 -1.0288  0.3222
  415TMC3    C5 6193   2.441   1.910   9.594  0.3686  0.0717  0.3084
  415TMC3    C6 6194   2.573   1.906   9.551 -0.1880  0.3327 -0.4140
  415TMC3     C 6195   2.413   2.254   9.718 -0.1515  0.4223 -0.1938
  415TMC3     O 6196   2.299   2.246   9.762  0.4116  0.2808  0.2157
  415TMC3     H 6197   2.668   2.196   9.700 -0.9968  2.3775 -2.4502
  415TMC3    H1 6198   2.292   2.030   9.686  0.1001 -2.1636  0.0424
  415TMC3    H2 6199   2.608   1.817   9.499 -0.3669  1.1294 -1.8907
  415TMC3    C7 6200   2.349   1.798   9.566  0.1495  0.5352 -0.0365
  415TMC3    C8 6201   2.787   2.008   9.521 -0.0256  0.6982 -0.5242
  415TMC3    O1 6202   2.393   1.686   9.530  0.2518  0.6487  0.0548
  415TMC3    O2 6203   2.816   1.900   9.467 -0.4046  0.3170 -0.0738
  416MPD2     C 6204   4.330   1.270  11.288 -0.5407 -0.0514  0.4225
  416MPD2    C1 6205   4.193   1.251  11.314 -0.5969 -0.1850  0.2099
  416MPD2    C2 6206   4.129   1.139  11.253 -0.5875 -0.0653  0.2202
  416MPD2    C3 6207   4.190   1.064  11.154 -0.1891 -0.0065 -0.2965
  416MPD2    C4 6208   4.316   1.102  11.126 -0.0235 -0.1678  0.6471
  416MPD2    C5 6209   4.386   1.189  11.199 -0.1064 -0.3128  0.2385
  416MPD2     H 6210   4.032   1.106  11.287 -1.5645  1.9119 -0.6467
  416MPD2    H1 6211   4.385   1.044  11.066 -0.4864  0.7215 -0.7279
  416MPD2    H2 6212   4.393   1.343  11.339 -1.8831  0.5453  1.2279
  416MPD2    H3 6213   4.490   1.197  11.172 -0.0160 -1.4294  0.2682
  416MPD2     N 6214   4.123   0.957  11.098  0.0246  0.0856  0.0310
  416MPD2    H5 6215   4.028   0.946  11.130  0.3489  2.1678  1.7499
  416MPD2    N1 6216   4.129   1.340  11.406  0.1613 -0.3585 -0.5845
  416MPD2    H7 6217   4.183   1.422  11.433  0.6198 -1.1562  0.9942
  417TMC3    C1 6218   3.955   1.450  11.511 -0.0497 -0.1063  0.2026
  417TMC3    C2 6219   4.018   1.470  11.637 -0.2676 -0.6535 -0.7352
  417TMC3    C3 6220   3.957   1.567  11.711  0.5560 -0.2574  0.1324
  417TMC3    C4 6221   3.839   1.508  11.468 -0.2533 -0.3678 -0.1628
  417TMC3    C5 6222   3.793   1.608  11.549 -0.5847  0.2944 -0.6266
  417TMC3    C6 6223   3.850   1.643  11.668  0.0950 -0.0352 -0.3597
  417TMC3     C 6224   3.992   1.338  11.437 -0.2574 -0.3599  0.4364
  417TMC3     O 6225   3.902   1.259  11.413  0.3322 -0.1877  0.3351
  417TMC3     H 6226   4.111   1.422  11.665 -0.8195 -1.3775 -0.1899
  417TMC3    H1 6227   3.798   1.485  11.370 -0.9696 -1.6481  0.4398
  417TMC3    H2 6228   3.804   1.719  11.729  0.3622 -0.2368  0.0892
  417TMC3    C7 6229   3.705   1.706  11.486 -0.2062 -0.4737 -0.5487
  417TMC3    C8 6230   3.999   1.591  11.851  0.2373 -0.0146  0.0617
  417TMC3    O1 6231   3.727   1.826  11.499 -0.3891  0.1883  0.1074
  417TMC3    O2 6232   3.943   1.682  11.913 -0.0892  0.5019  0.4843
  418TMC3    C1 6233   3.606   2.918   0.032  0.5221 -0.5395  0.6340
  418TMC3    C2 6234   3.512   3.020   0.021  1.1127 -0.4650  0.0793
  418TMC3    C3 6235   3.493   3.102   0.132 -0.3027  0.7061  0.9097
  418TMC3    C4 6236   3.648   2.886   0.156 -0.9227  0.7410 -0.0018
  418TMC3    C5 6237   3.623   2.967   0.268 -0.4762 -0.1501  0.1320
  418TMC3    C6 6238   3.546   3.079   0.251  0.1756 -0.0334  0.2409
  418TMC3     C 6239   3.588   2.809  17.631  0.4689  0.7032 -0.1240
  418TMC3     O 6240   3.512   2.834  17.542 -0.2598 -0.1910  0.5424
  418TMC3     H 6241   3.479   3.048  17.616  1.1289  0.1440  0.2480
  418TMC3    H1 6242   3.723   2.810   0.174  0.1902  1.3610 -1.9646
  418TMC3    H2 6243   3.510   3.142   0.331 -0.8602 -0.7572  0.3443
  418TMC3    C7 6244   3.609   2.900   0.390  0.4800 -0.2708  0.9653
  418TMC3    C8 6245   3.363   3.155   0.153 -0.0566  0.8719  0.1024
  418TMC3    O1 6246   3.596   2.781   0.382 -0.3059 -0.2523 -0.4396
  418TMC3    O2 6247   3.360   3.264   0.207  0.7439 -0.1474 -0.6602
  419MPD2     C 6248   2.238   1.465  12.460 -0.6595  0.3274  0.3681
  419MPD2    C1 6249   2.240   1.596  12.475  0.3208  0.2371  0.0406
  419MPD2    C2 6250   2.204   1.646  12.599 -0.6139 -0.2354 -0.6327
  419MPD2    C3 6251   2.157   1.574  12.706  0.2518 -0.3598 -0.0636
  419MPD2    C4 6252   2.149   1.439  12.686 -0.2079 -0.8634  0.0950
  419MPD2    C5 6253   2.185   1.386  12.563 -0.0700  0.2738 -0.0783
  419MPD2     H 6254   2.210   1.753  12.616  1.2769 -0.3477 -0.5991
  419MPD2    H1 6255   2.120   1.364  12.759 -1.3502 -0.1653  0.3628
  419MPD2    H2 6256   2.265   1.432  12.361  2.4133  2.2851  0.5449
  419MPD2    H3 6257   2.182   1.278  12.552  1.9370  0.5077 -2.8982
  419MPD2     N 6258   2.124   1.635  12.828  0.1379  1.0508  0.6296
  419MPD2    H5 6259   2.117   1.736  12.822  1.3809  1.1027  0.0441
  419MPD2    N1 6260   2.291   1.688  12.375  0.3791 -0.6671  0.0631
  419MPD2    H7 6261   2.297   1.786  12.402  1.8722 -1.0585  1.1476
  420TMC3    C1 6262   2.074   1.664  13.051  0.3739 -0.0553 -0.9397
  420TMC3    C2 6263   2.002   1.776  13.014 -0.0630  0.4523 -0.2538
  420TMC3    C3 6264   1.976   1.872  13.116  0.1554 -0.3218 -0.4565
  420TMC3    C4 6265   2.113   1.639  13.180 -0.3144 -0.6101 -0.6192
  420TMC3    C5 6266   2.093   1.738  13.269  0.3947 -0.1671 -0.1000
  420TMC3    C6 6267   2.027   1.852  13.235 -0.0330  1.3122 -0.1593
  420TMC3     C 6268   2.117   1.569  12.946  0.2745  0.0806  0.6869
  420TMC3     O 6269   2.147   1.450  12.974  0.0967  0.9460 -0.5581
  420TMC3     H 6270   1.975   1.788  12.910 -1.3569 -0.3323 -0.0123
  420TMC3    H1 6271   2.171   1.552  13.210 -1.3081 -1.0442  0.0524
  420TMC3    H2 6272   2.009   1.927  13.312 -1.5493 -0.7558  1.4860
  420TMC3    C7 6273   2.153   1.720  13.396 -0.0825  0.9635 -0.5331
  420TMC3    C8 6274   1.900   1.991  13.088  0.4946  0.1296  0.6498
  420TMC3    O1 6275   2.166   1.603  13.432  0.1859 -0.9214 -0.1295
  420TMC3    O2 6276   1.906   2.046  12.978  0.0572  0.0740  0.7081
  421TMC3    C1 6277   3.048   3.593  14.302 -0.6407  0.5168 -0.2203
  421TMC3    C2 6278   3.065   3.674  14.411 -0.8604 -0.0557  0.1764
  421TMC3    C3 6279   3.076   3.616  14.536  0.4316 -0.5304  0.6404
  421TMC3    C4 6280   3.050   3.457  14.317  0.1576 -0.7693  0.3541
  421TMC3    C5 6281   3.055   3.408  14.443 -0.4271 -0.3449  0.1113
  421TMC3    C6 6282   3.063   3.480  14.554 -0.3906 -0.4931  0.6192
  421TMC3     C 6283   3.050   3.646  14.167 -0.2001  0.3263  0.4720
  421TMC3     O 6284   3.106   3.753  14.148  0.2138 -0.0980 -0.0478
  421TMC3     H 6285   3.066   3.782  14.402 -1.5909 -0.0992 -0.4997
  421TMC3    H1 6286   3.067   3.387  14.236  2.1877 -1.0427  0.9992
  421TMC3    H2 6287   3.077   3.429  14.648  0.6800 -0.6543  0.3804
  421TMC3    C7 6288   3.135   3.285  14.453 -0.5262  0.3372  0.2038
  421TMC3    C8 6289   3.093   3.706  14.650  0.1425 -0.5067  0.5707
  421TMC3    O1 6290   3.202   3.275  14.554 -0.6622  0.2795 -0.1480
  421TMC3    O2 6291   3.055   3.666  14.758 -0.4692 -0.0516  0.1586
  422TMC3    C1 6292   0.676   0.021  12.514 -0.0096  0.1606  0.3778
  422TMC3    C2 6293   0.737   4.714  12.633 -0.2682  0.2938  0.4686
  422TMC3    C3 6294   0.668   4.656  12.735 -0.1483  0.9562  0.7457
  422TMC3    C4 6295   0.548   0.009  12.503 -1.1349  0.5489  0.0442
  422TMC3    C5 6296   0.483   4.661  12.602 -0.0211  0.0808  0.3459
  422TMC3    C6 6297   0.537   4.632  12.723 -0.4534  0.2712  0.6758
  422TMC3     C 6298   0.755   0.102  12.428 -0.8887 -0.9682 -0.3047
  422TMC3     O 6299   0.868   0.135  12.465  0.4005  0.0667  0.2847
  422TMC3     H 6300   0.843   0.004  12.650 -0.1024 -1.0995  0.4839
  422TMC3    H1 6301   0.505   0.016  12.404 -1.0206  2.6029  0.1319
  422TMC3    H2 6302   0.480   4.571  12.792 -0.7303  2.8140  2.6920
  422TMC3    C7 6303   0.355   4.605  12.560 -0.3758  0.0869  0.4995
  422TMC3    C8 6304   0.726   4.643  12.864 -0.1448 -0.0197  0.0281
  422TMC3    O1 6305   0.322   4.608  12.439  0.9099  0.2324  0.3879
  422TMC3    O2 6306   0.829   4.706  12.886  0.8818  0.0466  0.1571
  423MPD2     C 6307   1.850   1.032   0.622  0.1343 -1.0759  0.4392
  423MPD2    C1 6308   1.895   0.906   0.640  0.2141  0.4763  0.2129
  423MPD2    C2 6309   1.947   0.839   0.529  0.1445 -0.0661  0.0499
  423MPD2    C3 6310   1.955   0.894   0.404 -0.1425 -0.0638 -0.7175
  423MPD2    C4 6311   1.920   1.025   0.390  0.5432 -0.8597 -0.3211
  423MPD2    C5 6312   1.868   1.093   0.503  0.6631  0.9821 -0.1161
  423MPD2     H 6313   1.985   0.739   0.545  0.5017 -0.0106 -0.4551
  423MPD2    H1 6314   1.918   1.081   0.297  0.2534  0.9735  0.7857
  423MPD2    H2 6315   1.807   1.095   0.699  1.4116 -0.8466  0.9664
  423MPD2    H3 6316   1.838   1.196   0.484  0.9843  1.3135  1.1821
  423MPD2     N 6317   1.999   0.821   0.288  0.3116  0.2934 -0.1999
  423MPD2    H5 6318   1.991   0.862   0.196  2.0450  1.3296  0.1018
  423MPD2    N1 6319   1.888   0.836   0.767 -0.1396 -0.6649  0.1583
  423MPD2    H7 6320   1.944   0.751   0.771  1.1835  0.2479  0.8748
  424TMC3    C1 6321   1.805   0.757   0.978  0.9817 -0.0868 -0.8218
  424TMC3    C2 6322   1.907   0.666   1.000 -0.1821 -0.3276  0.1056
  424TMC3    C3 6323   1.889   0.579   1.103 -1.2228  0.0485  0.5621
  424TMC3    C4 6324   1.689   0.753   1.049 -0.0083 -0.4019  0.0618
  424TMC3    C5 6325   1.681   0.662   1.143 -0.0117  0.5356  0.6226
  424TMC3    C6 6326   1.776   0.576   1.180 -0.1988  0.8184  0.2369
  424TMC3     C 6327   1.807   0.867   0.874  0.4358 -0.0905  0.1700
  424TMC3     O 6328   1.724   0.957   0.884  0.1325 -0.3267 -0.1007
  424TMC3     H 6329   1.997   0.671   0.940 -0.8017  1.0247 -0.7224
  424TMC3    H1 6330   1.603   0.816   1.032  0.2559  0.0577  0.4318
  424TMC3    H2 6331   1.757   0.509   1.264  0.8647 -0.7519 -0.7695
  424TMC3    C7 6332   1.541   0.639   1.191 -0.1560 -0.2074  0.3736
  424TMC3    C8 6333   1.993   0.489   1.146  0.3735 -0.3753  0.0680
  424TMC3    O1 6334   1.447   0.672   1.119 -0.4204  0.0419 -0.5555
  424TMC3    O2 6335   1.984   0.408   1.235 -0.2481  0.0802 -0.1382
  425MPD2     C 6336   0.961   0.269  17.474  0.6087 -0.3129  0.3684
  425MPD2    C1 6337   0.955   0.137  17.508  0.2294 -0.4908  0.2325
  425MPD2    C2 6338   0.846   0.084  17.573  0.1535  0.2795 -0.2887
  425MPD2    C3 6339   0.744   0.169  17.613  0.1421  0.1865  0.3293
  425MPD2    C4 6340   0.752   0.306  17.596 -0.4469  0.2455 -0.5187
  425MPD2    C5 6341   0.860   0.351  17.523 -0.2202 -0.0482 -0.3171
  425MPD2     H 6342   0.830   4.700  17.578  0.4539  0.2720  0.5067
  425MPD2    H1 6343   0.680   0.381  17.626  1.2002  0.6975  2.3020
  425MPD2    H2 6344   1.045   0.315  17.422  0.3833 -1.4975 -1.0240
  425MPD2    H3 6345   0.876   0.456  17.502 -0.0535 -0.2304 -1.0879
  425MPD2     N 6346   0.643   0.101  17.688  0.1452 -0.0485  0.2668
  425MPD2    H5 6347   0.657   0.003   0.011 -2.3711 -0.3494  0.5783
  425MPD2    N1 6348   1.065   0.059  17.453 -0.5417 -0.7467 -0.6502
  425MPD2    H7 6349   1.155   0.103  17.433 -0.8194  0.4110  0.6703
  426TMC3    C1 6350   1.187   4.599  17.386 -0.0336 -0.3933 -0.1321
  426TMC3    C2 6351   1.177   4.487  17.308 -0.3052 -0.1805 -0.3770
  426TMC3    C3 6352   1.296   4.421  17.279 -0.4728  0.2129  0.4027
  426TMC3    C4 6353   1.306   4.646  17.428 -0.3197 -0.2207 -0.5651
  426TMC3    C5 6354   1.420   4.575  17.403  0.3154  0.4838 -0.1311
  426TMC3    C6 6355   1.420   4.461  17.321  0.1180  0.2653 -0.0705
  426TMC3     C 6356   1.060   4.652  17.431  0.6603 -0.6458  0.0153
  426TMC3     O 6357   0.970   4.571  17.435 -0.1070 -0.1343 -0.3488
  426TMC3     H 6358   1.082   4.438  17.285 -0.3655  0.4837 -1.5335
  426TMC3    H1 6359   1.305   0.003  17.501 -2.1554 -0.9920  0.2529
  426TMC3    H2 6360   1.507   4.399  17.300  0.0039  0.2736 -0.5808
  426TMC3    C7 6361   1.528   4.590  17.500  0.7846 -0.5130  0.1081
  426TMC3    C8 6362   1.297   4.338  17.162  0.0885 -0.3767  0.4058
  426TMC3    O1 6363   1.639   4.560  17.455  0.5799  0.3022  0.2606
  426TMC3    O2 6364   1.390   4.262  17.138  0.2987 -0.0839  0.3490
  427MPD2     C 6365   3.879   1.336  14.571 -0.1064 -0.2447  0.0377
  427MPD2    C1 6366   3.937   1.402  14.679  0.1997 -0.2837  0.5441
  427MPD2    C2 6367   3.866   1.496  14.753 -0.2521  0.1292  0.0601
  427MPD2    C3 6368   3.742   1.539  14.708 -0.1037 -0.3903  0.1374
  427MPD2    C4 6369   3.696   1.492  14.587 -0.4088  0.0788 -0.0835
  427MPD2    C5 6370   3.770   1.397  14.520 -0.8905  0.8886 -0.1639
  427MPD2     H 6371   3.925   1.547  14.828 -2.6414  2.2701  0.4631
  427MPD2    H1 6372   3.602   1.523  14.541 -0.1023 -0.6936 -1.2212
  427MPD2    H2 6373   3.919   1.261  14.505  0.3418  2.0676 -2.3055
  427MPD2    H3 6374   3.733   1.360  14.426 -0.3340 -2.1803  0.8405
  427MPD2     N 6375   3.668   1.634  14.777  0.2194  1.0890  0.4145
  427MPD2    H5 6376   3.596   1.684  14.725 -0.2834  1.3944  1.3978
  427MPD2    N1 6377   4.066   1.367  14.719  0.2951 -0.4766 -0.1052
  427MPD2    H7 6378   4.108   1.416  14.798 -0.8743  0.0016  0.2239
  428TMC3    C1 6379   4.270   1.267  14.721 -0.7270 -0.3512  0.1001
  428TMC3    C2 6380   4.325   1.147  14.738  0.4423 -0.3898  0.4537
  428TMC3    C3 6381   4.443   1.136  14.811 -0.1742  0.3015 -0.3866
  428TMC3    C4 6382   4.326   1.376  14.787  0.5127 -1.1655 -0.2759
  428TMC3    C5 6383   4.449   1.364  14.843  0.1751  0.0485  0.3612
  428TMC3    C6 6384   4.510   1.247  14.865  0.7113  0.6605 -0.9674
  428TMC3     C 6385   4.145   1.276  14.657  0.0166  0.0480  0.0475
  428TMC3     O 6386   4.122   1.187  14.579  0.7729  0.4329 -0.5648
  428TMC3     H 6387   4.271   1.059  14.707 -0.1925 -0.1005  0.7296
  428TMC3    H1 6388   4.290   1.476  14.772  0.3563 -0.9337  1.5901
  428TMC3    H2 6389   4.611   1.241  14.903  0.9227 -1.8382 -1.9155
  428TMC3    C7 6390   4.532   1.482  14.873 -0.7727 -0.0175 -0.3254
  428TMC3    C8 6391   4.507   1.009  14.827 -0.6014  0.2794  0.7721
  428TMC3    O1 6392   4.624   1.467  14.951  0.3470 -0.3984 -0.3060
  428TMC3    O2 6393   4.489   0.929  14.737  0.1039  0.8379 -0.4424
  429MPD2     C 6394   0.038   1.478   0.233  0.1526 -0.2749 -0.0543
  429MPD2    C1 6395   0.161   1.414   0.223  0.3153  0.3942 -0.1300
  429MPD2    C2 6396   0.268   1.480   0.169  0.0396  0.1422 -0.2380
  429MPD2    C3 6397   0.261   1.613   0.127  0.8999  0.0403 -0.3276
  429MPD2    C4 6398   0.139   1.678   0.136  0.0377  0.3154  0.3153
  429MPD2    C5 6399   0.033   1.608   0.180  0.0469  0.0305 -0.0295
  429MPD2     H 6400   0.365   1.432   0.164  0.4958  1.0672 -0.4598
  429MPD2    H1 6401   0.115   1.777   0.100 -0.7202 -1.2023 -3.3731
  429MPD2    H2 6402   4.680   1.434   0.288  1.2293 -1.3031  0.7261
  429MPD2    H3 6403   4.661   1.656   0.200  0.4978  2.6573 -4.2395
  429MPD2     N 6404   0.375   1.678   0.080  0.6420 -0.1811  0.4112
  429MPD2    H5 6405   0.449   1.621   0.041  0.8227  1.1673 -1.1993
  429MPD2    N1 6406   0.179   1.285   0.272 -0.2725 -0.3805 -0.3042
  429MPD2    H7 6407   0.269   1.245   0.247 -0.2883 -0.1070 -0.7911
  430TMC3    C1 6408   0.511   1.870   0.031 -0.3942 -0.1518  0.1531
  430TMC3    C2 6409   0.507   2.004   0.018 -0.1290 -0.0159  0.0029
  430TMC3    C3 6410   0.625   2.075   0.031 -0.1280 -0.8903 -0.7286
  430TMC3    C4 6411   0.629   1.795   0.032 -0.3128 -0.1962 -0.2227
  430TMC3    C5 6412   0.746   1.873   0.021  0.0080 -0.2066  0.0165
  430TMC3    C6 6413   0.744   2.011   0.036 -0.6339  0.0654 -0.0292
  430TMC3     C 6414   0.393   1.815   0.089  0.1656  0.1701 -0.5709
  430TMC3     O 6415   0.314   1.892   0.141 -0.0588  0.6463 -0.8746
  430TMC3     H 6416   0.414   2.059   0.011 -0.1617  0.0987  1.2882
  430TMC3    H1 6417   0.645   1.688   0.034 -2.4644 -0.5291 -0.8075
  430TMC3    H2 6418   0.838   2.063   0.048 -0.8323 -0.0430  1.9867
  430TMC3    C7 6419   0.815   1.841  17.591  0.3277 -0.1843  0.7711
  430TMC3    C8 6420   0.630   2.169  17.618 -0.5461  1.0893  0.1254
  430TMC3    O1 6421   0.779   1.754  17.515 -0.1666 -0.5130  0.7129
  430TMC3    O2 6422   0.569   2.138  17.515 -0.2998  0.0677 -0.2566
  431MPD2     C 6423   1.936   2.381  12.452  0.1572 -0.0446 -0.0705
  431MPD2    C1 6424   2.054   2.425  12.394 -0.3002  0.3823  0.5070
  431MPD2    C2 6425   2.132   2.335  12.324  0.7266 -0.3336  0.1169
  431MPD2    C3 6426   2.091   2.209  12.302  0.0452  0.4288 -0.8200
  431MPD2    C4 6427   1.969   2.169  12.343  0.8130  0.0458  0.2971
  431MPD2    C5 6428   1.904   2.255  12.425  0.3994  1.1285  0.0629
  431MPD2     H 6429   2.226   2.370  12.282  1.2860 -0.3629  1.3400
  431MPD2    H1 6430   1.924   2.074  12.318  0.0664  0.6897 -0.7923
  431MPD2    H2 6431   1.861   2.445  12.496 -1.0897 -1.3730 -0.2552
  431MPD2    H3 6432   1.801   2.225  12.443  0.3634  1.3743  0.2739
  431MPD2     N 6433   2.166   2.110  12.234 -0.5749  0.4282  0.9840
  431MPD2    H5 6434   2.117   2.026  12.203 -1.0317  1.5179 -1.2437
  431MPD2    N1 6435   2.096   2.562  12.409  0.0878  0.1962  0.2244
  431MPD2    H7 6436   2.174   2.581  12.347 -1.0365  2.3514 -0.5468
  432TMC3    C1 6437   2.360   2.003  12.162  0.5321 -0.3221 -0.3639
  432TMC3    C2 6438   2.485   2.025  12.107  0.6280  0.0029  0.7619
  432TMC3    C3 6439   2.558   1.913  12.091  0.2866  0.1168  0.2024
  432TMC3    C4 6440   2.308   1.881  12.199 -0.6485 -0.3900 -0.0595
  432TMC3    C5 6441   2.390   1.777  12.178 -0.1046 -0.0060  0.3789
  432TMC3    C6 6442   2.513   1.787  12.130 -0.0886  0.5787  0.1835
  432TMC3     C 6443   2.301   2.120  12.218  0.0583  0.3400  0.6602
  432TMC3     O 6444   2.380   2.210  12.238  0.0836 -0.3437  0.0470
  432TMC3     H 6445   2.519   2.121  12.068  1.2498 -0.5220  0.0271
  432TMC3    H1 6446   2.205   1.867  12.229 -1.5906 -0.1095 -3.1259
  432TMC3    H2 6447   2.584   1.706  12.144 -1.8039 -0.7510  1.2447
  432TMC3    C7 6448   2.356   1.656  12.254 -0.2880 -0.1703  0.7774
  432TMC3    C8 6449   2.688   1.928  12.030  0.8791  0.5147 -0.3185
  432TMC3    O1 6450   2.387   1.546  12.220 -0.2639 -0.4893  0.4538
  432TMC3    O2 6451   2.742   1.829  11.981 -0.5259  0.2119 -0.2910
  433MPD2     C 6452   0.407   0.732  10.780 -0.6199  0.1125  0.4518
  433MPD2    C1 6453   0.408   0.612  10.847 -0.7295 -0.0480  0.1427
  433MPD2    C2 6454   0.354   0.591  10.975  0.2024  0.2096  0.0570
  433MPD2    C3 6455   0.319   0.700  11.044 -0.1812 -0.2160 -0.7820
  433MPD2    C4 6456   0.331   0.824  10.982  0.7396  0.1946  0.3775
  433MPD2    C5 6457   0.373   0.847  10.855 -0.1529 -0.1649 -0.0674
  433MPD2     H 6458   0.336   0.495  11.022  1.3424 -0.0460 -0.0224
  433MPD2    H1 6459   0.309   0.908  11.046  0.6255  0.6612 -0.2693
  433MPD2    H2 6460   0.438   0.764  10.681 -1.2812  1.6984  0.7614
  433MPD2    H3 6461   0.372   0.948  10.817 -3.4608 -0.6722 -1.3466
  433MPD2     N 6462   0.273   0.685  11.176  0.0719  0.4682  0.7767
  433MPD2    H5 6463   0.266   0.593  11.218 -3.2917 -0.1622 -1.1535
  433MPD2    N1 6464   0.454   0.500  10.777 -0.8077 -0.3744 -0.3233
  433MPD2    H7 6465   0.466   0.503  10.677  1.0709  1.5301 -0.0495
  434TMC3    C1 6466   0.516   0.275  10.754  0.7708  0.4588  0.3129
  434TMC3    C2 6467   0.616   0.200  10.802  0.2043  0.2977  0.5744
  434TMC3    C3 6468   0.606   0.066  10.769  0.0233 -0.2781 -0.3531
  434TMC3    C4 6469   0.409   0.224  10.692 -0.2431 -0.9365 -0.4602
  434TMC3    C5 6470   0.380   0.092  10.679 -0.5735 -0.0404  0.4971
  434TMC3    C6 6471   0.491   0.010  10.720  0.1346  0.6150 -0.0970
  434TMC3     C 6472   0.492   0.386  10.841 -1.0473 -0.0111  0.1933
  434TMC3     O 6473   0.520   0.361  10.958  0.1393 -0.2076 -0.1027
  434TMC3     H 6474   0.693   0.248  10.862  0.1601 -0.9447  1.6060
  434TMC3    H1 6475   0.331   0.294  10.664  1.1993  0.7787 -0.2201
  434TMC3    H2 6476   0.474   4.626  10.722 -0.6822  0.6892 -3.0665
  434TMC3    C7 6477   0.261   0.045  10.612  0.0475 -0.3477  0.4577
  434TMC3    C8 6478   0.713   4.712  10.824 -0.8905 -0.5676  0.1929
  434TMC3    O1 6479   0.183   0.126  10.562 -1.1200 -1.0352  0.1057
  434TMC3    O2 6480   0.813   0.044  10.866  0.2858 -0.7135 -0.0756
  435MPD2     C 6481   2.853   0.774  15.655 -0.3447 -0.1833 -0.3402
  435MPD2    C1 6482   2.831   0.818  15.787 -0.0793 -0.2914  0.6835
  435MPD2    C2 6483   2.927   0.801  15.882  0.4167  0.1175 -1.1442
  435MPD2    C3 6484   3.057   0.753  15.854 -0.3573 -0.1640 -0.3612
  435MPD2    C4 6485   3.084   0.719  15.722 -0.0391  0.9282 -0.1161
  435MPD2    C5 6486   2.979   0.727  15.631  0.0706  0.3166 -0.6450
  435MPD2     H 6487   2.892   0.829  15.981 -0.7801 -0.1517 -1.4903
  435MPD2    H1 6488   3.181   0.681  15.692 -1.3842 -0.5716 -2.6366
  435MPD2    H2 6489   2.777   0.772  15.578  1.3316  0.8857 -2.0329
  435MPD2    H3 6490   2.995   0.689  15.530 -0.7728  2.1890 -1.4842
  435MPD2     N 6491   3.150   0.736  15.962 -0.2517 -0.3746 -0.2702
  435MPD2    H5 6492   3.107   0.745  16.053 -1.2932  1.8852 -0.9832
  435MPD2    N1 6493   2.706   0.864  15.838  0.2399 -0.3054  0.0519
  435MPD2    H7 6494   2.693   0.856  15.938 -3.1930 -0.7850 -0.4433
  436TMC3    C1 6495   2.352   0.971  16.039  0.5284 -0.2603 -0.2525
  436TMC3    C2 6496   2.475   0.953  15.968 -0.0694 -0.6398  0.6814
  436TMC3    C3 6497   2.469   0.885  15.847  0.1138  0.2005  0.4537
  436TMC3    C4 6498   2.232   0.927  15.992 -0.6078 -0.3101  0.1279
  436TMC3    C5 6499   2.234   0.867  15.865 -0.3977  0.7998  0.3734
  436TMC3    C6 6500   2.348   0.844  15.794 -0.2611  0.3287  0.2171
  436TMC3     C 6501   2.357   1.018  16.179  0.2428 -0.2568  0.1536
  436TMC3     O 6502   2.469   1.046  16.216  0.2036  0.5217  0.5160
  436TMC3     H 6503   2.567   0.970  16.023  0.8918  0.1812 -1.2056
  436TMC3    H1 6504   2.136   0.964  16.027 -0.1655  3.1240 -2.2507
  436TMC3    H2 6505   2.350   0.788  15.701 -1.7895  0.1796  0.2776
  436TMC3    C7 6506   2.110   0.857  15.795  0.0793  0.7735 -0.3347
  436TMC3    C8 6507   2.591   0.889  15.768 -0.5717 -0.3778 -0.2707
  436TMC3    O1 6508   2.006   0.836  15.860 -0.1644  0.3337  0.0120
  436TMC3    O2 6509   2.572   0.873  15.649  0.1326 -0.6285 -0.1625
  437TMC3    C1 6510   0.923   2.694  12.991  0.2831 -0.1731  0.1497
  437TMC3    C2 6511   1.038   2.646  13.043  0.0395  0.1999 -0.3413
  437TMC3    C3 6512   1.152   2.721  13.029 -0.3412  0.5984  0.2046
  437TMC3    C4 6513   0.925   2.815  12.930 -0.0021  0.3046 -0.4784
  437TMC3    C5 6514   1.039   2.887  12.915 -0.7917 -0.0575 -0.8906
  437TMC3    C6 6515   1.155   2.837  12.962  0.2586 -0.1226  0.0219
  437TMC3     C 6516   0.802   2.613  12.991 -0.0671 -0.3300 -0.4125
  437TMC3     O 6517   0.702   2.669  12.942  0.1876  0.0835 -0.2072
  437TMC3     H 6518   1.041   2.555  13.102 -3.9082  0.6711  0.5620
  437TMC3    H1 6519   0.839   2.846  12.870  0.6637  2.9229 -0.0732
  437TMC3    H2 6520   1.250   2.888  12.950  0.2690  0.0549  0.8655
  437TMC3    C7 6521   1.042   3.010  12.833 -0.6501 -0.2500  0.2440
  437TMC3    C8 6522   1.265   2.672  13.101 -0.2594  0.0027 -0.5157
  437TMC3    O1 6523   0.936   3.048  12.788  0.9648  0.0856  0.7236
  437TMC3    O2 6524   1.295   2.552  13.099  0.2451  0.6937  0.0412
  438MPD2     C 6525   3.943   3.184  16.960  0.9135  0.0136  0.0707
  438MPD2    C1 6526   4.049   3.156  17.045  0.0698 -0.0699  0.2604
  438MPD2    C2 6527   4.048   3.207  17.173  0.3544  0.2598  0.4111
  438MPD2    C3 6528   3.941   3.273  17.224 -0.2464  0.3731 -0.2363
  438MPD2    C4 6529   3.832   3.293  17.141  0.6264  0.0579  0.7348
  438MPD2    C5 6530   3.837   3.253  17.010 -0.3174 -0.0808 -0.3340
  438MPD2     H 6531   4.134   3.188  17.236  0.6869 -0.2172 -0.1781
  438MPD2    H1 6532   3.750   3.352  17.180  0.2150  0.0811 -0.1506
  438MPD2    H2 6533   3.941   3.151  16.857 -0.9456 -2.2531  0.8100
  438MPD2    H3 6534   3.753   3.280  16.947  0.1965 -0.0828 -1.0180
  438MPD2     N 6535   3.928   3.315  17.351 -0.0162  0.1279 -0.4060
  438MPD2    H5 6536   3.840   3.362  17.375 -1.7299 -1.1784 -4.1124
  438MPD2    N1 6537   4.160   3.074  17.008  0.2356 -0.6954 -0.0223
  438MPD2    H7 6538   4.240   3.083  17.070  0.6170 -0.1466 -0.5914
  439TMC3    C1 6539   4.275   2.916  16.873  0.6682  0.3713 -0.3886
  439TMC3    C2 6540   4.273   2.810  16.793  0.4169 -0.6025  0.6296
  439TMC3    C3 6541   4.372   2.712  16.803  0.1791 -0.0748  0.6985
  439TMC3    C4 6542   4.382   2.932  16.958  0.2038 -1.3423  0.4044
  439TMC3    C5 6543   4.476   2.830  16.976 -0.0511  0.6417  0.0143
  439TMC3    C6 6544   4.475   2.723  16.891  0.5375 -0.3209 -1.0717
  439TMC3     C 6545   4.156   2.997  16.891  0.1547 -0.3939 -0.4673
  439TMC3     O 6546   4.060   2.968  16.823  0.0675  0.0288  0.1600
  439TMC3     H 6547   4.181   2.793  16.738  0.8684  0.1515 -0.3336
  439TMC3    H1 6548   4.388   3.008  17.034 -0.0245 -0.7662 -0.1539
  439TMC3    H2 6549   4.548   2.645  16.910  1.2075  1.1246  2.2089
  439TMC3    C7 6550   4.591   2.846  17.063  0.4344  0.2458  0.2295
  439TMC3    C8 6551   4.387   2.612  16.700 -0.4275  0.6337  0.0231
  439TMC3    O1 6552   4.638   2.747  17.118 -0.5476 -0.1793  0.2836
  439TMC3    O2 6553   4.481   2.535  16.710  0.3372  0.3611  0.0408
  440MPD2     C 6554   1.902   4.080  15.221  0.7242 -0.3400  0.2510
  440MPD2    C1 6555   2.022   4.140  15.260  0.5337 -0.2781  0.5294
  440MPD2    C2 6556   2.132   4.052  15.257 -0.3948  0.6440  0.1937
  440MPD2    C3 6557   2.118   3.921  15.221 -0.7887  0.3658  0.5579
  440MPD2    C4 6558   1.994   3.865  15.194 -0.3467  0.3046  0.0868
  440MPD2    C5 6559   1.891   3.951  15.189 -0.6751  0.2045 -0.6066
  440MPD2     H 6560   2.229   4.099  15.270  1.1216 -3.0574  2.2262
  440MPD2    H1 6561   1.971   3.764  15.161 -0.2404  0.4474 -0.4296
  440MPD2    H2 6562   1.804   4.125  15.228  0.3685 -0.6508 -2.7108
  440MPD2    H3 6563   1.789   3.926  15.163 -0.6776  0.0568 -0.4496
  440MPD2     N 6564   2.226   3.830  15.223 -0.2913 -0.0751  0.4888
  440MPD2    H5 6565   2.216   3.732  15.199 -2.3826  0.2527 -0.0215
  440MPD2    N1 6566   2.035   4.277  15.288  0.9562  0.1276  0.5387
  440MPD2    H7 6567   2.123   4.317  15.318  1.3430  1.9031 -2.9520
  441TMC3    C1 6568   2.428   3.746  15.197 -0.4213  0.2164  0.1436
  441TMC3    C2 6569   2.566   3.772  15.191 -0.2514  0.7793  0.1526
  441TMC3    C3 6570   2.655   3.667  15.187 -0.7637  0.2266 -0.3151
  441TMC3    C4 6571   2.391   3.620  15.227  0.2634  0.2225 -0.2564
  441TMC3    C5 6572   2.487   3.520  15.255  0.7208  0.2644 -0.0121
  441TMC3    C6 6573   2.623   3.542  15.226 -0.6346  0.0709 -0.1505
  441TMC3     C 6574   2.353   3.862  15.240  0.2833  0.1351  0.2005
  441TMC3     O 6575   2.415   3.949  15.296  0.2669 -0.3909 -0.0779
  441TMC3     H 6576   2.595   3.875  15.179 -0.3738  0.4653 -2.9985
  441TMC3    H1 6577   2.286   3.600  15.243  0.3003 -0.5141 -0.9159
  441TMC3    H2 6578   2.691   3.469  15.269  0.5251  1.2013 -0.0768
  441TMC3    C7 6579   2.451   3.423  15.359 -0.0713  0.5737 -0.2769
  441TMC3    C8 6580   2.787   3.707  15.230  0.1159 -0.1308 -0.0672
  441TMC3    O1 6581   2.335   3.431  15.394 -0.0052  0.3841 -0.5724
  441TMC3    O2 6582   2.874   3.672  15.153 -0.2311 -0.0412  0.4293
  442MPD2     C 6583   0.666   4.481  16.685 -0.1744 -0.1439 -0.5940
  442MPD2    C1 6584   0.621   4.396  16.782 -0.2173  0.1340  0.5457
  442MPD2    C2 6585   0.626   4.266  16.756  0.4992 -0.0920 -0.3167
  442MPD2    C3 6586   0.684   4.211  16.641  0.8350  0.0322  0.4740
  442MPD2    C4 6587   0.741   4.296  16.551  0.1396 -0.4368  0.4417
  442MPD2    C5 6588   0.734   4.434  16.574 -0.1975  0.2211  0.7276
  442MPD2     H 6589   0.577   4.200  16.826  0.3526 -0.1569 -0.4785
  442MPD2    H1 6590   0.798   4.262  16.465 -1.3475  1.2025 -1.2175
  442MPD2    H2 6591   0.654   4.589  16.686 -0.4737 -0.1968  2.0400
  442MPD2    H3 6592   0.776   4.501  16.498 -0.0683 -0.1301  0.4896
  442MPD2     N 6593   0.691   4.075  16.602 -0.2864  0.1340  0.1911
  442MPD2    H5 6594   0.747   4.043  16.523 -0.5308  3.4313 -1.3026
  442MPD2    N1 6595   0.564   4.435  16.901  0.3637 -0.4028 -0.5011
  442MPD2    H7 6596   0.523   4.363  16.960 -1.5306  0.8048 -0.3510
  443TMC3    C1 6597   0.448   4.593  17.050  0.4774 -0.2758  0.3395
  443TMC3    C2 6598   0.364   4.700  17.060 -0.3086  0.0377  0.0356
  443TMC3    C3 6599   0.237   4.678  17.105  0.0292 -0.6083 -0.3722
  443TMC3    C4 6600   0.421   4.478  17.117  0.8549 -0.0697 -0.6745
  443TMC3    C5 6601   0.306   4.466  17.176  0.1963 -0.0873  0.4016
  443TMC3    C6 6602   0.208   4.559  17.165  0.0567 -0.8901 -0.7106
  443TMC3     C 6603   0.528   4.567  16.931  1.1307  0.1315  0.1226
  443TMC3     O 6604   0.549   4.671  16.871  0.1170  0.0104  0.1735
  443TMC3     H 6605   0.391   0.065  17.003  1.0833  0.4696  1.3473
  443TMC3    H1 6606   0.489   4.393  17.120  0.8938 -0.0523 -1.0379
  443TMC3    H2 6607   0.108   4.553  17.207 -0.6376  0.6524 -2.1568
  443TMC3    C7 6608   0.278   4.354  17.260  0.0301 -0.1441  0.4431
  443TMC3    C8 6609   0.160   4.661  16.988 -0.3103  0.3935 -0.8405
  443TMC3    O1 6610   0.337   4.252  17.229  0.3244 -0.7781 -0.3236
  443TMC3    O2 6611   0.102   4.556  16.975 -0.1694 -0.0400 -0.0439
  444MPD2     C 6612   1.164   3.748  17.419  0.1505 -0.2071  0.1334
  444MPD2    C1 6613   1.070   3.655  17.443 -0.5064  0.3026 -0.5386
  444MPD2    C2 6614   1.062   3.540  17.363 -0.3583  0.1278 -0.1870
  444MPD2    C3 6615   1.153   3.522  17.257  0.1626 -0.1592  0.9036
  444MPD2    C4 6616   1.245   3.619  17.232 -0.6282  0.1731 -0.4481
  444MPD2    C5 6617   1.247   3.730  17.312  0.9867  0.3846  0.1370
  444MPD2     H 6618   0.993   3.460  17.384 -1.8061  1.2798 -0.5126
  444MPD2    H1 6619   1.317   3.622  17.151  3.4801  2.0015  3.2747
  444MPD2    H2 6620   1.182   3.833  17.485 -1.5223  1.3400 -1.4288
  444MPD2    H3 6621   1.317   3.808  17.283 -0.9840  1.8400 -0.7245
  444MPD2     N 6622   1.150   3.403  17.178 -0.0302 -0.2000  0.1165
  444MPD2    H5 6623   1.086   3.333  17.213  0.5374 -1.2748 -0.9941
  444MPD2    N1 6624   0.973   3.669  17.547  0.0256 -0.4542 -0.3112
  444MPD2    H7 6625   0.905   3.594  17.553 -0.2238 -0.2901 -1.1093
  445TMC3    C1 6626   1.202   3.265  16.995  0.0982  0.5081 -0.0706
  445TMC3    C2 6627   1.073   3.230  16.968  0.2445 -0.1423 -1.1089
  445TMC3    C3 6628   1.050   3.109  16.897  0.0840 -0.5203 -0.1311
  445TMC3    C4 6629   1.308   3.196  16.944 -0.3427  0.2486  0.1774
  445TMC3    C5 6630   1.282   3.083  16.869 -0.1790  0.4120 -0.4307
  445TMC3    C6 6631   1.156   3.034  16.852  0.2200  0.4634  0.1232
  445TMC3     C 6632   1.232   3.379  17.071 -0.0730  1.1901 -0.2638
  445TMC3     O 6633   1.343   3.428  17.051  0.1049  0.6333 -0.4634
  445TMC3     H 6634   0.986   3.288  16.999  0.3239 -0.7237  0.1803
  445TMC3    H1 6635   1.408   3.229  16.969 -0.0956  2.0406 -3.2729
  445TMC3    H2 6636   1.132   2.951  16.787  3.1652 -0.2734  0.0043
  445TMC3    C7 6637   1.394   3.012  16.823  0.2341 -0.2376 -0.0522
  445TMC3    C8 6638   0.926   3.033  16.907  0.5847  0.5804  0.0020
  445TMC3    O1 6639   1.502   3.068  16.841 -0.3662  0.0590 -0.0161
  445TMC3    O2 6640   0.908   2.939  16.831 -0.2901  0.3484  0.1830
  446MPD2     C 6641   0.205   0.049  11.326  0.1697 -0.3857  0.9128
  446MPD2    C1 6642   0.218   0.092  11.195  0.1993 -0.3365  0.0867
  446MPD2    C2 6643   0.312   0.192  11.161  0.2244  1.3498 -0.2018
  446MPD2    C3 6644   0.401   0.236  11.260  0.4420 -0.3657  0.3034
  446MPD2    C4 6645   0.388   0.186  11.392 -0.2166 -1.0921  0.2279
  446MPD2    C5 6646   0.284   0.095  11.423 -0.0885  0.1451  0.2056
  446MPD2     H 6647   0.329   0.214  11.056 -0.9489 -2.5225 -1.2045
  446MPD2    H1 6648   0.450   0.224  11.472  0.3787  2.2829 -1.8525
  446MPD2    H2 6649   0.143   4.692  11.363  0.4957 -1.1837 -0.2831
  446MPD2    H3 6650   0.285   0.056  11.524  0.6140  0.1935  0.2141
  446MPD2     N 6651   0.498   0.329  11.222 -0.3424 -0.0128 -0.2691
  446MPD2    H5 6652   0.499   0.353  11.123 -0.1191 -0.8794 -0.4797
  446MPD2    N1 6653   0.135   0.032  11.098  0.0376  0.5305  0.3539
  446MPD2    H7 6654   0.083   4.672  11.125  0.1130  0.6460  0.8424
  447TMC3    C1 6655   0.720   0.430  11.231 -0.1205  0.9658  0.5175
  447TMC3    C2 6656   0.698   0.548  11.167  0.1235 -0.4313 -0.1764
  447TMC3    C3 6657   0.808   0.614  11.134  0.9623  0.6301 -0.8111
  447TMC3    C4 6658   0.846   0.396  11.279 -0.2663 -0.5455 -0.0679
  447TMC3    C5 6659   0.952   0.469  11.233  0.6276 -0.7136  0.5143
  447TMC3    C6 6660   0.936   0.573  11.154 -0.4425  0.0210 -0.0981
  447TMC3     C 6661   0.612   0.357  11.302  0.0897 -0.2382  0.2186
  447TMC3     O 6662   0.642   0.303  11.409  0.1165 -0.1167 -0.3668
  447TMC3     H 6663   0.597   0.584  11.148  0.2054 -0.5089 -0.7653
  447TMC3    H1 6664   0.852   0.308  11.342  1.0622 -0.8685 -0.6651
  447TMC3    H2 6665   1.020   0.625  11.108 -1.8427  2.7233  0.3889
  447TMC3    C7 6666   1.077   0.399  11.206 -0.2619  0.1426  0.8265
  447TMC3    C8 6667   0.784   0.653  10.998  0.1771  0.5823  0.3776
  447TMC3    O1 6668   1.179   0.459  11.176 -1.2046 -0.0325 -0.0176
  447TMC3    O2 6669   0.692   0.733  10.974 -0.3068  0.4995 -0.4384
  448TMC3    C1 6670   4.029   4.701  16.735 -0.0352  0.0195 -0.5121
  448TMC3    C2 6671   3.996   4.572  16.722 -0.4902  0.2945 -0.5239
  448TMC3    C3 6672   4.067   4.479  16.791  0.9477 -0.4682  0.7040
  448TMC3    C4 6673   4.133   0.010  16.814 -0.8011 -0.5497 -0.2181
  448TMC3    C5 6674   4.199   4.642  16.888 -0.2317 -0.3569  0.0955
  448TMC3    C6 6675   4.164   4.511  16.877 -0.7089  0.2176 -1.0881
  448TMC3     C 6676   3.951   0.077  16.666 -0.5558  0.3907 -0.0399
  448TMC3     O 6677   3.838   0.038  16.641 -0.2409  0.0240 -0.2259
  448TMC3     H 6678   3.921   4.552  16.646  1.7661  3.4185 -3.5368
  448TMC3    H1 6679   4.162   0.111  16.838  0.1760 -0.6425 -1.0211
  448TMC3    H2 6680   4.218   4.432  16.928 -1.5554  0.1503 -0.3022
  448TMC3    C7 6681   4.310   4.692  16.973 -0.3071 -0.3472 -0.3993
  448TMC3    C8 6682   4.053   4.334  16.759 -0.2762 -0.3247  0.0993
  448TMC3    O1 6683   4.356   0.083  16.964 -0.1238 -0.6973  0.0333
  448TMC3    O2 6684   4.130   4.263  16.813  0.6331  0.3768  0.0276
  449MPD2     C 6685   0.213   3.685  13.906  0.2650 -0.5405  0.4502
  449MPD2    C1 6686   0.087   3.642  13.872 -0.6431 -0.2231  0.1687
  449MPD2    C2 6687   0.036   3.525  13.918 -0.6578  0.6435 -0.5324
  449MPD2    C3 6688   0.113   3.450  14.007  0.2116  0.0604 -0.1274
  449MPD2    C4 6689   0.245   3.489  14.041  0.1185 -0.2038  0.4024
  449MPD2    C5 6690   0.301   3.612  13.988 -0.2407 -0.4697  0.6474
  449MPD2     H 6691   4.664   3.492  13.880 -0.5962  2.2779 -2.1232
  449MPD2    H1 6692   0.306   3.415  14.092  0.3364  0.6964  1.4453
  449MPD2    H2 6693   0.250   3.779  13.866 -1.7615  0.3403  0.6724
  449MPD2    H3 6694   0.406   3.628  14.008 -0.2809  1.9301 -1.1439
  449MPD2     N 6695   0.062   3.324  14.046  0.6075  0.0160  0.5706
  449MPD2    H5 6696   4.695   3.306  14.003  0.3089 -0.4275  1.3837
  449MPD2    N1 6697   0.002   3.713  13.784 -0.7375  0.9926  0.3271
  449MPD2    H7 6698   4.630   3.678  13.786 -1.0183  1.5862 -2.1568
  450TMC3    C1 6699   4.628   3.843  13.622 -0.4887  0.0766  0.5412
  450TMC3    C2 6700   4.660   3.818  13.490  0.0899 -0.3070 -0.1040
  450TMC3    C3 6701   4.574   3.745  13.415 -0.8874  0.3114  0.7145
  450TMC3    C4 6702   4.511   3.796  13.676  0.7759  0.1730 -0.3626
  450TMC3    C5 6703   4.434   3.714  13.600 -0.2106 -0.1873  0.0442
  450TMC3    C6 6704   4.459   3.686  13.467  0.9925 -0.3238  0.8912
  450TMC3     C 6705   0.024   3.825  13.707  0.8210 -0.0460 -0.6104
  450TMC3     O 6706   0.134   3.878  13.680 -0.5441 -1.0147 -0.0463
  450TMC3     H 6707   0.029   3.855  13.447  0.0564  0.6421  0.6296
  450TMC3    H1 6708   4.493   3.809  13.782 -0.8608  1.2564 -0.7690
  450TMC3    H2 6709   4.399   3.626  13.399  2.9501 -1.4925  0.2079
  450TMC3    C7 6710   4.391   3.597  13.673 -0.0889 -0.1967 -0.5654
  450TMC3    C8 6711   4.615   3.712  13.277 -0.3677 -0.3746  0.6502
  450TMC3    O1 6712   4.444   3.585  13.783  0.7597  0.5826 -0.0343
  450TMC3    O2 6713   4.524   3.681  13.198  0.3318 -0.6793 -0.0949
  451MPD2     C 6714   1.244   0.951   1.632  0.1410  0.0808  0.2540
  451MPD2    C1 6715   1.268   1.067   1.555  0.6746  0.0671 -0.0700
  451MPD2    C2 6716   1.395   1.106   1.522 -0.2569 -0.0740 -0.3077
  451MPD2    C3 6717   1.501   1.028   1.558 -0.2322 -0.3083  0.0267
  451MPD2    C4 6718   1.476   0.909   1.621 -0.5744  0.3079 -0.8589
  451MPD2    C5 6719   1.350   0.871   1.660  0.2011  0.0756 -0.2027
  451MPD2     H 6720   1.414   1.196   1.464  1.0020 -1.3500 -1.8638
  451MPD2    H1 6721   1.560   0.853   1.659  0.6607  2.5294 -0.2898
  451MPD2    H2 6722   1.145   0.930   1.669  0.5496 -2.2145  0.0595
  451MPD2    H3 6723   1.338   0.788   1.730  0.0218 -2.0292 -2.7206
  451MPD2     N 6724   1.638   1.062   1.530 -0.1329  0.3959  0.2004
  451MPD2    H5 6725   1.706   1.002   1.576  1.1564  0.8750 -1.1086
  451MPD2    N1 6726   1.161   1.146   1.517 -0.1412  0.2414 -0.0689
  451MPD2    H7 6727   1.073   1.110   1.553  0.1268 -1.9166 -1.5594
  452TMC3    C1 6728   1.811   1.197   1.449  0.4064  0.1628 -0.2655
  452TMC3    C2 6729   1.890   1.140   1.549  0.0732  0.1094  0.4986
  452TMC3    C3 6730   2.027   1.173   1.533 -0.2670 -1.2811 -0.2594
  452TMC3    C4 6731   1.857   1.282   1.344 -0.7040  0.1103  0.6217
  452TMC3    C5 6732   1.994   1.305   1.339  0.2461  0.0318  0.2359
  452TMC3    C6 6733   2.075   1.249   1.428  0.1917  0.1289 -0.3978
  452TMC3     C 6734   1.671   1.176   1.461  0.4309  0.1516  0.1915
  452TMC3     O 6735   1.610   1.233   1.374 -0.3621 -0.0134 -0.2984
  452TMC3     H 6736   1.868   1.079   1.636 -2.0085  0.2708  0.0852
  452TMC3    H1 6737   1.792   1.326   1.270  0.4742 -0.7650 -0.9264
  452TMC3    H2 6738   2.180   1.271   1.412 -0.3684  2.7847 -0.4761
  452TMC3    C7 6739   2.046   1.413   1.252 -0.2407 -0.2550 -0.2572
  452TMC3    C8 6740   2.113   1.078   1.595  0.5179 -0.3964 -0.4323
  452TMC3    O1 6741   1.956   1.461   1.187 -0.2393 -0.3106 -0.3208
  452TMC3    O2 6742   2.073   1.029   1.701 -0.1062 -0.1585  0.1865
  453TMC3    C1 6743   2.899   3.800  11.752  0.1957 -0.3570  0.0081
  453TMC3    C2 6744   2.775   3.756  11.785  0.3635 -0.1044  0.1993
  453TMC3    C3 6745   2.693   3.708  11.683 -1.0178  0.2929  0.4265
  453TMC3    C4 6746   2.938   3.803  11.618  0.0585 -0.3519  0.7284
  453TMC3    C5 6747   2.852   3.761  11.515 -0.5498 -0.2535 -0.1031
  453TMC3    C6 6748   2.722   3.720  11.548 -0.5660 -0.4878 -0.0768
  453TMC3     C 6749   2.985   3.872  11.847 -0.5635  0.1941  0.8021
  453TMC3     O 6750   3.095   3.909  11.815  0.4604 -0.4548 -0.8542
  453TMC3     H 6751   2.743   3.750  11.888 -3.0815  1.3237 -0.7968
  453TMC3    H1 6752   3.031   3.849  11.588 -0.1788 -0.8331 -0.7414
  453TMC3    H2 6753   2.651   3.685  11.475 -1.4045  0.0911  0.4602
  453TMC3    C7 6754   2.872   3.807  11.382 -1.0094 -0.1132  1.0428
  453TMC3    C8 6755   2.584   3.618  11.726 -1.2585 -0.0281  0.0111
  453TMC3    O1 6756   2.769   3.808  11.311 -0.5442  0.0506  0.2493
  453TMC3    O2 6757   2.504   3.580  11.644  0.3383  0.1326 -0.4920
  454MPD2     C 6758   1.720   3.169  16.594  0.3229 -0.0088 -0.0061
  454MPD2    C1 6759   1.652   3.255  16.518 -0.4872  0.0951  0.9083
  454MPD2    C2 6760   1.614   3.374  16.571  0.6494 -0.4036 -0.2739
  454MPD2    C3 6761   1.638   3.411  16.700  0.5446  0.0267 -0.3191
  454MPD2    C4 6762   1.704   3.323  16.778  0.1030  0.0059 -0.5098
  454MPD2    C5 6763   1.738   3.195  16.729 -0.2808  0.2407 -0.3648
  454MPD2     H 6764   1.552   3.438  16.509  0.0959 -0.5272  0.1526
  454MPD2    H1 6765   1.712   3.331  16.885 -1.9400 -1.4003 -0.2542
  454MPD2    H2 6766   1.750   3.070  16.562  0.2507  0.4225 -1.4415
  454MPD2    H3 6767   1.796   3.127  16.791 -1.9681 -2.1583 -1.4263
  454MPD2     N 6768   1.583   3.534  16.759  0.3693  0.1280  0.0513
  454MPD2    H5 6769   1.576   3.547  16.860 -2.2733 -1.2357  0.0126
  454MPD2    N1 6770   1.626   3.229  16.380  0.0875  0.1663  0.2700
  454MPD2    H7 6771   1.598   3.311  16.327 -1.8713  0.9687  2.5139
  455TMC3    C1 6772   1.389   3.657  16.748  0.4953 -0.0845 -0.2500
  455TMC3    C2 6773   1.330   3.777  16.714 -0.6848 -0.0498 -0.4998
  455TMC3    C3 6774   1.196   3.780  16.695  0.5190  0.1087  0.5020
  455TMC3    C4 6775   1.308   3.550  16.753  0.7063  0.8770  0.1918
  455TMC3    C5 6776   1.167   3.555  16.725  0.1592  0.4499  0.1410
  455TMC3    C6 6777   1.110   3.673  16.696  0.1575  0.1156  0.4908
  455TMC3     C 6778   1.518   3.629  16.690  0.0088 -0.2061  0.1330
  455TMC3     O 6779   1.535   3.669  16.580 -0.8411 -0.0709  0.2029
  455TMC3     H 6780   1.386   3.863  16.679  0.0205 -0.1532  0.3858
  455TMC3    H1 6781   1.351   3.453  16.776 -0.0223  0.9356  1.8048
  455TMC3    H2 6782   1.007   3.683  16.666  0.6791  0.2169 -1.2261
  455TMC3    C7 6783   1.122   3.435  16.664  0.1779  0.5498  0.8450
  455TMC3    C8 6784   1.139   3.910  16.668  0.0618  0.0175 -0.5126
  455TMC3    O1 6785   1.204   3.348  16.641  0.0768  0.4445  0.1438
  455TMC3    O2 6786   1.030   3.919  16.609 -0.6552  0.6678  0.2184
  456MPD2     C 6787   4.207   2.976  16.335 -0.1430  1.0985  0.3277
  456MPD2    C1 6788   4.302   2.979  16.435 -0.5810 -0.6676 -0.0054
  456MPD2    C2 6789   4.284   3.064  16.543 -0.0023 -0.0024  0.2047
  456MPD2    C3 6790   4.169   3.144  16.542 -0.3761 -0.5083  0.2855
  456MPD2    C4 6791   4.067   3.130  16.452 -0.5812 -0.3468 -0.3468
  456MPD2    C5 6792   4.086   3.046  16.344  0.1178 -0.1680 -1.1322
  456MPD2     H 6793   4.366   3.075  16.614  1.3423 -3.3916 -0.8378
  456MPD2    H1 6794   3.972   3.182  16.463 -0.0395  0.3733  0.7767
  456MPD2    H2 6795   4.230   2.911  16.252  1.5831  1.7041  0.3331
  456MPD2    H3 6796   4.009   3.040  16.267 -1.2123 -0.4145  0.2266
  456MPD2     N 6797   4.160   3.245  16.640  0.3697 -0.0916  0.4971
  456MPD2    H5 6798   4.244   3.251  16.697  0.3435 -0.5582  0.5903
  456MPD2    N1 6799   4.428   2.913  16.409 -0.1859  0.1517  0.4532
  456MPD2    H7 6800   4.443   2.878  16.315 -1.8018  1.5010 -0.3239
  457TMC3    C1 6801   4.091   3.447  16.756  0.7153 -0.2545 -0.7143
  457TMC3    C2 6802   4.051   3.570  16.716  0.0708  0.7835  0.2455
  457TMC3    C3 6803   4.083   3.671  16.801  0.0371 -0.0523  0.2596
  457TMC3    C4 6804   4.164   3.426  16.875 -0.3735  0.2597 -1.0934
  457TMC3    C5 6805   4.189   3.528  16.953  0.1255  0.3391 -0.5410
  457TMC3    C6 6806   4.166   3.666  16.913  0.1792  0.2520  0.2703
  457TMC3     C 6807   4.061   3.339  16.661  0.4643 -0.2701 -0.8210
  457TMC3     O 6808   3.952   3.341  16.609 -0.7178 -0.0692 -0.0249
  457TMC3     H 6809   4.003   3.589  16.620  2.7019  0.3681 -1.1634
  457TMC3    H1 6810   4.204   3.329  16.900  1.2290  0.8553 -1.3553
  457TMC3    H2 6811   4.191   3.758  16.965 -0.9525  0.2743  0.7776
  457TMC3    C7 6812   4.256   3.499  17.079  0.0442  0.2910 -0.1321
  457TMC3    C8 6813   4.054   3.800  16.757  0.2193 -0.4397 -0.6607
  457TMC3    O1 6814   4.286   3.383  17.103  0.2507  0.0648  0.1236
  457TMC3    O2 6815   4.146   3.878  16.792  0.5339 -0.0863  0.1504
  458MPD2     C 6816   1.286   3.403  12.599  0.5012  0.3990  0.6184
  458MPD2    C1 6817   1.374   3.347  12.686 -0.0134 -0.5065  0.5031
  458MPD2    C2 6818   1.332   3.235  12.756  0.3265 -0.7995  0.3985
  458MPD2    C3 6819   1.205   3.181  12.747 -0.0192 -0.2164 -0.2406
  458MPD2    C4 6820   1.119   3.237  12.664  0.1758 -0.2090  0.4997
  458MPD2    C5 6821   1.164   3.347  12.594  0.5303 -0.4297  0.6170
  458MPD2     H 6822   1.409   3.191  12.818 -0.2105  1.8256  2.9403
  458MPD2    H1 6823   1.026   3.191  12.632 -0.3778  0.0544  1.7275
  458MPD2    H2 6824   1.303   3.487  12.533  1.3391  0.7063  1.2178
  458MPD2    H3 6825   1.095   3.386  12.520  1.4587 -0.7920 -0.4348
  458MPD2     N 6826   1.173   3.065  12.821 -0.1548  0.2947  0.3962
  458MPD2    H5 6827   1.240   3.031  12.890  0.5488  0.7710 -0.0563
  458MPD2    N1 6828   1.502   3.400  12.684  0.3183  0.1325 -0.6861
  458MPD2    H7 6829   1.516   3.495  12.650  1.3444 -0.1175 -0.9517
  459TMC3    C1 6830   1.722   3.427  12.761 -0.3653  0.2501  0.4300
  459TMC3    C2 6831   1.798   3.478  12.658  0.8190 -1.1086  0.0144
  459TMC3    C3 6832   1.926   3.504  12.694  0.4516  0.2983  0.0430
  459TMC3    C4 6833   1.772   3.394  12.884  0.3022  0.4041 -0.0240
  459TMC3    C5 6834   1.898   3.421  12.908  0.4585  0.0509  0.0589
  459TMC3    C6 6835   1.982   3.481  12.817  0.0311  0.1926 -1.0546
  459TMC3     C 6836   1.612   3.336  12.725 -1.7276  0.8610  0.2269
  459TMC3     O 6837   1.623   3.217  12.738  0.0741 -0.0189  0.2231
  459TMC3     H 6838   1.752   3.485  12.560 -1.1164 -2.3082  0.8406
  459TMC3    H1 6839   1.702   3.361  12.959  2.0011 -1.1962  0.8502
  459TMC3    H2 6840   2.089   3.486  12.834 -0.2468  1.4127  0.2603
  459TMC3    C7 6841   1.949   3.354  13.026 -0.5164 -0.5054  0.7289
  459TMC3    C8 6842   2.009   3.590  12.606 -0.2250 -0.1419  0.7118
  459TMC3    O1 6843   1.895   3.248  13.053 -0.5000 -0.3836 -0.1073
  459TMC3    O2 6844   2.099   3.657  12.651  0.5357 -0.3112 -0.7456
  460MPD2     C 6845   0.909   0.455  10.721 -0.7764  0.2399  0.0809
  460MPD2    C1 6846   0.840   0.558  10.776 -0.2009  0.2238  0.1271
  460MPD2    C2 6847   0.760   0.639  10.702 -0.0293 -0.0265  0.6190
  460MPD2    C3 6848   0.738   0.615  10.570  0.5812  0.5440 -0.4983
  460MPD2    C4 6849   0.806   0.504  10.513 -0.0524  0.1327  0.0757
  460MPD2    C5 6850   0.889   0.433  10.590 -0.0090 -0.3369  0.2698
  460MPD2     H 6851   0.699   0.713  10.753  1.9981  2.7204 -0.9617
  460MPD2    H1 6852   0.798   0.482  10.407  0.0245  2.2859 -0.3762
  460MPD2    H2 6853   0.989   0.403  10.774  0.2825  0.8992 -0.8774
  460MPD2    H3 6854   0.947   0.353  10.545  0.6381 -0.1606  0.7889
  460MPD2     N 6855   0.631   0.671  10.503  0.7557 -0.0271 -0.0801
  460MPD2    H5 6856   0.605   0.765  10.532 -0.7855 -0.0831 -1.2397
  460MPD2    N1 6857   0.849   0.565  10.918 -0.0814 -0.2517 -0.3139
  460MPD2    H7 6858   0.894   0.485  10.962  1.7314 -0.0419 -1.7715
  461TMC3    C1 6859   0.456   0.695  10.342 -0.4435  0.0202 -0.1227
  461TMC3    C2 6860   0.365   0.620  10.271  1.1646 -0.5749 -0.2118
  461TMC3    C3 6861   0.297   0.674  10.163 -0.3249 -0.8820 -0.1860
  461TMC3    C4 6862   0.478   0.830  10.327  0.1652 -0.5522 -0.4931
  461TMC3    C5 6863   0.392   0.882  10.230 -0.3059  0.0322  0.2734
  461TMC3    C6 6864   0.312   0.808  10.139 -0.1535 -0.7844 -0.8297
  461TMC3     C 6865   0.559   0.615  10.406  0.1314 -0.1918 -0.5924
  461TMC3     O 6866   0.555   0.496  10.376  0.1258  0.2962 -0.1667
  461TMC3     H 6867   0.367   0.515  10.296  2.1166 -0.8335 -1.3966
  461TMC3    H1 6868   0.535   0.887  10.399  1.0254 -1.6437 -0.3031
  461TMC3    H2 6869   0.242   0.856  10.071  1.7180  1.5577 -1.1200
  461TMC3    C7 6870   0.373   1.022  10.219  0.6718  0.2249  0.6545
  461TMC3    C8 6871   0.298   0.581  10.053  0.3360  0.5935  0.1308
  461TMC3    O1 6872   0.277   1.056  10.152  0.2092  0.3462  0.3003
  461TMC3    O2 6873   0.351   0.621   9.951  0.3525  0.1813 -0.3329
  462TMC3    C1 6874   0.795   1.769   0.448 -0.3162 -0.1477  0.1733
  462TMC3    C2 6875   0.893   1.747   0.347  0.0067  0.2668  0.6606
  462TMC3    C3 6876   0.950   1.623   0.345  0.7437  0.6842 -0.6221
  462TMC3    C4 6877   0.747   1.670   0.526  0.3615 -0.9887  0.1616
  462TMC3    C5 6878   0.814   1.554   0.529  0.2017  0.0610  0.3376
  462TMC3    C6 6879   0.917   1.532   0.443  0.0062  0.4529  0.4501
  462TMC3     C 6880   0.747   1.906   0.457 -0.2678 -0.0762 -0.9018
  462TMC3     O 6881   0.627   1.921   0.481  0.0594  0.5177  0.0789
  462TMC3     H 6882   0.922   1.815   0.268  0.6721  0.8772  1.4391
  462TMC3    H1 6883   0.674   1.699   0.601  0.8467  1.0915 -0.1907
  462TMC3    H2 6884   0.981   1.447   0.466  0.1759  0.2831 -0.6778
  462TMC3    C7 6885   0.799   1.449   0.637  0.5422  0.3741  0.3752
  462TMC3    C8 6886   0.957   1.565   0.209 -0.3715  1.0886  0.0219
  462TMC3    O1 6887   0.857   1.344   0.625  1.3432  0.0514 -0.1563
  462TMC3    O2 6888   0.951   1.640   0.117  0.5173  0.2766 -0.0677
  463MPD2     C 6889   2.886   3.867   1.459 -0.5287  0.6119 -0.1826
  463MPD2    C1 6890   2.837   3.992   1.482 -0.1508 -0.6113 -0.8438
  463MPD2    C2 6891   2.914   4.098   1.526  0.4605 -0.2570 -0.4024
  463MPD2    C3 6892   3.053   4.075   1.549  0.2211 -0.0870 -0.2480
  463MPD2    C4 6893   3.099   3.943   1.523  0.0399  0.2102  0.7743
  463MPD2    C5 6894   3.015   3.850   1.476 -0.0141 -0.2371  0.0189
  463MPD2     H 6895   2.863   4.194   1.534 -1.4354 -1.4309  1.5844
  463MPD2    H1 6896   3.205   3.922   1.527 -0.3672 -2.0687 -0.4496
  463MPD2    H2 6897   2.829   3.786   1.415  0.5848  0.3073 -1.0562
  463MPD2    H3 6898   3.045   3.752   1.441  0.9166 -0.6110  1.8898
  463MPD2     N 6899   3.145   4.173   1.589  0.0359  0.0853 -0.0420
  463MPD2    H5 6900   3.244   4.149   1.583 -0.1062 -0.2388 -1.0180
  463MPD2    N1 6901   2.697   4.002   1.476  0.3294  0.9987 -0.4829
  463MPD2    H7 6902   2.647   3.914   1.474  1.4290  0.3547 -0.0183
  464TMC3    C1 6903   2.476   4.076   1.525 -0.0549 -0.0919 -0.9776
  464TMC3    C2 6904   2.416   4.144   1.631  0.3292 -0.1182 -0.2575
  464TMC3    C3 6905   2.283   4.119   1.657 -0.5170 -0.3232  0.3299
  464TMC3    C4 6906   2.418   3.974   1.459  0.9774  0.4752  0.1059
  464TMC3    C5 6907   2.287   3.953   1.487  0.3775 -0.1396  0.3138
  464TMC3    C6 6908   2.217   4.030   1.573  0.3606  0.1655  0.3126
  464TMC3     C 6909   2.613   4.119   1.494 -0.4877 -0.0540  0.3246
  464TMC3     O 6910   2.646   4.234   1.500 -0.2101  0.5535 -0.0111
  464TMC3     H 6911   2.475   4.223   1.676 -2.1253  0.5869  1.6768
  464TMC3    H1 6912   2.473   3.924   1.380 -1.7955 -1.5366 -0.5475
  464TMC3    H2 6913   2.112   4.013   1.590  0.3534 -2.0400 -1.9236
  464TMC3    C7 6914   2.215   3.878   1.385  0.3048  0.0197 -0.3820
  464TMC3    C8 6915   2.209   4.238   1.681 -0.1142  0.5183  0.0075
  464TMC3    O1 6916   2.291   3.825   1.303  0.3526  0.7753 -0.1609
  464TMC3    O2 6917   2.101   4.244   1.626 -0.8219 -0.3919  0.6842
  465MPD2     C 6918   3.640   3.557  16.821 -0.0580  0.1187  0.0730
  465MPD2    C1 6919   3.610   3.690  16.816  0.5957  0.0264 -0.4716
  465MPD2    C2 6920   3.505   3.722  16.728  0.3866 -0.3791  0.7920
  465MPD2    C3 6921   3.436   3.630  16.647 -0.4592  0.4195 -0.1575
  465MPD2    C4 6922   3.473   3.495  16.661 -0.5163  0.3398 -0.1352
  465MPD2    C5 6923   3.572   3.459  16.749  0.7443 -0.4218  0.1142
  465MPD2     H 6924   3.470   3.825  16.722 -0.0424 -0.8448 -4.0972
  465MPD2    H1 6925   3.420   3.423  16.600  0.3077 -1.0466  0.7895
  465MPD2    H2 6926   3.722   3.522  16.884 -1.4340 -0.3035  1.6371
  465MPD2    H3 6927   3.593   3.353  16.759  1.5350 -0.4434 -1.7383
  465MPD2     N 6928   3.318   3.667  16.576  0.3420  0.6466  0.0152
  465MPD2    H5 6929   3.250   3.596  16.551  1.0935  0.0623 -0.3713
  465MPD2    N1 6930   3.667   3.793  16.891  0.1930 -0.5008 -0.0830
  465MPD2    H7 6931   3.647   3.891  16.872  1.1138 -0.1936  0.5620
  466TMC3    C1 6932   2.935   3.702  16.652 -1.0456  0.2909 -0.1577
  466TMC3    C2 6933   2.861   3.782  16.564  0.5797  0.0708  0.4715
  466TMC3    C3 6934   2.926   3.863  16.476  0.6732  0.0626 -0.0889
  466TMC3    C4 6935   3.072   3.701  16.643  0.5870  0.1082  0.0996
  466TMC3    C5 6936   3.130   3.792  16.553  0.2102 -0.5285 -0.5575
  466TMC3    C6 6937   3.062   3.867  16.464 -0.8881  0.3598  0.0787
  466TMC3     C 6938   2.868   3.622  16.747 -0.4547 -0.1891 -0.4932
  466TMC3     O 6939   2.768   3.664  16.799 -0.4537 -0.3371  0.1790
  466TMC3     H 6940   2.754   3.786  16.579  0.9075  1.5522  2.4233
  466TMC3    H1 6941   3.128   3.659  16.726  1.8146 -1.1841 -1.3917
  466TMC3    H2 6942   3.114   3.924  16.388  2.2616 -1.8158  0.6340
  466TMC3    C7 6943   3.273   3.794  16.551  0.1904  0.6121  0.7760
  466TMC3    C8 6944   2.857   3.974  16.410  0.4524 -0.3429  0.6143
  466TMC3    O1 6945   3.336   3.897  16.531 -0.1484 -0.0598  0.1476
  466TMC3    O2 6946   2.912   4.036  16.324 -0.4396 -0.2829  0.6592
  467TMC3    C1 6947   3.458   2.049  13.936 -0.1259 -0.0721 -0.4956
  467TMC3    C2 6948   3.431   2.151  14.021  0.6855 -0.0554  0.3536
  467TMC3    C3 6949   3.293   2.173  14.058  0.1416  0.0973 -0.4095
  467TMC3    C4 6950   3.363   1.958  13.905 -0.0791  0.5800  0.6745
  467TMC3    C5 6951   3.236   1.984  13.944 -0.1123  0.1967 -0.3401
  467TMC3    C6 6952   3.198   2.088  14.022 -0.4593  0.5621 -0.0243
  467TMC3     C 6953   3.589   2.062  13.868 -0.1248 -0.8542  0.1232
  467TMC3     O 6954   3.670   2.144  13.914  0.3325  0.2134 -0.1634
  467TMC3     H 6955   3.500   2.217  14.072  1.0073 -0.9589  1.0898
  467TMC3    H1 6956   3.381   1.868  13.847 -0.9641  1.5361 -1.0945
  467TMC3    H2 6957   3.100   2.109  14.062 -0.5462 -2.5971  1.4045
  467TMC3    C7 6958   3.132   1.890  13.895  0.7165  0.5456 -0.1763
  467TMC3    C8 6959   3.268   2.308  14.112 -0.7873  0.1790 -0.3715
  467TMC3    O1 6960   3.168   1.824  13.796  1.0047 -0.7031 -0.1737
  467TMC3    O2 6961   3.352   2.358  14.184 -0.2402  0.5135  0.5515
  468MPD2     C 6962   2.856   0.298  10.931  0.1329  0.5928 -0.3904
  468MPD2    C1 6963   2.981   0.241  10.896 -0.0200 -0.3286 -0.3393
  468MPD2    C2 6964   3.007   0.114  10.946 -0.3894 -0.3627  0.2180
  468MPD2    C3 6965   2.932   0.044  11.038  0.3749  0.6523 -0.3944
  468MPD2    C4 6966   2.814   0.103  11.073  0.9936  0.1796 -0.3029
  468MPD2    C5 6967   2.775   0.222  11.011 -1.3275  0.3700 -0.4392
  468MPD2     H 6968   3.097   0.070  10.905 -1.3491  0.0648 -2.3782
  468MPD2    H1 6969   2.739   0.053  11.134  1.2846  2.4202  1.8750
  468MPD2    H2 6970   2.814   0.393  10.899 -1.6976 -0.4248 -1.0424
  468MPD2    H3 6971   2.682   0.263  11.048 -3.3137 -4.3545 -0.2250
  468MPD2     N 6972   2.976   4.648  11.094  0.6081  0.6826  0.5387
  468MPD2    H5 6973   2.916   4.622  11.172  0.9678  0.9527  0.9096
  468MPD2    N1 6974   3.077   0.311  10.821  0.5865  0.6095 -0.6491
  468MPD2    H7 6975   3.167   0.267  10.805  0.7711  1.3199 -1.5930
  469TMC3    C1 6976   3.173   0.505  10.719  0.3044 -0.2378  0.4785
  469TMC3    C2 6977   3.291   0.481  10.780  0.7038 -0.7307  0.0345
  469TMC3    C3 6978   3.400   0.561  10.751 -0.9666 -0.6673  0.3608
  469TMC3    C4 6979   3.153   0.620  10.653  0.6205  0.3269 -0.3540
  469TMC3    C5 6980   3.261   0.703  10.627  0.1014 -0.6642  0.4213
  469TMC3    C6 6981   3.394   0.672  10.670 -0.0561 -0.2934  0.0804
  469TMC3     C 6982   3.055   0.437  10.774 -0.0834  0.2482 -0.5171
  469TMC3     O 6983   2.953   0.497  10.760  0.2804 -0.3669  0.9625
  469TMC3     H 6984   3.309   0.395  10.845 -2.9405 -0.6518  1.1231
  469TMC3    H1 6985   3.050   0.635  10.621  0.1895  2.1173  1.9205
  469TMC3    H2 6986   3.469   0.750  10.678 -1.9057  1.2739  2.0235
  469TMC3    C7 6987   3.248   0.829  10.576 -0.6560 -0.0276 -0.5737
  469TMC3    C8 6988   3.508   0.559  10.843 -0.1447 -0.1034  0.6575
  469TMC3    O1 6989   3.343   0.871  10.506 -0.4253 -0.4238 -0.1819
  469TMC3    O2 6990   3.625   0.576  10.807 -0.1639  0.8296 -0.3720
  470TMC3    C1 6991   0.286   1.211   0.817  0.8382 -0.3981 -0.1008
  470TMC3    C2 6992   0.259   1.333   0.879 -0.1354 -0.2400 -0.2563
  470TMC3    C3 6993   0.209   1.321   1.009 -0.3656 -0.2856 -0.6354
  470TMC3    C4 6994   0.263   1.092   0.878  0.6337 -0.5727 -0.6378
  470TMC3    C5 6995   0.217   1.089   1.005 -0.3109  0.3253 -0.1752
  470TMC3    C6 6996   0.194   1.204   1.079  0.4129 -0.2045  0.3517
  470TMC3     C 6997   0.347   1.206   0.683  0.6620  0.1252 -0.7768
  470TMC3     O 6998   0.394   1.100   0.641  0.0189  0.2382 -0.4388
  470TMC3     H 6999   0.281   1.429   0.835  0.9997 -0.4073 -0.0462
  470TMC3    H1 7000   0.275   1.003   0.817 -0.7254  0.4436 -2.3826
  470TMC3    H2 7001   0.164   1.207   1.183  1.1119 -2.7568  0.6192
  470TMC3    C7 7002   0.233   0.964   1.073  0.1382  0.1612 -0.3909
  470TMC3    C8 7003   0.194   1.443   1.088 -0.3610  0.2887  0.1792
  470TMC3    O1 7004   0.263   0.862   1.012 -0.2098 -0.2020 -0.3341
  470TMC3    O2 7005   0.202   1.442   1.211 -0.5962  0.0873  0.3398
  471MPD2     C 7006   0.898   2.457  17.302 -0.1355 -0.7839  0.2642
  471MPD2    C1 7007   0.844   2.335  17.277 -0.1903 -0.0925 -0.2950
  471MPD2    C2 7008   0.781   2.274  17.382  0.7627  0.5320 -0.4324
  471MPD2    C3 7009   0.785   2.332  17.511 -0.6700  0.3793  0.0353
  471MPD2    C4 7010   0.852   2.445  17.531 -0.1301  0.0851  0.2667
  471MPD2    C5 7011   0.891   2.516  17.425  0.2584 -0.1527  0.6556
  471MPD2     H 7012   0.729   2.180  17.367 -0.2500  0.4298  3.6489
  471MPD2    H1 7013   0.862   2.488  17.630  0.6041 -0.1415  0.2888
  471MPD2    H2 7014   0.951   2.513  17.226 -2.1251 -0.0183 -0.5685
  471MPD2    H3 7015   0.938   2.613  17.425 -1.8215  0.8570  2.3639
  471MPD2     N 7016   0.727   2.265  17.628  0.6308  0.1350  0.3657
  471MPD2    H5 7017   0.758   2.285   0.027 -2.6262  0.4083  1.3705
  471MPD2    N1 7018   0.834   2.275  17.144  0.5254  0.0618  0.4405
  471MPD2    H7 7019   0.782   2.188  17.138 -1.6672  1.3153  1.1934
  472TMC3    C1 7020   0.847   2.259  16.910  0.5129 -0.1866  1.2555
  472TMC3    C2 7021   0.847   2.334  16.795  0.3226 -0.1391 -0.0320
  472TMC3    C3 7022   0.837   2.261  16.681  0.4847 -0.0657 -0.4584
  472TMC3    C4 7023   0.846   2.121  16.911 -0.0378 -0.5289  0.0872
  472TMC3    C5 7024   0.836   2.054  16.795 -0.4041 -1.0858  0.7720
  472TMC3    C6 7025   0.828   2.126  16.678  0.4382  0.1855 -0.3599
  472TMC3     C 7026   0.888   2.330  17.028 -0.8389 -0.2581 -0.3653
  472TMC3     O 7027   0.949   2.433  17.019 -0.1596 -0.2705 -0.4204
  472TMC3     H 7028   0.835   2.442  16.785 -1.6840 -0.2434  1.0928
  472TMC3    H1 7029   0.868   2.075  17.006 -0.8825  2.4014  1.6847
  472TMC3    H2 7030   0.819   2.078  16.581 -0.3739 -2.6748  1.1228
  472TMC3    C7 7031   0.806   1.911  16.800 -0.0280  0.1697  0.0811
  472TMC3    C8 7032   0.771   2.307  16.563 -0.4978  0.4136 -0.0514
  472TMC3    O1 7033   0.807   1.859  16.907  0.0481  0.5699 -0.0527
  472TMC3    O2 7034   0.821   2.390  16.486 -0.0515  0.2228  0.0428
  473MPD2     C 7035   0.561   4.189  13.879 -0.4263 -0.0036  0.0243
  473MPD2    C1 7036   0.553   4.312  13.814 -0.4230 -0.4596 -0.9959
  473MPD2    C2 7037   0.626   4.414  13.857 -0.0240 -0.0426 -0.5185
  473MPD2    C3 7038   0.719   4.406  13.958 -0.2491  0.5805 -0.8558
  473MPD2    C4 7039   0.725   4.279  14.020 -0.7470  0.3237  0.8484
  473MPD2    C5 7040   0.649   4.173  13.980 -0.3312  0.3403  0.4307
  473MPD2     H 7041   0.596   4.512  13.823 -0.0536 -0.6823 -2.2956
  473MPD2    H1 7042   0.783   4.261  14.110 -2.0402 -1.7095  1.2730
  473MPD2    H2 7043   0.498   4.104  13.856 -3.3074  1.6488  1.8880
  473MPD2    H3 7044   0.669   4.081  14.033  1.2455 -0.0534 -0.8248
  473MPD2     N 7045   0.788   4.512  14.012 -0.2794  0.0632 -0.1541
  473MPD2    H5 7046   0.835   4.496  14.101 -1.1316  0.5272  0.3718
  473MPD2    N1 7047   0.467   4.336  13.711  0.1460 -0.1155 -0.6827
  473MPD2    H7 7048   0.463   4.431  13.674  0.2177 -0.2575 -1.0500
  474TMC3    C1 7049   0.849   0.022  14.047 -0.4222 -0.5269 -0.1206
  474TMC3    C2 7050   0.872   0.143  13.993 -0.0798  0.2853 -0.1771
  474TMC3    C3 7051   0.889   0.255  14.069  0.6390  0.3377 -0.0095
  474TMC3    C4 7052   0.841   0.009  14.185 -0.3459 -1.0572  0.2457
  474TMC3    C5 7053   0.866   0.117  14.261  0.5199 -0.6544 -0.4012
  474TMC3    C6 7054   0.888   0.242  14.205  0.2320  0.7426 -0.0854
  474TMC3     C 7055   0.798   4.640  13.960  0.6165  0.0750  0.0117
  474TMC3     O 7056   0.764   4.674  13.846  0.3145  0.5889  0.4034
  474TMC3     H 7057   0.880   0.155  13.885 -0.2881 -1.5539 -0.3959
  474TMC3    H1 7058   0.813   4.634  14.221 -1.8928 -1.6753 -2.6195
  474TMC3    H2 7059   0.924   0.326  14.263 -0.2048 -0.3503  1.7602
  474TMC3    C7 7060   0.860   0.092  14.401 -0.2938  0.6324  0.1458
  474TMC3    C8 7061   0.923   0.376  13.998  0.0555 -0.3370  0.2974
  474TMC3    O1 7062   0.821   4.702  14.434  0.1735  0.0940  0.3401
  474TMC3    O2 7063   0.945   0.362  13.878 -0.0297 -0.1602  0.2022
  475MPD2     C 7064   3.880   3.218  10.618 -0.1567 -0.1388  0.5042
  475MPD2    C1 7065   3.817   3.171  10.509 -0.3065 -0.1673 -1.3043
  475MPD2    C2 7066   3.690   3.107  10.534 -0.2808  0.8273 -0.2418
  475MPD2    C3 7067   3.635   3.104  10.662  1.1016  0.4876 -0.2489
  475MPD2    C4 7068   3.715   3.134  10.767 -0.3750 -0.2994 -0.4342
  475MPD2    C5 7069   3.831   3.192  10.746 -0.0812  0.5048  0.2992
  475MPD2     H 7070   3.629   3.067  10.454  0.1775 -1.0128  0.3271
  475MPD2    H1 7071   3.690   3.122  10.872 -1.7191  2.5275 -0.4403
  475MPD2    H2 7072   3.976   3.267  10.608 -1.2583  1.9098 -0.0148
  475MPD2    H3 7073   3.881   3.235  10.831 -0.8191 -3.6966  2.8446
  475MPD2     N 7074   3.501   3.062  10.686  0.5164 -0.1347  0.5751
  475MPD2    H5 7075   3.454   3.039  10.599  0.6556  0.1795  0.4167
  475MPD2    N1 7076   3.870   3.183  10.375  0.2837  0.5759 -0.0279
  475MPD2    H7 7077   3.969   3.193  10.357  0.7729 -0.5538  2.1011
  476TMC3    C1 7078   3.876   3.147  10.136  0.7050 -0.3506 -0.1414
  476TMC3    C2 7079   3.817   3.071  10.040  0.3218  0.3325 -0.0860
  476TMC3    C3 7080   3.894   3.036   9.933  0.1168 -0.1512  0.3136
  476TMC3    C4 7081   4.005   3.198  10.123  0.0092 -0.2284 -0.7969
  476TMC3    C5 7082   4.075   3.171  10.011 -0.3505 -0.4623  0.0701
  476TMC3    C6 7083   4.021   3.088   9.915  0.5466 -0.1698  0.3242
  476TMC3     C 7084   3.799   3.161  10.258 -0.3774 -0.3418 -0.8066
  476TMC3     O 7085   3.682   3.121  10.248  0.7504 -0.0057 -0.4920
  476TMC3     H 7086   3.714   3.037  10.047 -0.0361  1.5735  0.6937
  476TMC3    H1 7087   4.047   3.272  10.191 -2.7687  0.6844 -0.0260
  476TMC3    H2 7088   4.077   3.059   9.827 -1.6899 -0.4719 -0.9897
  476TMC3    C7 7089   4.212   3.216   9.986  0.6494 -0.0297 -0.6005
  476TMC3    C8 7090   3.801   3.020   9.825 -0.0620  0.3742  0.6483
  476TMC3    O1 7091   4.232   3.255   9.870 -0.1076  0.0768 -0.5987
  476TMC3    O2 7092   3.800   3.103   9.739  0.1347  0.0298  0.0702
  477MPD2     C 7093   1.474   4.396  11.476  0.5857  0.1309  0.2768
  477MPD2    C1 7094   1.388   4.425  11.586  0.1300 -0.9904 -0.7176
  477MPD2    C2 7095   1.418   4.367  11.710  0.5138  0.2151 -0.2090
  477MPD2    C3 7096   1.536   4.291  11.719  0.0941 -0.0073  0.2281
  477MPD2    C4 7097   1.629   4.281  11.614 -0.7806  0.3149 -0.2730
  477MPD2    C5 7098   1.589   4.329  11.489  0.6550  0.7128 -0.2240
  477MPD2     H 7099   1.352   4.368  11.796 -0.8399  0.1975 -1.2432
  477MPD2    H1 7100   1.716   4.218  11.620 -1.2755 -0.2097  1.5007
  477MPD2    H2 7101   1.441   4.419  11.375  0.5244  1.9891  0.7135
  477MPD2    H3 7102   1.655   4.305  11.406  0.7561 -1.2830  0.4266
  477MPD2     N 7103   1.560   4.211  11.838 -0.1692 -0.1806 -0.1791
  477MPD2    H5 7104   1.606   4.124  11.812 -0.0759 -0.3148  0.4436
  477MPD2    N1 7105   1.263   4.492  11.572 -0.1085  0.0377  0.1103
  477MPD2    H7 7106   1.255   4.525  11.477  2.6081  0.7273  0.0964
  478TMC3    C1 7107   1.045   4.583  11.618 -0.5616 -0.2014 -0.0987
  478TMC3    C2 7108   0.967   4.642  11.711  0.1846  1.0682 -0.9830
  478TMC3    C3 7109   0.861   4.719  11.665 -0.0187 -0.4588  0.1785
  478TMC3    C4 7110   1.007   4.576  11.484 -0.3256  0.0634  0.4341
  478TMC3    C5 7111   0.882   4.630  11.454  0.3478  1.1724 -1.0859
  478TMC3    C6 7112   0.809   4.710  11.537  0.0768 -0.3522 -0.3148
  478TMC3     C 7113   1.171   4.525  11.671 -0.2144  0.7453  0.0238
  478TMC3     O 7114   1.182   4.508  11.791  0.2124 -0.1814 -0.4640
  478TMC3     H 7115   0.987   4.650  11.817 -2.0302 -0.8595 -0.4003
  478TMC3    H1 7116   1.059   4.503  11.424  1.4996  1.5429  0.2186
  478TMC3    H2 7117   0.731   0.051  11.498  0.0733  0.3055  0.7990
  478TMC3    C7 7118   0.832   4.611  11.323  0.0985  0.9083 -0.2356
  478TMC3    C8 7119   0.781   0.055  11.776 -0.1778 -1.1205 -0.4031
  478TMC3    O1 7120   0.742   4.683  11.277 -0.3301  0.3404 -0.3732
  478TMC3    O2 7121   0.811   0.037  11.892 -0.1110  0.7423 -0.1207
  479MPD2     C 7122   4.500   1.820  14.745  0.3825  0.5469  0.3732
  479MPD2    C1 7123   4.528   1.721  14.834 -0.0307 -0.6113  0.1679
  479MPD2    C2 7124   4.592   1.756  14.952 -0.3017 -0.7469 -0.6500
  479MPD2    C3 7125   4.626   1.888  14.982 -0.3192  0.5517 -0.5475
  479MPD2    C4 7126   4.603   1.979  14.877  0.1839  0.2989  0.1935
  479MPD2    C5 7127   4.547   1.945  14.760  0.5387  0.5640 -0.8287
  479MPD2     H 7128   4.614   1.677  15.023 -2.1148 -1.1532 -0.5229
  479MPD2    H1 7129   4.646   2.078  14.890  0.3478  0.2402  0.0859
  479MPD2    H2 7130   4.450   1.797  14.652 -0.5283  0.1347  0.9655
  479MPD2    H3 7131   4.530   2.019  14.682 -2.3183 -0.0106 -0.7603
  479MPD2     N 7132   4.709   1.934  15.086 -0.3017  0.8552 -0.7864
  479MPD2    H5 7133   0.010   2.033  15.093 -0.7999  0.9876 -0.9440
  479MPD2    N1 7134   4.493   1.591  14.800 -0.3575  0.3048  0.0646
  479MPD2    H7 7135   4.436   1.585  14.716  1.3995 -0.4930 -1.0602
  480TMC3    C1 7136   0.323   1.837  15.397 -0.2324  0.2275  0.1804
  480TMC3    C2 7137   0.415   1.889  15.313 -0.5901 -0.2368 -0.3000
  480TMC3    C3 7138   0.374   1.962  15.204 -0.4604 -0.1246  0.3155
  480TMC3    C4 7139   0.188   1.854  15.367  0.1924 -0.7081 -0.3038
  480TMC3    C5 7140   0.151   1.916  15.256 -0.3583  0.3024  0.0946
  480TMC3    C6 7141   0.244   1.973  15.174  0.3851 -0.3078 -0.7382
  480TMC3     C 7142   0.355   1.775  15.523 -0.3262  0.8622  0.0064
  480TMC3     O 7143   0.433   1.677  15.520  0.6061 -0.0904 -0.0063
  480TMC3     H 7144   0.519   1.889  15.342 -0.0851  0.9268 -2.0575
  480TMC3    H1 7145   0.113   1.808  15.430  1.5011 -0.2345  1.6142
  480TMC3    H2 7146   0.211   2.021  15.083  0.6815  2.4823  0.6143
  480TMC3    C7 7147   0.032   1.859  15.186 -0.3493  0.0409 -0.2970
  480TMC3    C8 7148   0.480   1.997  15.112  0.2266  0.2467  0.3664
  480TMC3    O1 7149   0.005   1.745  15.213 -0.4914  0.0318 -0.1678
  480TMC3    O2 7150   0.567   2.075  15.155 -0.2805 -0.4852 -0.0571
  481MPD2     C 7151   2.025   1.931  14.650 -0.5577 -0.4490  0.6548
  481MPD2    C1 7152   2.027   1.793  14.643  0.1931  0.1392 -0.5017
  481MPD2    C2 7153   2.016   1.725  14.759  0.0774 -0.8586 -0.6678
  481MPD2    C3 7154   2.004   1.789  14.883 -0.3495 -0.2189  0.0521
  481MPD2    C4 7155   2.024   1.923  14.891  0.2349 -0.6984 -0.4296
  481MPD2    C5 7156   2.020   1.995  14.772  0.0292 -0.7350  0.1132
  481MPD2     H 7157   2.010   1.617  14.759 -0.2255 -0.8420 -2.2405
  481MPD2    H1 7158   2.015   1.975  14.985 -0.8345  1.7033 -1.8467
  481MPD2    H2 7159   2.016   1.992  14.561  0.6676 -1.8348 -0.4326
  481MPD2    H3 7160   2.008   2.102  14.779  0.1627 -0.7419  0.4335
  481MPD2     N 7161   1.970   1.724  15.004 -1.3187  0.2506  0.7541
  481MPD2    H5 7162   1.968   1.782  15.087  1.1111  0.0577  0.9646
  481MPD2    N1 7163   2.035   1.727  14.520 -0.0607 -0.0558  0.3481
  481MPD2    H7 7164   2.026   1.793  14.443  1.6145  0.3462  0.4888
  482TMC3    C1 7165   2.034   1.579  14.348 -0.2511 -0.3288 -0.8256
  482TMC3    C2 7166   1.958   1.483  14.295  0.2425 -0.3835  0.0151
  482TMC3    C3 7167   1.976   1.439  14.173  0.3022 -0.4563 -0.1410
  482TMC3    C4 7168   2.128   1.636  14.276  0.5072 -0.0909 -0.0870
  482TMC3    C5 7169   2.143   1.599  14.143  0.1180 -0.1470 -0.5893
  482TMC3    C6 7170   2.068   1.496  14.094 -0.1771 -0.1359  0.3216
  482TMC3     C 7171   2.034   1.597  14.492  0.4683 -0.5027 -0.0681
  482TMC3     O 7172   1.997   1.508  14.564 -0.6081  0.0513 -0.0568
  482TMC3     H 7173   1.887   1.435  14.361  1.4325  0.7171  2.0705
  482TMC3    H1 7174   2.184   1.722  14.312  0.6443 -0.3439  0.3079
  482TMC3    H2 7175   2.088   1.460  13.994  2.3857  0.7626  0.5169
  482TMC3    C7 7176   2.236   1.666  14.054  0.9055  0.4965  0.6717
  482TMC3    C8 7177   1.937   1.304  14.148  1.0159 -0.0164 -0.4067
  482TMC3    O1 7178   2.319   1.737  14.107  0.0430 -0.0653  0.4774
  482TMC3    O2 7179   2.015   1.232  14.087  0.1206 -0.1866 -0.5915
  483TMC3    C1 7180   0.308   0.504   1.915  1.1797  0.5032  0.2606
  483TMC3    C2 7181   0.390   0.614   1.913 -0.8530  0.9063  0.0866
  483TMC3    C3 7182   0.522   0.600   1.947 -0.2411  0.9575 -0.0499
  483TMC3    C4 7183   0.346   0.390   1.976  0.1676 -0.0167  0.0326
  483TMC3    C5 7184   0.474   0.381   2.025  0.3022  0.2808 -0.0751
  483TMC3    C6 7185   0.565   0.481   2.005 -0.4961  0.4432  0.2253
  483TMC3     C 7186   0.196   0.501   1.826  0.1381  0.3335  0.4120
  483TMC3     O 7187   0.115   0.591   1.822  0.3689 -0.3278 -0.8178
  483TMC3     H 7188   0.350   0.710   1.882 -1.2693  0.9380  0.7258
  483TMC3    H1 7189   0.275   0.311   1.957  2.0462 -2.0406  1.4120
  483TMC3    H2 7190   0.667   0.466   2.036  0.1956  0.7000 -1.8916
  483TMC3    C7 7191   0.525   0.244   2.038  0.4226 -0.0194 -0.0574
  483TMC3    C8 7192   0.613   0.639   1.841  0.0361 -0.0716 -0.1406
  483TMC3    O1 7193   0.632   0.228   1.979 -0.3655 -0.1241  0.2162
  483TMC3    O2 7194   0.571   0.727   1.766  0.1229  0.0138  0.3414
  484MPD2     C 7195   2.039   3.592  12.247 -0.9080 -0.0777  0.3017
  484MPD2    C1 7196   2.085   3.588  12.372  0.5010 -0.1376 -1.0367
  484MPD2    C2 7197   2.221   3.585  12.403 -0.4891 -0.2877 -0.6124
  484MPD2    C3 7198   2.312   3.599  12.303 -0.0902 -0.0214 -0.7456
  484MPD2    C4 7199   2.268   3.604  12.169 -0.1165 -1.3724  0.2183
  484MPD2    C5 7200   2.130   3.599  12.146 -0.1590  0.2448 -0.4008
  484MPD2     H 7201   2.247   3.556  12.504 -1.5118 -1.2001 -0.6100
  484MPD2    H1 7202   2.329   3.612  12.080  0.7321  0.9356  1.0041
  484MPD2    H2 7203   1.935   3.620  12.232 -0.9645  0.4179  1.6021
  484MPD2    H3 7204   2.095   3.601  12.043  1.8489  1.4152 -1.0617
  484MPD2     N 7205   2.458   3.585  12.318 -0.3011  0.6703  0.4146
  484MPD2    H5 7206   2.515   3.606  12.236  1.1051  0.7551  1.4011
  484MPD2    N1 7207   1.984   3.570  12.476 -0.4441  0.2721 -0.1797
  484MPD2    H7 7208   1.894   3.531  12.449 -1.3727  2.2108  0.1027
  485TMC3    C1 7209   2.665   3.573  12.419  0.0832 -0.3021  0.0581
  485TMC3    C2 7210   2.745   3.531  12.528  0.0841  0.0914  0.1145
  485TMC3    C3 7211   2.880   3.555  12.514 -0.0043  0.0372  0.1373
  485TMC3    C4 7212   2.712   3.624  12.303  0.6823  0.9095  0.1633
  485TMC3    C5 7213   2.845   3.652  12.302 -0.7944  0.4817 -0.1649
  485TMC3    C6 7214   2.930   3.621  12.402  0.3460 -0.4352  0.5401
  485TMC3     C 7215   2.522   3.562  12.432 -0.4032 -0.0537  0.4433
  485TMC3     O 7216   2.477   3.520  12.536 -0.2821 -0.2666 -0.6827
  485TMC3     H 7217   2.704   3.457  12.595 -1.2065  1.6516  1.0490
  485TMC3    H1 7218   2.653   3.658  12.219  0.7164  1.8295  0.5079
  485TMC3    H2 7219   3.036   3.639  12.396  0.5689 -1.7081  0.6865
  485TMC3    C7 7220   2.906   3.614  12.173 -0.1703 -0.3215  0.5620
  485TMC3    C8 7221   2.967   3.448  12.543 -0.9729 -0.1764 -0.0539
  485TMC3    O1 7222   2.840   3.626  12.071  0.6816  0.2363 -0.6423
  485TMC3    O2 7223   3.057   3.436  12.458 -0.0117 -0.0195 -0.4194
  486MPD2     C 7224   4.556   1.745  12.741  0.2176 -0.0806 -0.5519
  486MPD2    C1 7225   4.556   1.747  12.606  0.2105  0.7810 -0.1708
  486MPD2    C2 7226   4.536   1.862  12.531 -0.1603  0.2917 -0.4702
  486MPD2    C3 7227   4.518   1.980  12.606 -0.6384  0.6549  0.2236
  486MPD2    C4 7228   4.520   1.982  12.747 -0.5717 -0.1735  0.7262
  486MPD2    C5 7229   4.545   1.862  12.807  0.2439 -0.5202 -0.1174
  486MPD2     H 7230   4.528   1.864  12.423  0.0373 -0.6501 -0.5059
  486MPD2    H1 7231   4.499   2.073  12.802 -2.0269 -0.0981  0.0646
  486MPD2    H2 7232   4.563   1.649  12.791  0.5456  0.8097  1.0899
  486MPD2    H3 7233   4.544   1.866  12.915  0.4022 -0.8109 -0.1048
  486MPD2     N 7234   4.488   2.094  12.529 -0.7045 -0.0968  0.4572
  486MPD2    H5 7235   4.476   2.092  12.429  0.7087  0.4109  0.2680
  486MPD2    N1 7236   4.559   1.618  12.543  0.3065  0.0713 -0.4955
  486MPD2    H7 7237   4.563   1.536  12.604 -1.8794 -0.4288 -0.9994
  487TMC3    C1 7238   4.611   1.452  12.388  0.1081  0.0018 -0.0149
  487TMC3    C2 7239   4.561   1.373  12.487  0.0879 -0.2956 -1.2044
  487TMC3    C3 7240   4.631   1.274  12.545  0.0851  0.0309  0.5234
  487TMC3    C4 7241   0.013   1.422  12.332  0.0870  0.5046  0.7168
  487TMC3    C5 7242   0.080   1.327  12.394 -0.4573 -0.3039  0.3953
  487TMC3    C6 7243   0.036   1.252  12.498  0.2459 -0.5522 -0.4083
  487TMC3     C 7244   4.584   1.597  12.409 -0.3893 -0.1115  0.5238
  487TMC3     O 7245   4.589   1.677  12.316  0.0708 -0.2108  0.0071
  487TMC3     H 7246   4.464   1.385  12.534 -0.0777  1.8104 -2.0537
  487TMC3    H1 7247   0.044   1.477  12.244 -2.6892  2.1544  0.7727
  487TMC3    H2 7248   0.119   1.224  12.562  1.4417  0.2024 -1.6409
  487TMC3    C7 7249   0.218   1.318  12.363  0.3503 -0.2220 -0.4421
  487TMC3    C8 7250   4.616   1.302  12.691 -0.4326 -0.5438 -0.2290
  487TMC3    O1 7251   0.279   1.425  12.368  0.1276  0.2462 -0.3694
  487TMC3    O2 7252   4.565   1.410  12.715  0.9112  0.3199 -0.0432
  488MPD2     C 7253   0.135   3.641  16.577 -0.0542  0.0797  0.0842
  488MPD2    C1 7254   0.157   3.755  16.653  0.4997 -0.2470 -0.2511
  488MPD2    C2 7255   0.097   3.756  16.781 -0.4833  0.1936 -0.8855
  488MPD2    C3 7256   0.029   3.645  16.827 -0.6742  0.6905 -0.0898
  488MPD2    C4 7257   0.004   3.533  16.752 -1.3434  0.4923  0.9983
  488MPD2    C5 7258   0.050   3.540  16.624 -0.4566  0.5627 -0.0719
  488MPD2     H 7259   0.095   3.845  16.842  3.1118 -0.4450  0.1583
  488MPD2    H1 7260   4.667   3.449  16.783  1.8180 -1.9174  0.5436
  488MPD2    H2 7261   0.187   3.626  16.483  0.7349 -2.7860  0.9942
  488MPD2    H3 7262   0.037   3.453  16.560 -4.2660 -0.0144  1.5082
  488MPD2     N 7263   4.714   3.650  16.962  0.5704 -0.2807  0.2917
  488MPD2    H5 7264   0.002   3.741  17.005  2.5442 -0.5554  0.3840
  488MPD2    N1 7265   0.225   3.871  16.618 -0.3039 -0.6107 -0.3605
  488MPD2    H7 7266   0.237   3.944  16.688  1.0346 -0.4737 -0.7301
  489TMC3    C1 7267   4.634   3.575  17.176 -0.6121  1.0514  0.0356
  489TMC3    C2 7268   4.666   3.701  17.215 -0.3122 -0.4979 -0.6331
  489TMC3    C3 7269   0.019   3.720  17.327  0.4757 -0.5117 -0.1688
  489TMC3    C4 7270   4.663   3.467  17.256  0.3548 -0.1886  0.1489
  489TMC3    C5 7271   4.722   3.488  17.377 -0.3051  0.3101  0.4596
  489TMC3    C6 7272   0.049   3.615  17.410 -0.1529  0.5628 -0.5227
  489TMC3     C 7273   4.652   3.546  17.031 -0.0409 -0.7136  0.1829
  489TMC3     O 7274   4.626   3.427  16.997 -0.5111 -0.8529 -0.0917
  489TMC3     H 7275   4.631   3.788  17.160  1.2927  1.0996  0.8720
  489TMC3    H1 7276   4.636   3.365  17.230 -1.6240 -0.0940  1.9071
  489TMC3    H2 7277   0.095   3.632  17.506  0.4150  0.5663 -0.7990
  489TMC3    C7 7278   0.005   3.384  17.474 -0.5905  0.4839 -0.6879
  489TMC3    C8 7279   0.083   3.847  17.334  0.4971 -0.4840 -0.3977
  489TMC3    O1 7280   0.082   3.414  17.568  0.1568 -0.4021 -0.1838
  489TMC3    O2 7281   0.099   3.911  17.232 -0.7063 -0.3971 -0.2866
  490MPD2     C 7282   0.847   3.353   0.630  0.2791 -0.0692 -0.0418
  490MPD2    C1 7283   0.903   3.277   0.528 -0.1240 -0.0467 -0.3208
  490MPD2    C2 7284   0.990   3.331   0.441  0.5408 -0.1400 -0.2066
  490MPD2    C3 7285   1.024   3.469   0.448 -0.4441 -0.1800 -0.3761
  490MPD2    C4 7286   0.982   3.540   0.554  0.3802 -0.0640 -0.6267
  490MPD2    C5 7287   0.891   3.484   0.643  0.6359  0.6351  0.3946
  490MPD2     H 7288   1.041   3.273   0.365  0.0904  0.6010 -1.0737
  490MPD2    H1 7289   1.000   3.647   0.560 -0.6520  0.1206 -0.7559
  490MPD2    H2 7290   0.780   3.312   0.704  1.2341  1.0154  1.4069
  490MPD2    H3 7291   0.862   3.545   0.728  0.6361  1.6992 -0.3653
  490MPD2     N 7292   1.118   3.531   0.365  0.2786 -0.2240 -1.1574
  490MPD2    H5 7293   1.144   3.628   0.381 -0.7077 -0.3436  1.0668
  490MPD2    N1 7294   0.860   3.139   0.509 -0.2463  0.2482  0.6592
  490MPD2    H7 7295   0.883   3.087   0.425  0.7048  2.2254 -0.2968
  491TMC3    C1 7296   0.736   2.947   0.555 -0.7834  0.4635 -0.2095
  491TMC3    C2 7297   0.703   2.855   0.649  0.7611  0.0608  0.2283
  491TMC3    C3 7298   0.687   2.724   0.607 -0.2705 -0.4726  0.4852
  491TMC3    C4 7299   0.736   2.916   0.418 -0.1109  0.6301  0.7189
  491TMC3    C5 7300   0.716   2.790   0.381 -0.5116  0.1473  0.0845
  491TMC3    C6 7301   0.693   2.694   0.476  0.5411  0.3982  0.0569
  491TMC3     C 7302   0.791   3.072   0.603  0.3096  0.2628 -0.3347
  491TMC3     O 7303   0.806   3.080   0.726 -0.5675  0.1694  0.0807
  491TMC3     H 7304   0.683   2.886   0.751 -1.5770 -0.6831 -0.0048
  491TMC3    H1 7305   0.734   2.998   0.348 -1.5303  0.7371  0.8807
  491TMC3    H2 7306   0.663   2.594   0.445  0.3885  1.1795 -2.3282
  491TMC3    C7 7307   0.690   2.752   0.245  0.5537  0.2963 -0.0025
  491TMC3    C8 7308   0.648   2.622   0.708 -0.0610 -0.3553 -0.2577
  491TMC3    O1 7309   0.610   2.660   0.236  0.0453 -0.4502 -0.1741
  491TMC3    O2 7310   0.611   2.672   0.812 -0.0674 -0.1925 -0.4931
  492MPD2     C 7311   1.326   2.950  10.680  0.0302  0.8968  0.0963
  492MPD2    C1 7312   1.193   2.904  10.693  0.3491 -0.0474  0.1545
  492MPD2    C2 7313   1.157   2.844  10.813 -0.4485 -0.1540 -0.4065
  492MPD2    C3 7314   1.248   2.840  10.919 -0.0482 -0.3202 -0.2944
  492MPD2    C4 7315   1.375   2.893  10.900  0.3736  0.3017 -0.5308
  492MPD2    C5 7316   1.414   2.944  10.779  0.2152  0.1016  0.6668
  492MPD2     H 7317   1.055   2.811  10.828 -0.7511  1.2414  0.6496
  492MPD2    H1 7318   1.448   2.901  10.979 -0.1388 -0.2392  0.0031
  492MPD2    H2 7319   1.361   2.980  10.581 -1.5251  1.3271 -0.3299
  492MPD2    H3 7320   1.514   2.983  10.765 -0.3056  1.0311 -0.3752
  492MPD2     N 7321   1.212   2.800  11.050  0.0666 -0.6481  0.6437
  492MPD2    H5 7322   1.282   2.809  11.123  0.0272  1.3671  0.4582
  492MPD2    N1 7323   1.111   2.925  10.585  0.7622 -0.1385  0.3859
  492MPD2    H7 7324   1.158   2.949  10.498 -0.9305  0.7701 -0.2951
  493TMC3    C1 7325   0.921   2.940  10.462 -0.0035 -0.1590 -0.3576
  493TMC3    C2 7326   0.981   3.016  10.369  0.4400  0.3403 -0.3328
  493TMC3    C3 7327   0.912   3.034  10.254 -0.1187  0.5460  0.3059
  493TMC3    C4 7328   0.807   2.871  10.442  0.3963  0.4964  0.2683
  493TMC3    C5 7329   0.743   2.900  10.326 -0.3341 -0.4684  0.1381
  493TMC3    C6 7330   0.798   2.974  10.230 -1.0093 -1.0635 -0.6569
  493TMC3     C 7331   0.978   2.914  10.591  0.5531 -0.2432  0.6379
  493TMC3     O 7332   0.896   2.893  10.680 -0.1296  0.0582  0.5654
  493TMC3     H 7333   1.084   3.048  10.383  1.6194 -3.1187 -1.1162
  493TMC3    H1 7334   0.759   2.812  10.519 -0.9438  0.9726 -0.1947
  493TMC3    H2 7335   0.742   2.988  10.139 -2.1175 -0.9546  0.0395
  493TMC3    C7 7336   0.609   2.854  10.289  0.5866  0.3503 -0.3641
  493TMC3    C8 7337   0.951   3.127  10.151 -0.1597  0.1554 -0.0110
  493TMC3    O1 7338   0.554   2.902  10.189  0.4447 -0.3192 -0.6679
  493TMC3    O2 7339   0.907   3.107  10.038  0.2410 -0.2105 -0.2004
  494TMC3    C1 7340   1.795   0.335   0.627 -0.7338  0.9554  0.5356
  494TMC3    C2 7341   1.907   0.258   0.616 -0.0002  0.3109 -0.8282
  494TMC3    C3 7342   1.945   0.214   0.490 -0.5153  0.1536  0.3315
  494TMC3    C4 7343   1.720   0.372   0.516 -0.2216  0.1422 -0.2926
  494TMC3    C5 7344   1.774   0.347   0.393 -0.1129  0.2437  0.5892
  494TMC3    C6 7345   1.884   0.261   0.377  0.5792  0.8703  0.3722
  494TMC3     C 7346   1.743   0.347   0.763  0.2629  0.3357  0.3047
  494TMC3     O 7347   1.824   0.338   0.859  0.4909 -0.0076 -0.1362
  494TMC3     H 7348   1.961   0.218   0.700 -0.4351  0.0104 -0.6922
  494TMC3    H1 7349   1.634   0.438   0.528 -0.1645  0.0370  0.6895
  494TMC3    H2 7350   1.918   0.238   0.276 -0.6564  1.4639 -0.1828
  494TMC3    C7 7351   1.717   0.412   0.272 -0.8798  1.0192  0.9310
  494TMC3    C8 7352   2.026   0.095   0.487 -0.4101  0.6761  0.0000
  494TMC3    O1 7353   1.741   0.353   0.163 -0.7267 -0.0523  0.0350
  494TMC3    O2 7354   2.037   0.030   0.588 -0.2263  0.1642 -0.3612
  495TMC3    C1 7355   0.350   1.890  14.128 -0.0120  0.2844  0.4121
  495TMC3    C2 7356   0.223   1.917  14.093 -0.2625  0.0266  0.3829
  495TMC3    C3 7357   0.128   1.917  14.195  0.8111 -0.3369 -0.2669
  495TMC3    C4 7358   0.384   1.866  14.256  0.3009  0.3854 -0.8927
  495TMC3    C5 7359   0.291   1.879  14.352 -0.0732 -0.6008 -0.0069
  495TMC3    C6 7360   0.162   1.887  14.325  0.3511  0.3610 -0.5754
  495TMC3     C 7361   0.419   1.834  14.016 -0.3639 -0.2274  0.5228
  495TMC3     O 7362   0.407   1.892  13.910  0.2251 -0.2616  0.0389
  495TMC3     H 7363   0.203   1.929  13.987  3.8446  0.4533 -0.3482
  495TMC3    H1 7364   0.487   1.847  14.283 -0.1666  0.3477  0.8107
  495TMC3    H2 7365   0.097   1.902  14.409 -0.0208  0.4035 -0.8703
  495TMC3    C7 7366   0.330   1.900  14.488  0.2127  0.4078  0.3417
  495TMC3    C8 7367   4.718   1.893  14.159 -0.3304 -0.3060 -0.5528
  495TMC3    O1 7368   0.247   1.875  14.575  0.4304  0.2703 -0.5061
  495TMC3    O2 7369   4.639   1.882  14.251 -0.1374 -0.2866 -0.2333
  496MPD2     C 7370   1.831   2.339  15.385 -0.0340 -0.8338 -0.1818
  496MPD2    C1 7371   1.925   2.274  15.468 -0.9762 -0.2052 -0.4641
  496MPD2    C2 7372   1.878   2.216  15.588  0.3634 -0.3179 -0.1770
  496MPD2    C3 7373   1.739   2.226  15.624 -0.5988  0.1635  0.1069
  496MPD2    C4 7374   1.652   2.283  15.535 -0.7578 -0.2322 -0.3602
  496MPD2    C5 7375   1.700   2.337  15.416  0.4420  0.0457 -0.3809
  496MPD2     H 7376   1.947   2.152  15.643  1.2579  0.7935 -0.0018
  496MPD2    H1 7377   1.546   2.270  15.549 -0.5619  0.2575  1.6511
  496MPD2    H2 7378   1.851   2.381  15.287 -0.2361 -2.5256 -0.9430
  496MPD2    H3 7379   1.627   2.379  15.348 -1.0261 -0.2685  1.0261
  496MPD2     N 7380   1.691   2.169  15.743  0.6485  0.0953  0.3286
  496MPD2    H5 7381   1.594   2.189  15.766 -0.2321 -1.5635 -1.9657
  496MPD2    N1 7382   2.058   2.275  15.433 -0.3711  0.3976  0.1568
  496MPD2    H7 7383   2.090   2.317  15.346  1.6949  2.3166  1.8518
  497TMC3    C1 7384   1.690   2.061  15.961 -0.3139  0.2891  0.0090
  497TMC3    C2 7385   1.550   2.031  15.951  0.1940  0.5004  0.1792
  497TMC3    C3 7386   1.493   1.970  16.062 -0.6458 -0.6143  0.0021
  497TMC3    C4 7387   1.766   2.027  16.072  0.4324 -0.2071 -0.0061
  497TMC3    C5 7388   1.701   1.965  16.179 -0.4195  0.4584 -0.1422
  497TMC3    C6 7389   1.563   1.942  16.174  0.4496 -1.1902 -0.5514
  497TMC3     C 7390   1.762   2.104  15.838  0.0563  0.8170  1.1343
  497TMC3     O 7391   1.884   2.092  15.847 -0.7487 -0.3379 -0.4342
  497TMC3     H 7392   1.493   2.065  15.865  0.7539  1.0166  0.0144
  497TMC3    H1 7393   1.873   2.041  16.088  0.3814  1.8373 -1.4512
  497TMC3    H2 7394   1.511   1.907  16.263 -1.7490  1.3109 -0.8483
  497TMC3    C7 7395   1.766   1.911  16.297 -0.2288  0.4905 -0.0527
  497TMC3    C8 7396   1.350   1.978  16.077 -0.2244 -0.0803 -0.7816
  497TMC3    O1 7397   1.722   1.809  16.347  0.1783  0.0781  0.1548
  497TMC3    O2 7398   1.315   2.012  16.187  0.0659 -0.2061  0.1612
  498MPD2     C 7399   3.275   2.124   9.406 -0.0063  0.9592 -0.0065
  498MPD2    C1 7400   3.207   2.248   9.418 -0.1272 -0.1916  0.2745
  498MPD2    C2 7401   3.070   2.245   9.447  0.2627  0.6446  0.1421
  498MPD2    C3 7402   3.006   2.122   9.482  0.4629  0.3775  0.4559
  498MPD2    C4 7403   3.082   2.004   9.475  0.0635 -0.2859  0.2498
  498MPD2    C5 7404   3.213   2.002   9.428  0.6189 -0.1509 -0.3782
  498MPD2     H 7405   3.009   2.334   9.456 -2.5094 -1.2282 -0.3770
  498MPD2    H1 7406   3.042   1.906   9.497 -0.6205  0.0201  0.3717
  498MPD2    H2 7407   3.378   2.120   9.372 -0.4026 -3.0916 -0.6909
  498MPD2    H3 7408   3.274   1.914   9.415 -0.5933 -0.9560 -0.5413
  498MPD2     N 7409   2.868   2.120   9.527  0.6462  0.0141 -0.0007
  498MPD2    H5 7410   2.827   2.210   9.546  0.4893  0.4452 -2.3063
  498MPD2    N1 7411   3.271   2.377   9.393  0.0935  0.7034 -0.1718
  498MPD2    H7 7412   3.209   2.458   9.394 -0.7286  0.0600  1.2362
  499TMC3    C1 7413   3.452   2.528   9.390  0.3321  0.1461  0.2349
  499TMC3    C2 7414   3.582   2.544   9.430  0.0520 -0.4277  0.6051
  499TMC3    C3 7415   3.641   2.665   9.418  0.1900  0.7360  0.3166
  499TMC3    C4 7416   3.382   2.629   9.343 -0.3292 -0.4217 -0.4818
  499TMC3    C5 7417   3.443   2.749   9.332  0.0704 -0.3147 -0.9626
  499TMC3    C6 7418   3.572   2.772   9.365  0.6561  0.1168  0.1354
  499TMC3     C 7419   3.407   2.392   9.380 -0.2584  0.1294  0.4377
  499TMC3     O 7420   3.493   2.307   9.369 -0.1098  0.5671  0.8668
  499TMC3     H 7421   3.632   2.453   9.459 -0.8911 -0.8519  0.9047
  499TMC3    H1 7422   3.280   2.619   9.307  0.0148  2.5521 -2.2760
  499TMC3    H2 7423   3.620   2.869   9.368  0.5256  0.1636  0.8708
  499TMC3    C7 7424   3.369   2.870   9.304  0.2315 -0.4202 -0.6893
  499TMC3    C8 7425   3.777   2.695   9.471  0.6340  0.1082  0.2939
  499TMC3    O1 7426   3.435   2.974   9.313  0.8931  0.5553 -0.4528
  499TMC3    O2 7427   3.834   2.802   9.445  0.6170  0.3628  0.2347
  500MPD2     C 7428   0.162   3.866   9.917  0.0099  0.2930 -0.8694
  500MPD2    C1 7429   0.067   3.842  10.018  0.5094  0.6189  0.3405
  500MPD2    C2 7430   4.655   3.837   9.991  0.1000 -0.5938 -0.0078
  500MPD2    C3 7431   4.619   3.829   9.859  0.0705  0.8288  0.2235
  500MPD2    C4 7432   4.713   3.851   9.758  0.5006 -0.1988 -0.0003
  500MPD2    C5 7433   0.122   3.866   9.783  0.2816  0.7300  0.1655
  500MPD2     H 7434   4.587   3.827  10.075  0.3412  2.7334  0.5784
  500MPD2    H1 7435   4.684   3.841   9.654  0.2654  1.0322 -0.0472
  500MPD2    H2 7436   0.265   3.876   9.949 -0.1105 -1.2289  0.0596
  500MPD2    H3 7437   0.195   3.873   9.703 -0.8675 -0.8819 -1.0166
  500MPD2     N 7438   4.491   3.793   9.819 -0.5419  0.0142 -0.1009
  500MPD2    H5 7439   4.474   3.797   9.719  2.0891 -1.5400 -0.5797
  500MPD2    N1 7440   0.111   3.853  10.156  0.1279 -0.4295 -0.2295
  500MPD2    H7 7441   0.042   3.860  10.231 -2.3854 -0.8165 -2.5287
  501TMC3    C1 7442   0.247   3.826  10.345  0.5477 -0.7469  0.5561
  501TMC3    C2 7443   0.220   3.949  10.393 -0.3814 -0.1772 -0.6725
  501TMC3    C3 7444   0.272   3.975  10.514 -0.7999 -0.0071  0.2094
  501TMC3    C4 7445   0.333   3.733  10.404  0.1380 -0.1083 -0.0086
  501TMC3    C5 7446   0.373   3.762  10.533 -0.6775  0.1650  0.2095
  501TMC3    C6 7447   0.345   3.886  10.584 -0.1446  0.4286 -0.3033
  501TMC3     C 7448   0.242   3.822  10.202 -0.3327 -0.2544 -0.0940
  501TMC3     O 7449   0.340   3.785  10.141 -0.6133 -0.0831  1.1134
  501TMC3     H 7450   0.168   4.020  10.330  0.7243  0.7933 -0.4796
  501TMC3    H1 7451   0.357   3.642  10.352 -1.1098 -0.0931 -0.6147
  501TMC3    H2 7452   0.375   3.918  10.683 -0.0016 -0.4068 -0.0796
  501TMC3    C7 7453   0.487   3.691  10.585 -0.2948 -0.3514  0.5281
  501TMC3    C8 7454   0.245   4.108  10.572  0.9727  0.3942  0.3270
  501TMC3    O1 7455   0.498   3.576  10.552  0.1303  0.0057  0.2667
  501TMC3    O2 7456   0.332   4.167  10.632  0.3716 -0.0762 -0.5174
  502TMC3    C1 7457   4.550   3.199  15.719  0.0296  0.1929  0.8920
  502TMC3    C2 7458   4.491   3.320  15.694 -0.1972  0.7765  0.2492
  502TMC3    C3 7459   4.356   3.320  15.685  0.1803  0.2923 -0.7374
  502TMC3    C4 7460   4.475   3.080  15.726  1.1320  0.4761  0.4813
  502TMC3    C5 7461   4.339   3.086  15.709  0.1509  0.3569  0.0739
  502TMC3    C6 7462   4.278   3.208  15.685 -0.3615 -0.3235 -0.1291
  502TMC3     C 7463   4.689   3.192  15.755 -0.5834 -0.1400  0.2690
  502TMC3     O 7464   0.042   3.253  15.679 -0.0912 -0.4120 -1.0672
  502TMC3     H 7465   4.558   3.405  15.688  0.0800  0.3728 -2.3492
  502TMC3    H1 7466   4.531   2.989  15.746 -0.2171 -0.2740  0.8060
  502TMC3    H2 7467   4.170   3.220  15.691 -0.5664 -1.8574 -0.7647
  502TMC3    C7 7468   4.259   2.961  15.716  0.1302  0.7416  0.3841
  502TMC3    C8 7469   4.296   3.445  15.644 -0.0178  0.1203 -0.3599
  502TMC3    O1 7470   4.307   2.864  15.771 -0.2640  0.0859  0.1262
  502TMC3    O2 7471   4.379   3.537  15.629  0.8790 -0.1674  0.1400
  503MPD2     C 7472   1.845   3.770  17.015 -0.2645 -0.3917 -0.2723
  503MPD2    C1 7473   1.884   3.844  17.127  0.0908  0.0550  0.5567
  503MPD2    C2 7474   1.949   3.779  17.226 -0.4869  0.4619  0.1531
  503MPD2    C3 7475   1.988   3.645  17.212 -0.5356  0.6641 -0.0863
  503MPD2    C4 7476   1.952   3.569  17.103  0.2164  0.1510  0.4621
  503MPD2    C5 7477   1.876   3.637  17.007  0.1140 -0.6133  0.1811
  503MPD2     H 7478   1.981   3.825  17.319  1.3523 -0.9383  0.2222
  503MPD2    H1 7479   1.987   3.467  17.090  0.2378 -0.0758  2.2662
  503MPD2    H2 7480   1.789   3.822  16.938 -4.3084 -1.6690  1.7871
  503MPD2    H3 7481   1.841   3.576  16.924  0.2179 -0.8925  0.3400
  503MPD2     N 7482   2.064   3.595  17.319  0.2389  0.1807 -0.3819
  503MPD2    H5 7483   2.087   3.658  17.395  0.5664 -1.3564  0.7933
  503MPD2    N1 7484   1.860   3.984  17.133 -0.1222  0.2241  0.0752
  503MPD2    H7 7485   1.903   4.031  17.213  0.6796 -1.3805  0.5876
  504TMC3    C1 7486   2.163   3.430  17.458 -0.2304  0.6226 -0.5941
  504TMC3    C2 7487   2.093   3.342  17.532 -0.0802 -0.3138  0.4084
  504TMC3    C3 7488   2.157   3.251  17.609  0.3328  0.5071 -0.3569
  504TMC3    C4 7489   2.296   3.423  17.446  0.7860  0.6381 -0.3808
  504TMC3    C5 7490   2.366   3.337  17.531  0.1577  0.4231  0.9340
  504TMC3    C6 7491   2.295   3.246  17.603  0.0278  0.1058 -0.0962
  504TMC3     C 7492   2.091   3.463  17.336  0.0221 -0.1911  0.3051
  504TMC3     O 7493   2.052   3.363  17.282 -0.1363 -0.8246  0.0227
  504TMC3     H 7494   1.986   3.326  17.528 -0.0339 -1.0959  1.9939
  504TMC3    H1 7495   2.331   3.478  17.359  1.0339  1.5456  0.2967
  504TMC3    H2 7496   2.332   3.159  17.656  2.2989  1.7304  0.9623
  504TMC3    C7 7497   2.491   3.295  17.466 -0.0084  0.2392  0.4508
  504TMC3    C8 7498   2.083   3.148  17.679 -0.4649  0.3836  0.0889
  504TMC3    O1 7499   2.511   3.336  17.351  0.0832  0.2560 -0.7480
  504TMC3    O2 7500   1.981   3.113  17.617 -0.0377 -0.0016 -0.1989
  505MPD2     C 7501   1.644   2.315   9.446 -0.3726 -0.3816 -0.7954
  505MPD2    C1 7502   1.605   2.292   9.575 -0.3721  1.1035 -0.6880
  505MPD2    C2 7503   1.638   2.394   9.667  0.0608 -0.2521 -0.8640
  505MPD2    C3 7504   1.713   2.506   9.636 -0.2015  0.0427 -0.3510
  505MPD2    C4 7505   1.743   2.525   9.509 -0.1327 -0.1512  0.0634
  505MPD2    C5 7506   1.709   2.430   9.412  0.0400 -0.2727 -0.1153
  505MPD2     H 7507   1.626   2.381   9.774  1.3317  0.3869 -0.6409
  505MPD2    H1 7508   1.801   2.613   9.482 -1.2293  0.6133  0.2150
  505MPD2    H2 7509   1.629   2.243   9.366  1.2065  1.3075 -2.6111
  505MPD2    H3 7510   1.751   2.437   9.312  3.2891  2.1113  1.4089
  505MPD2     N 7511   1.760   2.604   9.731  0.0192  0.1600  0.1505
  505MPD2    H5 7512   1.824   2.674   9.695  0.7097  0.3478  1.7261
  505MPD2    N1 7513   1.533   2.175   9.614  0.1272 -0.0091 -1.2866
  505MPD2    H7 7514   1.523   2.104   9.542  0.7360 -0.0814 -1.2937
  506TMC3    C1 7515   1.452   2.009   9.757 -0.7420 -1.2822 -0.1580
  506TMC3    C2 7516   1.540   1.918   9.710  0.0398  0.0288 -0.3086
  506TMC3    C3 7517   1.550   1.798   9.780 -0.3829 -0.5185 -0.3759
  506TMC3    C4 7518   1.393   1.995   9.882 -0.7298  0.3798 -0.3682
  506TMC3    C5 7519   1.413   1.886   9.957  0.1760  0.2410  0.3468
  506TMC3    C6 7520   1.487   1.784   9.904  0.2333  0.0864 -0.1577
  506TMC3     C 7521   1.480   2.148   9.743  0.3648  0.5806  0.3554
  506TMC3     O 7522   1.493   2.212   9.847 -0.2296  0.0108 -0.7511
  506TMC3     H 7523   1.577   1.930   9.609  1.8278  1.0614  0.4756
  506TMC3    H1 7524   1.325   2.072   9.914 -0.7621  0.1958  0.0021
  506TMC3    H2 7525   1.501   1.686   9.949  0.9466 -0.2733 -1.1640
  506TMC3    C7 7526   1.469   1.926  10.086  0.1904 -0.3296 -0.0936
  506TMC3    C8 7527   1.654   1.708   9.740  0.3757 -0.7628  0.1453
  506TMC3    O1 7528   1.472   1.835  10.165 -0.2930  0.4147 -0.2467
  506TMC3    O2 7529   1.646   1.591   9.772  0.2302 -0.2626 -0.1543
  507TMC3    C1 7530   2.991   4.131  14.567  0.4063 -0.6969 -0.1447
  507TMC3    C2 7531   3.045   4.242  14.504  0.6488 -0.2451  0.1836
  507TMC3    C3 7532   3.138   4.319  14.572  0.1234 -0.3552 -0.5960
  507TMC3    C4 7533   3.013   4.114  14.702  0.4183  0.0780  0.4821
  507TMC3    C5 7534   3.101   4.198  14.773 -0.9596  0.1788  0.8772
  507TMC3    C6 7535   3.167   4.300  14.707 -0.2821  0.5686 -0.2106
  507TMC3     C 7536   2.921   4.043  14.478 -0.6703 -0.2571  0.3274
  507TMC3     O 7537   2.934   4.061  14.358  0.5897 -0.0282  0.1990
  507TMC3     H 7538   3.043   4.249  14.396  0.0746 -2.2959  0.0438
  507TMC3    H1 7539   2.974   4.028  14.753  1.1812  0.4122  1.6211
  507TMC3    H2 7540   3.239   4.362  14.759 -2.1721  1.9860  0.7271
  507TMC3    C7 7541   3.062   4.231  14.914 -0.5870 -0.0681 -0.4287
  507TMC3    C8 7542   3.104   4.460  14.550 -0.0178  0.0692 -0.7554
  507TMC3    O1 7543   3.117   4.330  14.952 -0.2042 -0.0803 -0.5071
  507TMC3    O2 7544   3.084   4.499  14.434  0.6700  0.2187 -0.6963
  508MPD2     C 7545   4.164   0.786  16.274  0.8272 -0.2391  0.2073
  508MPD2    C1 7546   4.123   0.916  16.290  0.8444  0.2674  0.2285
  508MPD2    C2 7547   4.074   0.975  16.180 -0.4804 -0.0122 -0.3857
  508MPD2    C3 7548   4.068   0.913  16.058  0.8893  0.1813  0.5675
  508MPD2    C4 7549   4.106   0.778  16.044  0.7148  0.4228 -0.3731
  508MPD2    C5 7550   4.162   0.725  16.154  0.1917  0.3710  0.5549
  508MPD2     H 7551   4.024   1.069  16.199 -2.7125 -0.9413 -1.5869
  508MPD2    H1 7552   4.102   0.720  15.953 -0.2175  1.2710 -0.8825
  508MPD2    H2 7553   4.212   0.728  16.352  1.3676  1.1359  0.8985
  508MPD2    H3 7554   4.194   0.621  16.145  1.6924  0.7343  1.6815
  508MPD2     N 7555   4.025   0.989  15.951  0.0571 -0.2627  0.3079
  508MPD2    H5 7556   3.994   1.082  15.975  2.8411  1.0121 -1.0321
  508MPD2    N1 7557   4.150   0.977  16.414 -0.2844  0.1596 -0.2933
  508MPD2    H7 7558   4.191   0.916  16.484  0.1818  0.7322 -0.0732
  509TMC3    C1 7559   3.882   1.255  15.695 -0.6356 -0.1763  0.1513
  509TMC3    C2 7560   3.966   1.293  15.592  1.6351 -0.0569 -0.4997
  509TMC3    C3 7561   4.068   1.207  15.559  0.1633 -0.6348  0.1446
  509TMC3    C4 7562   3.906   1.144  15.767 -0.0372 -0.1947 -1.1883
  509TMC3    C5 7563   4.012   1.063  15.730 -0.3100  0.9128  0.6463
  509TMC3    C6 7564   4.092   1.090  15.628 -0.6944 -0.7030 -0.4801
  509TMC3     C 7565   3.755   1.327  15.706  0.0955  0.8643  0.5008
  509TMC3     O 7566   3.666   1.274  15.775 -0.8876  0.2540 -0.2911
  509TMC3     H 7567   3.941   1.371  15.521 -0.3028 -0.9744 -0.8284
  509TMC3    H1 7568   3.830   1.115  15.839 -0.8542 -0.5667 -2.1943
  509TMC3    H2 7569   4.183   1.033  15.615  1.5158  2.3117  1.9965
  509TMC3    C7 7570   4.053   0.957  15.820 -0.3541 -0.1075 -0.0966
  509TMC3    C8 7571   4.176   1.267  15.489 -0.1294 -0.0104  0.1610
  509TMC3    O1 7572   4.128   0.875  15.772 -0.5295 -0.2629  0.4143
  509TMC3    O2 7573   4.247   1.193  15.423  0.1236  0.5317  0.1548
  510MPD2     C 7574   1.837   2.917  14.899  0.1669 -0.7258 -0.4745
  510MPD2    C1 7575   1.850   2.784  14.914  0.1102  0.4993  0.4017
  510MPD2    C2 7576   1.954   2.718  14.850 -0.2500  0.8740  0.8297
  510MPD2    C3 7577   2.040   2.785  14.765 -0.6698 -0.0790  0.2988
  510MPD2    C4 7578   2.021   2.923  14.747  0.1315  0.1697  0.4227
  510MPD2    C5 7579   1.924   2.988  14.818  0.3623 -0.3978  1.0761
  510MPD2     H 7580   1.963   2.611  14.858 -0.1777  0.6307 -2.7354
  510MPD2    H1 7581   2.093   2.982  14.691  2.8691 -2.2852  1.3629
  510MPD2    H2 7582   1.773   2.973  14.967  0.6538 -0.8510  0.0812
  510MPD2    H3 7583   1.910   3.095  14.807  1.3859 -0.4646 -0.7800
  510MPD2     N 7584   2.139   2.709  14.697  0.4150 -0.2093  0.5832
  510MPD2    H5 7585   2.149   2.611  14.722 -2.7535 -0.4926  0.7387
  510MPD2    N1 7586   1.765   2.706  14.993 -0.4095 -0.5616 -0.5491
  510MPD2    H7 7587   1.797   2.614  15.023  0.4481 -0.4207 -1.0475
  511TMC3    C1 7588   1.574   2.636  15.106  0.7363 -0.5879 -0.0972
  511TMC3    C2 7589   1.467   2.676  15.189 -0.1785  0.7649 -1.1779
  511TMC3    C3 7590   1.376   2.580  15.225 -0.7513  0.1475  0.2314
  511TMC3    C4 7591   1.584   2.513  15.047  0.5138  0.5784 -0.2424
  511TMC3    C5 7592   1.493   2.424  15.083 -0.8377  0.0890 -0.2699
  511TMC3    C6 7593   1.392   2.452  15.174  0.2698 -0.3490  0.4231
  511TMC3     C 7594   1.644   2.748  15.043 -0.2404 -0.4515  0.0896
  511TMC3     O 7595   1.587   2.858  15.037  0.2360 -0.0697  0.1910
  511TMC3     H 7596   1.453   2.776  15.227  2.3927  0.4813  0.5487
  511TMC3    H1 7597   1.646   2.489  14.961 -1.2838 -0.8846 -1.1281
  511TMC3    H2 7598   1.327   2.371  15.205 -0.8447  0.0047 -0.9698
  511TMC3    C7 7599   1.483   2.307  14.997 -0.4042  0.8649 -0.8191
  511TMC3    C8 7600   1.280   2.607  15.328  0.0494 -0.0394  0.1270
  511TMC3    O1 7601   1.546   2.312  14.893 -0.0789 -0.8671 -0.5324
  511TMC3    O2 7602   1.274   2.722  15.378 -0.6937  0.3533  0.2372
  512TMC3    C1 7603   1.297   1.458  12.970  0.1241 -0.0511  0.2144
  512TMC3    C2 7604   1.192   1.502  13.035  0.2397 -0.1279  0.2162
  512TMC3    C3 7605   1.126   1.414  13.119 -0.3661  1.2350  0.4136
  512TMC3    C4 7606   1.335   1.321  12.967 -0.2966 -0.0694  0.2601
  512TMC3    C5 7607   1.263   1.237  13.048 -0.2004 -0.0795  0.2098
  512TMC3    C6 7608   1.160   1.282  13.131 -0.6032  0.8944 -0.0645
  512TMC3     C 7609   1.331   1.546  12.857 -0.0655  0.1147 -0.2553
  512TMC3     O 7610   1.301   1.666  12.863  0.0719  0.6549 -0.3194
  512TMC3     H 7611   1.174   1.609  13.031  1.9774  0.1519 -0.0061
  512TMC3    H1 7612   1.421   1.298  12.904 -0.5407  0.2922 -0.2015
  512TMC3    H2 7613   1.110   1.208  13.193 -0.5229 -0.4406 -1.5821
  512TMC3    C7 7614   1.300   1.096  13.034 -0.3089 -0.2923 -0.6472
  512TMC3    C8 7615   1.055   1.469  13.224 -0.4893  0.7408 -0.5151
  512TMC3    O1 7616   1.385   1.065  12.948  0.1694 -0.2666 -0.3095
  512TMC3    O2 7617   1.039   1.396  13.323  0.7766  0.1138  0.4937
  513MPD2     C 7618   2.603   2.432  13.498 -0.4305  0.1799 -0.0840
  513MPD2    C1 7619   2.530   2.325  13.444  0.0179  0.3905  0.6098
  513MPD2    C2 7620   2.565   2.195  13.480  0.1713 -0.2221 -0.1343
  513MPD2    C3 7621   2.672   2.166  13.561  0.1749  0.1068 -0.4959
  513MPD2    C4 7622   2.741   2.269  13.623 -0.3571  0.3337  0.2318
  513MPD2    C5 7623   2.701   2.397  13.581 -0.2055 -0.3602 -0.1186
  513MPD2     H 7624   2.506   2.111  13.447 -1.6618  1.5702 -1.4383
  513MPD2    H1 7625   2.827   2.253  13.687  1.0612  0.6342 -1.5828
  513MPD2    H2 7626   2.602   2.534  13.463 -0.2238 -0.2615 -1.3652
  513MPD2    H3 7627   2.764   2.480  13.610 -0.1579 -0.0560 -1.0797
  513MPD2     N 7628   2.708   2.030  13.559  0.2943 -0.2818  0.6473
  513MPD2    H5 7629   2.650   1.964  13.509 -0.6771  1.8446 -1.0557
  513MPD2    N1 7630   2.421   2.336  13.351 -0.1134 -0.6996  0.8249
  513MPD2    H7 7631   2.385   2.251  13.310  0.4747 -0.0664 -1.0086
  514TMC3    C1 7632   2.292   2.418  13.194 -0.4533  0.3142  0.5097
  514TMC3    C2 7633   2.338   2.449  13.071  0.4859  0.3480 -0.2948
  514TMC3    C3 7634   2.314   2.364  12.962 -0.4750 -0.4321 -0.7247
  514TMC3    C4 7635   2.226   2.302  13.217 -1.1149 -0.6997 -0.3075
  514TMC3    C5 7636   2.210   2.212  13.115  0.3723  0.7477 -0.4240
  514TMC3    C6 7637   2.253   2.243  12.990  0.4810 -0.2757 -0.6432
  514TMC3     C 7638   2.378   2.454  13.303 -0.2952  0.0042  0.0736
  514TMC3     O 7639   2.436   2.560  13.298  0.3568  0.2259 -0.1255
  514TMC3     H 7640   2.410   2.529  13.057  0.6705  0.1552 -0.4439
  514TMC3    H1 7641   2.191   2.286  13.318  3.8647  2.0282  1.8791
  514TMC3    H2 7642   2.245   2.176  12.905 -0.3600 -3.2499  1.7939
  514TMC3    C7 7643   2.258   2.082  13.158 -0.0359  0.0332 -0.0194
  514TMC3    C8 7644   2.338   2.413  12.822 -0.0503  0.5827  0.4500
  514TMC3    O1 7645   2.293   2.073  13.276 -0.3289  0.1143  0.3103
  514TMC3    O2 7646   2.269   2.368  12.729 -0.6308 -0.4567  0.4205
  515MPD2     C 7647   0.449   4.201  15.149  1.1785  0.0257  0.6524
  515MPD2    C1 7648   0.511   4.089  15.095  0.2308 -1.4138 -0.1484
  515MPD2    C2 7649   0.647   4.081  15.107 -0.0703  0.6872 -0.1557
  515MPD2    C3 7650   0.731   4.176  15.165  0.5622 -0.2208  0.2770
  515MPD2    C4 7651   0.668   4.290  15.213 -0.1295 -0.4090  0.5042
  515MPD2    C5 7652   0.528   4.301  15.205  0.5381  0.4232  0.4599
  515MPD2     H 7653   0.680   3.979  15.090 -0.0817  0.7195 -0.3627
  515MPD2    H1 7654   0.719   4.376  15.256 -0.5823  1.2150 -2.1783
  515MPD2    H2 7655   0.342   4.222  15.145  0.6795 -2.4721  0.9904
  515MPD2    H3 7656   0.482   4.391  15.244  1.4461  2.0457 -2.1996
  515MPD2     N 7657   0.866   4.144  15.204 -0.7419  0.1497 -0.2403
  515MPD2    H5 7658   0.913   4.208  15.267 -1.1290 -0.8171  1.0303
  515MPD2    N1 7659   0.433   3.975  15.046  0.5699 -0.2077  0.3699
  515MPD2    H7 7660   0.476   3.885  15.023  0.7354  0.2066 -0.9897
  516TMC3    C1 7661   0.253   3.859  14.967  0.6147  0.3510  0.4058
  516TMC3    C2 7662   0.147   3.873  14.886 -0.0895 -1.1098  0.2383
  516TMC3    C3 7663   0.108   3.757  14.822 -0.2378 -0.5307 -0.3488
  516TMC3    C4 7664   0.309   3.740  15.008  0.0525  1.0890  0.7954
  516TMC3    C5 7665   0.261   3.626  14.943  0.0659 -0.5788  0.5210
  516TMC3    C6 7666   0.157   3.634  14.854 -0.5816  0.0567 -0.6005
  516TMC3     C 7667   0.299   3.983  15.022  0.4493 -0.8429  0.2229
  516TMC3     O 7668   0.224   4.075  15.042 -0.4939 -0.6259 -0.2266
  516TMC3     H 7669   0.103   3.966  14.853  2.0926 -0.5912 -1.2084
  516TMC3    H1 7670   0.383   3.729  15.086  3.3281 -1.2622 -2.6401
  516TMC3    H2 7671   0.117   3.541  14.815  0.3634 -1.0988  1.1607
  516TMC3    C7 7672   0.319   3.501  14.977 -0.0735  0.4577  1.0627
  516TMC3    C8 7673   0.009   3.756  14.714  0.0672  0.0024 -0.1865
  516TMC3    O1 7674   0.381   3.493  15.086 -0.0688 -0.1070 -0.5133
  516TMC3    O2 7675   4.695   3.646  14.681 -0.2184  0.5682 -0.0349
  517MPD2     C 7676   0.148   0.179   0.717  1.2264 -0.3147 -0.1038
  517MPD2    C1 7677   0.246   0.245   0.635 -0.1490  0.2984 -0.1671
  517MPD2    C2 7678   0.313   0.350   0.695  0.1077  0.1100 -0.1988
  517MPD2    C3 7679   0.274   0.390   0.823 -0.6199 -0.5754  0.2467
  517MPD2    C4 7680   0.166   0.336   0.889 -0.0112 -0.2826 -0.2291
  517MPD2    C5 7681   0.103   0.224   0.840 -0.0487  0.2879 -0.6658
  517MPD2     H 7682   0.394   0.397   0.641  2.6001 -1.0599  2.5040
  517MPD2    H1 7683   0.128   0.365   0.986  0.3325  0.3511 -0.2870
  517MPD2    H2 7684   0.108   0.085   0.681  0.9181  0.6181 -2.2119
  517MPD2    H3 7685   0.020   0.178   0.891 -1.2959  2.3278 -0.8447
  517MPD2     N 7686   0.350   0.488   0.898 -0.2124 -0.0167  0.1665
  517MPD2    H5 7687   0.337   0.480   0.998  0.1945  0.3602  0.2492
  517MPD2    N1 7688   0.297   0.197   0.507  0.1107  0.2598  0.6981
  517MPD2    H7 7689   0.368   0.258   0.467 -0.4676  0.4806 -0.0020
  518TMC3    C1 7690   0.351   0.035   0.352  0.0692 -0.1303  1.0375
  518TMC3    C2 7691   0.351   4.627   0.329 -0.2496  0.2042  1.1251
  518TMC3    C3 7692   0.404   4.577   0.209 -0.3660 -0.2553 -0.1975
  518TMC3    C4 7693   0.401   0.119   0.257 -0.0592  0.5370 -1.2232
  518TMC3    C5 7694   0.464   0.069   0.146  0.1946 -0.0326  0.2681
  518TMC3    C6 7695   0.473   4.660   0.129 -0.0688 -0.5255 -0.3941
  518TMC3     C 7696   0.255   0.085   0.449  0.8332  0.4094 -0.1264
  518TMC3     O 7697   0.167   0.005   0.479  0.2281  0.5719 -0.3115
  518TMC3     H 7698   0.327   4.558   0.409 -1.6287  1.2830  1.6435
  518TMC3    H1 7699   0.403   0.226   0.272 -0.2588  0.5920 -1.6026
  518TMC3    H2 7700   0.533   4.615   0.050 -1.9498  0.3461 -2.3207
  518TMC3    C7 7701   0.537   0.164   0.065 -0.2572  0.6317  0.4157
  518TMC3    C8 7702   0.390   4.439   0.180  0.6098  0.3829  0.2445
  518TMC3    O1 7703   0.508   0.283   0.064  0.4090  0.1690  0.1310
  518TMC3    O2 7704   0.476   4.392   0.108 -0.2007  0.0549 -0.2675
  519MPD2     C 7705   1.956   3.898  14.494 -0.4684  0.1315  0.3112
  519MPD2    C1 7706   1.852   3.821  14.437 -0.0949 -0.5845 -0.8992
  519MPD2    C2 7707   1.861   3.684  14.420 -0.0724  0.6972  0.8858
  519MPD2    C3 7708   1.979   3.622  14.448 -0.4148 -0.2346 -0.6584
  519MPD2    C4 7709   2.075   3.693  14.507 -0.2501 -0.2879  0.8314
  519MPD2    C5 7710   2.067   3.830  14.532  0.1761  0.0718  0.1080
  519MPD2     H 7711   1.777   3.638  14.369  3.0365 -2.7923 -1.0773
  519MPD2    H1 7712   2.168   3.645  14.536 -1.5557 -2.3785  1.4519
  519MPD2    H2 7713   1.948   4.005  14.510  1.5981  0.1451  1.3014
  519MPD2    H3 7714   2.146   3.881  14.587 -0.0378 -0.7894  1.2126
  519MPD2     N 7715   1.991   3.489  14.408  0.1974  0.7340 -0.3925
  519MPD2    H5 7716   2.085   3.450  14.405 -0.4105 -0.5749 -1.9394
  519MPD2    N1 7717   1.746   3.902  14.387  1.0602  0.3345  0.3688
  519MPD2    H7 7718   1.752   4.004  14.391 -2.0765  0.5337  0.1027
  520TMC3    C1 7719   1.960   3.300  14.296  0.2377 -0.2066 -0.4599
  520TMC3    C2 7720   1.912   3.269  14.178  0.2654  0.3595 -0.1965
  520TMC3    C3 7721   1.995   3.214  14.085  0.1429  0.0499 -0.3222
  520TMC3    C4 7722   2.095   3.276  14.327 -0.5755  0.2730 -0.0726
  520TMC3    C5 7723   2.171   3.210  14.240 -0.5118  0.2062 -0.3310
  520TMC3    C6 7724   2.121   3.176  14.116 -0.0786  0.4773 -0.4080
  520TMC3     C 7725   1.892   3.410  14.357  0.4379  0.0195 -0.5022
  520TMC3     O 7726   1.771   3.414  14.356 -0.0614  1.0313 -0.1372
  520TMC3     H 7727   1.819   3.312  14.142  0.6997 -0.1833 -1.9517
  520TMC3    H1 7728   2.128   3.283  14.430 -2.2732 -0.3110  0.5000
  520TMC3    H2 7729   2.186   3.118  14.050 -1.6717 -2.9013  0.9889
  520TMC3    C7 7730   2.309   3.178  14.269 -0.0164 -0.0362  0.0508
  520TMC3    C8 7731   1.958   3.214  13.945  0.3943 -0.3486  0.1851
  520TMC3    O1 7732   2.334   3.183  14.388 -0.5721  0.1744  0.6808
  520TMC3    O2 7733   2.050   3.235  13.865  0.5539  0.5270  0.0379
  521MPD2     C 7734   2.846   1.929   0.001 -0.1086 -0.0637  0.4594
  521MPD2    C1 7735   2.827   1.816  17.616 -0.4644 -0.6672  0.7412
  521MPD2    C2 7736   2.923   1.779  17.520 -0.0933  0.1347 -1.0422
  521MPD2    C3 7737   3.042   1.850  17.506 -0.7133 -0.1586  1.0228
  521MPD2    C4 7738   3.062   1.956  17.596  0.1775  0.4293 -0.3483
  521MPD2    C5 7739   2.967   1.998  17.686  0.2261 -0.7201  0.2308
  521MPD2     H 7740   2.901   1.694  17.455  0.3701 -0.9731  0.2383
  521MPD2    H1 7741   3.153   2.015  17.590  0.4195  0.0002 -0.8377
  521MPD2    H2 7742   2.779   1.966   0.078 -0.4120  1.7406 -0.6922
  521MPD2    H3 7743   2.991   2.081   0.055 -0.7412  0.0235 -0.3736
  521MPD2     N 7744   3.129   1.807  17.407  0.3186 -0.5623  0.1175
  521MPD2    H5 7745   3.089   1.731  17.352 -0.8253 -0.4429  0.7747
  521MPD2    N1 7746   2.705   1.751  17.632  0.0321 -0.5340  0.2890
  521MPD2    H7 7747   2.648   1.776   0.017  1.7210  0.6696  1.1281
  522TMC3    C1 7748   3.308   1.767  17.260 -0.0987  0.5496  0.6484
  522TMC3    C2 7749   3.432   1.811  17.215  0.0115 -0.1535 -0.6955
  522TMC3    C3 7750   3.516   1.717  17.165  0.0515 -0.4412  0.4058
  522TMC3    C4 7751   3.269   1.637  17.259  0.6411 -0.4886 -0.7144
  522TMC3    C5 7752   3.355   1.549  17.198 -0.2373 -0.3771 -0.0179
  522TMC3    C6 7753   3.480   1.589  17.152  0.8089 -0.3496 -0.6492
  522TMC3     C 7754   3.261   1.847  17.376  0.9691 -0.7420  0.2014
  522TMC3     O 7755   3.317   1.946  17.426 -0.6975  0.0270  0.0552
  522TMC3     H 7756   3.460   1.914  17.233 -0.0044  0.3258 -3.3875
  522TMC3    H1 7757   3.183   1.594  17.310  0.9724 -0.9298 -0.5223
  522TMC3    H2 7758   3.536   1.512  17.100  1.5292  0.2762 -0.7875
  522TMC3    C7 7759   3.295   1.421  17.142  0.3753  0.3200 -0.1446
  522TMC3    C8 7760   3.639   1.768  17.103  0.3935 -0.5330  0.3886
  522TMC3    O1 7761   3.380   1.335  17.118  0.5564  0.1932 -0.1251
  522TMC3    O2 7762   3.676   1.886  17.131  0.4639  0.4853  0.5423
  523MPD2     C 7763   0.617   1.278  10.307  0.0275 -0.0545 -0.7388
  523MPD2    C1 7764   0.496   1.229  10.258  0.8169  0.0989 -0.0519
  523MPD2    C2 7765   0.407   1.318  10.202 -0.4485 -0.4177  0.0630
  523MPD2    C3 7766   0.430   1.454  10.196 -0.5284 -0.5501 -0.6888
  523MPD2    C4 7767   0.556   1.496  10.239  0.3618 -0.4132  0.2035
  523MPD2    C5 7768   0.644   1.412  10.295  0.3255 -0.2712 -1.3301
  523MPD2     H 7769   0.313   1.282  10.159 -0.4536 -0.2573 -0.0608
  523MPD2    H1 7770   0.580   1.602  10.234  0.3050 -0.3988  0.2320
  523MPD2    H2 7771   0.699   1.213  10.335 -0.6389 -1.1785 -1.3628
  523MPD2    H3 7772   0.741   1.448  10.326 -0.1351  2.4837 -3.0684
  523MPD2     N 7773   0.346   1.552  10.136  0.0816 -0.0961 -0.5415
  523MPD2    H5 7774   0.379   1.648  10.138 -0.2661  0.0105  0.0581
  523MPD2    N1 7775   0.477   1.091  10.272  0.0048 -0.3034  0.4181
  523MPD2    H7 7776   0.549   1.046  10.327  0.2418 -1.1384 -0.5835
  524TMC3    C1 7777   0.163   1.647  10.019  0.1567  0.2631 -0.3236
  524TMC3    C2 7778   0.243   1.756   9.989 -0.4984 -0.3872 -0.5356
  524TMC3    C3 7779   0.181   1.867   9.935 -0.6783  0.1609  0.3505
  524TMC3    C4 7780   0.025   1.661  10.022 -1.7149  0.2036  0.3534
  524TMC3    C5 7781   4.691   1.787  10.000 -0.6152  0.1783 -0.2435
  524TMC3    C6 7782   0.044   1.888   9.941 -0.4430 -0.6632  0.5675
  524TMC3     C 7783   0.220   1.537  10.087  0.2628  0.9402  0.7750
  524TMC3     O 7784   0.149   1.438  10.093  0.0277  0.1753  0.1333
  524TMC3     H 7785   0.349   1.742   9.969 -0.6656  1.2895 -2.5306
  524TMC3    H1 7786   4.687   1.587  10.072 -1.0909 -2.1280 -2.3427
  524TMC3    H2 7787   0.010   1.991   9.936 -0.3761 -0.5779  1.9426
  524TMC3    C7 7788   4.548   1.804  10.015  0.6455  0.7307  1.0995
  524TMC3    C8 7789   0.266   1.967   9.877 -0.1315 -0.3052 -0.5393
  524TMC3    O1 7790   4.494   1.750  10.113 -0.4612 -0.2527 -0.2262
  524TMC3    O2 7791   0.385   1.941   9.875  0.0950 -0.0206  0.0554
  525MPD2     C 7792   3.209   2.696  14.771 -0.3520 -0.3243 -0.4241
  525MPD2    C1 7793   3.290   2.742  14.865 -0.6030  0.3130 -0.0316
  525MPD2    C2 7794   3.314   2.875  14.883 -0.5246 -0.1819 -0.1278
  525MPD2    C3 7795   3.243   2.959  14.800 -0.2277 -0.3251 -0.2349
  525MPD2    C4 7796   3.156   2.917  14.705 -0.0209 -0.1017 -0.3623
  525MPD2    C5 7797   3.137   2.780  14.688 -0.1684 -0.6422  0.5629
  525MPD2     H 7798   3.383   2.917  14.955 -2.1509  2.3000 -0.0061
  525MPD2    H1 7799   3.101   2.981  14.636  0.9739  1.0354 -0.0960
  525MPD2    H2 7800   3.195   2.590  14.753  0.3226 -0.1929 -1.7330
  525MPD2    H3 7801   3.082   2.742  14.604 -3.1134  1.5301  1.5159
  525MPD2     N 7802   3.267   3.102  14.797  0.1549  0.1033  0.2954
  525MPD2    H5 7803   3.211   3.157  14.732  0.3746  1.1275  0.9619
  525MPD2    N1 7804   3.340   2.649  14.955  0.3747  0.4551 -0.3488
  525MPD2    H7 7805   3.388   2.670  15.042 -1.9140 -0.5300  1.1513
  526TMC3    C1 7806   3.424   2.443  15.036  0.8291 -0.7226 -0.8776
  526TMC3    C2 7807   3.373   2.460  15.166  0.3736 -0.0811  0.3026
  526TMC3    C3 7808   3.409   2.361  15.256  0.4187 -0.0325  0.4093
  526TMC3    C4 7809   3.505   2.342  15.007  0.0528 -0.5230  0.8259
  526TMC3    C5 7810   3.552   2.257  15.101 -0.2331  0.1793  0.5113
  526TMC3    C6 7811   3.515   2.280  15.229 -0.0349 -0.1174  0.4657
  526TMC3     C 7812   3.365   2.516  14.927  0.3811 -0.0539 -0.1235
  526TMC3     O 7813   3.348   2.457  14.824 -0.3902 -0.5460  0.0308
  526TMC3     H 7814   3.311   2.546  15.187  1.2589  0.8916 -1.0329
  526TMC3    H1 7815   3.518   2.319  14.902  0.5750 -0.0404  0.7786
  526TMC3    H2 7816   3.556   2.212  15.303 -0.7788  0.2763  1.2355
  526TMC3    C7 7817   3.659   2.162  15.070  0.3837  0.0410 -0.1112
  526TMC3    C8 7818   3.397   2.391  15.397  0.3584  0.5118  0.6317
  526TMC3    O1 7819   3.713   2.114  15.169 -0.2438  0.1482 -0.2616
  526TMC3    O2 7820   3.495   2.354  15.464 -0.4363  0.2302 -0.0470
  527MPD2     C 7821   1.174   0.535   1.532  0.3352  0.4811 -0.0608
  527MPD2    C1 7822   1.299   0.534   1.595  0.5041 -0.0299  0.0538
  527MPD2    C2 7823   1.417   0.540   1.521 -0.1099  0.0247 -0.2449
  527MPD2    C3 7824   1.412   0.557   1.385 -0.2425 -0.3070 -0.8214
  527MPD2    C4 7825   1.283   0.569   1.323 -0.6242  0.0310  0.5854
  527MPD2    C5 7826   1.172   0.540   1.399  0.5879  0.0236 -0.3523
  527MPD2     H 7827   1.512   0.528   1.572  0.6264 -0.2943 -1.6987
  527MPD2    H1 7828   1.270   0.575   1.215 -0.5006  1.9081  0.6684
  527MPD2    H2 7829   1.084   0.552   1.590  0.5007  0.2484  0.2652
  527MPD2    H3 7830   1.071   0.558   1.366 -0.2715  1.1494  2.8821
  527MPD2     N 7831   1.531   0.585   1.312  0.4728  0.5386 -0.0031
  527MPD2    H5 7832   1.618   0.591   1.364 -0.7927 -0.1881  2.2244
  527MPD2    N1 7833   1.310   0.508   1.735 -0.4633  0.1077 -0.4162
  527MPD2    H7 7834   1.394   0.461   1.767  0.8410  1.4784 -1.8233
  528TMC3    C1 7835   1.262   0.474   1.963  0.1934  0.6686 -0.2995
  528TMC3    C2 7836   1.397   0.485   1.991 -0.0912 -0.3949  0.5625
  528TMC3    C3 7837   1.437   0.421   2.103 -0.1832  0.7070 -0.0038
  528TMC3    C4 7838   1.167   0.422   2.046 -0.0740  0.1053 -0.0411
  528TMC3    C5 7839   1.213   0.367   2.156  0.3009  1.4986  0.0197
  528TMC3    C6 7840   1.350   0.347   2.177 -0.2968 -0.1852 -0.4041
  528TMC3     C 7841   1.213   0.512   1.832  0.1389  0.1599  0.1553
  528TMC3     O 7842   1.095   0.534   1.825 -0.0661 -0.5574  0.0030
  528TMC3     H 7843   1.460   0.550   1.932  0.5346 -1.1921  0.3601
  528TMC3    H1 7844   1.062   0.437   2.021 -0.0483  1.4492  0.7149
  528TMC3    H2 7845   1.377   0.299   2.271 -0.3857 -2.7375 -1.6723
  528TMC3    C7 7846   1.114   0.299   2.246  0.1883  0.1012  0.5957
  528TMC3    C8 7847   1.576   0.434   2.132 -0.5394  0.2096  0.5424
  528TMC3    O1 7848   1.160   0.202   2.309  0.2613 -0.1181  0.1009
  528TMC3    O2 7849   1.644   0.507   2.059 -0.3334  0.6948  0.0331
  529MPD2     C 7850   4.627   4.505   0.817 -0.1236  1.1393  0.2932
  529MPD2    C1 7851   4.634   4.369   0.779 -0.0911  0.1605  0.1903
  529MPD2    C2 7852   4.599   4.337   0.651 -0.2409  0.0818  0.1362
  529MPD2    C3 7853   4.569   4.432   0.558  0.7715  0.8144 -0.0020
  529MPD2    C4 7854   4.556   4.563   0.599  0.0605 -0.6019 -0.1852
  529MPD2    C5 7855   4.594   4.601   0.725 -0.0514  0.4276  0.1696
  529MPD2     H 7856   4.616   4.236   0.617 -0.1463  0.3076 -0.4934
  529MPD2    H1 7857   4.531   4.637   0.524  2.6637 -0.1073 -0.5468
  529MPD2    H2 7858   4.645   4.537   0.919 -2.5919  2.2297  0.3633
  529MPD2    H3 7859   4.590   4.703   0.762 -0.0385  0.9749 -1.3429
  529MPD2     N 7860   4.523   4.407   0.423  0.2036 -0.1587 -0.8204
  529MPD2    H5 7861   4.500   4.490   0.369 -0.6586  0.7182  0.8654
  529MPD2    N1 7862   4.641   4.259   0.868  0.3833 -0.3638 -0.7431
  529MPD2    H7 7863   4.647   4.169   0.820  1.5153 -0.1935 -0.9345
  530TMC3    C1 7864   4.627   4.128   1.065 -0.3264 -0.2721  0.8018
  530TMC3    C2 7865   4.670   4.114   1.198  0.7579  0.3323  0.4432
  530TMC3    C3 7866   4.680   3.995   1.262  0.4590  0.0197  0.4002
  530TMC3    C4 7867   4.601   4.008   0.995 -0.2195  0.6290  0.3324
  530TMC3    C5 7868   4.615   3.891   1.062  0.4243 -0.2335 -0.8736
  530TMC3    C6 7869   4.641   3.882   1.194  0.5423 -0.2491 -0.3988
  530TMC3     C 7870   4.636   4.261   1.006  0.0016 -0.2494  0.4602
  530TMC3     O 7871   4.638   4.362   1.081  0.0188  0.7904 -0.3546
  530TMC3     H 7872   4.699   4.201   1.255 -2.0703  1.2022  0.5661
  530TMC3    H1 7873   4.587   3.998   0.888  1.2365  2.1686 -0.0081
  530TMC3    H2 7874   4.635   3.790   1.250  0.0826  0.7056  1.1072
  530TMC3    C7 7875   4.562   3.771   0.995  0.3539 -0.4099  0.0554
  530TMC3    C8 7876   0.023   3.987   1.395 -0.1901  0.3815  0.1471
  530TMC3    O1 7877   4.595   3.757   0.876 -0.5741  0.1279 -0.0212
  530TMC3    O2 7878   0.050   4.097   1.444 -0.1634  0.2851 -0.1643
  531MPD2     C 7879   2.481   1.624  13.057 -0.0233 -0.5517 -0.5839
  531MPD2    C1 7880   2.476   1.697  13.173 -0.2283  0.2467  0.3084
  531MPD2    C2 7881   2.401   1.819  13.175  0.4881  0.0312 -0.2739
  531MPD2    C3 7882   2.347   1.868  13.062  0.4558 -0.3418  0.3722
  531MPD2    C4 7883   2.372   1.807  12.944 -0.2652 -0.5702 -0.8527
  531MPD2    C5 7884   2.437   1.687  12.942 -0.0321  0.0062 -0.0044
  531MPD2     H 7885   2.377   1.865  13.270 -1.4863 -0.7498 -0.3866
  531MPD2    H1 7886   2.334   1.849  12.852 -0.6603  1.2596  0.1561
  531MPD2    H2 7887   2.532   1.529  13.052  2.4999  0.7112  0.9922
  531MPD2    H3 7888   2.449   1.633  12.849  0.8104 -2.6374  1.6165
  531MPD2     N 7889   2.272   1.991  13.052  0.7740 -0.2964  0.9825
  531MPD2    H5 7890   2.230   2.019  12.964  1.2296 -2.5348  0.0571
  531MPD2    N1 7891   2.548   1.654  13.287 -0.3889  0.0672 -0.4435
  531MPD2    H7 7892   2.598   1.566  13.289  2.1476  1.5071  0.5425
  532TMC3    C1 7893   2.670   1.696  13.491 -0.6229  0.1783 -0.1535
  532TMC3    C2 7894   2.684   1.793  13.587  0.5300  0.4349 -0.0678
  532TMC3    C3 7895   2.817   1.839  13.593  0.0669 -0.1702  0.8102
  532TMC3    C4 7896   2.777   1.636  13.428  0.5397  0.3001  0.0957
  532TMC3    C5 7897   2.904   1.686  13.448 -0.2587  0.5165 -0.1771
  532TMC3    C6 7898   2.924   1.783  13.539 -0.0422 -0.1510 -0.4036
  532TMC3     C 7899   2.572   1.737  13.395  0.2397 -0.2899 -0.2952
  532TMC3     O 7900   2.553   1.857  13.407 -0.0159  0.2759 -0.1833
  532TMC3     H 7901   2.597   1.833  13.637 -0.9537 -1.7265 -0.9259
  532TMC3    H1 7902   2.751   1.555  13.361  0.1584 -2.1680  3.2559
  532TMC3    H2 7903   3.023   1.819  13.562 -1.0832  1.4242  1.6278
  532TMC3    C7 7904   3.006   1.587  13.458  0.0855 -0.0467 -0.6217
  532TMC3    C8 7905   2.825   1.981  13.613  0.1138 -0.8996 -0.4226
  532TMC3    O1 7906   3.063   1.574  13.569 -0.3788  0.4729 -0.3438
  532TMC3    O2 7907   2.921   2.033  13.663 -1.0919 -0.4167  0.4456
  533TMC3    C1 7908   3.351   3.311  14.843  0.0731  0.2750  0.2910
  533TMC3    C2 7909   3.470   3.382  14.830  0.0563 -1.0178  0.5628
  533TMC3    C3 7910   3.469   3.514  14.855  0.4524  0.0679  0.2915
  533TMC3    C4 7911   3.235   3.370  14.890 -0.2440 -0.6081  0.1029
  533TMC3    C5 7912   3.241   3.500  14.935  0.5572  0.4610  0.1501
  533TMC3    C6 7913   3.359   3.577  14.911  0.4849  0.1092  0.9454
  533TMC3     C 7914   3.363   3.168  14.866 -0.0210  0.5217  0.2990
  533TMC3     O 7915   3.457   3.126  14.933 -0.4967  0.5107 -0.0024
  533TMC3     H 7916   3.562   3.333  14.799  0.0038  0.2569 -1.5920
  533TMC3    H1 7917   3.154   3.303  14.915 -0.1206 -0.2547  1.4567
  533TMC3    H2 7918   3.362   3.680  14.945  0.3032  0.4077  0.0507
  533TMC3    C7 7919   3.169   3.522  15.060  0.3732 -0.0357  0.0598
  533TMC3    C8 7920   3.593   3.584  14.893 -0.0793 -0.1478  0.4353
  533TMC3    O1 7921   3.077   3.449  15.088 -0.1348 -0.0544  0.7314
  533TMC3    O2 7922   3.593   3.650  14.998  0.5853  0.6969 -0.3557
  534MPD2     C 7923   2.029   3.801   1.171 -0.1923 -0.2951  0.3827
  534MPD2    C1 7924   1.983   3.882   1.276 -0.1728 -0.7324 -0.2212
  534MPD2    C2 7925   1.856   3.938   1.279  0.2828 -0.0404 -0.3698
  534MPD2    C3 7926   1.777   3.920   1.164  0.2543  0.5828  0.9117
  534MPD2    C4 7927   1.812   3.827   1.066 -0.4031 -1.2464 -0.3532
  534MPD2    C5 7928   1.937   3.768   1.070 -0.0125 -0.7160 -0.4728
  534MPD2     H 7929   1.833   4.002   1.363  1.0469 -0.9844  0.5552
  534MPD2    H1 7930   1.747   3.807   0.982 -0.3923  1.5636 -1.0384
  534MPD2    H2 7931   2.121   3.745   1.172  0.0683  0.1075 -0.4855
  534MPD2    H3 7932   1.977   3.702   0.993 -0.2781  0.7408 -1.8520
  534MPD2     N 7933   1.664   4.000   1.143 -0.4979 -0.0364  0.1724
  534MPD2    H5 7934   1.624   3.979   1.051 -1.5053  0.1084  0.5733
  534MPD2    N1 7935   2.080   3.904   1.385  0.5408  0.3802 -0.0410
  534MPD2    H7 7936   2.047   3.965   1.459  1.9105  0.0350  0.8355
  535TMC3    C1 7937   1.500   4.161   1.180 -0.0480 -0.7884  0.7242
  535TMC3    C2 7938   1.383   4.141   1.243  0.6192  0.2488  0.0623
  535TMC3    C3 7939   1.267   4.168   1.171  0.0120  0.0209  0.1931
  535TMC3    C4 7940   1.508   4.198   1.055  0.3586 -0.0694  0.3265
  535TMC3    C5 7941   1.396   4.230   0.988  0.3603  0.4273 -0.1062
  535TMC3    C6 7942   1.272   4.212   1.039  0.0219  0.4376 -0.6244
  535TMC3     C 7943   1.615   4.087   1.238  0.7948  0.3410 -0.2435
  535TMC3     O 7944   1.621   4.086   1.363 -0.5217 -0.4541  0.3512
  535TMC3     H 7945   1.381   4.082   1.334  1.6181  1.3409  0.7928
  535TMC3    H1 7946   1.600   4.240   1.016  1.0479  1.1313  3.2471
  535TMC3    H2 7947   1.181   4.209   0.979  1.5882  0.1672 -2.9634
  535TMC3    C7 7948   1.420   4.306   0.863 -0.1273  0.2763 -0.4244
  535TMC3    C8 7949   1.142   4.120   1.218 -0.8098 -0.1134 -0.1788
  535TMC3    O1 7950   1.540   4.321   0.832  1.1791 -0.1010 -0.7224
  535TMC3    O2 7951   1.043   4.131   1.144 -0.0730 -0.3989  0.5062
  536MPD2     C 7952   0.661   2.607  16.817 -0.1753 -0.2812 -0.1180
  536MPD2    C1 7953   0.552   2.527  16.841 -0.2224 -0.0520 -0.3641
  536MPD2    C2 7954   0.485   2.490  16.726 -0.2233 -0.6173 -0.8909
  536MPD2    C3 7955   0.502   2.560  16.604 -0.5077  0.3104  0.0658
  536MPD2    C4 7956   0.609   2.645  16.594 -0.2537 -0.6753 -0.0345
  536MPD2    C5 7957   0.690   2.664  16.699  0.5295  0.1877  0.4113
  536MPD2     H 7958   0.399   2.426  16.738 -1.7036  0.8962 -3.4315
  536MPD2    H1 7959   0.611   2.721  16.517 -0.3260 -1.4595 -0.8009
  536MPD2    H2 7960   0.723   2.633  16.902 -0.5346 -0.0806  0.0804
  536MPD2    H3 7961   0.772   2.733  16.687  0.9091  0.0033  1.9159
  536MPD2     N 7962   0.421   2.541  16.490  0.3976 -0.7206 -0.0865
  536MPD2    H5 7963   0.451   2.591  16.406  1.1550 -1.6219 -0.3552
  536MPD2    N1 7964   0.518   2.474  16.975  0.3718 -0.4341  0.2872
  536MPD2    H7 7965   0.557   2.521  17.056 -1.1046  0.1039  0.6731
  537TMC3    C1 7966   0.395   2.369  17.148 -0.4838  0.7513  0.0253
  537TMC3    C2 7967   0.472   2.431  17.242  0.5663 -1.2796 -0.6814
  537TMC3    C3 7968   0.417   2.470  17.364  0.7823 -0.0591 -0.5373
  537TMC3    C4 7969   0.267   2.329  17.179 -0.5351 -0.4800 -0.1910
  537TMC3    C5 7970   0.213   2.358  17.298 -0.0948  0.6380  1.1178
  537TMC3    C6 7971   0.285   2.433  17.391  0.3959  0.2725  0.5025
  537TMC3     C 7972   0.417   2.383  17.006  1.0369 -0.5808  0.1405
  537TMC3     O 7973   0.335   2.333  16.929 -0.4783 -0.0850  0.4212
  537TMC3     H 7974   0.573   2.460  17.217  1.1559 -0.1319  3.0859
  537TMC3    H1 7975   0.209   2.280  17.101 -3.2674  0.5239  1.2339
  537TMC3    H2 7976   0.235   2.462  17.483 -0.0272 -1.1439  0.7211
  537TMC3    C7 7977   0.081   2.309  17.333 -0.0932 -0.1934 -0.1948
  537TMC3    C8 7978   0.480   2.550  17.464 -0.4592 -0.1916  0.5122
  537TMC3    O1 7979   4.717   2.392  17.365  0.0195  0.1398 -0.0851
  537TMC3    O2 7980   0.436   2.526  17.575 -0.2355  0.2372 -0.2288
  538TMC3    C1 7981   0.970   1.024  10.838  0.1511  0.3034 -0.0247
  538TMC3    C2 7982   1.026   0.906  10.800  0.3222  0.1156 -0.1117
  538TMC3    C3 7983   1.003   0.861  10.676  0.4134 -0.8380 -0.4352
  538TMC3    C4 7984   0.880   1.083  10.763  0.3482 -0.2228 -0.2741
  538TMC3    C5 7985   0.862   1.035  10.637  0.5190 -0.0991  0.0795
  538TMC3    C6 7986   0.915   0.920  10.591 -0.6890  0.2478  0.3006
  538TMC3     C 7987   0.961   1.062  10.978 -0.5141  0.0915  0.1893
  538TMC3     O 7988   0.893   1.158  11.009 -0.2035 -0.5518  0.0480
  538TMC3     H 7989   1.100   0.858  10.863 -0.9009 -0.6708  0.7241
  538TMC3    H1 7990   0.840   1.180  10.789 -0.0660 -0.1025 -1.3414
  538TMC3    H2 7991   0.891   0.889  10.490 -1.3704 -0.9332  0.8139
  538TMC3    C7 7992   0.720   1.056  10.610  0.4021 -0.5136  0.8454
  538TMC3    C8 7993   1.098   0.771  10.608 -0.0190 -0.4499  0.1886
  538TMC3    O1 7994   0.665   0.954  10.576  0.4375  0.8250 -0.2562
  538TMC3    O2 7995   1.082   0.757  10.487  1.0564  0.0295  0.7677
  539MPD2     C 7996   0.554   0.145  11.925  0.6914  0.1114  0.1436
  539MPD2    C1 7997   0.586   0.193  11.795  0.4096  0.0874 -0.8159
  539MPD2    C2 7998   0.517   0.299  11.734  0.2810 -0.3320  0.3422
  539MPD2    C3 7999   0.400   0.352  11.798 -0.0464 -0.7336  0.7928
  539MPD2    C4 8000   0.372   0.300  11.927  0.1391  0.3344  0.4563
  539MPD2    C5 8001   0.444   0.207  11.987  1.0798  0.2837  0.2672
  539MPD2     H 8002   0.546   0.336  11.637  0.1979  2.5567  1.4156
  539MPD2    H1 8003   0.281   0.326  11.978 -0.4900  1.1749 -1.0838
  539MPD2    H2 8004   0.602   0.064  11.977  0.1949 -0.2587  0.0250
  539MPD2    H3 8005   0.409   0.174  12.084 -0.8466  2.4518  0.2967
  539MPD2     N 8006   0.321   0.455  11.745 -0.2908  0.2596  0.2708
  539MPD2    H5 8007   0.224   0.469  11.772  0.1472  0.0532  1.9493
  539MPD2    N1 8008   0.692   0.138  11.722  0.5290  0.1191 -0.1820
  539MPD2    H7 8009   0.701   0.163  11.624  1.5969 -1.6761 -0.5431
  540TMC3    C1 8010   0.271   0.630  11.590 -0.5403 -0.2329 -0.8523
  540TMC3    C2 8011   0.291   0.648  11.457  0.1196  0.7052  0.1028
  540TMC3    C3 8012   0.213   0.740  11.398  0.1115  0.4784 -0.6400
  540TMC3    C4 8013   0.170   0.686  11.660  0.2155 -0.1475  1.0167
  540TMC3    C5 8014   0.089   0.773  11.594  0.2707 -0.4637  0.4325
  540TMC3    C6 8015   0.108   0.801  11.466  0.4161  0.0153 -0.1142
  540TMC3     C 8016   0.374   0.544  11.654  0.2876 -1.0924 -0.2550
  540TMC3     O 8017   0.486   0.550  11.604  0.0310 -0.2883 -0.4421
  540TMC3     H 8018   0.367   0.598  11.398  1.1076  2.3354  0.0020
  540TMC3    H1 8019   0.152   0.671  11.766  0.0573 -1.5785  0.7775
  540TMC3    H2 8020   0.042   0.871  11.415  0.4424 -0.1158 -0.3289
  540TMC3    C7 8021   4.707   0.837  11.671  1.2494 -0.6961 -0.1714
  540TMC3    C8 8022   0.227   0.785  11.264 -0.4821  0.5947 -0.4148
  540TMC3    O1 8023   4.631   0.760  11.726 -0.2810  0.5121  0.6676
  540TMC3    O2 8024   0.203   0.900  11.239 -0.0407 -0.1372 -0.1537
  541MPD2     C 8025   4.099   2.070  13.261  0.2637  0.4174 -0.1628
  541MPD2    C1 8026   4.158   1.967  13.190 -0.0590 -0.1761 -0.3478
  541MPD2    C2 8027   4.163   1.963  13.050 -0.5070  0.2370  0.2714
  541MPD2    C3 8028   4.114   2.072  12.976  0.3928  0.8238 -1.1959
  541MPD2    C4 8029   4.055   2.170  13.049 -0.1491 -0.9841 -0.9731
  541MPD2    C5 8030   4.049   2.174  13.182  0.4586  0.2987  0.1760
  541MPD2     H 8031   4.218   1.884  13.000 -1.2101 -0.9485  1.3912
  541MPD2    H1 8032   4.011   2.251  12.993  0.3630 -0.8672 -1.2058
  541MPD2    H2 8033   4.097   2.070  13.370 -0.9286  0.1711 -0.1849
  541MPD2    H3 8034   3.995   2.256  13.229 -1.0894 -1.1056  0.8711
  541MPD2     N 8035   4.111   2.085  12.834 -0.2791  0.4830  0.2849
  541MPD2    H5 8036   4.072   2.175  12.807 -2.2877 -0.4026  0.2136
  541MPD2    N1 8037   4.220   1.872  13.273 -0.4377  0.5656  0.1680
  541MPD2    H7 8038   4.200   1.886  13.371  2.1773  0.0392  0.7857
  542TMC3    C1 8039   4.103   2.026  12.611  0.4823 -0.1350  0.1693
  542TMC3    C2 8040   4.127   1.931  12.519  0.9308 -0.2086  0.8251
  542TMC3    C3 8041   4.129   1.964  12.385  0.4808 -0.3671  0.7146
  542TMC3    C4 8042   4.091   2.153  12.574 -0.3939  0.1476  0.5774
  542TMC3    C5 8043   4.088   2.185  12.443 -0.6004 -0.3408  0.6555
  542TMC3    C6 8044   4.098   2.092  12.343 -0.1991  0.7484  0.1361
  542TMC3     C 8045   4.123   1.983  12.750 -0.4592 -0.1794 -0.1309
  542TMC3     O 8046   4.164   1.871  12.787  0.0547  0.0095  0.3381
  542TMC3     H 8047   4.089   1.831  12.539  0.3618  0.0252  0.9265
  542TMC3    H1 8048   4.077   2.232  12.646  0.0896 -0.5264  1.4088
  542TMC3    H2 8049   4.085   2.107  12.236 -1.6569  0.5856  0.2797
  542TMC3    C7 8050   4.100   2.335  12.420 -0.4121  0.0116  0.3919
  542TMC3    C8 8051   4.091   1.860  12.297  0.2271  0.1283 -0.3113
  542TMC3    O1 8052   4.119   2.411  12.512 -0.7130 -0.0371 -0.3639
  542TMC3    O2 8053   4.005   1.888  12.217  0.2915  0.3162 -0.4094
  543TMC3    C1 8054   3.952   3.344  17.565  0.5314  0.4809  0.1940
  543TMC3    C2 8055   3.836   3.410  17.545  0.8419 -0.8042 -0.6060
  543TMC3    C3 8056   3.726   3.400  17.629  0.0967 -0.0104 -0.4305
  543TMC3    C4 8057   3.961   3.263  17.673 -0.0788  0.3756  0.2976
  543TMC3    C5 8058   3.864   3.256   0.062  0.0610  0.3761  0.4480
  543TMC3    C6 8059   3.744   3.330   0.051  0.5391 -0.3544 -0.4921
  543TMC3     C 8060   4.016   3.294  17.448 -0.0304 -0.2810  1.0175
  543TMC3     O 8061   4.119   3.226  17.460 -0.0458 -0.5189 -0.4750
  543TMC3     H 8062   3.826   3.487  17.469 -2.5734  0.3953  1.0519
  543TMC3    H1 8063   4.047   3.198  17.671 -0.3108  0.1116 -1.2087
  543TMC3    H2 8064   3.657   3.304   0.110 -0.2774 -1.7030 -2.3028
  543TMC3    C7 8065   3.885   3.183   0.185 -0.1575  0.3555 -0.6918
  543TMC3    C8 8066   3.621   3.351  17.543  0.1834 -0.5073 -0.0487
  543TMC3    O1 8067   3.828   3.215   0.286  0.0605 -0.1074  0.1988
  543TMC3    O2 8068   3.659   3.317  17.431  0.0143  0.1594  0.0873
  544MPD2     C 8069   3.145   3.190  17.425  0.3266  0.4211  0.3057
  544MPD2    C1 8070   3.272   3.142  17.383 -0.1918 -0.1180  0.1020
  544MPD2    C2 8071   3.385   3.201  17.445  0.3915 -0.0023 -0.1788
  544MPD2    C3 8072   3.372   3.305  17.538 -0.0772  0.0784  0.1566
  544MPD2    C4 8073   3.246   3.348  17.576 -0.1989  0.2630 -0.7596
  544MPD2    C5 8074   3.136   3.284  17.527  0.0542  0.6533 -0.0761
  544MPD2     H 8075   3.478   3.153  17.419 -0.2614 -0.7771 -1.0870
  544MPD2    H1 8076   3.239   3.422  17.655 -0.0228  0.4261 -0.8990
  544MPD2    H2 8077   3.049   3.152  17.390 -0.9542  1.4943  2.6483
  544MPD2    H3 8078   3.040   3.321  17.560  0.7638  2.8332 -0.4343
  544MPD2     N 8079   3.489   3.364  17.589  0.3441  0.6220  0.2834
  544MPD2    H5 8080   3.478   3.422  17.672  0.5326 -0.3648  0.9953
  544MPD2    N1 8081   3.272   3.031  17.294  0.5690 -0.3097  0.2553
  544MPD2    H7 8082   3.180   3.000  17.264  0.3794  2.5269 -2.1081
  545TMC3    C1 8083   3.357   2.853  17.178  0.2416 -0.2555  0.3954
  545TMC3    C2 8084   3.444   2.812  17.091 -0.5808 -0.5010  0.2551
  545TMC3    C3 8085   3.460   2.676  17.092  0.2826  0.3167 -0.7657
  545TMC3    C4 8086   3.284   2.777  17.260 -0.5242 -0.3091  0.5663
  545TMC3    C5 8087   3.291   2.637  17.259  0.0909 -0.0824  0.1608
  545TMC3    C6 8088   3.384   2.586  17.172  0.1740 -0.3981 -0.1909
  545TMC3     C 8089   3.388   2.976  17.241  0.5285 -0.1206 -0.3161
  545TMC3     O 8090   3.509   3.006  17.245  0.1641 -0.2571  0.3691
  545TMC3     H 8091   3.505   2.892  17.051 -0.9084 -0.3568  0.0450
  545TMC3    H1 8092   3.224   2.816  17.342 -1.0724 -0.0486  0.0489
  545TMC3    H2 8093   3.407   2.480  17.171 -2.2847 -0.9185 -1.2886
  545TMC3    C7 8094   3.246   2.563  17.379 -0.4057 -0.3475  0.1314
  545TMC3    C8 8095   3.590   2.631  17.044 -0.6673 -0.5920 -0.4331
  545TMC3    O1 8096   3.179   2.638  17.452  0.8550  0.4045 -0.1344
  545TMC3    O2 8097   3.596   2.515  17.011 -0.4877 -0.3981  0.3331
  546MPD2     C 8098   0.456   3.133   0.519 -0.7640 -0.6652 -0.0441
  546MPD2    C1 8099   0.483   3.137   0.387 -0.3336  0.1912  0.3540
  546MPD2    C2 8100   0.536   3.246   0.321  0.3934  0.1867  0.2479
  546MPD2    C3 8101   0.555   3.369   0.393  0.1582  0.0788 -0.0682
  546MPD2    C4 8102   0.520   3.370   0.531  0.2251 -0.6601 -0.0614
  546MPD2    C5 8103   0.469   3.250   0.584 -0.7519  0.1868  0.8161
  546MPD2     H 8104   0.586   3.236   0.225 -1.0991 -2.2710 -0.2752
  546MPD2    H1 8105   0.530   3.461   0.589 -0.0052  0.1961 -1.3582
  546MPD2    H2 8106   0.401   3.052   0.565  0.3672 -0.6583  1.3296
  546MPD2    H3 8107   0.445   3.245   0.689 -1.3718 -1.5471  0.5942
  546MPD2     N 8108   0.626   3.482   0.345  0.1049  0.1867 -0.1588
  546MPD2    H5 8109   0.612   3.569   0.395  1.2652 -0.2542  0.9453
  546MPD2    N1 8110   0.446   3.019   0.310  0.6111  0.1271 -0.4676
  546MPD2    H7 8111   0.407   2.940   0.360  4.0168 -2.6152 -2.0912
  547TMC3    C1 8112   0.364   2.886   0.120  0.0539 -0.0498  0.2255
  547TMC3    C2 8113   0.332   2.907  17.684  0.8183  0.3855 -0.0375
  547TMC3    C3 8114   0.266   2.807  17.614  0.1706  0.2356  0.0668
  547TMC3    C4 8115   0.324   2.774   0.189 -0.7569 -0.7006 -0.4097
  547TMC3    C5 8116   0.249   2.684   0.117  0.4239  0.3502  0.7335
  547TMC3    C6 8117   0.219   2.699  17.679  0.4720  0.2253  0.2449
  547TMC3     C 8118   0.451   2.997   0.171  0.0094  0.5345 -0.5112
  547TMC3     O 8119   0.519   3.061   0.094 -0.3136  0.2004  0.5517
  547TMC3     H 8120   0.362   3.003  17.642  1.0522  0.3478  0.0439
  547TMC3    H1 8121   0.355   2.740   0.287 -0.5441  2.1872  0.5433
  547TMC3    H2 8122   0.154   2.631  17.625 -1.3473  0.8711  1.6033
  547TMC3    C7 8123   0.215   2.558   0.174  0.6961 -0.0887  0.1770
  547TMC3    C8 8124   0.214   2.838  17.482 -0.1145  0.2084 -0.4084
  547TMC3    O1 8125   0.183   2.543   0.295  0.4137 -0.3568  0.2351
  547TMC3    O2 8126   0.178   2.740  17.413 -0.6498 -0.0174  0.1935
  548MPD2     C 8127   4.711   3.705  12.556  0.6804 -0.6127 -0.1598
  548MPD2    C1 8128   4.682   3.590  12.626 -0.0537 -0.4334  0.0207
  548MPD2    C2 8129   0.062   3.495  12.631 -1.0567 -0.4032 -0.6956
  548MPD2    C3 8130   0.187   3.510  12.565  0.3906 -1.0549  0.1136
  548MPD2    C4 8131   0.203   3.631  12.505  0.0211 -0.3085  0.7366
  548MPD2    C5 8132   0.101   3.728  12.498 -0.0674  0.2094 -0.8587
  548MPD2     H 8133   0.036   3.402  12.682  2.8400  0.6840  3.3240
  548MPD2    H1 8134   0.296   3.660  12.458 -0.6658 -1.0620 -1.0758
  548MPD2    H2 8135   4.630   3.777  12.551 -0.0993 -1.4548  0.4907
  548MPD2    H3 8136   0.121   3.820  12.445  0.9580 -0.1831 -1.1359
  548MPD2     N 8137   0.285   3.409  12.541  0.2097 -0.1004 -0.5009
  548MPD2    H5 8138   0.371   3.432  12.492 -0.3938 -1.3387 -2.1061
  548MPD2    N1 8139   4.547   3.581  12.663 -0.0982  0.6448 -0.9712
  548MPD2    H7 8140   4.492   3.665  12.650 -3.8100 -1.8566 -1.5654
  549TMC3    C1 8141   4.340   3.473  12.702 -0.1674  0.5582 -1.2149
  549TMC3    C2 8142   4.278   3.584  12.655  0.0699  0.3644  0.6809
  549TMC3    C3 8143   4.144   3.571  12.633  0.1691 -0.4417  0.9950
  549TMC3    C4 8144   4.275   3.359  12.728  0.3843  0.5556 -0.2312
  549TMC3    C5 8145   4.147   3.347  12.694  0.2293  0.4071  0.1661
  549TMC3    C6 8146   4.075   3.450  12.649  0.6076 -0.0612 -0.0822
  549TMC3     C 8147   4.485   3.465  12.702  0.3665 -0.1102 -0.6660
  549TMC3     O 8148   4.532   3.353  12.705  0.1639 -0.4704  0.0028
  549TMC3     H 8149   4.332   3.677  12.636 -0.9601  1.3453  2.6015
  549TMC3    H1 8150   4.342   3.283  12.767  1.9966  1.5558 -1.0427
  549TMC3    H2 8151   3.973   3.434  12.617  0.2463 -1.2192  1.6582
  549TMC3    C7 8152   4.079   3.215  12.710 -0.6281 -0.3311  0.7708
  549TMC3    C8 8153   4.053   3.687  12.608  0.4505 -0.3018 -0.1805
  549TMC3    O1 8154   3.960   3.211  12.736 -0.8267  0.4845 -0.8047
  549TMC3    O2 8155   3.946   3.671  12.546 -0.2933 -0.4512 -0.1219
  550TMC3    C1 8156   3.575   1.582  12.896 -0.0461  0.2585  0.5087
  550TMC3    C2 8157   3.499   1.571  13.009 -0.0098  0.5585 -0.0541
  550TMC3    C3 8158   3.483   1.680  13.091  0.4210 -0.0646 -0.1119
  550TMC3    C4 8159   3.638   1.697  12.864  0.1965 -0.1939 -0.0537
  550TMC3    C5 8160   3.636   1.798  12.958  0.6495 -0.4191  0.7895
  550TMC3    C6 8161   3.566   1.790  13.075  0.4050 -0.9277 -0.0568
  550TMC3     C 8162   3.570   1.469  12.801  0.7046 -0.1558 -0.2349
  550TMC3     O 8163   3.543   1.364  12.862  0.1768  0.2096 -0.1650
  550TMC3     H 8164   3.436   1.483  13.016  0.3864  0.1070 -2.4588
  550TMC3    H1 8165   3.691   1.705  12.770  0.8304 -3.1549  0.0599
  550TMC3    H2 8166   3.557   1.877  13.139  0.4486 -0.4312 -0.7125
  550TMC3    C7 8167   3.639   1.929  12.906  0.1069  0.7637  0.2533
  550TMC3    C8 8168   3.362   1.709  13.159 -0.1320 -0.0429  0.4069
  550TMC3    O1 8169   3.594   1.932  12.795 -0.4248  0.2691  0.3191
  550TMC3    O2 8170   3.375   1.775  13.257  0.4542  1.0549 -0.3852
  551TMC3    C1 8171   1.141   4.450  13.604  0.6141  0.0971 -0.5564
  551TMC3    C2 8172   1.257   4.491  13.541  0.9132 -0.5382  0.4191
  551TMC3    C3 8173   1.314   4.597  13.599  0.5571  0.9007  0.1742
  551TMC3    C4 8174   1.107   4.489  13.734 -1.3904  0.5619 -0.5644
  551TMC3    C5 8175   1.187   4.590  13.791 -0.1336  0.2013 -0.7354
  551TMC3    C6 8176   1.287   4.643  13.723 -0.5856  0.4599  0.2057
  551TMC3     C 8177   1.053   4.369  13.517 -0.1305  0.1762  0.6140
  551TMC3     O 8178   1.087   4.363  13.399 -0.2250  0.1560 -0.1374
  551TMC3     H 8179   1.285   4.451  13.444  2.6976 -1.2357  1.2463
  551TMC3    H1 8180   1.017   4.479  13.794 -1.4189 -1.5278 -0.9441
  551TMC3    H2 8181   1.350   4.716  13.771 -2.3701  1.2620  1.3279
  551TMC3    C7 8182   1.192   4.606  13.930  0.0447 -0.2416 -0.4700
  551TMC3    C8 8183   1.441   4.645  13.544  0.5526 -0.1832 -0.1600
  551TMC3    O1 8184   1.175   4.509  14.005  0.0802  0.0693 -0.3005
  551TMC3    O2 8185   1.499   4.567  13.472  0.5868  0.1320 -0.0280
  552MPD2     C 8186   2.522   1.387  13.688  0.4617 -0.4142 -0.1664
  552MPD2    C1 8187   2.645   1.323  13.695 -0.9127  0.2923  0.1409
  552MPD2    C2 8188   2.693   1.304  13.822 -0.0298  0.7971 -0.6116
  552MPD2    C3 8189   2.634   1.363  13.940 -0.4777  0.8276 -0.0767
  552MPD2    C4 8190   2.506   1.418  13.920  0.1066 -0.8444 -0.6120
  552MPD2    C5 8191   2.459   1.432  13.796  0.3891  0.0452 -0.4230
  552MPD2     H 8192   2.791   1.259  13.838 -0.7097  0.3118  2.1180
  552MPD2    H1 8193   2.456   1.466  14.004 -1.1270 -0.3228 -1.6292
  552MPD2    H2 8194   2.471   1.413  13.596  1.2167 -1.9081 -0.9930
  552MPD2    H3 8195   2.364   1.481  13.779  0.6077  0.3495 -0.7682
  552MPD2     N 8196   2.715   1.362  14.056  0.2688 -0.2888  0.1467
  552MPD2    H5 8197   2.808   1.328  14.033 -0.4212 -2.7051  0.8852
  552MPD2    N1 8198   2.719   1.279  13.585 -0.4293 -0.6046 -0.6597
  552MPD2    H7 8199   2.814   1.249  13.601  0.1825  1.3331 -0.6327
  553TMC3    C1 8200   2.766   1.218  13.363  0.2398  0.5712 -0.3240
  553TMC3    C2 8201   2.731   1.210  13.234  0.2169  0.0857  0.0996
  553TMC3    C3 8202   2.808   1.126  13.152 -0.0599 -0.4427  0.8093
  553TMC3    C4 8203   2.874   1.150  13.412  0.4567 -0.2267 -0.0092
  553TMC3    C5 8204   2.952   1.079  13.327 -0.1709 -0.5185  0.8722
  553TMC3    C6 8205   2.922   1.066  13.191 -0.1523  0.4155 -0.5170
  553TMC3     C 8206   2.683   1.295  13.455  0.1907 -0.2181 -0.7132
  553TMC3     O 8207   2.592   1.367  13.415 -0.4202  0.0554 -0.3632
  553TMC3     H 8208   2.642   1.259  13.196 -0.3056  0.2585  1.5835
  553TMC3    H1 8209   2.890   1.139  13.519 -0.4581  2.1844  0.3693
  553TMC3    H2 8210   2.983   1.002  13.129  1.9128  1.4100  0.5115
  553TMC3    C7 8211   3.067   1.006  13.391 -0.1825 -0.3030 -0.9613
  553TMC3    C8 8212   2.801   1.155  13.017 -0.3550  0.5391  0.0143
  553TMC3    O1 8213   3.131   0.932  13.317  0.3739  0.3313  0.0475
  553TMC3    O2 8214   2.762   1.269  12.991  0.1592  0.0330 -0.4904
  554TMC3    C1 8215   4.278   0.111  11.513 -0.5023  0.0395  0.1856
  554TMC3    C2 8216   4.202   0.075  11.398 -0.4133  0.0996 -0.5514
  554TMC3    C3 8217   4.162   0.168  11.309 -0.3050 -0.4731 -0.0774
  554TMC3    C4 8218   4.312   0.245  11.526 -0.2252 -0.6377  0.3093
  554TMC3    C5 8219   4.270   0.341  11.434 -0.1703  1.0251  0.0160
  554TMC3    C6 8220   4.193   0.301  11.329  0.2204 -0.6269 -0.4012
  554TMC3     C 8221   4.350   0.011  11.593  0.4632  0.5434 -0.2923
  554TMC3     O 8222   4.458   0.052  11.640  0.6027 -0.5992  0.1434
  554TMC3     H 8223   4.178   4.694  11.380  1.2529 -0.2362 -0.8437
  554TMC3    H1 8224   4.383   0.271  11.603 -0.9398  0.3930  0.6208
  554TMC3    H2 8225   4.147   0.374  11.263  0.9452  0.0818 -0.1292
  554TMC3    C7 8226   4.313   0.478  11.445 -0.4191 -0.6691  0.1313
  554TMC3    C8 8227   4.082   0.135  11.191  0.0403 -1.3111  0.3454
  554TMC3    O1 8228   4.338   0.519  11.556 -0.5319  0.1370 -0.4177
  554TMC3    O2 8229   4.074   0.227  11.106 -0.3587  0.0452 -0.0946
  555TMC3    C1 8230   4.008   0.273  15.454 -0.5455 -0.3562  0.2239
  555TMC3    C2 8231   4.089   0.347  15.535 -0.4046  0.1022  0.9354
  555TMC3    C3 8232   4.170   0.274  15.618  0.0805 -0.7262  0.9070
  555TMC3    C4 8233   3.987   0.142  15.464 -0.5131  0.2972  0.4873
  555TMC3    C5 8234   4.071   0.079  15.551 -0.2326 -0.5476 -0.8299
  555TMC3    C6 8235   4.171   0.141  15.633  0.4115  0.1444  0.2793
  555TMC3     C 8236   4.002   0.329  15.322 -0.5752  0.6789 -0.2871
  555TMC3     O 8237   4.056   0.260  15.235 -0.1997 -0.3422 -0.2022
  555TMC3     H 8238   4.119   0.446  15.504  1.5442 -1.0277 -0.8071
  555TMC3    H1 8239   3.932   0.084  15.391  0.3604  0.8773 -0.6305
  555TMC3    H2 8240   4.224   0.087  15.711 -1.3190 -0.7764  0.7973
  555TMC3    C7 8241   4.063   4.658  15.565  0.5124  0.0328 -0.1872
  555TMC3    C8 8242   4.249   0.363  15.704 -0.2596  0.5704 -0.2860
  555TMC3    O1 8243   3.957   4.603  15.545 -0.1586 -0.1524 -0.5994
  555TMC3    O2 8244   4.217   0.482  15.703  0.2828  0.2858 -0.0270
  556MPD2     C 8245   1.780   1.678  10.316 -0.0022  0.2118  0.2401
  556MPD2    C1 8246   1.763   1.586  10.415  0.8824  0.0487  0.0843
  556MPD2    C2 8247   1.725   1.457  10.378 -0.3314  0.4131  0.6780
  556MPD2    C3 8248   1.712   1.414  10.244 -0.2756  0.3778 -0.3909
  556MPD2    C4 8249   1.728   1.514  10.143  0.2637  0.4650 -0.0742
  556MPD2    C5 8250   1.754   1.646  10.187  1.2237  0.1303  0.1802
  556MPD2     H 8251   1.724   1.372  10.445  0.5777 -1.1678 -1.3533
  556MPD2    H1 8252   1.711   1.494  10.037 -0.8061 -1.8730  0.5382
  556MPD2    H2 8253   1.815   1.775  10.349 -0.9664 -0.3193  2.8840
  556MPD2    H3 8254   1.770   1.722  10.111  0.8032 -1.1096 -1.1550
  556MPD2     N 8255   1.700   1.271  10.218  0.2921  0.1068 -0.4584
  556MPD2    H5 8256   1.708   1.216  10.303 -1.1209  0.9798  0.2283
  556MPD2    N1 8257   1.791   1.607  10.552  0.3185  0.2789  0.3427
  556MPD2    H7 8258   1.769   1.529  10.613 -0.5264 -0.9338 -1.5391
  557TMC3    C1 8259   1.680   1.061  10.104 -0.1063 -0.6639  0.3329
  557TMC3    C2 8260   1.738   0.985  10.002  0.3334  0.3279 -0.0415
  557TMC3    C3 8261   1.742   0.848  10.015  0.0826 -0.6409  0.1553
  557TMC3    C4 8262   1.630   0.999  10.210 -0.3623  1.0967 -0.7179
  557TMC3    C5 8263   1.626   0.862  10.219 -0.5098 -0.1449  0.4899
  557TMC3    C6 8264   1.679   0.787  10.119 -0.6446  0.7659 -0.4707
  557TMC3     C 8265   1.697   1.210  10.097  0.2739 -0.1694  0.0586
  557TMC3     O 8266   1.704   1.257   9.986  0.0513 -0.3204  0.6425
  557TMC3     H 8267   1.779   1.036   9.915 -0.1311  1.5023  0.4334
  557TMC3    H1 8268   1.583   1.047  10.295 -1.7244 -0.8539 -0.3808
  557TMC3    H2 8269   1.652   0.682  10.117 -1.8202  1.0743 -0.4168
  557TMC3    C7 8270   1.514   0.815  10.296 -1.0216 -0.1124 -0.2998
  557TMC3    C8 8271   1.791   0.763   9.901  1.3260  0.8940 -0.3891
  557TMC3    O1 8272   1.414   0.888  10.302  0.1511  0.4411 -0.2745
  557TMC3    O2 8273   1.806   0.824   9.796  0.4040 -0.0897 -0.4569
  558TMC3    C1 8274   4.265   3.707   9.828  0.1182 -0.7350 -0.3220
  558TMC3    C2 8275   4.207   3.598   9.884  1.3106  0.1380 -0.2712
  558TMC3    C3 8276   4.067   3.589   9.883  0.2956  0.5159 -0.3092
  558TMC3    C4 8277   4.200   3.798   9.753 -0.3156  0.5844 -0.1806
  558TMC3    C5 8278   4.069   3.774   9.733  0.7341  0.8648 -0.3865
  558TMC3    C6 8279   4.000   3.675   9.798  0.0751 -0.2561  0.0445
  558TMC3     C 8280   4.386   3.745   9.897  0.0059  0.0962  0.6665
  558TMC3     O 8281   4.380   3.729  10.016 -0.2893 -0.0575  0.6265
  558TMC3     H 8282   4.267   3.534   9.947 -0.0946  0.3336  1.2850
  558TMC3    H1 8283   4.243   3.894   9.726  0.9222  0.1301  0.1861
  558TMC3    H2 8284   3.893   3.690   9.803 -0.0611 -1.2216 -0.1474
  558TMC3    C7 8285   4.001   3.863   9.642 -0.6654 -0.2095  0.2362
  558TMC3    C8 8286   4.006   3.558  10.013  0.0710  0.2852 -0.0944
  558TMC3    O1 8287   4.076   3.947   9.590 -0.5523 -0.0949 -0.3092
  558TMC3    O2 8288   3.885   3.548  10.020  0.2646  0.0523 -0.4894
  559MPD2     C 8289   4.187   4.566  10.267  0.6837 -0.0510 -0.5425
  559MPD2    C1 8290   4.168   4.483  10.375  0.0990  0.5945 -0.2406
  559MPD2    C2 8291   4.240   4.502  10.491  0.1482  0.0006 -0.5535
  559MPD2    C3 8292   4.340   4.601  10.499  0.1635 -0.1883  0.1379
  559MPD2    C4 8293   4.349   4.690  10.395  0.5439 -0.1729  0.2280
  559MPD2    C5 8294   4.278   4.666  10.278  0.2558  0.6162  0.6331
  559MPD2     H 8295   4.236   4.431  10.572  0.0882 -0.2402 -0.7701
  559MPD2    H1 8296   4.419   0.049  10.389 -0.8349  0.9614 -0.3426
  559MPD2    H2 8297   4.138   4.544  10.173  1.6351 -1.5059 -0.6950
  559MPD2    H3 8298   4.293   0.013  10.197 -0.0014 -0.7848 -0.6371
  559MPD2     N 8299   4.421   4.607  10.613 -0.6779  0.5246  0.7382
  559MPD2    H5 8300   4.409   4.527  10.675  0.5277  1.1575  1.7848
  559MPD2    N1 8301   4.072   4.378  10.356 -0.4190 -0.6990 -0.1686
  559MPD2    H7 8302   4.017   4.366  10.271  0.1999  1.3298 -0.8371
  560TMC3    C1 8303   4.597   4.659  10.760 -0.0959  0.5556  0.5868
  560TMC3    C2 8304   4.601   4.525  10.795  0.0798 -0.1836 -0.5549
  560TMC3    C3 8305   4.715   4.481  10.863  0.3045 -0.2405 -0.3445
  560TMC3    C4 8306   4.690   0.023  10.810 -0.5969 -0.5688  0.0532
  560TMC3    C5 8307   0.060   4.695  10.893  0.4640 -0.0604 -0.0594
  560TMC3    C6 8308   0.077   4.563  10.919 -0.1138 -0.4539 -0.1162
  560TMC3     C 8309   4.519   4.703  10.644 -0.6244  0.6005 -0.2608
  560TMC3     O 8310   4.540   0.088  10.601  0.1442 -0.5549  0.0548
  560TMC3     H 8311   4.533   4.450  10.756 -1.2224  0.8863 -0.3598
  560TMC3    H1 8312   4.679   0.130  10.795 -3.3820 -0.6704  1.3768
  560TMC3    H2 8313   0.151   4.526  10.990  1.1781  0.0711 -1.1913
  560TMC3    C7 8314   0.127   0.076  10.966  0.2780 -0.1033  0.1738
  560TMC3    C8 8315   0.006   4.342  10.873  0.8864  0.4001  0.7485
  560TMC3    O1 8316   0.136   0.190  10.920 -0.4219  0.4023  0.2492
  560TMC3    O2 8317   4.626   4.273  10.879 -0.2794  0.5837  0.1059
  561TMC3    C1 8318   2.407   3.567  11.334 -0.4547 -0.3756 -0.2252
  561TMC3    C2 8319   2.293   3.506  11.380 -0.1338 -0.1128  0.5008
  561TMC3    C3 8320   2.199   3.578  11.441 -0.1217  0.0643 -0.4749
  561TMC3    C4 8321   2.431   3.704  11.350  0.5030 -0.0652  0.0452
  561TMC3    C5 8322   2.331   3.773  11.413 -0.1660 -0.3842 -0.0473
  561TMC3    C6 8323   2.215   3.713  11.465  0.4539 -0.5458  0.7443
  561TMC3     C 8324   2.512   3.475  11.309 -0.1970 -0.1794  0.5500
  561TMC3     O 8325   2.484   3.358  11.328  0.3149  0.1926 -0.3210
  561TMC3     H 8326   2.285   3.399  11.364 -0.8990 -0.1018  0.8320
  561TMC3    H1 8327   2.526   3.746  11.318 -0.5782  2.8726  0.6756
  561TMC3    H2 8328   2.146   3.782  11.511 -2.1140 -0.7223 -2.8610
  561TMC3    C7 8329   2.373   3.880  11.498  0.0454 -0.5402 -0.5325
  561TMC3    C8 8330   2.096   3.504  11.517 -0.4115 -0.3688  0.7139
  561TMC3    O1 8331   2.315   3.886  11.606  0.0880  0.1545  0.2010
  561TMC3    O2 8332   2.109   3.383  11.521  0.0259  0.3085 -0.4619
  562TMC3    C1 8333   3.510   0.968  16.350 -0.0686 -0.6949 -0.1834
  562TMC3    C2 8334   3.381   1.010  16.335 -0.1929 -0.1630  0.5431
  562TMC3    C3 8335   3.332   0.996  16.204  0.0572 -0.3441  0.2450
  562TMC3    C4 8336   3.589   0.915  16.251 -0.2071 -0.1134  0.1776
  562TMC3    C5 8337   3.535   0.928  16.121 -0.3263 -0.1511  0.0286
  562TMC3    C6 8338   3.412   0.971  16.093 -0.5534  0.2762  0.0337
  562TMC3     C 8339   3.577   1.030  16.459 -0.0373  0.2929  0.3399
  562TMC3     O 8340   3.686   0.994  16.491 -0.2288 -0.6398  0.4838
  562TMC3     H 8341   3.314   1.042  16.414 -0.2033  0.3847  0.3153
  562TMC3    H1 8342   3.692   0.889  16.272 -0.0019  0.5987  0.0240
  562TMC3    H2 8343   3.383   0.975  15.989  1.7200  3.6442 -0.4875
  562TMC3    C7 8344   3.617   0.867  16.022 -0.4462 -0.3610 -0.2192
  562TMC3    C8 8345   3.187   1.016  16.200 -0.4034  0.9577 -0.0171
  562TMC3    O1 8346   3.620   0.912  15.911 -0.1466 -0.7664  0.2145
  562TMC3    O2 8347   3.122   1.021  16.304 -0.4781  0.1179 -0.5452
  563MPD2     C 8348   1.112   1.577  15.901  1.1778 -0.2985  0.3495
  563MPD2    C1 8349   1.152   1.610  16.023 -0.6285  0.4068 -0.4054
  563MPD2    C2 8350   1.278   1.562  16.061  0.5882 -0.1161 -0.3105
  563MPD2    C3 8351   1.347   1.470  15.996  0.0391 -0.2379 -0.2682
  563MPD2    C4 8352   1.301   1.433  15.872  0.1283 -0.7489  0.1764
  563MPD2    C5 8353   1.188   1.491  15.823  0.3776  0.0339 -0.5720
  563MPD2     H 8354   1.309   1.583  16.163 -1.0858 -0.5046  0.2887
  563MPD2    H1 8355   1.360   1.377  15.800  1.3516  1.0968 -0.2685
  563MPD2    H2 8356   1.018   1.614  15.860 -0.1122  0.4320  3.9467
  563MPD2    H3 8357   1.153   1.448  15.730  1.5785  0.6936 -1.3307
  563MPD2     N 8358   1.459   1.408  16.058 -0.0851 -0.0240 -0.1376
  563MPD2    H5 8359   1.473   1.436  16.155  0.4260 -0.1921 -0.1607
  563MPD2    N1 8360   1.069   1.666  16.128  0.9064 -0.3262 -0.1337
  563MPD2    H7 8361   1.117   1.684  16.216 -0.0670  0.6122  0.1965
  564TMC3    C1 8362   0.875   1.674  16.248  1.0597  0.5778 -0.4621
  564TMC3    C2 8363   0.753   1.607  16.227  0.1560  0.4595  0.6201
  564TMC3    C3 8364   0.721   1.495  16.305  0.3333  0.1941 -0.2301
  564TMC3    C4 8365   0.958   1.639  16.344  0.7326 -0.0661  1.0028
  564TMC3    C5 8366   0.921   1.543  16.425  0.5873  0.3149 -0.1465
  564TMC3    C6 8367   0.799   1.475  16.417  1.2729 -0.7404 -0.7449
  564TMC3     C 8368   0.938   1.692  16.118  0.7950  1.4589  0.1108
  564TMC3     O 8369   0.863   1.666  16.024 -0.1623 -0.2713  0.0785
  564TMC3     H 8370   0.681   1.635  16.152 -0.8368 -0.6976  1.1472
  564TMC3    H1 8371   1.040   1.701  16.379  0.4431  1.1234 -0.4371
  564TMC3    H2 8372   0.789   1.388  16.482  0.5471  1.6825  2.4059
  564TMC3    C7 8373   1.036   1.461  16.466  1.4101  0.6631  0.0362
  564TMC3    C8 8374   0.716   1.375  16.231 -0.2984  0.1334 -0.3068
  564TMC3    O1 8375   1.129   1.523  16.525  0.0803  0.1891 -0.2278
  564TMC3    O2 8376   0.707   1.273  16.297  0.3894  0.3606 -0.2375
  565TMC3    C1 8377   1.782   3.394  10.475  0.2732 -0.7044  0.1990
  565TMC3    C2 8378   1.677   3.329  10.424  0.1579  0.0106 -0.1702
  565TMC3    C3 8379   1.613   3.376  10.309 -0.1068  0.0816  0.1806
  565TMC3    C4 8380   1.829   3.508  10.417 -0.7312  0.7256  0.0263
  565TMC3    C5 8381   1.751   3.560  10.312 -0.0688 -0.0883  0.0542
  565TMC3    C6 8382   1.640   3.499  10.263 -0.5514 -0.0819  0.0780
  565TMC3     C 8383   1.844   3.330  10.593 -0.4277 -0.3496 -0.6377
  565TMC3     O 8384   1.772   3.278  10.675  0.0801 -0.7241  0.2737
  565TMC3     H 8385   1.653   3.236  10.474  0.5434 -0.3639 -0.6723
  565TMC3    H1 8386   1.906   3.569  10.464  0.4526  0.3937 -1.4662
  565TMC3    H2 8387   1.605   3.538  10.168  3.1411  1.7740 -0.5089
  565TMC3    C7 8388   1.789   3.695  10.263  0.2456 -1.0687  0.3058
  565TMC3    C8 8389   1.534   3.284  10.223 -0.5246 -0.1128  0.8832
  565TMC3    O1 8390   1.696   3.770  10.237  0.0809 -0.1172 -0.4797
  565TMC3    O2 8391   1.506   3.333  10.114  0.2703 -0.0410  0.4759
  566MPD2     C 8392   2.784   0.584  14.386  0.1183 -0.4631 -0.3479
  566MPD2    C1 8393   2.891   0.527  14.316 -0.4124 -0.1504 -1.1228
  566MPD2    C2 8394   2.884   0.395  14.274 -0.1122 -0.1776  0.2825
  566MPD2    C3 8395   2.771   0.321  14.305 -1.1319  0.0630 -0.8681
  566MPD2    C4 8396   2.656   0.381  14.364  0.3623 -0.5623  0.0002
  566MPD2    C5 8397   2.672   0.511  14.409 -0.4717 -0.6317  0.0300
  566MPD2     H 8398   2.964   0.361  14.208  0.0431 -1.8688  1.3571
  566MPD2    H1 8399   2.558   0.336  14.377  0.9863 -1.7416  0.6055
  566MPD2    H2 8400   2.774   0.689  14.410  0.9520 -0.5941  0.5446
  566MPD2    H3 8401   2.582   0.566  14.435 -0.1259 -0.8201  1.6165
  566MPD2     N 8402   2.768   0.185  14.272  0.4515 -0.3409 -0.5471
  566MPD2    H5 8403   2.680   0.140  14.295  0.9046 -0.8522  0.1868
  566MPD2    N1 8404   3.007   0.601  14.282 -0.1781 -0.3377 -0.2216
  566MPD2    H7 8405   3.072   0.557  14.218  2.5972  2.0984  0.9547
  567TMC3    C1 8406   3.147   0.777  14.256 -0.1143  0.3574 -0.3854
  567TMC3    C2 8407   3.158   0.747  14.123 -0.1911 -0.1647  0.0045
  567TMC3    C3 8408   3.285   0.763  14.074 -0.0582 -0.1847  0.0706
  567TMC3    C4 8409   3.250   0.841  14.325 -0.4928 -0.0964  0.3233
  567TMC3    C5 8410   3.372   0.855  14.266 -0.0267  0.0151  0.6325
  567TMC3    C6 8411   3.392   0.825  14.138  0.2411  0.3246  0.2004
  567TMC3     C 8412   3.039   0.724  14.328  0.0711 -0.1525  0.7474
  567TMC3     O 8413   2.995   0.778  14.427  0.0567 -0.1703 -0.2742
  567TMC3     H 8414   3.081   0.699  14.065 -1.8476  0.3421  1.7612
  567TMC3    H1 8415   3.239   0.875  14.428  0.2346 -0.4141  0.5071
  567TMC3    H2 8416   3.487   0.850  14.094  0.9920  0.9829  2.1886
  567TMC3    C7 8417   3.482   0.849  14.358  0.3859 -0.5227  0.2852
  567TMC3    C8 8418   3.317   0.697  13.949 -0.0960  0.6537 -0.1894
  567TMC3    O1 8419   3.589   0.879  14.313  0.3329 -0.3916  0.5170
  567TMC3    O2 8420   3.222   0.679  13.871 -0.0074 -0.1285  0.2558
  568MPD2     C 8421   0.593   0.099  16.568 -0.4453  0.1492  0.2624
  568MPD2    C1 8422   0.644   0.202  16.635  1.0539 -0.0653 -0.1865
  568MPD2    C2 8423   0.714   0.311  16.574  0.9416  0.2480 -0.3983
  568MPD2    C3 8424   0.737   0.313  16.440 -0.1574 -0.1492 -0.4874
  568MPD2    C4 8425   0.681   0.202  16.374 -0.0466  0.4695 -0.1741
  568MPD2    C5 8426   0.611   0.103  16.433 -0.2153 -0.2855  1.0732
  568MPD2     H 8427   0.753   0.397  16.628  1.0059  1.1223 -1.8309
  568MPD2    H1 8428   0.698   0.186  16.268  0.0358  1.3815 -0.3034
  568MPD2    H2 8429   0.524   0.026  16.609 -3.0148  1.2361 -2.1277
  568MPD2    H3 8430   0.573   0.018  16.378 -2.2771 -0.1450  2.3117
  568MPD2     N 8431   0.802   0.419  16.370 -0.6947 -0.0115 -1.1378
  568MPD2    H5 8432   0.828   0.498  16.429 -0.4058 -0.5528 -0.5434
  568MPD2    N1 8433   0.635   0.190  16.779 -0.0972 -0.3888 -0.1524
  568MPD2    H7 8434   0.602   0.099  16.810  0.5012  0.3191  2.5829
  569TMC3    C1 8435   0.890   0.557  16.205  0.8110  0.4521  0.3128
  569TMC3    C2 8436   0.952   0.626  16.309  0.4623  0.5759  0.4872
  569TMC3    C3 8437   1.011   0.747  16.283 -0.3818 -0.1596  0.5582
  569TMC3    C4 8438   0.883   0.603  16.074 -0.3840 -0.3258  0.2383
  569TMC3    C5 8439   0.954   0.723  16.050 -0.0188 -0.2201 -0.2500
  569TMC3    C6 8440   1.015   0.793  16.152 -0.0417  0.2579 -0.0283
  569TMC3     C 8441   0.824   0.434  16.236 -0.0485 -0.5681  0.0385
  569TMC3     O 8442   0.789   0.367  16.145 -0.3108  0.2298 -0.0989
  569TMC3     H 8443   0.964   0.584  16.408 -1.9275 -1.9505 -0.2788
  569TMC3    H1 8444   0.828   0.540  16.006  1.2428 -1.7475  0.2420
  569TMC3    H2 8445   1.057   0.889  16.126 -0.5935  0.4254 -0.3037
  569TMC3    C7 8446   0.903   0.822  15.947  0.1096  0.3417  0.6968
  569TMC3    C8 8447   0.935   0.857  16.353 -0.0067 -0.2688 -0.2495
  569TMC3    O1 8448   0.856   0.786  15.839 -0.3291  0.4070  0.3320
  569TMC3    O2 8449   0.839   0.894  16.288 -0.7481  0.5246  0.4035
  570TMC3    C1 8450   0.324   4.030  16.467 -0.2731  0.5613  0.0219
  570TMC3    C2 8451   0.427   4.037  16.386 -0.5437 -0.1169  0.1588
  570TMC3    C3 8452   0.473   4.164  16.359 -0.1986  0.1872  0.0682
  570TMC3    C4 8453   0.259   4.136  16.530 -0.0807 -0.4833 -0.3874
  570TMC3    C5 8454   0.307   4.258  16.502  0.2451 -1.0982 -0.2588
  570TMC3    C6 8455   0.418   4.279  16.425 -0.2927 -0.3987  0.3952
  570TMC3     C 8456   0.280   3.889  16.494  0.0813  0.3323  0.5501
  570TMC3     O 8457   0.325   3.799  16.421  0.2874 -0.1727 -0.6402
  570TMC3     H 8458   0.469   3.947  16.342  0.6820  0.7557 -0.4425
  570TMC3    H1 8459   0.181   4.125  16.605  1.6714 -6.1337  0.6617
  570TMC3    H2 8460   0.467   4.375  16.417 -1.8678  0.3963  0.4226
  570TMC3    C7 8461   0.256   4.375  16.580  0.2126 -0.5339 -0.0798
  570TMC3    C8 8462   0.560   4.178  16.240  0.3773 -0.8302 -0.4626
  570TMC3    O1 8463   0.210   4.341  16.685  0.0865 -0.1989  0.0316
  570TMC3    O2 8464   0.572   4.296  16.202  0.1946 -0.3241  0.4288
  571MPD2     C 8465   2.459   0.676   0.093  0.1478  0.2606 -0.7565
  571MPD2    C1 8466   2.407   0.619   0.209 -1.1791 -0.2836  0.9958
  571MPD2    C2 8467   2.363   0.705   0.309 -0.3351  0.1646  0.7937
  571MPD2    C3 8468   2.354   0.845   0.291 -0.0164 -0.2144  0.4541
  571MPD2    C4 8469   2.404   0.897   0.170  0.9667  0.2729  0.3535
  571MPD2    C5 8470   2.457   0.812   0.074  0.4440 -0.6714  0.3746
  571MPD2     H 8471   2.299   0.671   0.390 -0.5959 -1.1810  0.0073
  571MPD2    H1 8472   2.397   1.003   0.144 -0.6811  0.5267  1.8750
  571MPD2    H2 8473   2.487   0.609   0.013 -1.4014 -0.4597 -0.7101
  571MPD2    H3 8474   2.493   0.847  17.673 -1.4229  3.0409  0.9970
  571MPD2     N 8475   2.308   0.944   0.379  0.6097  0.4352  0.7769
  571MPD2    H5 8476   2.309   1.038   0.341 -1.1953  0.1114 -0.0984
  571MPD2    N1 8477   2.414   0.479   0.217  0.2201  0.5925  0.1454
  571MPD2    H7 8478   2.444   0.424   0.137  0.0535 -0.0029  0.4889
  572TMC3    C1 8479   2.243   1.044   0.598  0.4610 -0.1051 -0.2685
  572TMC3    C2 8480   2.189   1.019   0.726  0.0661  0.4227  0.8280
  572TMC3    C3 8481   2.156   1.131   0.801  0.0545  0.0953  0.0505
  572TMC3    C4 8482   2.259   1.171   0.553 -0.0011 -0.7005 -0.5560
  572TMC3    C5 8483   2.225   1.275   0.633  0.3410  0.5324 -0.4101
  572TMC3    C6 8484   2.174   1.258   0.762 -0.4488  0.3588  0.8582
  572TMC3     C 8485   2.282   0.922   0.515  0.5252  0.0925  0.3014
  572TMC3     O 8486   2.291   0.820   0.576 -0.3991  0.2760  0.1733
  572TMC3     H 8487   2.161   0.919   0.757 -3.5287  0.6269 -1.8003
  572TMC3    H1 8488   2.320   1.200   0.468  0.1214 -1.4654 -0.7297
  572TMC3    H2 8489   2.146   1.348   0.816 -0.8949  0.1068  1.0484
  572TMC3    C7 8490   2.266   1.411   0.594  0.5062 -0.2116  0.8450
  572TMC3    C8 8491   2.090   1.104   0.927 -0.0907  0.5470  0.4577
  572TMC3    O1 8492   2.265   1.437   0.473  0.1852 -0.1429 -0.3982
  572TMC3    O2 8493   2.008   1.186   0.962  0.1387  0.5651 -0.0593
  573MPD2     C 8494   3.515   1.498   0.805 -0.8819  0.5420  0.2189
  573MPD2    C1 8495   3.631   1.496   0.727 -1.0048  0.0512  0.1926
  573MPD2    C2 8496   3.614   1.523   0.595 -0.3125  0.8736 -0.9071
  573MPD2    C3 8497   3.490   1.561   0.539  0.0883 -0.0243 -0.5229
  573MPD2    C4 8498   3.378   1.575   0.619 -0.2700 -0.2732  0.2938
  573MPD2    C5 8499   3.392   1.542   0.752 -0.5762 -0.5061  0.9034
  573MPD2     H 8500   3.698   1.518   0.527  1.4897  0.2816  1.3836
  573MPD2    H1 8501   3.282   1.603   0.578 -0.1793 -0.2579  0.0917
  573MPD2    H2 8502   3.508   1.476   0.911 -0.2856  1.6034  0.4743
  573MPD2    H3 8503   3.312   1.533   0.825 -1.6480  1.8924  0.0353
  573MPD2     N 8504   3.474   1.600   0.404 -0.1147  0.4829  0.1358
  573MPD2    H5 8505   3.387   1.639   0.369 -0.0771 -0.3467 -0.8669
  573MPD2    N1 8506   3.752   1.486   0.793  0.5375 -0.3964  0.3861
  573MPD2    H7 8507   3.747   1.483   0.894  0.0134 -0.2764  0.3671
  574TMC3    C1 8508   3.528   1.640   0.183 -1.0119  0.7682  0.7813
  574TMC3    C2 8509   3.469   1.765   0.193 -0.1061 -0.2783 -0.8883
  574TMC3    C3 8510   3.452   1.838   0.076  0.1878  0.5011 -0.4905
  574TMC3    C4 8511   3.552   1.583   0.065  0.4424  0.4900  0.2113
  574TMC3    C5 8512   3.552   1.663  17.651  0.0593 -0.4600  0.0883
  574TMC3    C6 8513   3.486   1.784  17.651 -0.3120 -0.0943  0.1958
  574TMC3     C 8514   3.559   1.565   0.307 -0.4294  0.7394  0.6318
  574TMC3     O 8515   3.641   1.476   0.299 -0.3586  0.5138 -0.6198
  574TMC3     H 8516   3.456   1.805   0.293  0.8372  1.5323 -1.4930
  574TMC3    H1 8517   3.606   1.489   0.070  1.7395  1.3364  2.2832
  574TMC3    H2 8518   3.480   1.851  17.567 -2.2060 -0.1434  0.2969
  574TMC3    C7 8519   3.602   1.625  17.525  0.5137 -0.3228 -0.1741
  574TMC3    C8 8520   3.411   1.978   0.099 -0.4760  0.7307  0.2325
  574TMC3    O1 8521   3.629   1.717  17.450 -0.5262 -0.1248 -0.3204
  574TMC3    O2 8522   3.385   2.014   0.216 -0.0392  0.0165 -0.6727
  575TMC3    C1 8523   1.443   2.294  10.467  0.2742 -0.4634 -0.7774
  575TMC3    C2 8524   1.333   2.236  10.409 -0.0001  0.1373  0.0648
  575TMC3    C3 8525   1.283   2.308  10.301  0.8755 -0.1359 -0.0633
  575TMC3    C4 8526   1.492   2.414  10.432  0.7119  0.8582  1.2098
  575TMC3    C5 8527   1.433   2.489  10.329 -0.3564 -0.4069 -0.6296
  575TMC3    C6 8528   1.333   2.431  10.252 -0.6862 -0.0236  0.0143
  575TMC3     C 8529   1.477   2.255  10.600 -0.3962 -0.3241  0.2827
  575TMC3     O 8530   1.558   2.326  10.659 -0.2880  0.1870 -0.8399
  575TMC3     H 8531   1.289   2.142  10.441 -0.2127  0.6124  1.1830
  575TMC3    H1 8532   1.576   2.457  10.485 -0.8309  2.9517  1.9162
  575TMC3    H2 8533   1.280   2.488  10.177 -0.5690 -0.7694 -0.6306
  575TMC3    C7 8534   1.454   2.631  10.322  0.1054 -0.1171 -0.1184
  575TMC3    C8 8535   1.180   2.242  10.228  0.2504  0.0447  0.5153
  575TMC3    O1 8536   1.549   2.682  10.386 -0.0714 -0.3125 -0.2337
  575TMC3    O2 8537   1.102   2.160  10.280  0.5445  0.0695  0.1767
  576MPD2     C 8538   1.402   4.094  12.692 -0.0444 -0.3273  0.8161
  576MPD2    C1 8539   1.459   4.199  12.612  0.3939 -0.9338 -0.2513
  576MPD2    C2 8540   1.467   4.329  12.671 -0.0860  0.1996  0.0166
  576MPD2    C3 8541   1.411   4.354  12.798  0.5640 -0.1469 -0.4710
  576MPD2    C4 8542   1.347   4.253  12.861 -0.5349 -0.0305 -0.0502
  576MPD2    C5 8543   1.344   4.125  12.812 -0.4236  0.2184 -0.3496
  576MPD2     H 8544   1.518   4.407  12.616  1.8948  0.1989  1.8554
  576MPD2    H1 8545   1.288   4.267  12.951 -0.7680  0.9708 -0.3566
  576MPD2    H2 8546   1.388   3.993  12.655  0.6964 -0.3460  0.5780
  576MPD2    H3 8547   1.310   4.053  12.886 -1.0020  1.5327  0.6728
  576MPD2     N 8548   1.423   4.480  12.864 -0.0006 -0.0159 -0.7267
  576MPD2    H5 8549   1.468   4.552  12.809 -1.3785  2.9577  2.0070
  576MPD2    N1 8550   1.500   4.173  12.473 -0.0691  0.7769 -0.1332
  576MPD2    H7 8551   1.524   4.250  12.412  1.0934 -0.1018 -0.7906
  577TMC3    C1 8552   1.570   4.045  12.282 -0.4280  0.5716 -0.3434
  577TMC3    C2 8553   1.621   3.926  12.232  0.6581  0.5978  0.2559
  577TMC3    C3 8554   1.637   3.909  12.098  0.1688  0.2393 -0.5218
  577TMC3    C4 8555   1.541   4.149  12.195  0.4885  0.6918 -0.1170
  577TMC3    C5 8556   1.568   4.126  12.063  0.0092 -0.3066  0.0197
  577TMC3    C6 8557   1.611   4.005  12.009  0.7272  0.3690 -0.4549
  577TMC3     C 8558   1.520   4.042  12.420 -0.5016 -0.4027 -0.0405
  577TMC3     O 8559   1.498   3.932  12.464  0.5561 -0.2672  0.2003
  577TMC3     H 8560   1.640   3.842  12.298 -1.7047 -0.6304 -0.6403
  577TMC3    H1 8561   1.492   4.237  12.234 -2.9457 -1.2499 -0.0407
  577TMC3    H2 8562   1.613   3.982  11.903  0.0371  2.1529 -0.8445
  577TMC3    C7 8563   1.519   4.234  11.971  0.4512 -0.3375 -0.1800
  577TMC3    C8 8564   1.696   3.780  12.058  0.2886  0.2244  0.8093
  577TMC3    O1 8565   1.452   4.328  12.015 -0.2518 -0.4262 -0.6620
  577TMC3    O2 8566   1.669   3.686  12.130  0.3777 -0.4643  0.1505
  578MPD2     C 8567   0.300   4.158   0.766 -0.5252 -0.1921 -0.0579
  578MPD2    C1 8568   0.287   4.217   0.890 -0.0103 -0.4652  0.2617
  578MPD2    C2 8569   0.271   4.132   0.994 -0.6412  0.2517  0.2974
  578MPD2    C3 8570   0.288   3.996   0.982  0.2712 -0.0397  0.3793
  578MPD2    C4 8571   0.310   3.935   0.860 -0.0153  0.0508  0.2739
  578MPD2    C5 8572   0.309   4.017   0.755 -0.2726  0.0607  0.1516
  578MPD2     H 8573   0.258   4.168   1.096  1.4524  1.8065 -0.0045
  578MPD2    H1 8574   0.348   3.835   0.845  2.1327  0.8260  0.5341
  578MPD2    H2 8575   0.304   4.225   0.681 -0.2426 -0.7347 -0.4727
  578MPD2    H3 8576   0.317   3.979   0.654  0.5773 -0.5485  0.4485
  578MPD2     N 8577   0.302   3.917   1.102 -0.3140  0.4309 -0.2241
  578MPD2    H5 8578   0.332   3.959   1.189  2.1398  1.9269 -1.7928
  578MPD2    N1 8579   0.273   4.354   0.899 -0.4978  0.8524  0.1409
  578MPD2    H7 8580   0.265   4.406   0.813 -1.0389 -0.4605 -0.5974
  579TMC3    C1 8581   0.345   3.715   1.217  0.5268 -0.1767  0.3617
  579TMC3    C2 8582   0.457   3.769   1.280  0.5415  0.3300 -0.1546
  579TMC3    C3 8583   0.526   3.693   1.366 -0.1992 -0.1566 -0.2882
  579TMC3    C4 8584   0.315   3.584   1.238 -0.4965 -0.2156 -0.2990
  579TMC3    C5 8585   0.384   3.509   1.334 -0.7223 -0.6021 -0.2512
  579TMC3    C6 8586   0.492   3.562   1.394 -0.0617 -0.4299  0.7496
  579TMC3     C 8587   0.286   3.782   1.103 -0.2796  0.1718  0.3535
  579TMC3     O 8588   0.233   3.706   1.023  0.0391 -0.8171  0.0272
  579TMC3     H 8589   0.486   3.872   1.263  1.5299  0.2305  0.9599
  579TMC3    H1 8590   0.225   3.543   1.194 -2.0999  0.5428  2.2826
  579TMC3    H2 8591   0.556   3.500   1.455  1.1319 -0.3142 -0.4117
  579TMC3    C7 8592   0.361   3.369   1.336  0.7427  0.3204 -0.4083
  579TMC3    C8 8593   0.645   3.741   1.424 -0.3553  0.3316 -0.3583
  579TMC3    O1 8594   0.463   3.303   1.328  0.3591  0.2357  0.3726
  579TMC3    O2 8595   0.676   3.683   1.528  0.2134 -0.0386 -0.0767
  580TMC3    C1 8596   0.194   3.232  11.750 -0.5873  0.0162  0.0586
  580TMC3    C2 8597   0.267   3.215  11.642  0.0592 -0.3777  0.1572
  580TMC3    C3 8598   0.265   3.085  11.591  0.2883 -0.3032  0.0710
  580TMC3    C4 8599   0.112   3.131  11.791  0.1145 -0.6617  0.0806
  580TMC3    C5 8600   0.099   3.015  11.727  0.6478  0.7884  0.3047
  580TMC3    C6 8601   0.192   2.981  11.641  0.0070 -0.6905  0.8538
  580TMC3     C 8602   0.131   3.366  11.762  0.1807  0.1091  0.0518
  580TMC3     O 8603   0.009   3.361  11.756 -0.0957  0.6263 -0.1624
  580TMC3     H 8604   0.324   3.293  11.593 -1.1673 -0.5697 -1.6113
  580TMC3    H1 8605   0.033   3.167  11.856  0.6320 -0.7563  0.7563
  580TMC3    H2 8606   0.218   2.884  11.600  1.2106  0.1590 -0.4532
  580TMC3    C7 8607   0.036   2.901  11.792 -0.2004 -0.1488  0.1987
  580TMC3    C8 8608   0.346   3.069  11.467  0.1591 -0.0885 -0.0385
  580TMC3    O1 8609   4.697   2.921  11.892 -0.3678 -0.9701  0.0284
  580TMC3    O2 8610   0.423   3.164  11.440  0.2073  0.0338 -0.4857
  581MPD2     C 8611   1.713   3.597  15.197 -0.3654  0.5873 -0.3945
  581MPD2    C1 8612   1.742   3.470  15.154  0.7758 -0.0681 -0.7946
  581MPD2    C2 8613   1.661   3.413  15.056  0.3698  0.0169  0.1204
  581MPD2    C3 8614   1.552   3.480  15.007  0.1140  0.3543 -0.5936
  581MPD2    C4 8615   1.526   3.610  15.058  0.4471 -0.3017  0.2424
  581MPD2    C5 8616   1.609   3.673  15.142 -0.3482 -0.3530  0.4313
  581MPD2     H 8617   1.681   3.309  15.029 -0.7504 -0.1557 -0.0571
  581MPD2    H1 8618   1.441   3.671  15.029  0.5532  0.8354  2.2889
  581MPD2    H2 8619   1.776   3.638  15.275 -1.1348 -0.2514  0.6677
  581MPD2    H3 8620   1.596   3.777  15.173 -1.2395 -0.3688  0.0857
  581MPD2     N 8621   1.485   3.411  14.907  0.1173 -0.0848  0.8896
  581MPD2    H5 8622   1.499   3.311  14.901  1.0869 -0.0087  2.0560
  581MPD2    N1 8623   1.851   3.401  15.207  0.1468 -0.3503 -0.2327
  581MPD2    H7 8624   1.906   3.464  15.265  1.6259  0.0805 -2.1126
  582TMC3    C1 8625   2.040   3.267  15.199  0.1631  0.5997 -0.6108
  582TMC3    C2 8626   2.068   3.260  15.332  0.2440  0.7780 -0.0758
  582TMC3    C3 8627   2.182   3.190  15.373  0.0778  0.2328 -0.9499
  582TMC3    C4 8628   2.109   3.184  15.110 -0.1389 -0.1372 -0.1429
  582TMC3    C5 8629   2.207   3.097  15.154 -0.5539 -0.2702 -0.2537
  582TMC3    C6 8630   2.258   3.122  15.280 -0.3258  0.0091 -0.3915
  582TMC3     C 8631   1.897   3.272  15.172 -0.1882  0.1173 -0.7514
  582TMC3     O 8632   1.852   3.178  15.110 -0.3042 -0.6260 -0.6883
  582TMC3     H 8633   2.001   3.301  15.405 -0.6329 -2.1421  0.7413
  582TMC3    H1 8634   2.058   3.165  15.016 -2.6885  1.0225  1.0063
  582TMC3    H2 8635   2.348   3.072  15.313 -0.8278 -0.4606  0.2841
  582TMC3    C7 8636   2.166   2.961  15.150 -0.2070 -0.4527 -0.2581
  582TMC3    C8 8637   2.157   3.129  15.507 -0.3388  0.3318 -0.3084
  582TMC3    O1 8638   2.258   2.892  15.186  0.0867  0.1945 -0.5474
  582TMC3    O2 8639   2.066   3.168  15.580 -0.5373 -0.1953 -0.0810
  583MPD2     C 8640   2.149   4.698  16.886 -0.8658  0.4199 -0.5688
  583MPD2    C1 8641   2.132   0.090  16.806 -0.5424  0.1435 -0.4453
  583MPD2    C2 8642   2.069   0.200  16.861 -0.4792  0.7593  0.2634
  583MPD2    C3 8643   2.031   0.193  16.995  0.5719 -0.2781 -0.0035
  583MPD2    C4 8644   2.056   0.085  17.072  0.7922 -0.0484  0.0298
  583MPD2    C5 8645   2.101   4.692  17.011  0.1644 -0.2969 -0.0796
  583MPD2     H 8646   2.057   0.291  16.804  0.3139  0.5953 -0.1637
  583MPD2    H1 8647   2.026   0.081  17.176  0.7082  0.1503  0.0127
  583MPD2    H2 8648   2.209   4.616  16.848  0.7393  2.1866 -1.8592
  583MPD2    H3 8649   2.121   4.606  17.075  2.5248  0.3284  0.0402
  583MPD2     N 8650   1.986   0.310  17.047  0.5122  0.5015 -0.2529
  583MPD2    H5 8651   1.983   0.387  16.981  0.9999  1.4292  0.7966
  583MPD2    N1 8652   2.189   0.107  16.681  0.1347 -0.5632  0.4040
  583MPD2    H7 8653   2.162   0.194  16.637  0.7638 -0.3652  0.4155
  584TMC3    C1 8654   1.896   0.474  17.208 -0.2027 -0.1103  0.4384
  584TMC3    C2 8655   1.949   0.581  17.134  0.2204  0.0742  0.3097
  584TMC3    C3 8656   1.907   0.705  17.170  1.0400  0.2493 -0.3296
  584TMC3    C4 8657   1.801   0.495  17.306 -0.3794  0.1528  0.9194
  584TMC3    C5 8658   1.789   0.620  17.354 -0.0063 -0.3411 -0.5932
  584TMC3    C6 8659   1.843   0.730  17.298  0.2456 -0.1990 -0.7996
  584TMC3     C 8660   1.935   0.337  17.178  0.0978 -0.8589 -0.3708
  584TMC3     O 8661   1.925   0.261  17.275 -0.5278 -0.0031 -0.5916
  584TMC3     H 8662   1.995   0.573  17.037  0.6147 -0.9870  0.5850
  584TMC3    H1 8663   1.752   0.408  17.350  0.1081  0.5277  2.2027
  584TMC3    H2 8664   1.808   0.822  17.344  1.2065 -0.3570  0.2442
  584TMC3    C7 8665   1.709   0.633  17.474 -0.2980 -0.2367  0.5917
  584TMC3    C8 8666   1.990   0.813  17.112 -0.2688 -0.8083  0.6166
  584TMC3    O1 8667   1.616   0.554  17.491 -0.1960 -0.0945  0.5395
  584TMC3    O2 8668   2.040   0.782  17.003  0.0754  0.6168 -0.6649
  585MPD2     C 8669   1.733   4.052   0.571 -0.1759 -0.3519 -0.8545
  585MPD2    C1 8670   1.759   4.056   0.434 -0.7404 -0.9150 -0.6516
  585MPD2    C2 8671   1.716   3.949   0.359 -0.1222 -0.0798 -0.4186
  585MPD2    C3 8672   1.628   3.855   0.412 -0.1700  0.4428  0.5699
  585MPD2    C4 8673   1.629   3.838   0.553 -0.2416  0.4192 -0.1403
  585MPD2    C5 8674   1.688   3.937   0.633  0.2217  0.0878  0.3229
  585MPD2     H 8675   1.743   3.940   0.254  2.1151 -0.6370  0.2122
  585MPD2    H1 8676   1.573   3.756   0.594  0.4088  0.2252  0.3632
  585MPD2    H2 8677   1.773   4.139   0.623  1.9739 -1.6169 -0.4016
  585MPD2    H3 8678   1.675   3.938   0.741 -1.9120 -0.8581  0.0958
  585MPD2     N 8679   1.568   3.757   0.338 -0.3407  0.2705  0.6725
  585MPD2    H5 8680   1.538   3.672   0.385 -1.4019  0.3423  0.1365
  585MPD2    N1 8681   1.824   4.168   0.378  0.2237  0.3334 -0.0722
  585MPD2    H7 8682   1.831   4.252   0.434 -1.2660  0.0886  0.4735
  586TMC3    C1 8683   1.439   3.681   0.155 -0.4997 -0.3294 -0.1048
  586TMC3    C2 8684   1.448   3.662   0.015  0.2146 -0.0893 -0.0717
  586TMC3    C3 8685   1.347   3.587  17.649 -0.2570 -0.1280 -0.0552
  586TMC3    C4 8686   1.337   3.628   0.226 -0.9104 -0.3758  0.2469
  586TMC3    C5 8687   1.235   3.568   0.158  0.1931  0.0669 -0.0332
  586TMC3    C6 8688   1.241   3.541   0.018 -0.0033  0.5889 -0.3963
  586TMC3     C 8689   1.531   3.782   0.206 -0.4945 -0.5410  0.0398
  586TMC3     O 8690   1.561   3.876   0.136 -0.1193  0.0553  0.4050
  586TMC3     H 8691   1.538   3.704  17.666 -1.5993  2.7183 -1.1071
  586TMC3    H1 8692   1.341   3.640   0.333 -1.5629 -0.3782  0.2717
  586TMC3    H2 8693   1.161   3.484  17.667 -0.0314 -0.4876  0.9687
  586TMC3    C7 8694   1.137   3.488   0.234  0.3910  0.0448 -0.3978
  586TMC3    C8 8695   1.393   3.502  17.546 -0.5311 -0.1142  0.2907
  586TMC3    O1 8696   1.075   3.406   0.168  0.1862 -0.3171  0.3334
  586TMC3    O2 8697   1.447   3.555  17.450 -0.3980 -0.1230 -0.4834
  587TMC3    C1 8698   3.491   2.200  16.953 -0.5675  0.3780 -0.2237
  587TMC3    C2 8699   3.469   2.249  16.827  0.0933 -0.1227  0.5949
  587TMC3    C3 8700   3.581   2.265  16.750 -0.5495 -0.3404  0.8317
  587TMC3    C4 8701   3.613   2.162  17.003 -0.0137  0.4045 -0.2285
  587TMC3    C5 8702   3.719   2.182  16.923 -0.6087  0.4994  0.4610
  587TMC3    C6 8703   3.701   2.224  16.794  0.5017  0.1317 -0.1321
  587TMC3     C 8704   3.388   2.195  17.050 -0.4394  0.0425  0.1978
  587TMC3     O 8705   3.416   2.190  17.169  0.0830  0.6484 -0.0183
  587TMC3     H 8706   3.377   2.284  16.782  1.4381  2.4691 -0.1143
  587TMC3    H1 8707   3.635   2.133  17.105  0.5350 -2.3850 -1.1556
  587TMC3    H2 8708   3.789   2.249  16.736  0.5789  1.3417  0.4917
  587TMC3    C7 8709   3.855   2.206  16.975 -0.3063 -0.0296  0.3530
  587TMC3    C8 8710   3.594   2.377  16.668  0.1921 -0.6727  0.4061
  587TMC3    O1 8711   3.942   2.271  16.909  0.4785  0.0955 -0.9074
  587TMC3    O2 8712   3.643   2.372  16.557  0.1066  0.2522 -0.3389
  588TMC3    C1 8713   0.930   0.296  10.129  0.1848  0.0693  0.4342
  588TMC3    C2 8714   0.874   0.172  10.105 -0.3089 -0.4886  0.3270
  588TMC3    C3 8715   0.960   0.067  10.087  0.6969  0.0928 -0.6137
  588TMC3    C4 8716   1.062   0.316  10.126  0.1642 -0.6713 -0.3659
  588TMC3    C5 8717   1.148   0.213  10.110  0.1166 -0.6605  0.4007
  588TMC3    C6 8718   1.099   0.086  10.088  0.1361  0.0357 -0.5524
  588TMC3     C 8719   0.840   0.406  10.119 -0.4246  0.7424  0.0966
  588TMC3     O 8720   0.750   0.400  10.035  0.3694  0.7964  0.5842
  588TMC3     H 8721   0.769   0.151  10.092 -0.2866 -1.8582  2.3068
  588TMC3    H1 8722   1.096   0.419  10.133  0.5870 -0.8955  0.8726
  588TMC3    H2 8723   1.163   0.000  10.071 -0.1650  0.0667 -1.8587
  588TMC3    C7 8724   1.269   0.249  10.050  0.1727 -0.1641  1.2393
  588TMC3    C8 8725   0.898   4.659  10.058  0.1302  0.1219  0.1401
  588TMC3    O1 8726   1.286   0.187   9.945  0.5594 -0.0952 -0.0219
  588TMC3    O2 8727   0.791   4.655  10.000  0.1014  0.0750 -0.1657
  589TMC3    C1 8728   4.564   1.918   1.784 -0.6747 -0.0687 -0.1866
  589TMC3    C2 8729   4.635   1.816   1.841  0.5902 -0.4706  0.3825
  589TMC3    C3 8730   0.004   1.755   1.760 -0.3059  0.4987 -0.5919
  589TMC3    C4 8731   4.582   1.954   1.648  0.0295 -0.2719 -0.0585
  589TMC3    C5 8732   4.660   1.880   1.570  0.4220 -0.4266 -0.4842
  589TMC3    C6 8733   0.012   1.781   1.622  0.1641 -0.2275 -0.6487
  589TMC3     C 8734   4.441   1.964   1.847 -0.3727 -0.2654  0.5484
  589TMC3     O 8735   4.396   2.068   1.795 -0.1020  0.5282  0.0340
  589TMC3     H 8736   4.636   1.804   1.949  0.7571  2.6128  0.7301
  589TMC3    H1 8737   4.516   2.028   1.604 -1.5968 -1.3991  0.4700
  589TMC3    H2 8738   0.079   1.725   1.558 -1.2676 -1.1478 -1.3425
  589TMC3    C7 8739   4.652   1.915   1.429  0.3027 -0.1698 -0.8869
  589TMC3    C8 8740   0.090   1.662   1.828  0.7132  0.0627 -0.3428
  589TMC3    O1 8741   4.554   1.974   1.393  0.3851 -0.2239 -0.3585
  589TMC3    O2 8742   0.051   1.630   1.938  0.1377  0.3883 -0.8272
  590MPD2     C 8743   0.042   0.899  16.690  0.3781  0.2299 -0.2646
  590MPD2    C1 8744   4.723   1.015  16.622 -0.8164  0.4837 -0.1835
  590MPD2    C2 8745   0.082   1.073  16.529 -0.1717  0.5096  0.9331
  590MPD2    C3 8746   0.207   1.025  16.501  0.2268  0.3215  0.1577
  590MPD2    C4 8747   0.250   0.912  16.568  0.1101 -0.4762 -1.0307
  590MPD2    C5 8748   0.169   0.849  16.665  0.5163 -0.6322  0.3455
  590MPD2     H 8749   0.041   1.153  16.469 -0.6179 -1.6477 -1.6244
  590MPD2    H1 8750   0.345   0.867  16.541  0.3784 -0.1870 -0.5641
  590MPD2    H2 8751   4.715   0.849  16.771 -1.2432  0.6626 -0.9976
  590MPD2    H3 8752   0.192   0.753  16.708  2.2995  0.4107  1.7322
  590MPD2     N 8753   0.278   1.082  16.395 -0.6284 -0.6018  0.9531
  590MPD2    H5 8754   0.238   1.165  16.354 -0.9247 -0.9996  0.4257
  590MPD2    N1 8755   4.586   1.059  16.632  0.1526 -0.0641  0.4298
  590MPD2    H7 8756   4.514   0.993  16.660 -1.3249  2.3050  2.1510
  591TMC3    C1 8757   0.423   1.100  16.217 -0.5738  0.3031  0.0056
  591TMC3    C2 8758   0.457   1.033  16.110 -0.1970  0.0027  0.2675
  591TMC3    C3 8759   0.474   1.090  15.989  0.2842 -0.3342 -0.3842
  591TMC3    C4 8760   0.419   1.234  16.222  0.5506 -0.0295 -0.4669
  591TMC3    C5 8761   0.439   1.294  16.098 -0.1145  0.6690  0.2190
  591TMC3    C6 8762   0.480   1.223  15.980 -0.4688  0.3239 -0.0823
  591TMC3     C 8763   0.384   1.022  16.331 -0.8043  0.4362  0.4187
  591TMC3     O 8764   0.433   0.910  16.350  0.0740  0.8143  0.0210
  591TMC3     H 8765   0.464   0.925  16.115  0.7561  0.1464  2.1208
  591TMC3    H1 8766   0.396   1.292  16.310 -0.5219 -0.2903 -0.5792
  591TMC3    H2 8767   0.517   1.282  15.898 -0.9477 -0.4037 -0.8249
  591TMC3    C7 8768   0.426   1.436  16.089 -0.4223 -0.2457  0.1285
  591TMC3    C8 8769   0.479   1.009  15.868  0.6793 -0.4241 -0.3004
  591TMC3    O1 8770   0.417   1.495  16.195  0.1232 -0.3484  0.1394
  591TMC3    O2 8771   0.460   0.892  15.883  0.1832  0.5859 -0.5102
  592MPD2     C 8772   0.512   2.742  11.493 -0.3964  0.4856 -0.6514
  592MPD2    C1 8773   0.494   2.773  11.632 -0.5414  0.6437  0.5227
  592MPD2    C2 8774   0.441   2.675  11.714  0.0097  0.2680  0.4183
  592MPD2    C3 8775   0.393   2.552  11.665  0.2174 -0.2678 -0.2197
  592MPD2    C4 8776   0.391   2.543  11.528 -0.0070  0.0134 -0.1515
  592MPD2    C5 8777   0.449   2.631  11.441 -0.7029  0.8445 -0.0846
  592MPD2     H 8778   0.433   2.684  11.822 -0.9594 -0.3450  0.4056
  592MPD2    H1 8779   0.348   2.454  11.484 -1.3113  1.3328 -1.5407
  592MPD2    H2 8780   0.571   2.811  11.435  2.0006 -1.2145 -0.2573
  592MPD2    H3 8781   0.442   2.607  11.336 -1.5515 -0.6075  0.3084
  592MPD2     N 8782   0.350   2.447  11.759  0.1454 -0.4361  0.3876
  592MPD2    H5 8783   0.347   2.467  11.858 -0.3488  1.2567  0.0205
  592MPD2    N1 8784   0.541   2.900  11.685  1.0612  0.1042 -0.2071
  592MPD2    H7 8785   0.592   2.969  11.631  2.4086  0.1898  1.1836
  593TMC3    C1 8786   0.575   3.064  11.850 -0.4843  0.6071  0.0789
  593TMC3    C2 8787   0.517   3.139  11.949 -0.3381 -0.2315  0.4189
  593TMC3    C3 8788   0.588   3.249  11.982  0.4942 -0.0772  0.1946
  593TMC3    C4 8789   0.697   3.082  11.795  0.5024  0.0351  0.6630
  593TMC3    C5 8790   0.769   3.186  11.847 -1.2617  0.2762 -0.2647
  593TMC3    C6 8791   0.714   3.271  11.942  0.6435  0.5551 -0.0767
  593TMC3     C 8792   0.520   2.942  11.816 -0.4480 -0.5344  0.1342
  593TMC3     O 8793   0.443   2.895  11.897  0.0246  0.5631  0.2715
  593TMC3     H 8794   0.414   3.116  11.972  0.4049 -2.0679  1.8818
  593TMC3    H1 8795   0.748   2.992  11.764  0.3007  0.1369  0.0515
  593TMC3    H2 8796   0.783   3.348  11.975  0.6806  0.0053  1.1307
  593TMC3    C7 8797   0.893   3.226  11.785 -0.1884 -0.2229 -0.1027
  593TMC3    C8 8798   0.518   3.351  12.040 -0.5176  1.2332  0.2492
  593TMC3    O1 8799   0.957   3.306  11.851 -0.4100 -0.3042 -0.3335
  593TMC3    O2 8800   0.414   3.325  12.094  0.8410 -0.2262  0.3582
  594MPD2     C 8801   3.277   1.548  13.902 -0.1460  0.7346  0.8034
  594MPD2    C1 8802   3.264   1.600  14.028  0.0201 -0.9331  0.0751
  594MPD2    C2 8803   3.375   1.653  14.085  0.4742 -0.8023 -0.1941
  594MPD2    C3 8804   3.488   1.673  14.007 -0.4038  0.7782  0.8526
  594MPD2    C4 8805   3.497   1.625  13.877  0.2682 -0.1373  0.6227
  594MPD2    C5 8806   3.394   1.553  13.834  0.1317 -0.4309 -0.3088
  594MPD2     H 8807   3.372   1.692  14.187  1.2037  0.3993 -0.6367
  594MPD2    H1 8808   3.588   1.624  13.817 -0.1491 -2.1287  0.0173
  594MPD2    H2 8809   3.203   1.475  13.872  1.0037 -0.4121  0.7730
  594MPD2    H3 8810   3.396   1.512  13.734  0.7751 -1.2619  0.0476
  594MPD2     N 8811   3.594   1.743  14.075 -0.1289 -0.5016  0.1548
  594MPD2    H5 8812   3.565   1.770  14.168 -0.9964  0.8645 -0.5162
  594MPD2    N1 8813   3.138   1.587  14.098 -0.3411 -0.4073 -0.0372
  594MPD2    H7 8814   3.069   1.530  14.050 -0.6466  0.8224 -1.0487
  595TMC3    C1 8815   4.032   1.885  14.167  0.1447  0.6375 -0.7180
  595TMC3    C2 8816   3.940   1.848  14.068  0.5755 -0.3985  0.7630
  595TMC3    C3 8817   3.808   1.850  14.100 -0.9578  0.7954 -0.1392
  595TMC3    C4 8818   3.993   1.928  14.291 -0.0807  0.0754 -0.3134
  595TMC3    C5 8819   3.860   1.930  14.319  0.2016  0.3935 -0.3283
  595TMC3    C6 8820   3.772   1.889  14.227  0.4783 -0.5050  0.1926
  595TMC3     C 8821   4.173   1.875  14.134 -1.0150  0.3741  0.4135
  595TMC3     O 8822   4.249   1.886  14.230  0.3061 -0.4451  0.0880
  595TMC3     H 8823   3.974   1.820  13.969  0.8404  2.3066  0.0868
  595TMC3    H1 8824   4.064   1.954  14.368 -1.5068 -0.1509  1.0746
  595TMC3    H2 8825   3.669   1.914  14.248  0.4971  0.2815 -0.6267
  595TMC3    C7 8826   3.817   1.971  14.446  0.5738  0.0986  0.7133
  595TMC3    C8 8827   3.715   1.778  14.017  0.1222  0.3813  0.3418
  595TMC3    O1 8828   3.722   2.048  14.457 -0.1046 -0.0113  0.3534
  595TMC3    O2 8829   3.752   1.740  13.906  0.4795  0.2993 -0.2086
  596MPD2     C 8830   2.872   4.455  16.887 -0.4858 -0.1320  0.0828
  596MPD2    C1 8831   2.856   4.573  16.810  0.0722  0.1590 -0.3437
  596MPD2    C2 8832   2.874   4.561  16.670  0.0330 -0.7388  0.0984
  596MPD2    C3 8833   2.908   4.439  16.606 -0.8024  0.4091  0.2710
  596MPD2    C4 8834   2.913   4.331  16.686  0.0292 -0.1773  0.3086
  596MPD2    C5 8835   2.903   4.336  16.822 -0.6349 -0.2590  0.0577
  596MPD2     H 8836   2.866   4.653  16.613  1.2130 -0.5190  0.2855
  596MPD2    H1 8837   2.952   4.237  16.649  0.9654 -0.7550  2.7516
  596MPD2    H2 8838   2.864   4.464  16.994 -0.2766  1.2717 -0.0182
  596MPD2    H3 8839   2.904   4.244  16.880  0.0417 -0.7150 -0.6782
  596MPD2     N 8840   2.944   4.430  16.467  0.5400  0.1499 -0.1794
  596MPD2    H5 8841   2.956   4.337  16.428 -0.4877 -0.5231  1.1260
  596MPD2    N1 8842   2.829   4.705  16.865  0.5759 -0.3223  0.3428
  596MPD2    H7 8843   2.826   0.064  16.806  0.7406 -0.8778 -0.4393
  597TMC3    C1 8844   2.862   0.153  17.026  0.2690 -0.0524 -0.3790
  597TMC3    C2 8845   2.951   0.223  16.954 -0.6179 -0.0125  0.3241
  597TMC3    C3 8846   2.954   0.357  16.970  0.3755  0.0510 -0.3901
  597TMC3    C4 8847   2.758   0.214  17.091 -0.5243  0.3986 -0.6575
  597TMC3    C5 8848   2.750   0.351  17.087 -0.3590  0.1139 -0.0665
  597TMC3    C6 8849   2.856   0.427  17.033 -0.6544  0.7230  0.3851
  597TMC3     C 8850   2.843   0.009  17.001 -0.0734 -0.2568 -0.5934
  597TMC3     O 8851   2.807   4.659  17.090 -0.5231 -0.6416  0.1931
  597TMC3     H 8852   3.035   0.175  16.905 -0.9255 -0.8627  0.6433
  597TMC3    H1 8853   2.681   0.148  17.128  0.8961 -0.0112  1.5170
  597TMC3    H2 8854   2.861   0.533  17.055  0.5366  0.5632  0.8712
  597TMC3    C7 8855   2.665   0.406  17.184 -0.0737  0.6274  0.0333
  597TMC3    C8 8856   3.062   0.434  16.908 -0.3783  0.6525 -0.4706
  597TMC3    O1 8857   2.622   0.337  17.276  0.0087 -0.0074  0.1400
  597TMC3    O2 8858   3.091   0.537  16.961 -0.5559 -0.4383 -0.0615
  598TMC3    C1 8859   1.138   1.443  15.340 -1.0335 -0.2008 -0.0918
  598TMC3    C2 8860   1.051   1.368  15.262 -0.0470  0.6932 -0.1452
  598TMC3    C3 8861   0.988   1.442  15.161  0.4665  0.5400  0.3551
  598TMC3    C4 8862   1.179   1.569  15.310 -0.2042  0.1670 -0.2377
  598TMC3    C5 8863   1.129   1.614  15.194 -0.0148 -0.6904  1.3041
  598TMC3    C6 8864   1.028   1.566  15.126  0.2903  0.1245  0.3291
  598TMC3     C 8865   1.217   1.365  15.448  0.2792 -0.3448 -0.6572
  598TMC3     O 8866   1.288   1.436  15.517  0.4178 -0.3063 -0.1658
  598TMC3     H 8867   1.012   1.273  15.297  0.1738  0.8239  0.4573
  598TMC3    H1 8868   1.252   1.625  15.368  1.9928 -2.4625 -0.4425
  598TMC3    H2 8869   0.981   1.619  15.044  2.6384 -2.1154 -2.4605
  598TMC3    C7 8870   1.167   1.753  15.160 -0.3089  0.2662  0.0453
  598TMC3    C8 8871   0.905   1.368  15.068 -0.6822 -0.0615 -0.1700
  598TMC3    O1 8872   1.210   1.819  15.254 -0.4711 -0.0523  0.3290
  598TMC3    O2 8873   0.850   1.442  14.983 -0.1704  0.1499 -0.1831
  599MPD2     C 8874   1.331   3.645  16.278 -0.4519  0.4354 -0.3213
  599MPD2    C1 8875   1.252   3.538  16.275  0.6313  0.4551  1.1272
  599MPD2    C2 8876   1.124   3.543  16.319  0.4389 -0.5752  0.1034
  599MPD2    C3 8877   1.074   3.668  16.353  0.1462 -0.8949 -0.2323
  599MPD2    C4 8878   1.149   3.780  16.339  0.2689 -0.1871 -0.5954
  599MPD2    C5 8879   1.279   3.773  16.298 -0.8555  0.1035 -0.1770
  599MPD2     H 8880   1.053   3.462  16.311 -2.1230  1.8808 -1.9357
  599MPD2    H1 8881   1.108   3.872  16.379  0.4205  0.4348 -1.8515
  599MPD2    H2 8882   1.435   3.643  16.249 -0.1766 -0.3556  0.7430
  599MPD2    H3 8883   1.333   3.867  16.297 -1.3438  0.3945  1.6554
  599MPD2     N 8884   0.944   3.702  16.397 -0.3582  0.3479  0.4488
  599MPD2    H5 8885   0.938   3.796  16.435 -1.1772  0.5595 -0.2000
  599MPD2    N1 8886   1.314   3.421  16.224 -0.0052 -0.0578 -0.6030
  599MPD2    H7 8887   1.413   3.434  16.210  0.4327 -1.5605  1.1151
  600TMC3    C1 8888   0.720   3.671  16.474 -1.0297  0.2988  0.0193
  600TMC3    C2 8889   0.635   3.579  16.535 -1.4471 -1.4044  0.2679
  600TMC3    C3 8890   0.538   3.627  16.619  0.2293 -0.6469  0.0163
  600TMC3    C4 8891   0.720   3.805  16.511  0.0160 -0.5139  0.7664
  600TMC3    C5 8892   0.618   3.845  16.599 -0.4733  0.4894 -0.0762
  600TMC3    C6 8893   0.538   3.755  16.664 -0.3678  0.5084 -0.3551
  600TMC3     C 8894   0.844   3.610  16.416  0.2705 -0.3961 -0.0212
  600TMC3     O 8895   0.835   3.497  16.373  0.2714  0.6834 -0.3950
  600TMC3     H 8896   0.637   3.475  16.502  0.1862 -2.1270  2.6362
  600TMC3    H1 8897   0.793   3.874  16.469 -0.3207 -1.9089 -2.1294
  600TMC3    H2 8898   0.461   3.781  16.736 -0.5429  1.8600 -1.0314
  600TMC3    C7 8899   0.619   3.977  16.663 -0.3412  0.8628  0.3522
  600TMC3    C8 8900   0.497   3.527  16.719 -0.2699  0.8771 -0.1814
  600TMC3    O1 8901   0.558   3.977  16.772  0.5260 -0.1071  0.3126
  600TMC3    O2 8902   0.516   3.551  16.841 -0.4554  0.7054 -0.2873
  601MPD2     C 8903   2.547   1.838   0.679  0.1744 -0.4084 -0.0978
  601MPD2    C1 8904   2.444   1.815   0.584 -0.2073 -0.2550  0.8425
  601MPD2    C2 8905   2.384   1.690   0.573 -0.4609 -0.3024 -0.2546
  601MPD2    C3 8906   2.415   1.589   0.667 -0.2850  0.0873 -0.5617
  601MPD2    C4 8907   2.508   1.621   0.768 -0.1756 -0.5206 -0.0284
  601MPD2    C5 8908   2.570   1.742   0.774  0.0372 -0.0264  0.0431
  601MPD2     H 8909   2.308   1.666   0.500  0.3499  1.6051 -1.7186
  601MPD2    H1 8910   2.532   1.545   0.841 -2.0492  0.3747  1.5138
  601MPD2    H2 8911   2.590   1.935   0.699  0.9925 -0.9811  0.9410
  601MPD2    H3 8912   2.630   1.766   0.860  0.6796 -2.3526  0.2510
  601MPD2     N 8913   2.346   1.465   0.688 -0.1190 -0.0100  0.8101
  601MPD2    H5 8914   2.368   1.416   0.774  0.5276  0.8495  1.1307
  601MPD2    N1 8915   2.401   1.912   0.495  0.1093  0.3631  0.2026
  601MPD2    H7 8916   2.343   1.873   0.422 -0.6616  2.2490 -0.1896
  602TMC3    C1 8917   2.397   2.124   0.386  0.4330  0.0156 -0.0928
  602TMC3    C2 8918   2.470   2.226   0.334 -0.0586  0.5065  0.0877
  602TMC3    C3 8919   2.441   2.275   0.209  0.7600  0.3049  0.4389
  602TMC3    C4 8920   2.288   2.084   0.318 -0.9389 -0.4201 -0.0924
  602TMC3    C5 8921   2.261   2.128   0.192  0.4637  0.5378  0.9327
  602TMC3    C6 8922   2.351   2.219   0.128  0.0721 -0.1727  0.0999
  602TMC3     C 8923   2.452   2.039   0.495 -0.0543  0.2781  0.4946
  602TMC3     O 8924   2.537   2.099   0.562  0.1718  0.1762 -0.3671
  602TMC3     H 8925   2.542   2.280   0.394 -1.1888  1.7384  0.3360
  602TMC3    H1 8926   2.214   2.024   0.370  0.8272 -0.4555  2.3864
  602TMC3    H2 8927   2.361   2.232   0.021  3.4811  0.2996  0.4703
  602TMC3    C7 8928   2.128   2.124   0.137 -0.5699  0.0575 -0.0536
  602TMC3    C8 8929   2.490   2.409   0.172 -0.1302 -0.4750  0.4015
  602TMC3    O1 8930   2.043   2.065   0.200  0.5005 -0.2406 -0.2016
  602TMC3    O2 8931   2.596   2.443   0.226  0.4151 -0.2195  0.4024
  603TMC3    C1 8932   1.037   2.140  10.660 -0.2657  0.1416 -0.2393
  603TMC3    C2 8933   1.081   2.161  10.784  0.0355 -0.4198 -0.0456
  603TMC3    C3 8934   1.111   2.289  10.826 -0.1141  0.1965 -0.1326
  603TMC3    C4 8935   1.014   2.243  10.575 -0.7602 -0.2296 -0.2421
  603TMC3    C5 8936   1.057   2.367  10.617 -0.4396 -0.3706 -0.7556
  603TMC3    C6 8937   1.119   2.390  10.736  0.5100  0.1702 -0.2999
  603TMC3     C 8938   1.001   1.998  10.619  0.4286 -0.3433 -0.0880
  603TMC3     O 8939   0.973   1.909  10.703 -0.4864 -0.0151 -0.4621
  603TMC3     H 8940   1.074   2.075  10.849  0.0903 -0.9533 -0.7431
  603TMC3    H1 8941   0.968   2.217  10.481 -0.8344 -0.2317 -0.2050
  603TMC3    H2 8942   1.109   2.492  10.772 -0.4002 -0.1986  0.5037
  603TMC3    C7 8943   1.071   2.470  10.521  0.3538 -0.2684 -0.0807
  603TMC3    C8 8944   1.172   2.303  10.957  0.1189 -0.0938 -0.1135
  603TMC3    O1 8945   1.150   2.562  10.534 -0.5389  0.3356 -0.1232
  603TMC3    O2 8946   1.149   2.221  11.044  0.5003 -0.2605  0.6463
  604MPD2     C 8947   2.160   1.162  16.630 -0.0086 -0.2329 -0.7738
  604MPD2    C1 8948   2.084   1.062  16.579 -0.5947 -0.2109 -0.8811
  604MPD2    C2 8949   2.113   1.002  16.456  0.1529 -0.0322  0.4776
  604MPD2    C3 8950   2.222   1.047  16.385 -0.0276 -0.0332 -0.4559
  604MPD2    C4 8951   2.313   1.125  16.455 -0.4324  0.1058  0.0951
  604MPD2    C5 8952   2.274   1.190  16.569 -0.5595 -0.1394  0.7035
  604MPD2     H 8953   2.054   0.925  16.407 -0.6184  0.6920  0.2583
  604MPD2    H1 8954   2.409   1.153  16.411  0.4195 -1.4543  0.9417
  604MPD2    H2 8955   2.138   1.205  16.727  0.2909  0.9963 -1.2535
  604MPD2    H3 8956   2.348   1.251  16.619  1.3092 -1.1652 -0.8138
  604MPD2     N 8957   2.239   1.003  16.255 -0.0998 -0.3151  0.3784
  604MPD2    H5 8958   2.157   0.961  16.213 -0.2906 -0.0777  0.5154
  604MPD2    N1 8959   1.976   1.021  16.657  0.5756  0.1826  0.1060
  604MPD2    H7 8960   1.951   1.081  16.734  0.1742  0.5025 -0.2733
  605TMC3    C1 8961   1.763   0.965  16.699  0.1493  0.9322 -0.2508
  605TMC3    C2 8962   1.796   0.996  16.831 -0.7562  0.0376  0.0762
  605TMC3    C3 8963   1.724   1.091  16.894  0.2024 -0.6415 -0.9978
  605TMC3    C4 8964   1.650   1.011  16.636 -0.3303 -0.3349  0.3470
  605TMC3    C5 8965   1.579   1.100  16.713 -0.1630  0.4053 -0.4553
  605TMC3    C6 8966   1.614   1.139  16.836  0.5350 -0.2601 -0.3676
  605TMC3     C 8967   1.874   0.946  16.614  0.6750  1.0637  0.1574
  605TMC3     O 8968   1.848   0.891  16.511  0.2666 -0.2823 -0.3243
  605TMC3     H 8969   1.872   0.944  16.888 -1.7713  1.1164  2.4188
  605TMC3    H1 8970   1.639   0.986  16.531  2.6802 -1.4974  0.3031
  605TMC3    H2 8971   1.556   1.221  16.876 -0.3056 -1.4700  0.8942
  605TMC3    C7 8972   1.449   1.143  16.665  0.1540  0.5340  1.1434
  605TMC3    C8 8973   1.818   1.185  16.939 -0.4759 -0.8131 -0.5999
  605TMC3    O1 8974   1.367   1.212  16.722  0.4285  0.2721  0.1777
  605TMC3    O2 8975   1.909   1.197  16.857  0.1439  0.7361 -0.1700
  606TMC3    C1 8976   3.548   3.986  17.479  0.4699  0.4090  0.3907
  606TMC3    C2 8977   3.678   3.959  17.489  0.9392  0.0052  0.5223
  606TMC3    C3 8978   3.739   3.922  17.602  0.7248 -0.3033  0.0329
  606TMC3    C4 8979   3.463   3.962  17.587  0.1108  0.1562 -0.1724
  606TMC3    C5 8980   3.529   3.920   0.001  0.2670  0.4960 -0.0693
  606TMC3    C6 8981   3.664   3.912   0.021  0.5612 -0.0660 -0.0814
  606TMC3     C 8982   3.503   4.073  17.374  0.2303 -0.0745 -0.6400
  606TMC3     O 8983   3.574   4.084  17.278 -0.3692  0.0335 -0.3243
  606TMC3     H 8984   3.746   3.972  17.406  0.1101 -0.4676 -0.2265
  606TMC3    H1 8985   3.360   3.992  17.600 -0.2104 -1.9826  2.1642
  606TMC3    H2 8986   3.712   3.887   0.115  0.3168 -2.4057 -0.5914
  606TMC3    C7 8987   3.446   3.883   0.116  0.5212  0.2832  0.3488
  606TMC3    C8 8988   3.884   3.897  17.607 -1.0328  0.0001 -0.2229
  606TMC3    O1 8989   3.492   3.886   0.229  0.2127 -0.7770  0.0948
  606TMC3    O2 8990   3.954   3.935  17.514  0.1164  0.5935 -0.6603
  607MPD2     C 8991   0.744   2.306  11.626 -0.4247 -0.3654 -0.2986
  607MPD2    C1 8992   0.776   2.444  11.641 -0.4315 -0.4422  0.0243
  607MPD2    C2 8993   0.738   2.514  11.753 -0.1847 -0.0318  0.5032
  607MPD2    C3 8994   0.667   2.459  11.851  0.1869 -0.5520 -0.7544
  607MPD2    C4 8995   0.635   2.326  11.839  0.0769 -0.5505 -0.1716
  607MPD2    C5 8996   0.660   2.259  11.719  0.4372 -0.1611  0.7684
  607MPD2     H 8997   0.779   2.613  11.768  0.9426 -0.3391 -0.5208
  607MPD2    H1 8998   0.573   2.271  11.908  0.4984  1.0663  1.5075
  607MPD2    H2 8999   0.767   2.238  11.546 -1.1432 -0.3531 -0.5158
  607MPD2    H3 9000   0.620   2.158  11.713  1.9745 -0.7280  0.0529
  607MPD2     N 9001   0.653   2.527  11.973 -0.1705 -0.4796  0.3744
  607MPD2    H5 9002   0.692   2.621  11.981 -1.9600  0.1219  1.9483
  607MPD2    N1 9003   0.860   2.505  11.549 -0.1040  0.2417  0.4426
  607MPD2    H7 9004   0.867   2.604  11.567  0.8326 -0.1819  2.3964
  608TMC3    C1 9005   1.018   2.546  11.392  0.1337 -0.1210 -0.3979
  608TMC3    C2 9006   1.067   2.636  11.484  1.2571  0.1342  0.0928
  608TMC3    C3 9007   1.137   2.743  11.443 -0.4377  0.3401  0.2068
  608TMC3    C4 9008   1.032   2.574  11.258 -0.0963  0.0240 -0.1906
  608TMC3    C5 9009   1.095   2.690  11.219 -0.7181 -0.0540 -0.6126
  608TMC3    C6 9010   1.152   2.774  11.314 -0.5892  0.1156  0.2728
  608TMC3     C 9011   0.917   2.454  11.433 -0.5711  0.5691 -0.4015
  608TMC3     O 9012   0.898   2.349  11.374  0.0457  0.0615  0.0557
  608TMC3     H 9013   1.067   2.617  11.590  2.2610  1.0879  0.2646
  608TMC3    H1 9014   0.977   2.516  11.185  0.0924 -1.1410  0.5982
  608TMC3    H2 9015   1.186   2.870  11.276 -0.3246  0.8608  2.3422
  608TMC3    C7 9016   1.111   2.717  11.078 -0.2617  0.2076  0.4876
  608TMC3    C8 9017   1.187   2.840  11.545 -0.3282  0.3121 -0.2740
  608TMC3    O1 9018   1.031   2.654  11.010 -0.5415  0.0540  0.4897
  608TMC3    O2 9019   1.283   2.908  11.514  0.7568 -0.1743  0.2842
  609TMC3    C1 9020   3.821   1.269   9.176  0.6436  0.7507 -0.9863
  609TMC3    C2 9021   3.803   1.312   9.049 -0.6505 -0.6018  0.1253
  609TMC3    C3 9022   3.896   1.296   8.950  0.2893 -0.2846 -0.1537
  609TMC3    C4 9023   3.930   1.196   9.210 -0.0222  0.9080  0.4486
  609TMC3    C5 9024   4.028   1.183   9.114  0.3765  0.4659 -0.4405
  609TMC3    C6 9025   4.010   1.227   8.981  0.0051 -0.0950 -0.0312
  609TMC3     C 9026   3.711   1.277   9.271  0.1676  0.1518  0.4462
  609TMC3     O 9027   3.618   1.342   9.231 -0.7033  1.0224  0.7726
  609TMC3     H 9028   3.707   1.350   9.018 -0.6054  0.0942  0.8488
  609TMC3    H1 9029   3.961   1.166   9.310  1.2460  0.4750 -0.0749
  609TMC3    H2 9030   4.073   1.201   8.897 -0.4459  0.3175 -0.4991
  609TMC3    C7 9031   4.161   1.128   9.158 -0.6487 -1.2634 -0.1301
  609TMC3    C8 9032   3.854   1.304   8.814 -0.0171 -0.4611  0.6393
  609TMC3    O1 9033   4.172   1.098   9.273 -0.6663 -0.0756  0.3720
  609TMC3    O2 9034   3.731   1.284   8.797  0.1188 -0.0029  0.3444
  610TMC3    C1 9035   1.309   2.608  12.733 -1.0864 -0.8475 -0.5602
  610TMC3    C2 9036   1.395   2.692  12.668  0.8905 -0.2445  0.1266
  610TMC3    C3 9037   1.531   2.685  12.691 -0.6269 -0.1087 -0.1693
  610TMC3    C4 9038   1.355   2.502  12.806  0.0960  0.0124 -0.2148
  610TMC3    C5 9039   1.495   2.495  12.819  0.1031 -0.4246 -0.5473
  610TMC3    C6 9040   1.581   2.578  12.750 -0.2208  0.2147  1.1004
  610TMC3     C 9041   1.170   2.610  12.691  0.2243  0.0221  0.3122
  610TMC3     O 9042   1.138   2.706  12.627  0.1627  1.1066  0.1277
  610TMC3     H 9043   1.365   2.779  12.610  1.7209 -0.7074 -0.9941
  610TMC3    H1 9044   1.286   2.449  12.870  0.4696 -0.7673 -0.4578
  610TMC3    H2 9045   1.689   2.577  12.767 -0.2898 -1.0088  1.4516
  610TMC3    C7 9046   1.554   2.380  12.884  0.3010 -0.1650  0.4219
  610TMC3    C8 9047   1.611   2.775  12.612  0.6164 -0.3805 -0.6253
  610TMC3    O1 9048   1.653   2.337  12.828  0.0174 -0.1979  0.5487
  610TMC3    O2 9049   1.568   2.801  12.504  0.1672 -0.1192  0.5913
  611MPD2     C 9050   0.080   2.016  10.299  0.0836  0.6331  0.3086
  611MPD2    C1 9051   4.723   2.110  10.244  0.6814 -0.2881 -0.2334
  611MPD2    C2 9052   0.065   2.211  10.171  0.2526 -0.6302 -0.7740
  611MPD2    C3 9053   0.196   2.205  10.130  0.5402  0.0956  0.2410
  611MPD2    C4 9054   0.269   2.098  10.174 -0.7057 -0.2932 -0.3543
  611MPD2    C5 9055   0.210   2.009  10.257  0.6419  0.0939  0.3282
  611MPD2     H 9056   0.008   2.296  10.135  1.2174  0.0003 -0.8244
  611MPD2    H1 9057   0.374   2.079  10.155 -0.3099  1.3840  0.0680
  611MPD2    H2 9058   0.054   1.925  10.352  0.0082  0.3562 -0.2045
  611MPD2    H3 9059   0.273   1.931  10.298 -0.5445 -0.2233  1.5543
  611MPD2     N 9060   0.263   2.293  10.044 -0.4687  0.5567  0.5182
  611MPD2    H5 9061   0.364   2.290  10.043 -0.5252 -0.6255 -0.7427
  611MPD2    N1 9062   4.587   2.097  10.267  0.8540 -0.5341  0.3187
  611MPD2    H7 9063   4.571   2.026  10.338 -3.1799  1.2908  1.2427
  612TMC3    C1 9064   0.294   2.494   9.925  0.4643 -0.3758 -0.4505
  612TMC3    C2 9065   0.419   2.504   9.980 -0.0066 -0.3269  0.3324
  612TMC3    C3 9066   0.509   2.575   9.903  0.0119 -0.0521  0.2657
  612TMC3    C4 9067   0.260   2.533   9.796  0.5982  0.7051  0.2121
  612TMC3    C5 9068   0.355   2.599   9.719 -0.4160 -0.1398  0.0153
  612TMC3    C6 9069   0.476   2.624   9.778  0.8249 -0.3173 -0.0633
  612TMC3     C 9070   0.204   2.397   9.979  0.1541  0.5060 -0.3906
  612TMC3     O 9071   0.086   2.415   9.938  0.1947  0.3835 -0.4457
  612TMC3     H 9072   0.431   2.479  10.084 -1.9940 -0.3031  0.5782
  612TMC3    H1 9073   0.181   2.486   9.738  0.4195  2.0958 -0.6800
  612TMC3    H2 9074   0.549   2.683   9.724 -0.1112  0.4524 -0.4862
  612TMC3    C7 9075   0.335   2.655   9.586 -0.7744  0.3779  0.5022
  612TMC3    C8 9076   0.630   2.627   9.963 -0.2319  0.8229  0.5795
  612TMC3    O1 9077   0.428   2.710   9.525  0.2065  0.4898  0.1353
  612TMC3    O2 9078   0.679   2.712   9.893 -0.2509  0.0312  0.4574
  613MPD2     C 9079   4.248   4.304  16.444  0.0669  0.2613 -0.0603
  613MPD2    C1 9080   4.254   4.443  16.450  0.6808  0.1557 -0.3583
  613MPD2    C2 9081   4.139   4.510  16.415  0.0896  0.1140 -0.1950
  613MPD2    C3 9082   4.026   4.442  16.368 -0.0785  0.0836 -0.0344
  613MPD2    C4 9083   4.024   4.302  16.377 -0.2425 -0.0771 -0.2967
  613MPD2    C5 9084   4.133   4.230  16.424  0.2294  0.0967  0.0503
  613MPD2     H 9085   4.143   4.618  16.412 -1.1517  0.2026  1.6382
  613MPD2    H1 9086   3.935   4.248  16.347 -1.7787  1.9299  0.6034
  613MPD2    H2 9087   4.330   4.246  16.485 -0.6269  0.1076  1.1115
  613MPD2    H3 9088   4.121   4.124  16.440 -0.6120  0.1157 -0.4471
  613MPD2     N 9089   3.905   4.501  16.327 -0.1631 -0.2786  0.4592
  613MPD2    H5 9090   3.832   4.440  16.292 -1.8046  2.2293 -0.5334
  613MPD2    N1 9091   4.376   4.493  16.494 -0.5206  0.4781 -0.1249
  613MPD2    H7 9092   4.450   4.427  16.512 -0.3527  0.4980 -0.7317
  614TMC3    C1 9093   4.559   4.636  16.475 -0.7797 -0.3342  0.8150
  614TMC3    C2 9094   4.598   4.550  16.373  0.3598  0.0267  0.2075
  614TMC3    C3 9095   4.656   4.600  16.264  0.3603 -1.2350 -0.2172
  614TMC3    C4 9096   4.593   0.042  16.475 -0.3649  0.5551  0.5600
  614TMC3    C5 9097   4.655   0.092  16.358  0.0882 -0.5598 -0.4706
  614TMC3    C6 9098   4.691   0.009  16.257 -0.4149  0.5900  0.3100
  614TMC3     C 9099   4.413   4.624  16.514 -0.9608 -0.1205  0.6451
  614TMC3     O 9100   4.348   0.003  16.526 -0.5455 -0.4657  0.4192
  614TMC3     H 9101   4.570   4.445  16.376  1.7913 -0.3702  0.0802
  614TMC3    H1 9102   4.562   0.110  16.553  0.8384  0.8031  0.8316
  614TMC3    H2 9103   0.005   0.047  16.163 -0.2292  0.0135  0.1525
  614TMC3    C7 9104   4.603   0.228  16.326  0.3987  1.3576 -0.0156
  614TMC3    C8 9105   4.572   4.579  16.149 -0.6563 -0.3680  0.8791
  614TMC3    O1 9106   4.579   0.310  16.411 -0.0955 -0.1803  0.6029
  614TMC3    O2 9107   4.513   4.680  16.108  0.5455  0.1580  0.3075
  615MPD2     C 9108   3.731   1.326  16.263  0.3905  0.0182 -0.3706
  615MPD2    C1 9109   3.628   1.404  16.315 -0.2075 -0.1304  0.2185
  615MPD2    C2 9110   3.510   1.405  16.243 -0.4078 -0.0166 -0.5527
  615MPD2    C3 9111   3.493   1.340  16.127 -0.7130 -0.3001  0.1392
  615MPD2    C4 9112   3.591   1.254  16.085  0.3205  0.1741  0.0255
  615MPD2    C5 9113   3.712   1.244  16.153 -0.4044  0.3208 -0.5408
  615MPD2     H 9114   3.434   1.472  16.280 -0.7856 -0.5254 -0.3986
  615MPD2    H1 9115   3.585   1.192  15.997 -1.4536  1.2144 -0.6008
  615MPD2    H2 9116   3.829   1.314  16.308  0.0297  1.4400  0.7779
  615MPD2    H3 9117   3.785   1.176  16.111  1.7925  2.2853  0.0570
  615MPD2     N 9118   3.379   1.369  16.044 -0.3803 -0.2272  0.0993
  615MPD2    H5 9119   3.391   1.328  15.952  0.1729  0.1157  0.0207
  615MPD2    N1 9120   3.640   1.485  16.424  0.3817  0.3293 -0.2340
  615MPD2    H7 9121   3.550   1.531  16.438 -1.2214 -2.6290 -0.6956
  616TMC3    C1 9122   3.722   1.624  16.589  1.0725  0.5309 -0.3621
  616TMC3    C2 9123   3.814   1.726  16.575  0.1266 -0.1337 -0.1184
  616TMC3    C3 9124   3.769   1.855  16.591  0.0400 -0.3782  0.2964
  616TMC3    C4 9125   3.590   1.651  16.631 -0.1458  0.3295  0.3623
  616TMC3    C5 9126   3.550   1.782  16.638 -0.6289  0.1681  1.0825
  616TMC3    C6 9127   3.639   1.881  16.624  0.4555 -0.3829 -0.2018
  616TMC3     C 9128   3.750   1.519  16.495 -0.1781 -0.0174  0.2527
  616TMC3     O 9129   3.866   1.489  16.470  0.2272 -0.2332 -0.3246
  616TMC3     H 9130   3.905   1.704  16.520  1.6262  3.3424  0.9660
  616TMC3    H1 9131   3.517   1.571  16.630  1.9968 -1.6160 -1.3629
  616TMC3    H2 9132   3.605   1.979  16.655  1.3146 -0.3658  0.6892
  616TMC3    C7 9133   3.432   1.809  16.720 -0.1891 -0.1229 -0.4571
  616TMC3    C8 9134   3.853   1.968  16.555  0.3192 -0.6315 -0.2448
  616TMC3    O1 9135   3.426   1.918  16.780 -0.1963  0.0957 -0.0212
  616TMC3    O2 9136   3.796   2.078  16.543  0.2515 -0.1221 -0.3375
  617MPD2     C 9137   1.743   4.577  14.196  0.1135  0.0130 -0.6491
  617MPD2    C1 9138   1.735   4.451  14.252  0.2909 -0.0579  0.0394
  617MPD2    C2 9139   1.619   4.377  14.257  1.1469  0.2016  0.6559
  617MPD2    C3 9140   1.508   4.435  14.196  0.0486 -0.3494 -0.5644
  617MPD2    C4 9141   1.512   4.558  14.134 -0.3817 -0.3371 -0.3087
  617MPD2    C5 9142   1.628   4.627  14.140 -0.4917  0.0092  0.1446
  617MPD2     H 9143   1.618   4.277  14.298  1.5159  0.3457  1.0274
  617MPD2    H1 9144   1.425   4.602  14.086  0.5617 -1.1255 -2.7857
  617MPD2    H2 9145   1.831   4.640  14.188  0.9277 -1.3571 -2.3372
  617MPD2    H3 9146   1.633   0.005  14.103 -0.9217 -0.2791 -0.7042
  617MPD2     N 9147   1.378   4.373  14.197  0.9466 -0.0231  0.2629
  617MPD2    H5 9148   1.303   4.404  14.136  0.0781 -2.8895 -0.0949
  617MPD2    N1 9149   1.858   4.396  14.299 -0.2257 -0.3459 -0.1735
  617MPD2    H7 9150   1.933   4.464  14.306 -2.8674  2.5078  0.0330
  618TMC3    C1 9151   2.023   4.245  14.353 -0.2222  0.6338  0.2723
  618TMC3    C2 9152   2.083   4.134  14.307  0.7756 -0.2848 -0.3726
  618TMC3    C3 9153   2.216   4.118  14.346 -0.2475 -0.0798  0.1981
  618TMC3    C4 9154   2.089   4.339  14.432  0.1694 -0.2453 -0.1137
  618TMC3    C5 9155   2.224   4.315  14.470 -0.6690  0.2558  0.4180
  618TMC3    C6 9156   2.285   4.199  14.430 -0.5746 -0.1272 -0.0843
  618TMC3     C 9157   1.888   4.265  14.317  0.1525 -0.4201 -0.2566
  618TMC3     O 9158   1.821   4.162  14.301  0.6430  0.1983 -0.2600
  618TMC3     H 9159   2.035   4.071  14.233 -0.7317  0.2195  0.1600
  618TMC3    H1 9160   2.039   4.418  14.488  0.4647 -1.2252  1.5278
  618TMC3    H2 9161   2.384   4.171  14.466  0.4765  1.5756 -1.7045
  618TMC3    C7 9162   2.267   4.384  14.587  0.8951  0.1268  0.4977
  618TMC3    C8 9163   2.292   4.016  14.271 -0.5873  0.0905 -0.4675
  618TMC3    O1 9164   2.171   4.401  14.662  0.1412  0.2591 -0.5229
  618TMC3    O2 9165   2.219   3.921  14.257 -0.2894  0.1816 -0.0991
  619MPD2     C 9166   3.208   0.580  12.748  0.3567  0.6117  0.6142
  619MPD2    C1 9167   3.172   0.690  12.821 -0.1531 -0.1713 -0.4187
  619MPD2    C2 9168   3.057   0.684  12.902 -0.0135  0.0730 -0.6702
  619MPD2    C3 9169   2.986   0.566  12.921 -0.2211 -0.1664  0.4352
  619MPD2    C4 9170   3.025   0.457  12.846 -0.2910  0.3027  0.5058
  619MPD2    C5 9171   3.129   0.466  12.756  0.2540  0.0488 -0.0368
  619MPD2     H 9172   3.034   0.772  12.961  1.6558 -1.1667  1.7904
  619MPD2    H1 9173   2.975   0.362  12.857 -1.9005  1.2080  0.9522
  619MPD2    H2 9174   3.298   0.573  12.689 -0.3634  0.5322 -0.4864
  619MPD2    H3 9175   3.155   0.375  12.702  1.2949  0.6251 -0.4955
  619MPD2     N 9176   2.876   0.567  13.012 -0.3408  0.0843  0.1933
  619MPD2    H5 9177   2.836   0.475  13.022 -1.9851  0.7979  0.1595
  619MPD2    N1 9178   3.243   0.815  12.810 -0.9255 -0.1121 -0.3874
  619MPD2    H7 9179   3.213   0.885  12.877  1.1236  1.8938 -1.5353
  620TMC3    C1 9180   3.333   0.993  12.694 -0.3143  0.6958 -0.1254
  620TMC3    C2 9181   3.301   1.052  12.574 -0.1502 -0.5536  0.4774
  620TMC3    C3 9182   3.254   1.175  12.556 -0.4689  0.1054  0.1441
  620TMC3    C4 9183   3.300   1.066  12.800 -0.3775 -0.0454 -0.8048
  620TMC3    C5 9184   3.266   1.198  12.782 -0.8957 -0.7861  0.4486
  620TMC3    C6 9185   3.229   1.259  12.664 -0.4765  0.0131 -0.4321
  620TMC3     C 9186   3.323   0.854  12.703  0.1941 -0.4981 -0.8205
  620TMC3     O 9187   3.351   0.789  12.604  0.0076  0.4337 -0.1842
  620TMC3     H 9188   3.315   0.998  12.481  0.7320  0.7794 -0.1522
  620TMC3    H1 9189   3.318   1.032  12.901  0.8140  0.5967 -0.7889
  620TMC3    H2 9190   3.218   1.367  12.656  0.2883  0.1953  1.0494
  620TMC3    C7 9191   3.204   1.269  12.893 -0.9197 -0.1026 -0.0408
  620TMC3    C8 9192   3.147   1.181  12.464  0.3264  0.5743  0.2646
  620TMC3    O1 9193   3.140   1.376  12.874  0.2530 -0.8335  0.3134
  620TMC3    O2 9194   3.164   1.099  12.375  0.4081 -0.0989  0.2743
  621MPD2     C 9195   2.812   1.394  10.117  0.3738 -0.2643  0.5117
  621MPD2    C1 9196   2.897   1.287  10.086  0.6401  0.1570  0.3154
  621MPD2    C2 9197   3.029   1.320  10.053  0.3492 -0.0186 -0.1573
  621MPD2    C3 9198   3.082   1.441  10.052  0.8017 -0.2260  0.4660
  621MPD2    C4 9199   3.003   1.542  10.090  0.1148  0.3637 -0.3482
  621MPD2    C5 9200   2.871   1.521  10.131  0.3198 -0.6622  1.0605
  621MPD2     H 9201   3.093   1.242  10.012  0.1573 -0.6497  0.7524
  621MPD2    H1 9202   3.044   1.641  10.107 -0.2094  0.1782  1.5143
  621MPD2    H2 9203   2.713   1.380  10.158 -0.3959  0.0588 -1.2582
  621MPD2    H3 9204   2.815   1.603  10.173 -0.3305 -1.3841  1.5968
  621MPD2     N 9205   3.221   1.462  10.020  0.3317 -0.5325  0.1040
  621MPD2    H5 9206   3.275   1.376  10.023 -1.8882 -1.7517  3.7283
  621MPD2    N1 9207   2.860   1.148  10.097  0.8724  0.3539  0.8993
  621MPD2    H7 9208   2.935   1.085  10.071  0.7169 -1.5376  5.0678
  622TMC3    C1 9209   2.731   0.959  10.155  0.0787  0.1254 -0.3542
  622TMC3    C2 9210   2.635   0.926  10.250 -0.0902  0.2642  0.0010
  622TMC3    C3 9211   2.662   0.840  10.351  0.1408 -0.3345  0.4669
  622TMC3    C4 9212   2.847   0.886  10.145 -0.5705  0.4527  0.3873
  622TMC3    C5 9213   2.863   0.786  10.237  0.1141 -0.1512 -0.2029
  622TMC3    C6 9214   2.787   0.772  10.348  0.9493 -0.3380 -0.4679
  622TMC3     C 9215   2.739   1.100  10.140 -0.5537 -0.1257  0.3187
  622TMC3     O 9216   2.631   1.158  10.153 -0.0581  0.0622  0.0871
  622TMC3     H 9217   2.538   0.974  10.248  0.1902  0.8199 -0.3482
  622TMC3    H1 9218   2.921   0.910  10.070 -1.5000 -0.0515 -0.6895
  622TMC3    H2 9219   2.823   0.705  10.426 -0.3586 -0.6129 -0.1023
  622TMC3    C7 9220   2.988   0.720  10.231 -0.1011  0.4928  0.2417
  622TMC3    C8 9221   2.579   0.832  10.470 -0.0535 -0.3788 -0.4922
  622TMC3    O1 9222   3.031   0.676  10.337 -0.2194 -0.6496  0.0693
  622TMC3    O2 9223   2.588   0.729  10.540  0.1569 -0.1728  0.6171
  623MPD2     C 9224   2.286   1.352  16.090 -0.1568 -0.8861 -0.7960
  623MPD2    C1 9225   2.190   1.359  16.188 -0.2178  0.2358 -0.3996
  623MPD2    C2 9226   2.225   1.398  16.307 -0.3821 -0.2129 -0.4396
  623MPD2    C3 9227   2.351   1.438  16.333  0.3863 -0.1418  0.1099
  623MPD2    C4 9228   2.452   1.446  16.239  0.4093 -0.0818 -1.6764
  623MPD2    C5 9229   2.414   1.397  16.116  0.4140 -0.2242 -1.0100
  623MPD2     H 9230   2.155   1.406  16.389  0.6715 -0.4068  0.4731
  623MPD2    H1 9231   2.557   1.464  16.260 -0.6371  2.1851  1.6104
  623MPD2    H2 9232   2.253   1.333  15.989 -1.0200 -0.1022 -0.6602
  623MPD2    H3 9233   2.484   1.403  16.034  0.8202 -0.1595 -0.6640
  623MPD2     N 9234   2.378   1.475  16.464  0.3772  0.7063 -0.4153
  623MPD2    H5 9235   2.299   1.456  16.525  0.4797  1.5096 -0.0294
  623MPD2    N1 9236   2.057   1.319  16.189  0.6580 -0.0428 -0.6934
  623MPD2    H7 9237   2.004   1.333  16.275 -1.0002 -0.2313 -1.6891
  624TMC3    C1 9238   2.564   1.488  16.878  0.7181  0.0145  1.1639
  624TMC3    C2 9239   2.440   1.507  16.935 -0.0681 -0.1905 -0.0180
  624TMC3    C3 9240   2.333   1.553  16.853  1.0483  0.6915 -1.0163
  624TMC3    C4 9241   2.583   1.501  16.740  0.2546  0.1706 -0.4443
  624TMC3    C5 9242   2.469   1.533  16.662 -0.0290  0.4474  0.3920
  624TMC3    C6 9243   2.342   1.545  16.713 -0.5926  0.8169 -0.5742
  624TMC3     C 9244   2.675   1.443  16.959  0.1915  0.2932  0.2174
  624TMC3     O 9245   2.682   1.467  17.077 -0.0764 -0.2579 -0.8391
  624TMC3     H 9246   2.426   1.508  17.043  2.3911 -1.6313  0.3103
  624TMC3    H1 9247   2.681   1.508  16.694 -0.4733  1.8698 -1.7546
  624TMC3    H2 9248   2.267   1.589  16.648 -0.8974 -0.4310 -1.0573
  624TMC3    C7 9249   2.487   1.530  16.520  0.7182  0.2652  0.4727
  624TMC3    C8 9250   2.198   1.522  16.896 -0.4054 -0.1491  0.0602
  624TMC3    O1 9251   2.590   1.566  16.466 -0.0447 -0.1116 -0.3054
  624TMC3    O2 9252   2.136   1.455  16.811  0.0489 -0.6231  0.0703
  625MPD2     C 9253   2.563   2.418   1.128 -0.5137  0.0137 -0.7371
  625MPD2    C1 9254   2.614   2.505   1.043 -0.1704 -0.3559  0.1994
  625MPD2    C2 9255   2.749   2.517   1.021  0.0611 -0.4781  0.1247
  625MPD2    C3 9256   2.830   2.425   1.085  0.2182 -0.6550  0.0874
  625MPD2    C4 9257   2.770   2.330   1.169 -0.3411 -0.3856  0.5404
  625MPD2    C5 9258   2.641   2.341   1.202 -0.2896 -0.0559 -0.1743
  625MPD2     H 9259   2.791   2.588   0.951 -0.9730  0.1880  0.1764
  625MPD2    H1 9260   2.821   2.247   1.218 -1.1479 -1.2792 -0.1250
  625MPD2    H2 9261   2.455   2.415   1.142 -0.9278  2.8785 -3.5520
  625MPD2    H3 9262   2.602   2.273   1.277 -0.3678 -1.7820 -1.7695
  625MPD2     N 9263   2.971   2.428   1.068 -0.3565  0.4412 -0.0895
  625MPD2    H5 9264   3.008   2.507   1.016 -0.8805  0.4200 -0.4942
  625MPD2    N1 9265   2.520   2.601   0.990 -0.3111 -0.0657  0.1254
  625MPD2    H7 9266   2.421   2.587   1.011 -0.0509 -2.4742 -0.2625
  626TMC3    C1 9267   2.434   2.785   0.879  0.1484 -0.0624 -0.0684
  626TMC3    C2 9268   2.409   2.828   0.749 -0.9158  0.0956 -0.0953
  626TMC3    C3 9269   2.284   2.886   0.725 -0.6360  0.4055  0.9194
  626TMC3    C4 9270   2.339   2.782   0.977  0.2081 -0.1828  0.1525
  626TMC3    C5 9271   2.230   2.850   0.952 -0.3588  0.0869 -0.0512
  626TMC3    C6 9272   2.198   2.902   0.826 -0.3466  0.2940 -0.2099
  626TMC3     C 9273   2.550   2.705   0.903 -0.0742 -0.4561  0.1164
  626TMC3     O 9274   2.649   2.726   0.831 -0.9341  0.2103  0.2066
  626TMC3     H 9275   2.484   2.826   0.670 -1.3145 -1.0771 -0.4532
  626TMC3    H1 9276   2.369   2.750   1.076  0.6191  1.9235  0.7049
  626TMC3    H2 9277   2.112   2.969   0.824  0.5531  1.4008 -2.1661
  626TMC3    C7 9278   2.131   2.873   1.053 -0.3937 -0.6631  0.6409
  626TMC3    C8 9279   2.265   2.933   0.587  0.3706 -0.4030 -1.2056
  626TMC3    O1 9280   2.181   2.896   1.164 -0.0272 -0.0469 -1.0980
  626TMC3    O2 9281   2.356   2.989   0.531  0.8041  0.4182 -0.2962
  627MPD2     C 9282   1.411   2.753  14.436 -0.3347  1.0004 -0.2669
  627MPD2    C1 9283   1.293   2.814  14.469  0.3016 -0.5257  0.0699
  627MPD2    C2 9284   1.175   2.751  14.433 -1.2478  0.4198  0.0821
  627MPD2    C3 9285   1.175   2.616  14.390 -0.2843  0.3467  0.4038
  627MPD2    C4 9286   1.300   2.559  14.364 -0.1913 -0.0726 -0.4135
  627MPD2    C5 9287   1.412   2.627  14.386 -0.4481 -0.0031  0.2048
  627MPD2     H 9288   1.085   2.811  14.437 -0.5625  1.3342  1.6674
  627MPD2    H1 9289   1.310   2.455  14.335 -2.7768 -0.3270 -0.3496
  627MPD2    H2 9290   1.508   2.797  14.457  0.1524 -0.5664  0.7796
  627MPD2    H3 9291   1.512   2.586  14.374 -0.8936 -0.7175 -1.1180
  627MPD2     N 9292   1.051   2.552  14.384  0.2808 -0.0583  0.1107
  627MPD2    H5 9293   0.973   2.607  14.419 -0.9218 -0.5700 -1.6990
  627MPD2    N1 9294   1.282   2.946  14.524  0.9759 -0.8757 -0.1319
  627MPD2    H7 9295   1.187   2.979  14.539  1.4026  0.2432  0.1404
  628TMC3    C1 9296   1.325   3.160  14.604 -0.2380 -0.4445 -0.4566
  628TMC3    C2 9297   1.396   3.240  14.696 -0.0441  0.7810 -0.1128
  628TMC3    C3 9298   1.333   3.363  14.729 -0.5936  0.6120 -0.0927
  628TMC3    C4 9299   1.200   3.192  14.558  0.3048  0.1429  1.0375
  628TMC3    C5 9300   1.152   3.313  14.590  0.1697  0.2972  1.3707
  628TMC3    C6 9301   1.222   3.405  14.669  0.7063 -0.3499  0.3299
  628TMC3     C 9302   1.385   3.035  14.565  0.3674  0.8240  0.4307
  628TMC3     O 9303   1.508   3.020  14.558  0.7654  0.0940 -0.9019
  628TMC3     H 9304   1.486   3.202  14.742  1.3169 -0.1095 -3.5446
  628TMC3    H1 9305   1.150   3.140  14.476 -1.3908 -0.2426  2.3281
  628TMC3    H2 9306   1.170   3.487  14.716  0.0052 -0.1564 -0.7949
  628TMC3    C7 9307   1.041   3.359  14.510 -0.5607 -0.1557  0.1357
  628TMC3    C8 9308   1.392   3.463  14.821 -0.1359 -0.8932 -0.1234
  628TMC3    O1 9309   0.969   3.277  14.448  0.5511 -0.2311  0.1976
  628TMC3    O2 9310   1.351   3.581  14.811 -0.3684  0.1548 -0.1257
  629MPD2     C 9311   4.301   2.190  16.488 -0.2725 -0.2454  1.0931
  629MPD2    C1 9312   4.319   2.058  16.509 -0.1276  0.3281  0.6954
  629MPD2    C2 9313   4.211   1.979  16.545 -0.3384  0.0691  1.4651
  629MPD2    C3 9314   4.088   2.028  16.531 -0.5230 -0.4445 -0.1608
  629MPD2    C4 9315   4.071   2.158  16.504 -0.2125  0.4693  0.9832
  629MPD2    C5 9316   4.173   2.242  16.486 -0.5822 -0.4159  0.4114
  629MPD2     H 9317   4.213   1.877  16.582  0.4363  0.6314  2.9666
  629MPD2    H1 9318   3.979   2.213  16.491 -0.0098  1.0885  2.1962
  629MPD2    H2 9319   4.377   2.258  16.453  0.5941 -0.9703  1.5588
  629MPD2    H3 9320   4.169   2.348  16.463 -0.7270 -0.6587 -0.6596
  629MPD2     N 9321   3.986   1.939  16.546  0.2142  0.4939  0.3100
  629MPD2    H5 9322   4.016   1.847  16.579 -1.3983  0.3910  1.5039
  629MPD2    N1 9323   4.452   2.009  16.497  0.1220 -0.6874 -0.3123
  629MPD2    H7 9324   4.527   2.076  16.483  0.2140 -1.2943 -2.6118
  630TMC3    C1 9325   4.624   1.856  16.511 -0.0356 -0.0264  0.2315
  630TMC3    C2 9326   4.718   1.928  16.447 -0.1616  0.3510  0.0394
  630TMC3    C3 9327   0.121   1.870  16.438  0.3609  0.4329  0.5613
  630TMC3    C4 9328   4.645   1.724  16.556  0.0421  0.8282  0.5271
  630TMC3    C5 9329   0.054   1.687  16.574 -0.1925  0.1118 -0.6899
  630TMC3    C6 9330   0.150   1.752  16.500  0.3490  0.1987  0.4556
  630TMC3     C 9331   4.484   1.880  16.487  0.2348  0.0972 -0.7435
  630TMC3     O 9332   4.419   1.779  16.486 -0.1035 -0.6761  0.3725
  630TMC3     H 9333   4.711   2.022  16.394  0.3156 -0.0384 -0.7280
  630TMC3    H1 9334   4.566   1.684  16.619  0.8683 -0.4898  0.7225
  630TMC3    H2 9335   0.255   1.727  16.488 -0.4505 -3.0391  0.2877
  630TMC3    C7 9336   0.086   1.635  16.704 -0.1109 -0.5848 -0.5114
  630TMC3    C8 9337   0.230   1.962  16.461 -0.0533 -0.4506  0.1292
  630TMC3    O1 9338   0.004   1.564  16.765 -0.3695  0.2000 -0.2209
  630TMC3    O2 9339   0.291   1.931  16.566 -0.8962 -0.1271 -0.8231
  631MPD2     C 9340   2.429   1.895  15.903  0.6623  0.3435  0.5114
  631MPD2    C1 9341   2.514   1.893  15.796 -0.3357 -0.3470 -0.2204
  631MPD2    C2 9342   2.624   1.813  15.796  0.4050  0.1136 -0.3264
  631MPD2    C3 9343   2.646   1.728  15.902  1.0779  0.7905  0.5954
  631MPD2    C4 9344   2.562   1.731  16.007  0.7180  0.7407  0.0087
  631MPD2    C5 9345   2.449   1.802  16.000 -0.1476  0.0746 -0.1219
  631MPD2     H 9346   2.694   1.830  15.715  1.5989  3.5058  1.4061
  631MPD2    H1 9347   2.574   1.657  16.086  0.6295 -0.8382 -1.4736
  631MPD2    H2 9348   2.335   1.949  15.912  0.5003  0.5559 -2.3017
  631MPD2    H3 9349   2.385   1.807  16.087  2.5871 -1.1021  1.9677
  631MPD2     N 9350   2.761   1.645  15.887 -0.3020  0.0630 -0.0089
  631MPD2    H5 9351   2.816   1.664  15.804 -0.8841  2.0239  0.0579
  631MPD2    N1 9352   2.490   2.002  15.707 -0.8417  0.5519 -0.7754
  631MPD2    H7 9353   2.421   2.071  15.736 -1.4787 -0.0449 -0.8769
  632TMC3    C1 9354   2.485   2.116  15.500 -0.0511 -0.8702  0.4905
  632TMC3    C2 9355   2.376   2.182  15.552 -0.7221 -1.0425  0.1890
  632TMC3    C3 9356   2.288   2.227  15.457 -0.0261 -0.6536  0.5283
  632TMC3    C4 9357   2.494   2.071  15.372 -0.5284 -0.6115 -0.0654
  632TMC3    C5 9358   2.390   2.100  15.294 -0.5678  0.7061 -0.1923
  632TMC3    C6 9359   2.297   2.187  15.328  0.6356 -0.5304  0.1750
  632TMC3     C 9360   2.542   2.010  15.579 -0.5531  0.6070 -0.2242
  632TMC3     O 9361   2.632   1.942  15.531 -0.3677  0.2834  0.2562
  632TMC3     H 9362   2.379   2.242  15.642 -1.0812 -1.2379  0.3313
  632TMC3    H1 9363   2.581   2.023  15.331  0.0922 -1.5232  2.3015
  632TMC3    H2 9364   2.223   2.217  15.254  0.0240 -0.2725  0.8901
  632TMC3    C7 9365   2.390   2.045  15.162 -0.5272 -0.1648 -0.1448
  632TMC3    C8 9366   2.159   2.253  15.517  0.4951 -0.7395  0.2958
  632TMC3    O1 9367   2.332   2.109  15.072 -0.3819 -0.2084 -0.0058
  632TMC3    O2 9368   2.158   2.238  15.640  0.2136  0.4680  0.0731
  633MPD2     C 9369   2.442   4.356  17.527  0.4481 -0.2490  0.1317
  633MPD2    C1 9370   2.454   4.286  17.401 -0.0755 -0.6775  0.3202
  633MPD2    C2 9371   2.454   4.149  17.395 -0.0836  0.0650 -1.1200
  633MPD2    C3 9372   2.438   4.073  17.515 -0.2868 -0.3871 -0.1371
  633MPD2    C4 9373   2.441   4.147  17.632  1.2973 -0.3886 -0.0820
  633MPD2    C5 9374   2.442   4.284  17.639  0.4267  0.1328  0.1276
  633MPD2     H 9375   2.462   4.095  17.301 -1.4022 -2.2237  0.1017
  633MPD2    H1 9376   2.437   4.107   0.037 -1.0577  1.9991  0.7849
  633MPD2    H2 9377   2.442   4.464  17.536  0.2281 -0.2616  0.2902
  633MPD2    H3 9378   2.431   4.337   0.037  1.3101  0.5899 -0.0234
  633MPD2     N 9379   2.442   3.933  17.501 -0.3809 -0.7872 -0.0135
  633MPD2    H5 9380   2.437   3.901  17.405 -0.3708 -0.2910 -0.1792
  633MPD2    N1 9381   2.458   4.356  17.278  0.0557  0.2759  0.1637
  633MPD2    H7 9382   2.448   4.299  17.195 -0.1935  0.4998  0.0428
  634TMC3    C1 9383   2.467   4.515  17.120  0.3155  0.0146  1.3840
  634TMC3    C2 9384   2.478   4.411  17.028  0.2924 -0.2355  0.0511
  634TMC3    C3 9385   2.494   4.444  16.900  0.1912  0.1641  0.2027
  634TMC3    C4 9386   2.481   4.643  17.082  0.6113 -0.8663 -0.4046
  634TMC3    C5 9387   2.510   4.663  16.949 -0.8690  0.5433  0.7245
  634TMC3    C6 9388   2.524   4.567  16.859 -0.8073 -0.1165 -0.9107
  634TMC3     C 9389   2.456   4.490  17.262 -1.2118  0.4054 -0.4568
  634TMC3     O 9390   2.455   4.583  17.339 -0.4041  0.2153  0.2164
  634TMC3     H 9391   2.473   4.305  17.050  0.0127 -0.8439 -2.9699
  634TMC3    H1 9392   2.472   4.720  17.158 -1.9357 -2.5514  0.9974
  634TMC3    H2 9393   2.564   4.591  16.761  1.0537  2.0981  0.4136
  634TMC3    C7 9394   2.498   0.072  16.887  0.9312 -0.0908 -0.3979
  634TMC3    C8 9395   2.521   4.340  16.809 -0.0507  0.5815  0.5519
  634TMC3    O1 9396   2.550   0.105  16.782 -0.3122  0.2922  0.2015
  634TMC3    O2 9397   2.545   4.228  16.849  0.0270 -0.2538 -0.2225
  635TMC3    C1 9398   2.417   0.278   0.339  0.3450 -0.7558 -0.3575
  635TMC3    C2 9399   2.397   0.209   0.457 -0.0807 -0.3865  0.6084
  635TMC3    C3 9400   2.417   0.073   0.465 -0.0174  0.4173 -0.7996
  635TMC3    C4 9401   2.453   0.203   0.230  0.6636 -0.2050 -0.0112
  635TMC3    C5 9402   2.476   0.069   0.243  0.5985 -0.0376  0.1443
  635TMC3    C6 9403   2.453   4.720   0.357  0.3489  0.6105  0.7555
  635TMC3     C 9404   2.377   0.413   0.336  1.0337 -0.0888 -0.0654
  635TMC3     O 9405   2.349   0.464   0.445 -0.2118  0.3037  0.1954
  635TMC3     H 9406   2.373   0.260   0.549 -1.7392 -0.4913  0.2334
  635TMC3    H1 9407   2.470   0.245   0.131  0.1268 -1.0891 -0.4822
  635TMC3    H2 9408   2.457   4.612   0.363 -3.6393  0.3938 -0.0303
  635TMC3    C7 9409   2.522   0.004   0.126  0.5590  0.1074 -0.9108
  635TMC3    C8 9410   2.417   0.003   0.590  0.4815  0.0773  0.1237
  635TMC3    O1 9411   2.481   4.612   0.106  0.4863 -0.4543 -0.3448
  635TMC3    O2 9412   2.447   4.610   0.586 -0.1349 -0.2137 -0.2741
  636MPD2     C 9413   3.802   0.699  15.886 -0.6435 -0.5791  0.2097
  636MPD2    C1 9414   3.737   0.662  15.998 -0.8071  0.0487  0.0594
  636MPD2    C2 9415   3.748   0.532  16.039 -0.4583 -0.8357 -0.4808
  636MPD2    C3 9416   3.824   0.441  15.973 -0.2937 -0.0785 -0.0907
  636MPD2    C4 9417   3.899   0.484  15.871  0.3389 -0.0163 -0.0993
  636MPD2    C5 9418   3.893   0.607  15.829 -0.1451  0.3700  0.6988
  636MPD2     H 9419   3.683   0.507  16.122 -0.4567  0.0221 -0.2276
  636MPD2    H1 9420   3.973   0.417  15.829  0.6053  0.9931 -1.2326
  636MPD2    H2 9421   3.811   0.801  15.850  1.4539 -0.8872 -0.1743
  636MPD2    H3 9422   3.967   0.635  15.755  0.4665  0.1349  1.2196
  636MPD2     N 9423   3.809   0.304  16.010  0.2677 -0.4090  0.0552
  636MPD2    H5 9424   3.745   0.292  16.088 -0.5364 -0.5177 -0.6272
  636MPD2    N1 9425   3.660   0.750  16.074 -0.2002  0.4403  0.3697
  636MPD2    H7 9426   3.619   0.716  16.160 -1.6326 -1.3063 -0.9881
  637TMC3    C1 9427   3.861   0.070  16.016  0.1505 -0.2323  0.1932
  637TMC3    C2 9428   3.806   0.057  16.143  0.3471  0.1180 -0.1450
  637TMC3    C3 9429   3.785   4.656  16.191  0.3165 -0.5168 -0.2450
  637TMC3    C4 9430   3.892   4.684  15.936 -0.1044  0.0290  0.3565
  637TMC3    C5 9431   3.856   4.563  15.978  0.1633 -0.4006  0.8817
  637TMC3    C6 9432   3.806   4.553  16.104  0.2585 -0.0028  0.0696
  637TMC3     C 9433   3.880   0.202  15.951 -0.9552 -0.3990  0.8277
  637TMC3     O 9434   3.963   0.196  15.865 -0.0117  0.3708  0.3705
  637TMC3     H 9435   3.793   0.140  16.211 -1.0664  0.3606 -0.7243
  637TMC3    H1 9436   3.923   4.691  15.833  0.1044  0.5175  0.4542
  637TMC3    H2 9437   3.746   4.464  16.121  1.2034 -0.3848  1.4508
  637TMC3    C7 9438   3.942   4.450  15.961 -0.2899  0.4903  0.4939
  637TMC3    C8 9439   3.879   4.636  16.300  0.2712  0.1044  0.7038
  637TMC3    O1 9440   3.890   4.338  15.954 -0.3134  0.2216 -0.0853
  637TMC3    O2 9441   3.961   0.003  16.317 -0.4579  0.2246 -0.1812
  638MPD2     C 9442   3.334   3.661  15.359 -0.2432 -0.8129 -0.2084
  638MPD2    C1 9443   3.270   3.570  15.280 -0.0698 -0.2180 -0.2960
  638MPD2    C2 9444   3.250   3.439  15.322  0.0125  0.1462  0.7159
  638MPD2    C3 9445   3.293   3.407  15.450  0.2756  0.1812  0.1341
  638MPD2    C4 9446   3.356   3.497  15.531 -0.6021  0.2076  0.2352
  638MPD2    C5 9447   3.374   3.626  15.489  0.0581 -0.5465  0.3906
  638MPD2     H 9448   3.201   3.366  15.258 -0.8809  1.6277 -0.2773
  638MPD2    H1 9449   3.395   3.471  15.629  1.3404 -2.1949 -1.1949
  638MPD2    H2 9450   3.369   3.755  15.318  0.1941 -1.0691 -0.4216
  638MPD2    H3 9451   3.419   3.693  15.560  0.6007 -0.7374  0.2306
  638MPD2     N 9452   3.273   3.272  15.492  0.1061  0.3007  0.3809
  638MPD2    H5 9453   3.213   3.215  15.433 -0.3266 -1.4851  2.5365
  638MPD2    N1 9454   3.247   3.602  15.145 -0.4358 -0.1292  0.0129
  638MPD2    H7 9455   3.285   3.684  15.098 -0.7420  1.1529  1.9758
  639TMC3    C1 9456   3.323   3.064  15.562  0.8631  0.5980  0.8435
  639TMC3    C2 9457   3.233   3.011  15.467 -0.5113  0.5319 -0.2030
  639TMC3    C3 9458   3.257   2.885  15.405  0.2563 -1.0373 -0.4016
  639TMC3    C4 9459   3.435   2.988  15.593  0.3739  0.5157  0.5480
  639TMC3    C5 9460   3.459   2.871  15.525  0.7882 -0.8144  0.5922
  639TMC3    C6 9461   3.381   2.827  15.423 -0.0850 -0.2539  0.0410
  639TMC3     C 9462   3.331   3.206  15.600 -0.0643 -0.0333 -0.0093
  639TMC3     O 9463   3.412   3.247  15.677  0.6462 -0.7125 -0.0255
  639TMC3     H 9464   3.144   3.066  15.436  0.2870  1.1643 -1.3466
  639TMC3    H1 9465   3.501   3.023  15.672 -1.1016  2.2488  0.9998
  639TMC3    H2 9466   3.421   2.745  15.364  2.6353  0.9008  0.2678
  639TMC3    C7 9467   3.578   2.794  15.547 -0.5109 -0.1773 -0.6383
  639TMC3    C8 9468   3.176   2.824  15.301 -1.0762  0.7332 -0.4495
  639TMC3    O1 9469   3.591   2.679  15.514  0.4461  0.6824 -0.2707
  639TMC3    O2 9470   3.228   2.753  15.216  0.1215  0.0468 -0.0937
  640MPD2     C 9471   3.525   1.612   9.642 -0.1748 -0.3096  0.3005
  640MPD2    C1 9472   3.607   1.726   9.646  0.4842 -0.3960  0.0915
  640MPD2    C2 9473   3.549   1.847   9.682  0.1279 -0.5000  0.6026
  640MPD2    C3 9474   3.412   1.862   9.686  0.4766  0.5922  0.4676
  640MPD2    C4 9475   3.331   1.750   9.672  0.4623  0.0702 -0.3830
  640MPD2    C5 9476   3.393   1.632   9.663  0.3876 -0.2637  1.2029
  640MPD2     H 9477   3.607   1.935   9.704 -1.7684  0.9807 -0.3110
  640MPD2    H1 9478   3.224   1.760   9.688  0.6288  1.0039  0.1626
  640MPD2    H2 9479   3.563   1.511   9.647 -2.9697 -1.3413  1.1008
  640MPD2    H3 9480   3.326   1.547   9.662  0.5539 -0.3824 -0.0534
  640MPD2     N 9481   3.349   1.979   9.728 -0.2967 -0.4427 -0.9271
  640MPD2    H5 9482   3.248   1.981   9.724 -0.2466 -1.2139 -2.3972
  640MPD2    N1 9483   3.745   1.703   9.639 -0.1287 -0.0897 -0.7821
  640MPD2    H7 9484   3.777   1.607   9.636  1.2101  0.2837  2.3736
  641TMC3    C1 9485   3.967   1.777   9.638 -0.1087 -0.4816  0.6148
  641TMC3    C2 9486   4.003   1.680   9.728  0.0128  0.0456 -0.6293
  641TMC3    C3 9487   4.131   1.628   9.728  0.5029 -0.1850  0.7011
  641TMC3    C4 9488   4.053   1.831   9.549  0.2816 -0.3573  0.6205
  641TMC3    C5 9489   4.180   1.792   9.569 -0.6084  0.4567  0.1437
  641TMC3    C6 9490   4.224   1.697   9.654 -0.0198  0.0005 -0.3174
  641TMC3     C 9491   3.826   1.813   9.623 -0.3198  0.5187  0.0532
  641TMC3     O 9492   3.803   1.926   9.583  0.6390  0.0355  0.2796
  641TMC3     H 9493   3.931   1.652   9.803  1.0154  2.3859  1.2124
  641TMC3    H1 9494   4.018   1.902   9.476  0.4857 -1.2115 -0.3125
  641TMC3    H2 9495   4.330   1.686   9.669  0.0448 -1.3156 -1.7571
  641TMC3    C7 9496   4.281   1.871   9.497  0.4342  0.5383  0.4116
  641TMC3    C8 9497   4.180   1.554   9.845  0.0743  0.2597 -0.3922
  641TMC3    O1 9498   4.396   1.868   9.535 -0.0366  0.1326 -0.5525
  641TMC3    O2 9499   4.108   1.556   9.944  0.0129  0.2280 -0.3454
  642TMC3    C1 9500   0.377   3.195  12.516  0.3954 -0.0633 -0.2732
  642TMC3    C2 9501   0.496   3.251  12.474 -0.0162  0.7521  0.7202
  642TMC3    C3 9502   0.575   3.170  12.398 -0.2975  0.0441  0.0787
  642TMC3    C4 9503   0.355   3.061  12.514  0.2937 -0.0218 -0.2891
  642TMC3    C5 9504   0.443   2.983  12.450 -0.4985 -0.4146  0.4701
  642TMC3    C6 9505   0.551   3.039  12.380  0.0529 -0.7515  0.2143
  642TMC3     C 9506   0.264   3.279  12.567  0.4381 -0.3930 -0.7448
  642TMC3     O 9507   0.163   3.221  12.599  0.2924  0.7868  0.8268
  642TMC3     H 9508   0.521   3.355  12.494  3.7913 -0.7474  3.9037
  642TMC3    H1 9509   0.255   3.030  12.542 -0.2513 -0.7341 -2.9928
  642TMC3    H2 9510   0.603   2.975  12.310  0.3382  1.2828 -1.4170
  642TMC3    C7 9511   0.401   2.851  12.406  0.2556  0.1688 -0.8998
  642TMC3    C8 9512   0.696   3.221  12.336 -0.5173 -0.1837  0.6142
  642TMC3    O1 9513   0.441   2.823  12.294 -0.3692 -0.0139 -0.0395
  642TMC3    O2 9514   0.774   3.139  12.291  0.2318 -0.2686 -0.0321
  643TMC3    C1 9515   4.225   2.249   0.496 -0.1061  0.0951 -0.5305
  643TMC3    C2 9516   4.146   2.220   0.388  0.3070  0.2887  0.2685
  643TMC3    C3 9517   4.201   2.158   0.281  0.6689 -0.3956 -0.5159
  643TMC3    C4 9518   4.363   2.217   0.494  0.4948  0.0261  0.7660
  643TMC3    C5 9519   4.411   2.147   0.381  0.1807 -1.0644 -0.1786
  643TMC3    C6 9520   4.329   2.123   0.275  0.0150  0.6702 -0.4581
  643TMC3     C 9521   4.179   2.335   0.599  0.2656  0.2777 -0.1856
  643TMC3     O 9522   4.083   2.409   0.577 -0.0078 -0.7588  0.2412
  643TMC3     H 9523   4.040   2.242   0.387  0.5039  1.1070 -2.7097
  643TMC3    H1 9524   4.431   2.262   0.566  0.9859 -1.9121  1.5162
  643TMC3    H2 9525   4.367   2.085   0.181 -1.3319 -1.3154 -0.2025
  643TMC3    C7 9526   4.546   2.193   0.343  0.2819 -0.5000 -0.5389
  643TMC3    C8 9527   4.146   2.201   0.157 -0.1853 -0.5401  0.0928
  643TMC3    O1 9528   4.580   2.297   0.397 -0.0769  0.3287  0.2876
  643TMC3    O2 9529   4.134   2.120   0.067  0.0750  0.2083  0.2110
  644MPD2     C 9530   3.755   2.742   9.087 -0.3278  0.5190  0.1935
  644MPD2    C1 9531   3.766   2.607   9.121 -0.0162  0.4711  0.1301
  644MPD2    C2 9532   3.656   2.523   9.101  0.2087 -0.1774 -0.2883
  644MPD2    C3 9533   3.538   2.575   9.047  0.3028 -0.4029 -0.2366
  644MPD2    C4 9534   3.533   2.711   9.005 -0.3701 -0.1143  0.3941
  644MPD2    C5 9535   3.644   2.788   9.024 -0.6567  0.4211 -0.8258
  644MPD2     H 9536   3.650   2.420   9.134  3.0911 -0.0393  0.6551
  644MPD2    H1 9537   3.447   2.768   8.971  0.1651 -0.3255 -1.2889
  644MPD2    H2 9538   3.833   2.817   9.101 -0.6924  0.7354  1.0485
  644MPD2    H3 9539   3.635   2.892   8.996 -0.1944  0.4764 -0.7667
  644MPD2     N 9540   3.427   2.493   9.045 -0.3699  0.5113  0.4467
  644MPD2    H5 9541   3.464   2.399   9.045  0.3349  0.7874  0.5097
  644MPD2    N1 9542   3.883   2.566   9.191  0.6561 -0.5811 -0.3359
  644MPD2    H7 9543   3.947   2.641   9.215 -0.2393 -1.1879  4.0337
  645TMC3    C1 9544   3.206   2.412   9.039 -0.9758 -0.4482  0.6643
  645TMC3    C2 9545   3.079   2.439   9.087 -0.2426 -0.2930 -0.9661
  645TMC3    C3 9546   2.989   2.339   9.098  0.2178 -0.1510  0.4581
  645TMC3    C4 9547   3.242   2.284   8.991 -0.4723 -0.0887 -0.1331
  645TMC3    C5 9548   3.149   2.190   9.010 -0.1841  0.4605  0.6060
  645TMC3    C6 9549   3.020   2.213   9.053 -0.6282  0.1591  0.3655
  645TMC3     C 9550   3.296   2.524   9.027 -0.2878  0.1465  0.2308
  645TMC3     O 9551   3.247   2.633   9.036  0.2015 -0.3244 -0.0843
  645TMC3     H 9552   3.054   2.540   9.119  0.5918 -0.6187  0.6899
  645TMC3    H1 9553   3.340   2.263   8.951 -0.9897 -1.4184 -0.7086
  645TMC3    H2 9554   2.943   2.138   9.042 -0.6653 -0.0044  1.7060
  645TMC3    C7 9555   3.192   2.056   8.974 -0.3530 -0.5166  0.5707
  645TMC3    C8 9556   2.851   2.379   9.136 -0.3442  0.8183  0.1276
  645TMC3    O1 9557   3.274   2.039   8.880  0.2895  0.2925 -0.9126
  645TMC3    O2 9558   2.821   2.496   9.140 -0.2106  0.0239  0.4960
  646MPD2     C 9559   3.163   1.912  14.581 -0.2315 -0.6215  0.3321
  646MPD2    C1 9560   3.188   1.991  14.692 -0.5084 -0.2738  0.5462
  646MPD2    C2 9561   3.124   2.118  14.705 -0.0164 -0.1131 -0.0879
  646MPD2    C3 9562   3.032   2.146  14.606  0.1120  0.3465  0.5145
  646MPD2    C4 9563   2.997   2.056  14.503 -0.4414 -0.5356  0.2702
  646MPD2    C5 9564   3.071   1.942  14.485 -0.6769  0.3607  0.1802
  646MPD2     H 9565   3.135   2.188  14.786  2.2790  0.3805 -0.8205
  646MPD2    H1 9566   2.920   2.074  14.429 -0.1721 -0.3476  0.0333
  646MPD2    H2 9567   3.220   1.820  14.572  0.9020  0.1019  0.1700
  646MPD2    H3 9568   3.058   1.871  14.405 -1.5275  0.9635 -0.2236
  646MPD2     N 9569   2.983   2.273  14.611  0.7508 -0.1285  0.3346
  646MPD2    H5 9570   3.030   2.342  14.669 -0.5735  1.6857 -0.7339
  646MPD2    N1 9571   3.293   1.948  14.779  0.0196 -0.4272  0.2797
  646MPD2    H7 9572   3.344   1.865  14.748  0.6177  0.8849 -2.2067
  647TMC3    C1 9573   3.424   1.918  14.964  0.0820 -0.1327 -0.8095
  647TMC3    C2 9574   3.422   1.921  15.097  0.2267 -0.8430 -1.3441
  647TMC3    C3 9575   3.494   1.835  15.170  0.1074  0.2979  0.8345
  647TMC3    C4 9576   3.512   1.842  14.896 -0.3671  0.2396 -0.2944
  647TMC3    C5 9577   3.592   1.753  14.972 -0.5979  0.5271  0.8762
  647TMC3    C6 9578   3.589   1.755  15.107  0.6160 -0.3668  0.3419
  647TMC3     C 9579   3.336   2.008  14.891 -0.0001  0.3198  0.1457
  647TMC3     O 9580   3.298   2.106  14.949 -0.2385 -0.1684  0.5373
  647TMC3     H 9581   3.339   1.978  15.138  3.1883  3.5406 -1.5015
  647TMC3    H1 9582   3.520   1.847  14.788 -1.6348 -2.2766 -0.5116
  647TMC3    H2 9583   3.643   1.677  15.159  2.4924  1.0764  0.5756
  647TMC3    C7 9584   3.683   1.654  14.915 -0.0609  0.0419  0.0956
  647TMC3    C8 9585   3.457   1.816  15.306  0.0747 -0.5204  0.2741
  647TMC3    O1 9586   3.760   1.599  14.994 -0.6877  0.2782 -0.5993
  647TMC3    O2 9587   3.336   1.829  15.332  0.3808  0.5043  0.4689
  648TMC3    C1 9588   2.976   4.539  16.258  0.4266 -0.1546 -0.1705
  648TMC3    C2 9589   2.938   4.420  16.193 -0.2450 -0.1551  0.6693
  648TMC3    C3 9590   2.951   4.417  16.061  0.1322 -0.3279  0.5973
  648TMC3    C4 9591   3.011   4.649  16.193  0.0827  0.1087 -0.0555
  648TMC3    C5 9592   3.000   4.645  16.056 -0.7972 -0.3402  0.3751
  648TMC3    C6 9593   2.988   4.528  15.988 -0.5906  0.7000 -0.1783
  648TMC3     C 9594   2.972   4.554  16.398 -0.1894 -0.2584 -0.4307
  648TMC3     O 9595   3.010   4.657  16.456 -0.4117 -0.3251  0.3706
  648TMC3     H 9596   2.916   4.325  16.241  0.0650 -0.9078 -0.6635
  648TMC3    H1 9597   3.038   0.019  16.242  0.8472  0.2355 -0.7185
  648TMC3    H2 9598   2.997   4.527  15.880  1.0573 -1.1928 -0.0338
  648TMC3    C7 9599   2.982   0.043  15.980  0.1954  0.0603 -0.2493
  648TMC3    C8 9600   2.974   4.287  16.002  0.3979  0.5217 -0.5667
  648TMC3    O1 9601   3.036   0.053  15.871 -0.6682 -0.6274 -0.0182
  648TMC3    O2 9602   2.896   4.197  16.036  0.1911  0.1810 -0.0067
  649TMC3    C1 9603   1.951   1.172  13.205  0.3782 -0.1358 -0.7954
  649TMC3    C2 9604   2.062   1.173  13.130 -0.7199  0.1408 -0.1205
  649TMC3    C3 9605   2.121   1.051  13.107  0.3253  0.7601  0.1090
  649TMC3    C4 9606   1.912   1.070  13.286 -0.3358 -0.5931  0.8481
  649TMC3    C5 9607   1.977   0.953  13.261  0.1979  0.2811 -0.1851
  649TMC3    C6 9608   2.078   0.946  13.174  0.1989 -0.3740  0.1697
  649TMC3     C 9609   1.855   1.275  13.176  0.3427 -0.1701 -0.5893
  649TMC3     O 9610   1.784   1.311  13.270 -0.0963  0.3467  0.1007
  649TMC3     H 9611   2.108   1.261  13.089  0.1841 -0.6371 -0.7836
  649TMC3    H1 9612   1.820   1.069  13.343 -0.0175  0.9376  1.3983
  649TMC3    H2 9613   2.149   0.865  13.186 -0.5189 -0.8231  1.3140
  649TMC3    C7 9614   1.951   0.840  13.351  0.3258  1.0145 -0.1357
  649TMC3    C8 9615   2.235   1.037  13.024  0.2770 -0.2150 -0.6459
  649TMC3    O1 9616   1.903   0.866  13.461  0.2665  0.1101  0.0213
  649TMC3    O2 9617   2.256   0.928  12.974 -0.0487  0.4634 -0.3343
  650TMC3    C1 9618   4.472   2.324  12.487  0.1775 -0.2973  0.4323
  650TMC3    C2 9619   4.427   2.437  12.531 -0.7227  0.5244  0.5642
  650TMC3    C3 9620   4.434   2.547  12.448 -0.1339 -0.3044 -0.0233
  650TMC3    C4 9621   4.524   2.316  12.358  0.0261  0.0052  0.5448
  650TMC3    C5 9622   4.517   2.424  12.275  0.0986  0.3121  0.5855
  650TMC3    C6 9623   4.478   2.544  12.319  0.6108 -0.2343 -0.2293
  650TMC3     C 9624   4.500   2.220  12.581  0.0825 -0.2886 -0.2115
  650TMC3     O 9625   4.539   2.267  12.689 -0.9105 -0.2559 -0.4428
  650TMC3     H 9626   4.372   2.437  12.624 -0.2731 -3.0906  0.8008
  650TMC3    H1 9627   4.567   2.228  12.312 -1.1252 -1.0228  1.4181
  650TMC3    H2 9628   4.443   2.616  12.246 -3.5869 -0.6936  1.3162
  650TMC3    C7 9629   4.534   2.397  12.135 -0.1098  0.0247 -0.4044
  650TMC3    C8 9630   4.370   2.664  12.495  0.2178 -0.3206  0.0537
  650TMC3    O1 9631   4.501   2.284  12.092  0.0616 -0.0618 -0.3489
  650TMC3    O2 9632   4.407   2.770  12.444 -0.1692  0.1351  0.3074
  651MPD2     C 9633   3.553   4.056  11.204 -0.3695 -0.0528  0.2952
  651MPD2    C1 9634   3.503   4.169  11.132 -0.0215 -0.7705  0.6603
  651MPD2    C2 9635   3.554   4.200  11.010 -0.1036 -0.1726  0.5826
  651MPD2    C3 9636   3.657   4.117  10.954 -0.6524  0.4988  0.1078
  651MPD2    C4 9637   3.707   4.008  11.028  0.2333  0.2548  0.8753
  651MPD2    C5 9638   3.661   3.986  11.155 -0.2222 -0.2017  0.0134
  651MPD2     H 9639   3.515   4.286  10.957 -1.8911 -2.3778 -1.6674
  651MPD2    H1 9640   3.792   3.949  10.996 -2.3412 -3.1631  0.3236
  651MPD2    H2 9641   3.521   4.018  11.300 -0.9917 -2.3471 -0.8119
  651MPD2    H3 9642   3.693   3.903  11.218  2.0278 -0.2232 -1.1249
  651MPD2     N 9643   3.691   4.144  10.825  0.5244 -0.1332 -0.0274
  651MPD2    H5 9644   3.659   4.233  10.786  0.1035 -0.7264 -1.0403
  651MPD2    N1 9645   3.404   4.259  11.181  0.4441 -0.3332 -0.5580
  651MPD2    H7 9646   3.363   4.334  11.127  0.3235 -0.4196 -0.5866
  652TMC3    C1 9647   3.918   4.225  10.460 -0.1514  0.0641 -0.3252
  652TMC3    C2 9648   3.897   4.136  10.555  0.3822  0.0682  0.0954
  652TMC3    C3 9649   3.772   4.129  10.618 -0.4118 -0.8647  0.3098
  652TMC3    C4 9650   3.817   4.304  10.410  0.0507  0.5856  0.1652
  652TMC3    C5 9651   3.692   4.289  10.474 -0.1954 -0.1148  0.1759
  652TMC3    C6 9652   3.662   4.200  10.575 -0.0280  0.9388 -0.0059
  652TMC3     C 9653   4.043   4.288  10.461  0.3766 -0.4865  0.2387
  652TMC3     O 9654   4.113   4.252  10.553  0.1880 -0.3051 -0.2663
  652TMC3     H 9655   3.980   4.081  10.596 -0.1981 -0.8262  0.0660
  652TMC3    H1 9656   3.832   4.388  10.343  0.3154 -2.4520 -3.5406
  652TMC3    H2 9657   3.562   4.187  10.615  0.2661 -0.6263  0.2375
  652TMC3    C7 9658   3.584   4.389  10.455  0.0024  0.4671 -0.1123
  652TMC3    C8 9659   3.768   4.066  10.744 -0.1056 -0.2534  0.3123
  652TMC3    O1 9660   3.478   4.337  10.421 -0.1719  0.1214 -0.1301
  652TMC3    O2 9661   3.836   3.967  10.771 -0.3608  0.6985 -0.2155
  653MPD2     C 9662   2.191   0.048  17.592 -0.4308 -1.2016  0.1146
  653MPD2    C1 9663   2.063   0.091  17.570  0.0336 -0.1526 -1.2305
  653MPD2    C2 9664   1.974   0.022  17.491 -0.4489 -0.0455  0.6319
  653MPD2    C3 9665   2.022   4.635  17.427 -0.7536  0.2941  0.2212
  653MPD2    C4 9666   2.151   4.583  17.461  0.0800  0.1317 -0.0116
  653MPD2    C5 9667   2.232   4.658  17.538 -0.0397  0.0192  0.4079
  653MPD2     H 9668   1.871   0.048  17.470 -0.1779  1.7210  1.5111
  653MPD2    H1 9669   2.198   4.489  17.435  1.2457  0.9500 -0.8924
  653MPD2    H2 9670   2.250   0.105  17.663  1.1832 -2.5987 -0.1181
  653MPD2    H3 9671   2.330   4.618  17.565 -0.0140 -0.7085 -0.7292
  653MPD2     N 9672   1.928   4.554  17.357 -0.0506  0.6590  0.0232
  653MPD2    H5 9673   1.831   4.581  17.355 -0.5645 -1.0053  2.4848
  653MPD2    N1 9674   2.017   0.217  17.626  1.0709  0.0406  0.4582
  653MPD2    H7 9675   1.935   0.256  17.581  0.4645  0.3596  1.8368
  654TMC3    C1 9676   1.841   4.385  17.234  0.0653 -0.2621  1.1059
  654TMC3    C2 9677   1.752   4.470  17.172  0.7170  0.5602 -0.0147
  654TMC3    C3 9678   1.677   4.418  17.070  0.5228  0.9165  0.7393
  654TMC3    C4 9679   1.845   4.253  17.195  0.3897  0.3167  0.3023
  654TMC3    C5 9680   1.771   4.206  17.086  0.0800 -0.6337 -0.1550
  654TMC3    C6 9681   1.690   4.293  17.021  0.3320 -0.2320  0.3363
  654TMC3     C 9682   1.959   4.438  17.297  0.6405 -0.5122  0.5060
  654TMC3     O 9683   2.057   4.366  17.298 -0.5175 -0.1142 -0.4035
  654TMC3     H 9684   1.744   4.577  17.185  3.9427  0.6966  0.6649
  654TMC3    H1 9685   1.913   4.191  17.252 -0.9520 -2.7150 -1.4083
  654TMC3    H2 9686   1.622   4.253  16.946 -0.1749 -3.4363  2.4843
  654TMC3    C7 9687   1.774   4.062  17.051 -0.4865 -0.3808 -0.3556
  654TMC3    C8 9688   1.580   4.510  17.008 -0.2503 -0.9740 -0.0726
  654TMC3    O1 9689   1.701   4.037  16.958  0.2013 -0.5043  0.0009
  654TMC3    O2 9690   1.546   4.599  17.082 -0.1802 -0.3974  0.0516
  655MPD2     C 9691   3.601   0.082  15.758  0.5913 -0.1982  0.1439
  655MPD2    C1 9692   3.565   0.213  15.742 -0.1357  0.0005 -0.0167
  655MPD2    C2 9693   3.579   0.265  15.614  0.4448  0.6306  0.1001
  655MPD2    C3 9694   3.622   0.185  15.514 -0.0369  0.4349 -0.3746
  655MPD2    C4 9695   3.673   0.060  15.535 -0.1010  0.1114 -0.0054
  655MPD2    C5 9696   3.667   0.013  15.661  0.4184  0.3857 -0.2181
  655MPD2     H 9697   3.548   0.363  15.581 -1.1224  0.3503  0.7759
  655MPD2    H1 9698   3.724   0.005  15.456  1.6572  2.3495 -0.4431
  655MPD2    H2 9699   3.602   0.035  15.855 -1.0335  1.7863  1.1211
  655MPD2    H3 9700   3.697   4.636  15.689 -2.2380 -0.8004 -1.6296
  655MPD2     N 9701   3.611   0.223  15.381 -0.1428 -0.0588  0.0241
  655MPD2    H5 9702   3.628   0.149  15.314 -0.6904 -0.2260  0.0707
  655MPD2    N1 9703   3.501   0.298  15.840 -0.2015 -0.3104 -0.2230
  655MPD2    H7 9704   3.477   0.390  15.804 -0.2465  0.3521  1.4961
  656TMC3    C1 9705   3.406   0.362  16.050  0.2405 -0.4360 -0.7282
  656TMC3    C2 9706   3.318   0.319  16.146  0.5324 -0.0779 -0.4437
  656TMC3    C3 9707   3.230   0.416  16.195 -0.9248  0.1398  0.0437
  656TMC3    C4 9708   3.401   0.486  15.994  0.1022 -0.6085  0.1231
  656TMC3    C5 9709   3.312   0.580  16.043  0.3271 -0.4777  0.6491
  656TMC3    C6 9710   3.227   0.539  16.142  0.1671 -0.0883 -0.1839
  656TMC3     C 9711   3.480   0.264  15.973  0.4696  0.6378  0.8978
  656TMC3     O 9712   3.518   0.169  16.036 -0.0787  0.0745 -0.5905
  656TMC3     H 9713   3.327   0.218  16.185  2.5774  0.4807  0.5500
  656TMC3    H1 9714   3.472   0.529  15.923 -0.8740 -0.7968 -0.9723
  656TMC3    H2 9715   3.149   0.609  16.168 -1.2247 -1.2979 -1.1742
  656TMC3    C7 9716   3.274   0.683  15.944  0.0009 -0.0366  0.0532
  656TMC3    C8 9717   3.124   0.366  16.274 -0.3238  0.2943 -0.0732
  656TMC3    O1 9718   3.346   0.700  15.846 -0.0687  0.2279 -0.3075
  656TMC3    O2 9719   3.106   0.245  16.270 -0.2316  0.0911  0.5239
  657TMC3    C1 9720   1.961   4.504  15.320 -0.5481 -0.5994  0.5029
  657TMC3    C2 9721   2.074   4.515  15.408 -0.7683  0.2492 -0.1434
  657TMC3    C3 9722   2.091   4.632  15.464  0.3449  0.5419 -0.7354
  657TMC3    C4 9723   1.875   4.603  15.290 -0.0593 -0.2954  0.1524
  657TMC3    C5 9724   1.899   4.719  15.363 -0.2933 -0.3426 -0.2698
  657TMC3    C6 9725   2.004   0.017  15.449 -0.4438 -0.4536  0.4345
  657TMC3     C 9726   1.933   4.370  15.270 -0.1080 -0.2698 -0.6027
  657TMC3     O 9727   1.857   4.356  15.181  0.0129 -0.5282 -0.0122
  657TMC3     H 9728   2.122   4.435  15.462  0.1871  1.0115  0.1397
  657TMC3    H1 9729   1.794   4.581  15.222  0.1275  1.6302 -0.6844
  657TMC3    H2 9730   2.009   0.103  15.514  1.5958 -0.1400 -0.1175
  657TMC3    C7 9731   1.837   0.118  15.323 -0.9748 -0.1797  0.3505
  657TMC3    C8 9732   2.224   4.663  15.533  0.4725 -0.2182  0.0149
  657TMC3    O1 9733   1.869   0.221  15.380 -0.1858 -0.5888  0.3044
  657TMC3    O2 9734   2.314   4.582  15.551 -0.0863 -0.9566 -0.1794
  658MPD2     C 9735   3.711   0.566  14.710  0.0372  0.4826  0.2397
  658MPD2    C1 9736   3.577   0.593  14.748  0.0325  0.6020 -0.3716
  658MPD2    C2 9737   3.495   0.660  14.670 -0.3286  0.1978  0.9344
  658MPD2    C3 9738   3.537   0.716  14.553 -0.4941 -0.3618 -0.2679
  658MPD2    C4 9739   3.675   0.705  14.531  0.0297  0.5142  0.4399
  658MPD2    C5 9740   3.759   0.621  14.592 -0.2874 -0.2681 -0.3206
  658MPD2     H 9741   3.390   0.674  14.694 -0.4545 -1.0528  1.1045
  658MPD2    H1 9742   3.725   0.760  14.452 -0.7334 -2.1374 -1.8686
  658MPD2    H2 9743   3.778   0.505  14.771 -1.0244  0.9875  1.9160
  658MPD2    H3 9744   3.862   0.591  14.572 -0.2346 -0.8896  0.8430
  658MPD2     N 9745   3.451   0.777  14.470 -0.0230  0.2055  0.4964
  658MPD2    H5 9746   3.354   0.767  14.498  0.0950 -2.4062 -0.0178
  658MPD2    N1 9747   3.535   0.524  14.861 -0.6187  0.2489  0.0115
  658MPD2    H7 9748   3.606   0.468  14.906  0.6185  0.5688 -1.5340
  659TMC3    C1 9749   3.411   0.439  15.028  0.9246  0.1081 -0.1635
  659TMC3    C2 9750   3.525   0.411  15.100  0.5217 -0.1381  0.1523
  659TMC3    C3 9751   3.518   0.316  15.197 -0.2095  0.1344 -0.2843
  659TMC3    C4 9752   3.288   0.381  15.052  0.2288 -0.4180 -0.2792
  659TMC3    C5 9753   3.291   0.285  15.157  0.2165  0.0141 -0.2943
  659TMC3    C6 9754   3.407   0.241  15.223 -0.9375  0.0483 -0.4469
  659TMC3     C 9755   3.410   0.529  14.917 -0.3922 -0.1441  0.1064
  659TMC3     O 9756   3.307   0.575  14.867  0.5313  0.3492  0.5961
  659TMC3     H 9757   3.609   0.480  15.100  0.1880  0.2818 -2.4634
  659TMC3    H1 9758   3.204   0.385  14.983 -0.7119  0.6213  0.9222
  659TMC3    H2 9759   3.399   0.158  15.291  1.1316  0.2302  0.0069
  659TMC3    C7 9760   3.162   0.240  15.219  0.6495  0.2077  0.2935
  659TMC3    C8 9761   3.587   0.345  15.324 -0.0642 -0.1909  0.1030
  659TMC3    O1 9762   3.150   0.122  15.252 -0.1797  0.3800 -0.5976
  659TMC3    O2 9763   3.586   0.457  15.378 -0.3951  0.5360 -0.1040
  660MPD2     C 9764   1.353   3.729  12.731 -0.3715 -0.2356  0.1673
  660MPD2    C1 9765   1.227   3.766  12.701 -0.3084  0.0861 -0.1545
  660MPD2    C2 9766   1.126   3.709  12.775 -0.6316 -0.5192  0.1552
  660MPD2    C3 9767   1.149   3.630  12.885 -0.2186 -0.7375 -0.6575
  660MPD2    C4 9768   1.280   3.604  12.926 -0.4562  0.6013 -0.4292
  660MPD2    C5 9769   1.379   3.653  12.844  0.0160 -0.3322 -0.3864
  660MPD2     H 9770   1.025   3.725  12.739 -0.1660  0.4100 -0.7296
  660MPD2    H1 9771   1.297   3.539  13.011 -1.6433  0.4497 -0.3067
  660MPD2    H2 9772   1.442   3.759  12.677 -1.2332  2.0943  0.0755
  660MPD2    H3 9773   1.480   3.623  12.866 -0.4028 -1.2023  0.3695
  660MPD2     N 9774   1.045   3.574  12.954 -0.0750  0.7494  0.3395
  660MPD2    H5 9775   1.074   3.510  13.028 -0.1594 -0.5281 -0.7307
  660MPD2    N1 9776   1.204   3.847  12.583  0.1067 -0.4923  0.2117
  660MPD2    H7 9777   1.279   3.865  12.516  0.4648  2.2053  1.3547
  661TMC3    C1 9778   1.076   3.991  12.447  0.3738  0.5665 -0.4307
  661TMC3    C2 9779   1.174   3.982  12.345  0.1506  0.1102 -0.1837
  661TMC3    C3 9780   1.137   4.005  12.215 -0.5701 -0.6414  1.3058
  661TMC3    C4 9781   0.947   4.019  12.411  0.1407 -0.3525  0.6841
  661TMC3    C5 9782   0.909   4.040  12.279 -0.2493  0.0999  1.2614
  661TMC3    C6 9783   1.003   4.035  12.181 -0.5241 -0.5092 -0.4409
  661TMC3     C 9784   1.097   3.932  12.577 -0.0857  0.5632  0.4768
  661TMC3     O 9785   1.010   3.946  12.657 -0.1792 -0.0153  0.5971
  661TMC3     H 9786   1.272   3.946  12.375  0.3476 -1.5423 -2.8042
  661TMC3    H1 9787   0.880   4.040  12.493 -1.5326  0.7482 -0.9425
  661TMC3    H2 9788   0.977   4.048  12.077 -0.5712  0.0391 -0.3582
  661TMC3    C7 9789   0.766   3.999  12.254  0.0589  0.4379 -0.2105
  661TMC3    C8 9790   1.231   3.978  12.108  0.1830 -0.1024 -0.1586
  661TMC3    O1 9791   0.683   4.062  12.316 -0.4713  0.2290 -0.2989
  661TMC3    O2 9792   1.321   3.899  12.131 -0.0745 -0.0985 -0.3576
  662MPD2     C 9793   1.399   3.040  17.323  0.6860 -0.3182  0.6293
  662MPD2    C1 9794   1.350   3.025  17.447  0.2129 -0.4073  0.9789
  662MPD2    C2 9795   1.348   3.133  17.533  0.1067  0.2706 -0.3287
  662MPD2    C3 9796   1.394   3.259  17.501  0.1561 -0.6047 -0.4055
  662MPD2    C4 9797   1.450   3.269  17.371  0.1611 -0.7787 -0.0400
  662MPD2    C5 9798   1.462   3.156  17.288 -0.3656  0.5011  0.3740
  662MPD2     H 9799   1.314   3.128  17.636  1.2835 -0.2498  0.0314
  662MPD2    H1 9800   1.508   3.355  17.339 -2.9721  1.3501  0.0646
  662MPD2    H2 9801   1.415   2.957  17.256 -0.9465  0.2981 -0.4928
  662MPD2    H3 9802   1.485   3.164  17.182  0.9149  1.1160  0.6936
  662MPD2     N 9803   1.376   3.377  17.587 -0.5014  0.2548 -0.0413
  662MPD2    H5 9804   1.336   3.355  17.678 -2.2172 -0.1591 -0.8947
  662MPD2    N1 9805   1.281   2.914  17.500 -0.2130 -0.4367  0.6660
  662MPD2    H7 9806   1.234   2.918  17.590  0.3691  0.1380  0.9497
  663TMC3    C1 9807   1.188   2.700  17.508  0.3336  0.0988 -0.2578
  663TMC3    C2 9808   1.113   2.745  17.614 -0.0080 -0.8561  0.4625
  663TMC3    C3 9809   1.099   2.662   0.029 -0.2626  0.3378 -0.0469
  663TMC3    C4 9810   1.225   2.569  17.494 -0.9076  0.5761 -0.0437
  663TMC3    C5 9811   1.212   2.492  17.601 -0.3280 -0.6646 -0.4308
  663TMC3    C6 9812   1.151   2.533   0.024  0.5992  0.7789  0.3258
  663TMC3     C 9813   1.276   2.790  17.437  0.1892  0.2068 -0.4112
  663TMC3     O 9814   1.349   2.745  17.348  0.3074  0.4980  0.4722
  663TMC3     H 9815   1.055   2.837  17.614  0.2312 -0.7072 -1.1278
  663TMC3    H1 9816   1.274   2.538  17.402 -0.9428  0.6020 -0.0711
  663TMC3    H2 9817   1.184   2.476   0.110  1.7014 -2.0060 -1.9534
  663TMC3    C7 9818   1.266   2.360  17.604  0.0121 -0.6446 -0.2861
  663TMC3    C8 9819   1.096   2.736   0.153  0.6727  0.0682  0.0768
  663TMC3    O1 9820   1.207   2.288  17.681 -0.8217 -0.6367  0.0044
  663TMC3    O2 9821   1.106   2.858   0.141  0.3982  0.4037 -0.4075
  664MPD2     C 9822   4.212   1.220  17.404 -0.3858 -0.0546  0.1170
  664MPD2    C1 9823   4.305   1.271  17.487 -0.5303  0.5766 -0.5058
  664MPD2    C2 9824   4.287   1.270  17.621 -0.3118 -0.7769  0.5962
  664MPD2    C3 9825   4.179   1.202  17.674  0.0188 -0.0312  0.4820
  664MPD2    C4 9826   4.090   1.138  17.595 -0.1044 -0.8511 -0.2957
  664MPD2    C5 9827   4.103   1.148  17.455 -0.2186 -0.3130 -0.2527
  664MPD2     H 9828   4.354   1.317  17.693 -0.9331 -0.8962  1.2598
  664MPD2    H1 9829   4.004   1.089  17.640  0.0038 -0.0846  0.7592
  664MPD2    H2 9830   4.221   1.228  17.297  0.5451  0.0911  0.2117
  664MPD2    H3 9831   4.027   1.108  17.388 -1.2594 -0.7460  1.1961
  664MPD2     N 9832   4.163   1.204   0.124 -0.2807  0.5960 -0.6206
  664MPD2    H5 9833   4.240   1.252   0.168 -0.3960 -1.2508  1.6148
  664MPD2    N1 9834   4.422   1.331  17.447 -0.1935  0.0333 -0.0920
  664MPD2    H7 9835   4.477   1.375  17.521 -0.1627 -1.0085  0.5070
  665TMC3    C1 9836   4.079   1.189   0.343  0.1440  0.4453 -0.0445
  665TMC3    C2 9837   3.983   1.145   0.424  0.0805 -0.1065 -0.6889
  665TMC3    C3 9838   4.011   1.148   0.562 -0.7214 -0.4224  0.1384
  665TMC3    C4 9839   4.187   1.258   0.389  0.6473  0.1995 -0.5874
  665TMC3    C5 9840   4.218   1.265   0.524  0.0845  0.3784 -0.3410
  665TMC3    C6 9841   4.133   1.198   0.610 -0.7537  0.1182  0.6452
  665TMC3     C 9842   4.061   1.158   0.200 -0.6107 -0.4181 -0.5593
  665TMC3     O 9843   3.957   1.106   0.165 -0.6802 -0.0036 -0.3217
  665TMC3     H 9844   3.904   1.090   0.374  0.7641  0.7591 -2.6922
  665TMC3    H1 9845   4.246   1.313   0.317  0.6538 -0.0499 -0.7760
  665TMC3    H2 9846   4.145   1.194   0.718 -0.3607  2.7546  0.7230
  665TMC3    C7 9847   4.266   1.389   0.575 -0.6546 -0.0921  0.5689
  665TMC3    C8 9848   3.920   1.095   0.662  0.3913 -0.0841  0.7132
  665TMC3    O1 9849   4.274   1.478   0.490  0.4531 -0.3092 -0.4536
  665TMC3    O2 9850   3.967   1.054   0.770 -0.4201 -0.1550  0.0636
  666TMC3    C1 9851   3.428   1.551   9.981  0.4863  0.2349  0.3726
  666TMC3    C2 9852   3.487   1.427   9.997 -0.0439  0.4103  0.0730
  666TMC3    C3 9853   3.629   1.425  10.002 -0.3892  0.3520 -0.5050
  666TMC3    C4 9854   3.503   1.665   9.995 -0.1060 -0.0852  0.0740
  666TMC3    C5 9855   3.637   1.652  10.017  0.1178  0.1525 -0.0186
  666TMC3    C6 9856   3.708   1.535  10.019  0.4759  0.2708  0.5405
  666TMC3     C 9857   3.283   1.578   9.984  1.1136 -0.0125 -0.3676
  666TMC3     O 9858   3.236   1.689   9.971 -0.6404 -0.0308  0.0132
  666TMC3     H 9859   3.436   1.335   9.971  0.8180  0.9650 -3.5494
  666TMC3    H1 9860   3.447   1.757   9.989  1.1720  0.6759 -0.1170
  666TMC3    H2 9861   3.811   1.527  10.050  0.8533  1.4511 -0.4408
  666TMC3    C7 9862   3.715   1.775  10.008 -0.0645  0.4987  0.0054
  666TMC3    C8 9863   3.672   1.289  10.025 -0.7674  0.2620 -0.0193
  666TMC3    O1 9864   3.836   1.774   9.996 -0.1423 -0.3001  0.6401
  666TMC3    O2 9865   3.592   1.197  10.034  0.3479 -0.1187 -0.0568
  667MPD2     C 9866   0.073   1.537  14.498 -0.4182 -0.0302  0.4005
  667MPD2    C1 9867   0.096   1.403  14.525  0.7439  0.0818 -0.5176
  667MPD2    C2 9868   0.045   1.308  14.431  0.0490  0.1204 -0.5413
  667MPD2    C3 9869   4.696   1.348  14.319  0.4959 -0.5027 -0.2814
  667MPD2    C4 9870   4.681   1.484  14.293  0.1437 -0.7347 -0.7601
  667MPD2    C5 9871   0.008   1.570  14.382 -0.1741 -0.2402 -0.4896
  667MPD2     H 9872   0.074   1.204  14.445 -1.3896  0.2979  3.5875
  667MPD2    H1 9873   4.622   1.512  14.206 -0.1248  2.8741  0.6049
  667MPD2    H2 9874   0.088   1.622  14.563 -1.5506  0.4826 -0.0012
  667MPD2    H3 9875   4.716   1.677  14.383  1.6820  0.0437 -2.1994
  667MPD2     N 9876   4.641   1.258  14.230  0.1797  0.0984 -0.0983
  667MPD2    H5 9877   4.638   1.164  14.268  0.7220  0.9172  1.9780
  667MPD2    N1 9878   0.151   1.350  14.638 -0.3353  0.3625  0.2153
  667MPD2    H7 9879   0.150   1.249  14.648  0.4027  0.1403 -2.0675
  668TMC3    C1 9880   0.283   1.346  14.848 -0.3226  0.2729 -0.1349
  668TMC3    C2 9881   0.368   1.416  14.931 -0.6020  0.2721 -0.5867
  668TMC3    C3 9882   0.434   1.351  15.032 -0.5717 -0.9297  0.7034
  668TMC3    C4 9883   0.252   1.214  14.872  0.1355  0.1354 -0.0878
  668TMC3    C5 9884   0.322   1.150  14.969 -0.7387  0.7745  0.3885
  668TMC3    C6 9885   0.415   1.215  15.048  0.2429 -0.4483 -0.0343
  668TMC3     C 9886   0.221   1.426  14.733  0.6500 -0.0735  0.7431
  668TMC3     O 9887   0.247   1.543  14.738  0.2833  0.1329  0.3628
  668TMC3     H 9888   0.380   1.522  14.913  2.4720  0.0403  0.1265
  668TMC3    H1 9889   0.172   1.169  14.816 -0.2666 -0.6131  1.0813
  668TMC3    H2 9890   0.471   1.154  15.118  0.6775  0.4175  0.3718
  668TMC3    C7 9891   0.304   1.005  14.968 -0.2336  0.1842  1.4803
  668TMC3    C8 9892   0.518   1.413  15.136  0.6835  0.1078 -0.4670
  668TMC3    O1 9893   0.263   0.958  14.863  0.3843 -0.9196  0.0824
  668TMC3    O2 9894   0.551   1.355  15.236  0.2859 -0.3692 -0.5312
  669TMC3    C1 9895   2.853   1.538  14.462 -0.0703  0.0803  0.4548
  669TMC3    C2 9896   2.769   1.460  14.391  0.4071 -0.0917 -0.0054
  669TMC3    C3 9897   2.784   1.452  14.256  0.1490  0.1389  0.2870
  669TMC3    C4 9898   2.967   1.600  14.407  0.4573  0.1826 -0.3630
  669TMC3    C5 9899   2.979   1.582  14.271  0.4425 -0.1357 -0.0829
  669TMC3    C6 9900   2.886   1.517  14.188 -0.1965  0.8964  1.3868
  669TMC3     C 9901   2.824   1.544  14.600  0.3732  0.3469  0.5873
  669TMC3     O 9902   2.770   1.456  14.654  0.5639 -0.1870 -0.3947
  669TMC3     H 9903   2.683   1.417  14.441  1.5556 -1.0365  1.1671
  669TMC3    H1 9904   3.034   1.653  14.473 -0.4178 -0.1678  0.8193
  669TMC3    H2 9905   2.897   1.527  14.080 -2.4234 -1.0494  0.9772
  669TMC3    C7 9906   3.107   1.634  14.219 -0.2163  0.3889 -0.0197
  669TMC3    C8 9907   2.675   1.407  14.182  0.0860 -0.6769 -0.8471
  669TMC3    O1 9908   3.179   1.702  14.288  0.1014 -0.2555 -0.2442
  669TMC3    O2 9909   2.564   1.424  14.233  0.6490 -0.2853  0.2765
  670MPD2     C 9910   2.008   3.954  13.654  0.0245  0.2801  0.4836
  670MPD2    C1 9911   2.032   4.035  13.772 -0.1332 -0.6845 -0.3149
  670MPD2    C2 9912   1.929   4.044  13.861  0.2011 -0.2420  0.6847
  670MPD2    C3 9913   1.808   3.984  13.843  0.1399 -0.4962 -0.2353
  670MPD2    C4 9914   1.794   3.896  13.742 -0.3208  0.7125  0.3247
  670MPD2    C5 9915   1.893   3.889  13.645  0.2083  0.2822  0.9343
  670MPD2     H 9916   1.939   4.113  13.943  0.2659  0.2424  0.2685
  670MPD2    H1 9917   1.701   3.840  13.734  0.3864 -0.2051 -1.4483
  670MPD2    H2 9918   2.081   3.942  13.575 -0.4319  0.8834 -0.0330
  670MPD2    H3 9919   1.872   3.828  13.558  0.7095  0.5620  0.6169
  670MPD2     N 9920   1.711   4.003  13.944 -0.7527  0.1388  0.2249
  670MPD2    H5 9921   1.726   4.066  14.021 -0.4054 -0.2600  0.4849
  670MPD2    N1 9922   2.162   4.094  13.802 -0.3686  0.1718  0.0722
  670MPD2    H7 9923   2.166   4.145  13.889  2.7679  2.4283 -1.3802
  671TMC3    C1 9924   1.518   3.971  14.066 -0.7103  0.5540  0.0475
  671TMC3    C2 9925   1.595   3.981  14.173  0.1746 -0.8234 -0.2972
  671TMC3    C3 9926   1.539   3.942  14.287  0.5689 -0.3187 -0.4230
  671TMC3    C4 9927   1.387   3.923  14.071 -0.2743 -0.8243  0.1672
  671TMC3    C5 9928   1.331   3.895  14.192 -0.6325 -1.0999 -0.1311
  671TMC3    C6 9929   1.412   3.901  14.303  0.5379 -0.0007 -0.2207
  671TMC3     C 9930   1.585   3.960  13.938 -0.0872 -0.1864 -0.3280
  671TMC3     O 9931   1.523   3.902  13.850 -0.2337  0.0539 -0.0500
  671TMC3     H 9932   1.703   3.986  14.165  0.2275 -1.2573  0.0968
  671TMC3    H1 9933   1.330   3.903  13.981  2.9644 -0.9217 -1.8446
  671TMC3    H2 9934   1.372   3.868  14.399 -0.2811 -0.1645 -0.6148
  671TMC3    C7 9935   1.252   3.775  14.181  0.5212 -0.1526 -0.0747
  671TMC3    C8 9936   1.616   3.852  14.368  0.1409  0.9127 -0.1937
  671TMC3    O1 9937   1.167   3.786  14.093 -0.4254  0.3459  0.4482
  671TMC3    O2 9938   1.567   3.742  14.385  0.5707 -0.4273  0.0587
  672MPD2     C 9939   1.949   4.209   1.137 -0.2955 -0.3560 -0.6950
  672MPD2    C1 9940   2.076   4.218   1.091 -0.4834  0.1227  0.9611
  672MPD2    C2 9941   2.174   4.287   1.162 -0.3957 -0.8329 -0.2565
  672MPD2    C3 9942   2.137   4.341   1.282  0.3711  0.1254 -0.0184
  672MPD2    C4 9943   2.011   4.321   1.338  0.4906  0.1168 -0.1122
  672MPD2    C5 9944   1.917   4.264   1.257 -0.5540 -0.0981 -0.8204
  672MPD2     H 9945   2.275   4.290   1.122  0.8470  0.3125  2.9275
  672MPD2    H1 9946   1.988   4.341   1.442  0.0943 -2.3075  0.2698
  672MPD2    H2 9947   1.870   4.171   1.074 -0.9784 -1.6162  0.9104
  672MPD2    H3 9948   1.815   4.245   1.288 -0.6706 -2.2149 -2.4401
  672MPD2     N 9949   2.225   4.425   1.357  0.4990 -0.7192  0.3317
  672MPD2    H5 9950   2.186   4.488   1.427 -1.4445  2.0600 -3.2199
  672MPD2    N1 9951   2.111   4.175   0.962 -0.0357  0.6143  0.7515
  672MPD2    H7 9952   2.205   4.176   0.923  0.0363 -1.9424  0.9006
  673TMC3    C1 9953   2.089   4.063   0.757  0.6245  0.0832 -0.3378
  673TMC3    C2 9954   2.194   3.989   0.796 -0.9488 -0.9117 -1.1424
  673TMC3    C3 9955   2.286   3.954   0.704 -0.8584  0.3777  0.7002
  673TMC3    C4 9956   2.084   4.130   0.639  0.4222  0.4368 -0.6254
  673TMC3    C5 9957   2.189   4.103   0.557 -0.5450 -0.1299 -0.2682
  673TMC3    C6 9958   2.286   4.006   0.580  0.2064  0.5440  0.1403
  673TMC3     C 9959   2.019   4.130   0.868  0.7808 -0.8315 -0.1036
  673TMC3     O 9960   1.906   4.171   0.846 -0.2151  0.3899  0.7361
  673TMC3     H 9961   2.190   3.951   0.898  1.7255 -1.4366 -1.2534
  673TMC3    H1 9962   2.004   4.200   0.616  1.1868  0.2747 -3.7420
  673TMC3    H2 9963   2.372   3.999   0.514  0.5107 -0.0608  0.6045
  673TMC3    C7 9964   2.205   4.188   0.444  0.6265  1.0076 -0.3582
  673TMC3    C8 9965   2.406   3.879   0.750  0.6117 -0.2079  0.3566
  673TMC3    O1 9966   2.256   4.134   0.348  0.3199  0.4263 -0.2162
  673TMC3    O2 9967   2.428   3.883   0.869 -0.3016 -0.0402  0.0859
  674MPD2     C 9968   1.710   3.701  17.476 -0.2777  1.2897 -0.2565
  674MPD2    C1 9969   1.776   3.719  17.596 -0.9587  0.7931 -0.2640
  674MPD2    C2 9970   1.799   3.841  17.647  0.4716 -0.2022  0.0070
  674MPD2    C3 9971   1.754   3.951  17.574 -0.2769  0.1738 -0.0044
  674MPD2    C4 9972   1.679   3.928  17.459 -0.0103 -0.5859  0.0109
  674MPD2    C5 9973   1.649   3.803  17.415  0.3619 -0.1950  0.0503
  674MPD2     H 9974   1.856   3.858   0.042  0.2474 -0.5585  0.2204
  674MPD2    H1 9975   1.643   4.012  17.399 -0.3175  0.3722  1.5429
  674MPD2    H2 9976   1.682   3.604  17.437  0.0922  1.2515 -0.4245
  674MPD2    H3 9977   1.588   3.792  17.326  1.8995  2.0969 -1.3101
  674MPD2     N 9978   1.764   4.081  17.627 -0.4794 -0.9344 -0.6057
  674MPD2    H5 9979   1.810   4.072   0.022  1.1872 -1.5508 -1.5182
  674MPD2    N1 9980   1.813   3.601  17.662  0.0379  0.9609 -0.4167
  674MPD2    H7 9981   1.784   3.513  17.622  2.2388 -0.0397  0.2120
  675TMC3    C1 9982   1.887   3.462   0.140  0.7417 -0.6239  0.3601
  675TMC3    C2 9983   1.773   3.376   0.122 -0.1274 -0.2141 -0.3512
  675TMC3    C3 9984   1.760   3.271   0.208 -0.0691 -0.7338 -0.3391
  675TMC3    C4 9985   1.974   3.446   0.244 -0.2232  0.2673  0.4178
  675TMC3    C5 9986   1.959   3.338   0.318 -0.4222  0.6467  0.1523
  675TMC3    C6 9987   1.860   3.245   0.303  0.0379 -0.6221 -0.0828
  675TMC3     C 9988   1.887   3.595   0.082 -0.7306 -0.0298 -0.5454
  675TMC3     O 9989   1.955   3.681   0.131  0.5892  0.3473 -0.0237
  675TMC3     H 9990   1.693   3.400   0.052  0.1743 -0.2909 -0.7223
  675TMC3    H1 9991   2.049   3.521   0.269  0.6081  0.3359 -2.2289
  675TMC3    H2 9992   1.862   3.152   0.360  2.9049 -1.1624 -1.0139
  675TMC3    C7 9993   2.051   3.329   0.424 -0.2972  0.3450 -0.1120
  675TMC3    C8 9994   1.670   3.167   0.164 -0.1320 -0.4417  0.4136
  675TMC3    O1 9995   2.166   3.365   0.403 -0.5454 -0.3601  0.0437
  675TMC3    O2 9996   1.627   3.176   0.048 -0.3831  0.1226  0.5910
  676MPD2     C 9997   3.801   2.110  11.033  0.7103  0.4979 -0.9021
  676MPD2    C1 9998   3.871   2.053  11.142 -0.3391  0.6089 -0.0817
  676MPD2    C2 9999   3.881   1.920  11.154 -0.2233  0.3565  0.0423
  676MPD2    C310000   3.810   1.833  11.065  0.4898 -0.8135  0.1318
  676MPD2    C410001   3.736   1.894  10.970 -0.0542  0.4807  0.1627
  676MPD2    C510002   3.738   2.026  10.947 -0.1047  0.3895  0.4668
  676MPD2     H10003   3.934   1.877  11.238 -0.1024  0.1575 -0.1338
  676MPD2    H110004   3.687   1.833  10.895 -1.9483  1.7903  0.3255
  676MPD2    H210005   3.793   2.218  11.024 -0.9791  0.3630 -0.8832
  676MPD2    H310006   3.680   2.062  10.863 -0.7946  0.2784  0.8945
  676MPD2     N10007   3.815   1.690  11.071  0.0063  0.1113 -0.1581
  676MPD2    H510008   3.749   1.650  11.006  0.8384  0.2942 -1.1235
  676MPD2    N110009   3.921   2.130  11.253  0.0189  0.4455  0.3342
  676MPD2    H710010   3.948   2.086  11.341 -0.0348 -2.6644 -1.2199
  677TMC3    C110011   4.021   2.338  11.351  1.1519 -0.2557 -0.4608
  677TMC3    C210012   4.087   2.264  11.442 -0.3756 -0.3199  0.0584
  677TMC3    C310013   4.138   2.340  11.544 -0.6670 -0.0513  0.5628
  677TMC3    C410014   4.011   2.478  11.338  0.4355 -0.5796  0.3116
  677TMC3    C510015   4.082   2.541  11.437 -0.6827  0.4866  0.4950
  677TMC3    C610016   4.137   2.477  11.545 -0.4612 -0.4886  0.2644
  677TMC3     C10017   3.964   2.268  11.239 -1.2958 -0.1176 -0.0325
  677TMC3     O10018   3.975   2.333  11.132  0.5325 -0.4406  0.8712
  677TMC3     H10019   4.107   2.158  11.440 -1.3757 -0.5065  0.0998
  677TMC3    H110020   3.948   2.530  11.266  1.7625 -0.7899 -1.0112
  677TMC3    H210021   4.203   2.531  11.611 -1.7660 -0.2047  1.3485
  677TMC3    C710022   4.139   2.676  11.413  0.6909  0.2202 -0.0511
  677TMC3    C810023   4.241   2.279  11.622 -0.6613 -0.0102 -0.2018
  677TMC3    O110024   4.177   2.733  11.515 -0.0333  0.2168  0.4875
  677TMC3    O210025   4.349   2.333  11.634  0.2418  0.4014 -0.3566
  678MPD2     C10026   0.528   1.399   1.867 -0.4060 -0.4755  0.9858
  678MPD2    C110027   0.539   1.473   1.756 -0.4318 -0.2587 -0.4532
  678MPD2    C210028   0.436   1.556   1.721 -0.3212  0.1464 -0.4771
  678MPD2    C310029   0.316   1.565   1.796 -0.3283 -0.5499 -0.1079
  678MPD2    C410030   0.304   1.486   1.906 -0.2563  0.2085  0.5043
  678MPD2    C510031   0.410   1.407   1.942 -0.0954  0.5698  0.0973
  678MPD2     H10032   0.452   1.622   1.637  0.0176  2.4614  1.4122
  678MPD2    H110033   0.225   1.486   1.980 -0.4334  1.2197  0.3053
  678MPD2    H210034   0.610   1.333   1.891 -1.4126 -2.2468 -0.4259
  678MPD2    H310035   0.403   1.341   2.028  0.8331  0.6049  0.2021
  678MPD2     N10036   0.212   1.653   1.763  0.6801 -0.7591  0.2619
  678MPD2    H510037   0.225   1.717   1.685  2.3599 -0.6967  0.5999
  678MPD2    N110038   0.653   1.478   1.673  0.2343 -0.0341 -0.1225
  678MPD2    H710039   0.661   1.547   1.599  0.0688 -0.4376 -0.5162
  679TMC3    C110040   1.031   1.325   1.437 -0.2170 -0.3840  0.3033
  679TMC3    C210041   0.952   1.327   1.549  0.2675 -0.4814 -0.4298
  679TMC3    C310042   0.851   1.417   1.561  0.2199 -0.1757 -0.1421
  679TMC3    C410043   1.016   1.420   1.342  0.7073 -0.2105  0.0349
  679TMC3    C510044   0.918   1.510   1.357 -0.2614  0.2115 -0.3336
  679TMC3    C610045   0.835   1.519   1.467 -0.0669 -0.0949 -0.0959
  679TMC3     C10046   1.160   1.258   1.437  0.2931  0.4425  0.6237
  679TMC3     O10047   1.248   1.314   1.364 -0.3536 -0.3843  0.2646
  679TMC3     H10048   0.961   1.255   1.629  1.8930 -2.1402 -2.0929
  679TMC3    H110049   1.085   1.414   1.259 -0.5216 -0.4134 -0.9807
  679TMC3    H210050   0.763   1.600   1.473 -1.6221 -1.4757 -0.0780
  679TMC3    C710051   0.897   1.613   1.252  0.5082  0.5692 -0.4857
  679TMC3    C810052   0.760   1.391   1.676  1.0935  0.2310  0.3744
  679TMC3    O110053   0.832   1.707   1.289  0.1379 -0.0616 -0.5814
  679TMC3    O210054   0.783   1.302   1.757 -0.0725 -0.1043 -0.6558
  680MPD2     C10055   1.640   0.894  14.222  0.3189  0.4849  0.2799
  680MPD2    C110056   1.774   0.902  14.185  0.5042  0.6067  0.5541
  680MPD2    C210057   1.839   1.026  14.181  0.2185  0.4479 -0.1768
  680MPD2    C310058   1.769   1.139  14.223 -0.2176 -0.5656 -0.1398
  680MPD2    C410059   1.637   1.130  14.265  0.7935 -0.3677 -0.2823
  680MPD2    C510060   1.572   1.006  14.275 -0.5550 -0.8566 -0.3213
  680MPD2     H10061   1.939   1.023  14.139  1.0928 -1.7651  2.0151
  680MPD2    H110062   1.579   1.219  14.285  1.9061  0.0792  0.9229
  680MPD2    H210063   1.584   0.801  14.219 -0.1014  0.7203  0.8120
  680MPD2    H310064   1.467   0.996  14.302 -0.3149  0.5860  1.0554
  680MPD2     N10065   1.818   1.273  14.214  0.2297 -0.0752  0.4718
  680MPD2    H510066   1.749   1.345  14.226  0.5810  0.1558  1.0918
  680MPD2    N110067   1.833   0.778  14.159  0.3458 -0.6550  0.0726
  680MPD2    H710068   1.774   0.695  14.158 -0.9797  0.2633  0.5027
  681TMC3    C110069   1.986   0.616  14.105  0.1848 -0.6678  0.1958
  681TMC3    C210070   1.914   0.531  14.182 -0.9084 -0.0649 -0.0947
  681TMC3    C310071   1.908   0.402  14.136  0.8849 -0.0273  0.2927
  681TMC3    C410072   2.060   0.575  13.998 -0.4469  0.4932 -0.9236
  681TMC3    C510073   2.047   0.444  13.956 -0.4862 -0.4480  0.8691
  681TMC3    C610074   1.963   0.358  14.019 -0.6385  0.1418  0.0420
  681TMC3     C10075   1.968   0.758  14.124  0.5254 -0.5542 -0.1597
  681TMC3     O10076   2.062   0.833  14.104  0.4601 -0.5209 -0.4043
  681TMC3     H10077   1.861   0.564  14.271 -0.0234  1.9140 -0.2878
  681TMC3    H110078   2.123   0.650  13.951  2.2174 -1.5621 -0.6082
  681TMC3    H210079   1.958   0.256  13.984  0.0585  0.5630 -1.2492
  681TMC3    C710080   2.087   0.408  13.821 -0.1809 -0.1598 -0.1999
  681TMC3    C810081   1.845   0.299  14.216 -0.1900 -0.9346 -0.0342
  681TMC3    O110082   2.127   0.295  13.795 -0.3807  0.1621 -0.3741
  681TMC3    O210083   1.839   0.189  14.170  0.6613 -0.0788  0.0716
  682MPD2     C10084   3.519   2.737  10.729 -0.2621  0.3183 -0.4523
  682MPD2    C110085   3.396   2.673  10.715  0.2561 -0.5051  0.3485
  682MPD2    C210086   3.330   2.627  10.832  0.0184 -0.2990 -0.8174
  682MPD2    C310087   3.386   2.646  10.957 -0.4197  0.1648  0.9768
  682MPD2    C410088   3.501   2.721  10.964 -0.0074 -0.0350  0.1224
  682MPD2    C510089   3.570   2.750  10.858  0.1704  0.0817  0.0563
  682MPD2     H10090   3.243   2.564  10.818  0.1937 -0.6067 -0.5269
  682MPD2    H110091   3.535   2.751  11.063  0.3920 -0.3784  0.0862
  682MPD2    H210092   3.565   2.794  10.649  1.8305  0.7008  1.0191
  682MPD2    H310093   3.663   2.804  10.869  0.3394 -0.8783  3.3939
  682MPD2     N10094   3.330   2.594  11.076 -0.0238 -0.0123 -0.7490
  682MPD2    H510095   3.369   2.637  11.160 -1.0252  1.2561 -0.9258
  682MPD2    N110096   3.336   2.619  10.593 -0.0798 -0.0331 -0.1263
  682MPD2    H710097   3.255   2.561  10.610 -0.0789 -0.1799 -0.6380
  683TMC3    C110098   3.306   2.418  11.440  0.5841 -0.2551  0.4456
  683TMC3    C210099   3.252   2.295  11.446 -0.2207  0.8088 -0.1806
  683TMC3    C310100   3.183   2.247  11.333  1.0023 -0.4789 -1.1611
  683TMC3    C410101   3.290   2.501  11.335  0.4710 -0.0507  1.0137
  683TMC3    C510102   3.218   2.455  11.224  0.2028  0.1496 -0.3675
  683TMC3    C610103   3.165   2.329  11.223 -0.3610  0.3632 -0.1355
  683TMC3     C10104   3.360   2.474  11.568  0.0542 -0.2242 -0.2938
  683TMC3     O10105   3.336   2.595  11.583 -0.0201 -0.0960  0.1568
  683TMC3     H10106   3.261   2.239  11.538 -1.7067  0.8199 -0.0342
  683TMC3    H110107   3.326   2.602  11.354 -1.8202  1.7113 -4.2772
  683TMC3    H210108   3.110   2.295  11.136  0.6838  0.9326 -1.0267
  683TMC3    C710109   3.216   2.524  11.092  0.2152 -0.6854  0.5433
  683TMC3    C810110   3.119   2.117  11.318 -0.1277  0.2648  0.4002
  683TMC3    O110111   3.146   2.473  11.006  0.4370 -0.4302  0.1487
  683TMC3    O210112   3.036   2.097  11.227  0.1776  0.1051  0.0467
  684MPD2     C10113   1.687   1.440  16.717 -0.1016 -0.7132  0.2883
  684MPD2    C110114   1.639   1.488  16.599 -0.2638 -0.3207 -0.2552
  684MPD2    C210115   1.579   1.615  16.603 -0.2304 -0.1452 -0.4897
  684MPD2    C310116   1.573   1.693  16.723  0.0968  0.6789 -0.1016
  684MPD2    C410117   1.622   1.653  16.843  0.0687  0.5587 -0.4517
  684MPD2    C510118   1.673   1.521  16.833  0.1599  0.0948  0.7518
  684MPD2     H10119   1.548   1.646  16.504 -3.4089  1.8826  1.1301
  684MPD2    H110120   1.636   1.715  16.931  3.3138 -1.2273  0.2981
  684MPD2    H210121   1.730   1.341  16.730  0.8671 -0.3805 -0.4247
  684MPD2    H310122   1.711   1.481  16.926  0.3255  0.4685  0.8455
  684MPD2     N10123   1.520   1.822  16.720  0.2837 -0.1631 -0.5840
  684MPD2    H510124   1.519   1.884  16.800  3.7463 -0.3002 -0.3992
  684MPD2    N110125   1.654   1.421  16.480 -0.2250 -0.0662 -0.6017
  684MPD2    H710126   1.618   1.462  16.394 -3.1132 -1.3674  0.0175
  685TMC3    C110127   1.717   1.255  16.317 -0.0419 -1.1643  0.5623
  685TMC3    C210128   1.613   1.291  16.242  0.2121 -0.1501  0.2717
  685TMC3    C310129   1.641   1.274  16.105  0.0634  0.3464  0.2634
  685TMC3    C410130   1.842   1.207  16.272  0.0034  0.1989  0.8886
  685TMC3    C510131   1.863   1.197  16.133 -0.2854 -0.2482  0.0555
  685TMC3    C610132   1.762   1.241  16.053 -0.0541 -0.0695 -0.6798
  685TMC3     C10133   1.723   1.304  16.457  0.0874  0.1208  0.0510
  685TMC3     O10134   1.795   1.241  16.536 -0.2576 -0.2516 -0.1729
  685TMC3     H10135   1.519   1.303  16.294 -0.3457 -0.8020 -0.5745
  685TMC3    H110136   1.916   1.163  16.338 -0.2980  0.3370  1.3193
  685TMC3    H210137   1.772   1.250  15.945 -0.3896  1.1629 -0.6108
  685TMC3    C710138   1.995   1.251  16.089 -0.2529  0.4831  0.1811
  685TMC3    C810139   1.548   1.318  16.003 -0.2073 -0.7860  0.2565
  685TMC3    O110140   2.040   1.230  15.977 -0.0011  0.2554 -0.1464
  685TMC3    O210141   1.551   1.275  15.889 -0.2826  0.2167 -0.6587
  686MPD2     C10142   2.942   1.939  15.685  0.0540  0.7120 -0.7826
  686MPD2    C110143   3.014   1.864  15.773  0.8729 -0.1635 -0.1182
  686MPD2    C210144   3.085   1.757  15.723 -0.4709 -0.2822 -0.1428
  686MPD2    C310145   3.067   1.706  15.599 -0.1866 -1.0651  0.2205
  686MPD2    C410146   2.992   1.782  15.506  0.0852  0.3852  0.2661
  686MPD2    C510147   2.938   1.898  15.554  0.6150  0.6061  0.4257
  686MPD2     H10148   3.141   1.697  15.794  0.9932  0.0585 -1.0243
  686MPD2    H110149   2.977   1.760  15.401 -2.0985  0.7259  0.5079
  686MPD2    H210150   2.885   2.019  15.730  1.3532  0.8556  0.5755
  686MPD2    H310151   2.887   1.961  15.483  0.6470 -1.9610 -1.8744
  686MPD2     N10152   3.117   1.585  15.550 -0.6679 -0.3695 -0.3888
  686MPD2    H510153   3.099   1.568  15.452  1.7242 -0.9263 -0.7059
  686MPD2    N110154   3.017   1.911  15.910  0.3519  0.7205 -0.0926
  686MPD2    H710155   2.957   1.989  15.937 -0.5952  0.4228 -1.3543
  687TMC3    C110156   3.101   1.459  15.758 -0.1159  0.2431 -0.4369
  687TMC3    C210157   2.973   1.488  15.794  0.5934  0.8056 -0.4996
  687TMC3    C310158   2.941   1.489  15.929 -0.3068  0.1723  0.3694
  687TMC3    C410159   3.198   1.434  15.854  0.9222  0.2367  0.1207
  687TMC3    C510160   3.161   1.432  15.984 -0.5456 -0.1824 -0.1820
  687TMC3    C610161   3.030   1.463  16.029  0.4398  0.5776 -0.4153
  687TMC3     C10162   3.158   1.479  15.623  0.1834  0.1797 -0.0154
  687TMC3     O10163   3.223   1.378  15.588 -0.0149 -0.5969  0.2832
  687TMC3     H10164   2.890   1.503  15.727  0.0224  1.5328  0.3648
  687TMC3    H110165   3.296   1.403  15.821  0.5292  1.4078 -2.2177
  687TMC3    H210166   3.016   1.456  16.136  0.3181  0.3424 -0.4467
  687TMC3    C710167   3.262   1.422  16.086  0.1195 -0.4224  0.1259
  687TMC3    C810168   2.808   1.545  15.973  0.0801  0.1515  0.1179
  687TMC3    O110169   3.229   1.440  16.203 -0.1781 -0.3262  0.1050
  687TMC3    O210170   2.768   1.513  16.088 -0.4927 -0.2974 -0.6586
  688MPD2     C10171   2.355   0.797  17.326 -0.0487 -0.0785 -0.5475
  688MPD2    C110172   2.338   0.665  17.357  0.0131 -0.6054 -0.0654
  688MPD2    C210173   2.436   0.585  17.302 -0.1479  0.1819 -0.2886
  688MPD2    C310174   2.546   0.622  17.222  0.3480 -0.3787  0.4747
  688MPD2    C410175   2.548   0.753  17.189  0.3654 -0.3661  0.3273
  688MPD2    C510176   2.457   0.837  17.247 -0.7118 -0.0589  0.3051
  688MPD2     H10177   2.429   0.484  17.340 -0.5703 -0.0170 -0.8911
  688MPD2    H110178   2.624   0.790  17.121  0.7930  0.1462  1.0800
  688MPD2    H210179   2.285   0.876  17.352 -1.1959 -0.0165 -3.7297
  688MPD2    H310180   2.454   0.944  17.234  0.6055  0.1181  1.4165
  688MPD2     N10181   2.644   0.541  17.162 -0.2661 -0.1964  0.1494
  688MPD2    H510182   2.712   0.587  17.102 -1.0544  1.7712  0.7411
  688MPD2    N110183   2.250   0.612  17.450 -0.1307 -0.6193  0.2921
  688MPD2    H710184   2.250   0.512  17.467 -1.4431 -0.2917  2.1576
  689TMC3    C110185   2.090   0.623  17.618  0.7867 -0.5216 -0.4489
  689TMC3    C210186   2.062   0.694   0.042 -0.7649 -0.0650 -0.3338
  689TMC3    C310187   2.039   0.621   0.159  0.1233 -0.3870 -0.2437
  689TMC3    C410188   2.077   0.489  17.604 -0.7096  0.4039  0.2663
  689TMC3    C510189   2.062   0.424   0.033  0.4223  0.2286 -1.3510
  689TMC3    C610190   2.055   0.488   0.153  0.3967 -0.6538  0.1572
  689TMC3     C10191   2.165   0.691  17.521 -0.0270 -0.2608  0.4229
  689TMC3     O10192   2.147   0.811  17.521  0.6386  0.1763  0.2368
  689TMC3     H10193   2.072   0.802   0.040 -1.9765  0.0475  0.0481
  689TMC3    H110194   2.071   0.435  17.510 -0.5816  2.4657 -0.9236
  689TMC3    H210195   2.033   0.433   0.243  1.2774  1.7820  1.8862
  689TMC3    C710196   2.069   0.281   0.041 -0.8509  0.5306  0.5022
  689TMC3    C810197   2.019   0.682   0.286  0.3876 -0.7988 -0.0753
  689TMC3    O110198   2.121   0.232   0.143 -0.7133  0.2286 -0.0076
  689TMC3    O210199   2.011   0.607   0.380  0.0245  0.0975  0.7830
  690MPD2     C10200   0.169   2.311  15.880 -0.0058 -0.7414  0.9535
  690MPD2    C110201   0.089   2.395  15.799 -0.4999  0.3460 -0.0360
  690MPD2    C210202   0.146   2.501  15.732  0.3996  0.0190  0.3973
  690MPD2    C310203   0.278   2.530  15.750  0.1419 -0.3163  0.1813
  690MPD2    C410204   0.359   2.444  15.824  0.3145 -0.8288  0.7409
  690MPD2    C510205   0.299   2.346  15.897  0.1666  0.1932 -0.4079
  690MPD2     H10206   0.082   2.550  15.659 -0.5638 -1.9651 -0.0939
  690MPD2    H110207   0.465   2.461  15.840  0.3046  1.5296 -1.6498
  690MPD2    H210208   0.135   2.222  15.931 -3.6151  0.2170  0.1964
  690MPD2    H310209   0.359   2.271  15.948  0.4129  0.1339 -0.7901
  690MPD2     N10210   0.325   2.644  15.681 -0.5934  0.3575  0.2691
  690MPD2    H510211   0.265   2.684  15.610  0.1304  0.0864 -0.4960
  690MPD2    N110212   4.685   2.347  15.772 -0.4580 -0.7796  0.6405
  690MPD2    H710213   4.648   2.373  15.682 -1.3890 -0.4897  1.1080
  691TMC3    C110214   4.477   2.223  15.789 -0.1237 -0.0127 -0.5365
  691TMC3    C210215   4.376   2.204  15.882 -0.5577 -0.1373 -0.1761
  691TMC3    C310216   4.287   2.111  15.841  0.3846 -0.5271  0.5478
  691TMC3    C410217   4.485   2.167  15.663 -0.3495 -0.0292 -0.3564
  691TMC3    C510218   4.392   2.069  15.632  0.8104 -0.1404  0.5234
  691TMC3    C610219   4.297   2.036  15.728 -0.3187 -0.2028  0.4724
  691TMC3     C10220   4.604   2.265  15.849  0.3255 -0.3505  0.0684
  691TMC3     O10221   4.615   2.231  15.965 -1.0062  0.1043 -0.1453
  691TMC3     H10222   4.393   2.245  15.981  0.7530  1.3949 -1.0356
  691TMC3    H110223   4.576   2.186  15.608  1.1949 -0.7082  1.9644
  691TMC3    H210224   4.217   1.963  15.714  2.0830 -2.8876  0.9073
  691TMC3    C710225   4.425   1.960  15.532 -0.4203 -0.7877  0.4898
  691TMC3    C810226   4.160   2.103  15.915  0.7367 -0.1667  0.3885
  691TMC3    O110227   4.498   1.997  15.438 -0.1945 -0.6840  0.1214
  691TMC3    O210228   4.091   2.004  15.922  0.3303 -0.2113 -0.3088
  692TMC3    C110229   1.353   3.204  16.153  0.8044  0.6111  0.3216
  692TMC3    C210230   1.489   3.217  16.181  0.2079 -0.1066 -0.1206
  692TMC3    C310231   1.574   3.114  16.179  0.1631  0.1022 -0.0504
  692TMC3    C410232   1.299   3.082  16.121 -0.9835 -0.1010  0.0290
  692TMC3    C510233   1.385   2.973  16.140 -0.6263  0.1278  0.3276
  692TMC3    C610234   1.522   2.991  16.166  0.0174  0.4739  0.4430
  692TMC3     C10235   1.254   3.303  16.180  0.3436 -0.4349 -1.0167
  692TMC3     O10236   1.137   3.279  16.161  0.1736  0.4103  0.8482
  692TMC3     H10237   1.536   3.312  16.159 -2.9223  1.0965 -1.6125
  692TMC3    H110238   1.196   3.064  16.092 -0.7070 -0.1724 -0.8909
  692TMC3    H210239   1.593   2.909  16.167 -0.2313  0.2252 -1.6014
  692TMC3    C710240   1.339   2.855  16.074 -0.5995 -0.2618  0.3724
  692TMC3    C810241   1.640   3.111  16.308 -0.3827 -0.2483  0.3363
  692TMC3    O110242   1.245   2.859  15.990  0.2992  0.3419 -0.4486
  692TMC3    O210243   1.666   3.000  16.358 -0.1255 -0.1291  0.5755
  693MPD2     C10244   0.287   1.321  10.609 -0.4282 -0.0139  0.3187
  693MPD2    C110245   0.306   1.179  10.599  0.2844 -0.2521  0.6670
  693MPD2    C210246   0.437   1.127  10.605 -0.4991  0.0459 -0.0027
  693MPD2    C310247   0.538   1.225  10.607  0.4491 -0.1194  0.9665
  693MPD2    C410248   0.517   1.363  10.616 -0.3852  0.0186 -0.2833
  693MPD2    C510249   0.390   1.412  10.628  0.3800 -0.0887 -0.0690
  693MPD2     H10250   0.447   1.020  10.593 -1.0536 -0.0409  0.3112
  693MPD2    H110251   0.604   1.424  10.635  0.4349 -1.1997 -0.1298
  693MPD2    H210252   0.187   1.355  10.636 -0.0459  1.4463 -0.1330
  693MPD2    H310253   0.370   1.515  10.654  2.3417  0.1111  0.6512
  693MPD2     N10254   0.679   1.187  10.619 -0.1700  0.1049  0.0907
  693MPD2    H510255   0.752   1.253  10.646  0.8422 -1.3121  0.8186
  693MPD2    N110256   0.195   1.098  10.598  0.0480  0.1566 -0.3739
  693MPD2    H710257   0.115   1.152  10.628 -0.6013 -0.1489 -1.5688
  694TMC3    C110258   0.069   0.906  10.616  0.7263 -0.1328 -0.3076
  694TMC3    C210259   0.016   0.803  10.552 -0.3353  0.0275  0.4237
  694TMC3    C310260   4.637   0.738  10.618  0.0529  0.3617 -0.5529
  694TMC3    C410261   0.040   0.936  10.751 -0.4362 -0.3286 -0.0314
  694TMC3    C510262   4.664   0.858  10.811 -0.2712  0.5336  0.0057
  694TMC3    C610263   4.597   0.753  10.745 -0.8513  0.5058  0.2435
  694TMC3     C10264   0.193   0.961  10.572 -0.5619  0.2502  0.0115
  694TMC3     O10265   0.281   0.881  10.541  0.1576 -0.2796  0.1348
  694TMC3     H10266   0.065   0.762  10.465 -1.5852  2.6165 -1.5053
  694TMC3    H110267   0.096   1.011  10.805 -1.1802  0.0431  0.2092
  694TMC3    H210268   4.535   0.683  10.801  0.9306 -1.8582 -0.7767
  694TMC3    C710269   4.634   0.890  10.949 -1.1189  0.2667 -0.0252
  694TMC3    C810270   4.585   0.627  10.546  0.0142 -0.4452  0.0288
  694TMC3    O110271   4.661   1.004  10.988  0.4797  0.2484  0.7941
  694TMC3    O210272   4.511   0.548  10.605 -0.1276 -0.1491  0.0058
  695MPD2     C10273   1.833   3.210  13.676 -0.3526 -0.5111  0.9271
  695MPD2    C110274   1.761   3.216  13.794 -0.5240 -0.0680 -0.2097
  695MPD2    C210275   1.621   3.221  13.780  0.2349 -0.5813  0.0762
  695MPD2    C310276   1.556   3.226  13.658  0.0358 -0.1803 -0.1072
  695MPD2    C410277   1.625   3.232  13.542 -0.0745 -0.6905 -0.1480
  695MPD2    C510278   1.764   3.221  13.558 -0.4854 -0.2672  0.1578
  695MPD2     H10279   1.555   3.236  13.865  1.7817  0.7921  1.0348
  695MPD2    H110280   1.591   3.225  13.439 -0.5440 -2.5163  0.1303
  695MPD2    H210281   1.939   3.192  13.662 -0.3386 -0.2354  0.6751
  695MPD2    H310282   1.825   3.209  13.469 -1.7544 -1.7200 -0.5090
  695MPD2     N10283   1.412   3.225  13.655  0.1593 -0.2654 -0.1283
  695MPD2    H510284   1.367   3.227  13.746 -0.6372  1.5349 -0.5879
  695MPD2    N110285   1.819   3.216  13.923 -1.0182  1.0384 -0.4679
  695MPD2    H710286   1.758   3.195  14.001 -2.1061  0.0188 -1.6117
  696TMC3    C110287   1.198   3.259  13.579 -0.3919  0.7795  0.4810
  696TMC3    C210288   1.149   3.238  13.703  0.3040 -0.4729  0.1465
  696TMC3    C310289   1.064   3.329  13.757 -0.3636 -0.3412 -0.4406
  696TMC3    C410290   1.174   3.373  13.508  0.2196  0.2603  0.2968
  696TMC3    C510291   1.100   3.465  13.571  0.3445 -0.3138  0.0824
  696TMC3    C610292   1.040   3.444  13.690 -0.1113  0.1241  0.9520
  696TMC3     C10293   1.327   3.205  13.546 -0.3279  0.0775  0.4543
  696TMC3     O10294   1.355   3.188  13.426 -0.0142  0.1360  0.4239
  696TMC3     H10295   1.142   3.139  13.747  2.7648 -1.3495 -1.4434
  696TMC3    H110296   1.236   3.398  13.423  2.2746  1.4089  2.1051
  696TMC3    H210297   0.981   3.526  13.729 -0.2858  0.4664 -0.0470
  696TMC3    C710298   1.130   3.599  13.519 -0.1722 -0.0059  0.2322
  696TMC3    C810299   1.069   3.353  13.902 -0.1552 -0.2609  0.0335
  696TMC3    O110300   1.165   3.611  13.401 -0.1551  0.5614 -0.1653
  696TMC3    O210301   0.995   3.445  13.943  0.6406  0.1187  0.1639
  697MPD2     C10302   0.989   0.384  15.754 -0.1962 -0.8781 -0.2718
  697MPD2    C110303   1.000   0.308  15.641  0.2054 -0.5404  1.2926
  697MPD2    C210304   0.986   0.362  15.515 -0.3016  0.1409 -0.5977
  697MPD2    C310305   0.976   0.501  15.498 -0.0253 -0.2841  0.5293
  697MPD2    C410306   0.981   0.577  15.614  0.1151  0.2205  0.3848
  697MPD2    C510307   0.990   0.518  15.735  0.3958  0.0740 -0.5496
  697MPD2     H10308   0.993   0.301  15.426 -1.1725  0.7117 -1.0651
  697MPD2    H110309   0.978   0.684  15.596  0.1468  0.5577  2.3825
  697MPD2    H210310   0.998   0.346  15.855 -1.1802  0.8139  0.4316
  697MPD2    H310311   1.011   0.580  15.822  1.5032 -0.3839 -0.4919
  697MPD2     N10312   0.990   0.562  15.374  0.5241 -0.0865 -0.2709
  697MPD2    H510313   0.992   0.500  15.294  0.3981  1.6101 -1.5915
  697MPD2    N110314   1.021   0.168  15.637 -0.3690  0.2852 -1.0188
  697MPD2    H710315   1.010   0.124  15.546  1.2160  0.5506 -1.3336
  698TMC3    C110316   1.016   0.713  15.191  0.2148 -1.0658 -0.0650
  698TMC3    C210317   1.055   0.838  15.152  0.2413  0.2624 -0.5568
  698TMC3    C310318   1.074   0.847  15.022 -0.4698  0.0445  0.3558
  698TMC3    C410319   0.968   0.608  15.109  0.7915  0.7201  0.8705
  698TMC3    C510320   0.979   0.633  14.973 -0.2459 -0.1659  0.0088
  698TMC3    C610321   1.033   0.749  14.928  0.4055 -0.1784  0.8748
  698TMC3     C10322   0.996   0.697  15.337 -0.5292 -0.5335  0.1863
  698TMC3     O10323   0.986   0.798  15.405 -0.6223  0.4026 -0.2140
  698TMC3     H10324   1.093   0.913  15.219  0.7916  0.8900 -1.5690
  698TMC3    H110325   0.900   0.529  15.139  1.3346 -0.2503 -0.4357
  698TMC3    H210326   1.049   0.772  14.824  2.3818 -0.1585  1.1851
  698TMC3    C710327   0.936   0.544  14.871 -0.1137  0.0147  0.3047
  698TMC3    C810328   1.122   0.966  14.962 -0.4627  0.6471  1.0012
  698TMC3    O110329   0.962   0.584  14.760 -0.0180  0.0028 -0.1435
  698TMC3    O210330   1.108   0.974  14.838 -0.0891  0.8523 -0.0310
  699TMC3    C110331   0.827   3.511  13.023  0.2243 -0.7158 -0.1457
  699TMC3    C210332   0.863   3.380  13.042 -0.0624 -0.4288  0.4677
  699TMC3    C310333   0.763   3.295  13.075 -0.2885  0.7880 -0.0085
  699TMC3    C410334   0.695   3.553  13.026  0.3544  0.5576 -0.4116
  699TMC3    C510335   0.601   3.459  13.050  0.8476  0.1142 -0.3821
  699TMC3    C610336   0.627   3.325  13.070  0.0844 -0.3196 -0.2846
  699TMC3     C10337   0.914   3.607  12.942 -0.1398  0.1730  0.0505
  699TMC3     O10338   0.858   3.694  12.885 -0.0568  0.3073 -0.6486
  699TMC3     H10339   0.968   3.354  13.038  0.7671  2.8589  1.0416
  699TMC3    H110340   0.682   3.660  13.010  1.2463  0.6845 -0.3108
  699TMC3    H210341   0.550   3.250  13.079  1.0293 -1.3931 -1.1180
  699TMC3    C710342   0.469   3.509  13.090  0.3827  0.6096 -0.2073
  699TMC3    C810343   0.800   3.157  13.098  0.2324  0.2111 -0.3018
  699TMC3    O110344   0.418   3.460  13.188  0.3165  0.2765 -0.2208
  699TMC3    O210345   0.709   3.076  13.100 -0.0233  0.0461 -0.4034
  700TMC3    C110346   4.528   0.543  17.386  0.9999 -0.5364 -0.0973
  700TMC3    C210347   4.632   0.460  17.346  0.1654  0.2742 -0.1892
  700TMC3    C310348   4.684   0.371  17.443  0.1605 -0.0440  0.8062
  700TMC3    C410349   4.479   0.538  17.515  0.5898  0.4549 -0.2322
  700TMC3    C510350   4.538   0.449  17.606 -0.9589 -0.0214  0.2188
  700TMC3    C610351   4.632   0.359  17.571 -0.0621 -0.5255  0.2057
  700TMC3     C10352   4.493   0.659  17.305 -0.0158 -0.0965  1.0618
  700TMC3     O10353   4.379   0.707  17.314  0.1040  0.3782 -0.0083
  700TMC3     H10354   4.670   0.468  17.245 -1.1375  1.4552 -0.5796
  700TMC3    H110355   4.406   0.611  17.549  0.2885 -0.6710  1.5308
  700TMC3    H210356   4.682   0.307  17.652  3.1130  0.0217 -1.3849
  700TMC3    C710357   4.513   0.480   0.052  0.7920  0.2388  0.4969
  700TMC3    C810358   0.088   0.304  17.410  1.1487  0.4239 -0.2362
  700TMC3    O110359   4.456   0.584   0.071  0.3051  0.2211 -0.5171
  700TMC3    O210360   0.143   0.350  17.312 -0.2292  0.1575 -0.3119
  701TMC3    C110361   0.328   4.062  15.844 -0.7441  0.6660  0.8414
  701TMC3    C210362   0.313   3.984  15.733 -0.2172 -0.0872 -0.4431
  701TMC3    C310363   0.392   4.015  15.631 -0.1005 -0.7242  0.3284
  701TMC3    C410364   0.407   4.176  15.848  0.1549 -0.0432 -0.2980
  701TMC3    C510365   0.479   4.209  15.732  0.4074  0.2526 -0.6972
  701TMC3    C610366   0.468   4.129  15.621  0.2450  0.3661 -0.5044
  701TMC3     C10367   0.242   4.015  15.953  0.1521  0.3133  0.5269
  701TMC3     O10368   0.212   3.898  15.958  0.1406  0.0908 -0.3974
  701TMC3     H10369   0.250   3.896  15.722  0.2851 -0.3125 -1.5420
  701TMC3    H110370   0.443   4.210  15.945 -1.2184 -0.8641  0.4958
  701TMC3    H210371   0.515   4.166  15.530  0.9858 -0.6557 -0.5380
  701TMC3    C710372   0.556   4.336  15.725 -0.0831 -0.1648  0.1043
  701TMC3    C810373   0.362   3.942  15.510 -0.6561  0.0140  0.7424
  701TMC3    O110374   0.620   4.350  15.623  0.0428 -0.5820 -0.3688
  701TMC3    O210375   0.416   3.836  15.486 -0.0175 -0.4468 -0.3885
  702MPD2     C10376   4.229   1.361  10.568  0.1202 -0.3522 -0.9291
  702MPD2    C110377   4.160   1.458  10.628  0.4066 -0.4748  0.4209
  702MPD2    C210378   4.159   1.582  10.568 -1.0412  0.2239 -0.3085
  702MPD2    C310379   4.238   1.618  10.459  0.1073  0.3473 -0.7313
  702MPD2    C410380   4.321   1.518  10.415 -0.2134 -0.2534  0.3164
  702MPD2    C510381   4.311   1.392  10.462  0.2103 -0.2949  0.5788
  702MPD2     H10382   4.099   1.665  10.604 -0.8121  0.2255  0.0711
  702MPD2    H110383   4.395   1.530  10.336  0.4960  1.4442  1.2360
  702MPD2    H210384   4.234   1.257  10.598  0.9485  0.3522  1.3556
  702MPD2    H310385   4.378   1.315  10.424  2.4132  0.9161  2.0089
  702MPD2     N10386   4.249   1.747  10.401  0.7469 -0.7516  0.4448
  702MPD2    H510387   4.308   1.765  10.321  0.9317  0.6338  0.8981
  702MPD2    N110388   4.094   1.433  10.749 -0.0382  0.2194  0.5698
  702MPD2    H710389   4.063   1.518  10.794  2.7314 -0.1261  3.1603
  703TMC3    C110390   4.192   1.966  10.323 -0.1585  0.0947 -0.0128
  703TMC3    C210391   4.091   2.047  10.278  0.7205 -0.3009  0.3601
  703TMC3    C310392   4.125   2.162  10.208 -0.6744  0.1186 -0.5140
  703TMC3    C410393   4.327   1.995  10.295 -0.4201  0.0101  0.0691
  703TMC3    C510394   4.354   2.120  10.234  0.2749 -0.2056  0.4236
  703TMC3    C610395   4.256   2.204  10.195  0.3303  0.7545  0.2023
  703TMC3     C10396   4.165   1.859  10.418 -0.1772 -0.1961 -0.2700
  703TMC3     O10397   4.065   1.866  10.483 -0.5225 -0.1990  0.3419
  703TMC3     H10398   3.992   2.005  10.289  0.3367  0.9134  1.5614
  703TMC3    H110399   4.405   1.934  10.340  0.0746 -1.1267 -2.3201
  703TMC3    H210400   4.277   2.296  10.143  1.0862  0.5832  0.2035
  703TMC3    C710401   4.486   2.163  10.205  0.0438  0.0872  0.4113
  703TMC3    C810402   4.027   2.264  10.190 -0.0816 -0.1006 -0.2875
  703TMC3    O110403   4.490   2.253  10.119  0.6313 -0.2816 -0.1214
  703TMC3    O210404   4.064   2.360  10.122 -0.3600 -0.0151 -0.3044
  704TMC3    C110405   2.266   0.147  12.702  0.2147 -0.9063  0.1040
  704TMC3    C210406   2.383   0.165  12.625  0.6886 -0.0779  0.3779
  704TMC3    C310407   2.497   0.109  12.679  0.7632 -0.3403 -0.5530
  704TMC3    C410408   2.250   0.069  12.814  0.2963 -0.6708  0.6136
  704TMC3    C510409   2.363   0.005  12.853 -0.3725  0.0085  0.1414
  704TMC3    C610410   2.483   0.030  12.794  0.3696  0.5504 -0.0863
  704TMC3     C10411   2.143   0.208  12.665  0.1532  0.1346  0.7387
  704TMC3     O10412   2.071   0.239  12.759  0.0433 -0.2853  0.4562
  704TMC3     H10413   2.387   0.227  12.537  1.2366 -2.7202 -1.4705
  704TMC3    H110414   2.158   0.051  12.869  0.1609 -0.7327  0.3646
  704TMC3    H210415   2.569   4.703  12.838  0.1271  1.1494  1.0742
  704TMC3    C710416   2.352   4.586  12.883  0.1803  0.3522 -0.6791
  704TMC3    C810417   2.611   0.077  12.598 -0.1509  0.5120  0.1164
  704TMC3    O110418   2.443   4.513  12.840 -0.0259  0.8488 -0.4522
  704TMC3    O210419   2.592   0.044  12.483  0.3722 -0.0276  0.4823
  705MPD2     C10420   1.668   2.606  16.668 -0.2508  1.0821  0.3955
  705MPD2    C110421   1.683   2.743  16.651  0.3794  0.0441 -0.9736
  705MPD2    C210422   1.594   2.829  16.702  0.7415  0.1760 -0.1248
  705MPD2    C310423   1.470   2.786  16.760  0.2444 -0.4914  0.1866
  705MPD2    C410424   1.452   2.651  16.765 -0.9387  1.1771 -0.6923
  705MPD2    C510425   1.551   2.563  16.729 -0.6157 -0.1208  0.1806
  705MPD2     H10426   1.617   2.934  16.693 -1.7797  0.8108  0.5699
  705MPD2    H110427   1.354   2.619  16.800 -0.6319 -0.3086 -1.2168
  705MPD2    H210428   1.742   2.538  16.629 -0.4748  0.4004  1.1812
  705MPD2    H310429   1.534   2.456  16.725  0.4589 -0.4049  2.7970
  705MPD2     N10430   1.376   2.881  16.818 -0.1535 -1.4161 -0.5621
  705MPD2    H510431   1.289   2.848  16.859 -1.8660  3.5625 -0.1853
  705MPD2    N110432   1.783   2.797  16.569  0.4203 -0.5570  0.2012
  705MPD2    H710433   1.790   2.898  16.561 -0.3698 -0.4326  1.0605
  706TMC3    C110434   2.027   2.851  16.182 -0.2441  0.3548 -0.6043
  706TMC3    C210435   2.047   2.982  16.220  0.5634  0.5706 -0.6683
  706TMC3    C310436   2.035   3.013  16.353 -0.4784 -0.2324  0.6166
  706TMC3    C410437   1.980   2.760  16.276 -1.2301  0.7497  0.1780
  706TMC3    C510438   1.954   2.803  16.402  0.3718  0.3200 -0.3437
  706TMC3    C610439   1.976   2.930  16.445 -0.4904 -0.0919  0.3403
  706TMC3     C10440   2.085   2.786  16.070  0.1887  0.5646 -0.0122
  706TMC3     O10441   2.101   2.668  16.073 -0.4980 -0.2360 -1.1198
  706TMC3     H10442   2.098   3.049  16.151 -0.7350  2.0120 -0.2299
  706TMC3    H110443   1.953   2.659  16.245 -0.5800  0.7052 -0.2490
  706TMC3    H210444   1.963   2.959  16.549  0.2323 -1.6527  0.8469
  706TMC3    C710445   1.855   2.727  16.480 -0.3705  0.0639  0.2099
  706TMC3    C810446   2.038   3.152  16.371 -0.3618  0.7722  0.5702
  706TMC3    O110447   1.834   2.614  16.440 -0.1307  0.2063 -0.2420
  706TMC3    O210448   2.003   3.210  16.273  0.1326 -0.2586 -0.3943
  707TMC3    C110449   3.636   2.258   1.404  0.5144 -0.1806  0.2061
  707TMC3    C210450   3.604   2.175   1.505  0.1027 -0.2182 -0.2060
  707TMC3    C310451   3.498   2.203   1.581  0.0308  0.2364 -0.5497
  707TMC3    C410452   3.560   2.367   1.367 -0.3735 -0.3134 -0.6260
  707TMC3    C510453   3.445   2.379   1.445  0.7469 -0.5335  0.0315
  707TMC3    C610454   3.409   2.305   1.554  0.1583 -0.1205  0.0204
  707TMC3     C10455   3.719   2.187   1.310 -0.1407 -0.2116 -0.4321
  707TMC3     O10456   3.715   2.068   1.309  0.5587 -0.1934  0.7495
  707TMC3     H10457   3.685   2.110   1.536 -0.7896 -1.0437  0.4169
  707TMC3    H110458   3.586   2.430   1.283 -0.2060 -0.1819 -0.4760
  707TMC3    H210459   3.329   2.335   1.621 -0.6753  0.1266 -1.0972
  707TMC3    C710460   3.352   2.485   1.405  1.2022  0.2602  0.1826
  707TMC3    C810461   3.453   2.104   1.673 -0.0398 -0.0186 -0.1546
  707TMC3    O110462   3.392   2.570   1.328  0.4161  0.3199 -0.3599
  707TMC3    O210463   3.382   2.148   1.757 -0.5311 -0.4204 -0.0989
  708MPD2     C10464   0.970   1.095  12.866  0.1066 -0.3345  0.8783
  708MPD2    C110465   0.950   1.230  12.846  0.3558  0.1320 -0.2110
  708MPD2    C210466   0.877   1.305  12.936 -0.1206  0.3361  0.2402
  708MPD2    C310467   0.820   1.242  13.044  0.3442 -0.0236  0.2996
  708MPD2    C410468   0.849   1.110  13.066  0.0211 -0.3158  0.1787
  708MPD2    C510469   0.927   1.036  12.982  0.1019  0.1451 -0.6003
  708MPD2     H10470   0.885   1.412  12.926 -0.7872  0.1082 -2.5297
  708MPD2    H110471   0.814   1.058  13.154 -0.5627 -0.8562 -0.3706
  708MPD2    H210472   1.035   1.035  12.803 -0.9057 -0.4972 -0.0155
  708MPD2    H310473   0.963   0.937  13.009 -1.5085  0.0269  1.1141
  708MPD2     N10474   0.742   1.318  13.142  0.4697 -0.0722  0.0035
  708MPD2    H510475   0.712   1.267  13.225  1.0916 -1.9935 -0.9717
  708MPD2    N110476   0.999   1.277  12.729  0.1705 -0.2339 -0.2377
  708MPD2    H710477   1.038   1.210  12.663  1.0687 -0.0181  0.0750
  709TMC3    C110478   1.057   1.443  12.555  0.4575  0.1010  0.3028
  709TMC3    C210479   1.016   1.348  12.472  0.1194  0.0071  0.1582
  709TMC3    C310480   0.943   1.394  12.363 -0.5435  0.8657 -0.2195
  709TMC3    C410481   1.045   1.577  12.532  1.0233  0.3508  0.6562
  709TMC3    C510482   0.956   1.614  12.437  0.2795  0.4345  0.3157
  709TMC3    C610483   0.894   1.520  12.347 -0.1215 -0.2184 -0.9683
  709TMC3     C10484   1.017   1.413  12.691  0.0094 -0.3076 -0.6580
  709TMC3     O10485   0.990   1.517  12.750 -0.7882 -0.1143  0.2970
  709TMC3     H10486   1.022   1.242  12.493 -1.3765  0.0582  0.7848
  709TMC3    H110487   1.090   1.649  12.599 -0.6974  1.3882  0.6947
  709TMC3    H210488   0.826   1.545  12.266 -0.4695  1.6684 -0.0842
  709TMC3    C710489   0.868   1.716  12.465 -0.2180  0.3561 -0.6187
  709TMC3    C810490   0.870   1.274  12.304  0.6430  0.6429 -0.6760
  709TMC3    O110491   0.812   1.766  12.371  0.3206  0.2404 -0.9061
  709TMC3    O210492   0.944   1.183  12.261  0.3615  0.3229 -0.0273
  710TMC3    C110493   0.779   2.433   1.043  0.1650  0.4378 -0.1995
  710TMC3    C210494   0.850   2.486   0.937  0.0430 -0.7720  0.4475
  710TMC3    C310495   0.927   2.403   0.856 -0.9480  0.5412 -0.6628
  710TMC3    C410496   0.791   2.298   1.069 -0.3855 -0.4883 -0.4971
  710TMC3    C510497   0.863   2.220   0.979  0.2971  0.1430  0.2452
  710TMC3    C610498   0.920   2.266   0.865  0.3249 -0.7468 -0.7495
  710TMC3     C10499   0.722   2.516   1.143 -0.5211 -0.7504  0.3712
  710TMC3     O10500   0.712   2.479   1.259  0.4137 -0.6902 -0.3130
  710TMC3     H10501   0.849   2.594   0.925 -1.0117 -1.1595 -2.7990
  710TMC3    H110502   0.747   2.257   1.159 -0.8224 -0.1143 -0.5414
  710TMC3    H210503   0.983   2.211   0.795 -1.8748 -1.7916 -1.8857
  710TMC3    C710504   0.899   2.082   1.020  0.5026 -0.2484 -0.4881
  710TMC3    C810505   1.004   2.458   0.742  0.7889 -0.0949  0.0940
  710TMC3    O110506   0.886   2.055   1.139 -0.4974  0.2232  0.0154
  710TMC3    O210507   1.024   2.377   0.653  0.1221  0.0672  0.4936
  711TMC3    C110508   1.058   3.997  15.234  0.3208  0.0502  0.1351
  711TMC3    C210509   1.079   4.045  15.358 -0.3800 -0.1187 -0.8762
  711TMC3    C310510   1.186   4.004  15.426  0.5574 -0.6475  0.2466
  711TMC3    C410511   1.141   3.906  15.175  0.3146  0.2402  0.1626
  711TMC3    C510512   1.253   3.869  15.244 -0.2686 -0.3192  0.4379
  711TMC3    C610513   1.274   3.918  15.375 -0.6953 -0.0225 -0.3185
  711TMC3     C10514   0.935   4.028  15.163 -0.5733  0.3801  0.7138
  711TMC3     O10515   0.900   3.955  15.072  0.6203  0.1085  0.5689
  711TMC3     H10516   1.002   4.104  15.406  0.8040 -0.5877  1.5574
  711TMC3    H110517   1.136   3.879  15.070 -1.3868  1.3419 -0.0293
  711TMC3    H210518   1.354   3.872  15.432  0.6874  2.2373 -0.4222
  711TMC3    C710519   1.269   3.726  15.242 -0.0199 -0.4488  0.5952
  711TMC3    C810520   1.176   4.031  15.576  0.4068  0.1588 -0.0808
  711TMC3    O110521   1.338   3.672  15.331 -0.2040  0.4834 -0.0713
  711TMC3    O210522   1.082   4.093  15.620 -0.5215 -0.2539 -0.1998
  712MPD2     C10523   2.616   0.417  13.892  0.0512 -0.2396 -1.1183
  712MPD2    C110524   2.533   0.349  13.800  0.3045 -0.0856  0.1542
  712MPD2    C210525   2.530   0.386  13.666  0.1565 -0.6286  0.0551
  712MPD2    C310526   2.602   0.496  13.619  0.3001 -0.1831  0.2414
  712MPD2    C410527   2.688   0.561  13.711  0.3408  0.4178  0.0735
  712MPD2    C510528   2.696   0.517  13.845 -0.0781 -0.4691  0.2839
  712MPD2     H10529   2.477   0.318  13.600  0.6713  0.7251 -1.7626
  712MPD2    H110530   2.739   0.652  13.684  0.5766  0.2046 -0.2034
  712MPD2    H210531   2.625   0.410  14.000  2.3924 -2.0911 -1.4293
  712MPD2    H310532   2.749   0.576  13.918  0.8060  0.1845 -0.8822
  712MPD2     N10533   2.591   0.533  13.485 -0.3512 -0.2134 -0.1863
  712MPD2    H510534   2.640   0.619  13.462 -0.8003  0.0137 -0.2943
  712MPD2    N110535   2.446   0.245  13.839  0.7262  0.9077 -0.0200
  712MPD2    H710536   2.392   0.203  13.764 -1.8000  1.0216  1.7245
  713TMC3    C110537   2.544   0.539  13.264 -0.4947 -0.4917 -1.0768
  713TMC3    C210538   2.670   0.548  13.208 -0.0576  0.2987 -0.8407
  713TMC3    C310539   2.694   0.657  13.128 -0.5398 -0.7686 -0.3791
  713TMC3    C410540   2.461   0.650  13.255 -0.2313  0.4839  0.6851
  713TMC3    C510541   2.488   0.754  13.172  0.5443  0.1028 -0.2916
  713TMC3    C610542   2.600   0.752  13.101  0.0384 -0.3564  0.1778
  713TMC3     C10543   2.529   0.463  13.384 -0.3048 -0.0898 -0.0814
  713TMC3     O10544   2.463   0.360  13.390 -0.1138  0.4672 -0.0699
  713TMC3     H10545   2.746   0.476  13.234 -0.2384  0.7915  1.0669
  713TMC3    H110546   2.371   0.646  13.316  0.3018 -0.3713  1.4267
  713TMC3    H210547   2.628   0.837  13.039 -1.1991  0.1691  0.3430
  713TMC3    C710548   2.475   0.886  13.234 -0.7741 -0.5302 -0.5169
  713TMC3    C810549   2.834   0.675  13.079  0.1001 -0.6140  0.0154
  713TMC3    O110550   2.546   0.977  13.195 -0.2327 -0.2918 -0.7496
  713TMC3    O210551   2.864   0.796  13.076 -0.3387 -0.0511  0.0894
  714MPD2     C10552   0.363   3.757   1.701 -0.5210  0.0552 -0.5357
  714MPD2    C110553   0.274   3.661   1.657  1.1300  0.3436  0.2312
  714MPD2    C210554   0.168   3.697   1.575 -0.3835  0.0574 -0.5018
  714MPD2    C310555   0.160   3.832   1.534 -0.0119 -0.1974  0.0120
  714MPD2    C410556   0.247   3.925   1.585  0.0129  0.0364 -0.0243
  714MPD2    C510557   0.347   3.890   1.664 -0.4223  0.8703  0.0222
  714MPD2     H10558   0.097   3.629   1.529  0.1994  0.4218 -1.9219
  714MPD2    H110559   0.249   4.030   1.557  0.1778  0.1410  0.3782
  714MPD2    H210560   0.440   3.737   1.775 -3.3378 -4.0922  1.2579
  714MPD2    H310561   0.412   3.966   1.706  0.2230  0.2479  0.1601
  714MPD2     N10562   0.057   3.862   1.442  0.0643 -0.4106 -0.3191
  714MPD2    H510563   0.001   3.783   1.412 -0.9596 -0.0840  0.7357
  714MPD2    N110564   0.312   3.527   1.684 -0.2439  0.5441  0.4917
  714MPD2    H710565   0.400   3.515   1.732 -0.0824 -1.0002 -0.2011
  715TMC3    C110566   0.314   3.291   1.687 -0.5523 -0.0831  0.2751
  715TMC3    C210567   0.249   3.174   1.684 -0.0284  0.0902 -0.4842
  715TMC3    C310568   0.328   3.059   1.677  0.7032  0.6138  0.5320
  715TMC3    C410569   0.453   3.293   1.661 -0.4270 -0.2081  0.0308
  715TMC3    C510570   0.526   3.182   1.642  0.2369 -0.0395  0.5901
  715TMC3    C610571   0.460   3.057   1.655 -0.2867  0.0558 -0.5559
  715TMC3     C10572   0.237   3.414   1.669 -0.9527 -0.0971  0.1135
  715TMC3     O10573   0.120   3.403   1.632  0.2230 -0.2635  0.1871
  715TMC3     H10574   0.141   3.175   1.683 -0.0202  0.9470 -0.4113
  715TMC3    H110575   0.505   3.388   1.658 -0.6309 -0.0440  2.0290
  715TMC3    H210576   0.510   2.961   1.650  0.8256  0.6118 -0.3478
  715TMC3    C710577   0.665   3.202   1.626  0.8215  0.0618  1.4316
  715TMC3    C810578   0.260   2.933   1.695 -0.9341  0.4476 -0.0967
  715TMC3    O110579   0.698   3.297   1.553  0.2026  0.4546  0.3021
  715TMC3    O210580   0.311   2.829   1.665  0.1758  0.2185 -0.0362
  716MPD2     C10581   4.340   1.388  10.035  0.1492  0.4074  0.0268
  716MPD2    C110582   4.344   1.378   9.898  0.0210 -0.2432  0.3992
  716MPD2    C210583   4.420   1.283   9.826  0.0024  0.2159 -0.4772
  716MPD2    C310584   4.477   1.180   9.902  0.8415  0.3011 -0.0635
  716MPD2    C410585   4.464   1.186  10.040  0.2922 -0.5939 -0.2763
  716MPD2    C510586   4.385   1.277  10.108 -0.0313 -0.5622 -0.4004
  716MPD2     H10587   4.415   1.271   9.719 -0.1463  1.2646 -0.5856
  716MPD2    H110588   4.508   1.106  10.098  1.5679  0.4311  0.1720
  716MPD2    H210589   4.276   1.468  10.070 -0.0808  0.4259 -0.4440
  716MPD2    H310590   4.381   1.273  10.216  1.1813 -0.4919 -0.3515
  716MPD2     N10591   4.555   1.090   9.838  1.2519  0.1806 -0.3692
  716MPD2    H510592   4.577   1.109   9.741  3.5549 -2.3385 -0.3421
  716MPD2    N110593   4.289   1.480   9.813 -0.6491 -0.1551  0.4997
  716MPD2    H710594   4.326   1.486   9.719 -0.1711  0.9292  0.7631
  717TMC3    C110595   4.662   0.897   9.783  0.4314  0.1714 -0.0101
  717TMC3    C210596   4.590   0.882   9.669 -0.2563 -0.6122 -0.0792
  717TMC3    C310597   4.645   0.858   9.546  0.5471 -0.1749 -0.4776
  717TMC3    C410598   0.069   0.901   9.786  0.5118  0.5196 -0.2209
  717TMC3    C510599   0.134   0.897   9.664  0.2805  0.4225  0.0042
  717TMC3    C610600   0.061   0.868   9.542 -0.2221  0.3053 -0.0261
  717TMC3     C10601   4.597   0.966   9.886 -0.1925 -0.1698 -0.2340
  717TMC3     O10602   4.601   0.927  10.001  0.2580  0.4279 -0.0164
  717TMC3     H10603   4.483   0.895   9.682 -0.4527 -1.3624 -1.0186
  717TMC3    H110604   0.126   0.913   9.878  2.4414 -1.0832 -1.2035
  717TMC3    H210605   0.110   0.878   9.446  0.3108 -0.7502  0.1339
  717TMC3    C710606   0.276   0.926   9.647 -0.0066  0.4870  0.7255
  717TMC3    C810607   4.557   0.898   9.432  0.1574 -1.2129  0.5125
  717TMC3    O110608   0.323   0.910   9.534 -0.0938  0.3079 -0.1859
  717TMC3    O210609   4.453   0.952   9.459 -0.0948 -0.0126  0.5030
  718MPD2     C10610   4.200   0.751  13.140  0.1374  0.1726  0.7298
  718MPD2    C110611   4.269   0.636  13.099  0.4008  0.1725 -0.3675
  718MPD2    C210612   4.237   0.519  13.166  0.1258 -0.4822 -0.5208
  718MPD2    C310613   4.123   0.515  13.251 -0.7469  0.6568 -0.3945
  718MPD2    C410614   4.058   0.639  13.286  0.5402  0.0435 -0.2454
  718MPD2    C510615   4.094   0.754  13.233 -0.5297  0.1466  0.4368
  718MPD2     H10616   4.281   0.423  13.141  2.7702  0.6902 -0.3545
  718MPD2    H110617   3.967   0.636  13.345  0.3270 -0.6286 -0.6062
  718MPD2    H210618   4.232   0.848  13.103 -0.7423  1.0145  2.1730
  718MPD2    H310619   4.040   0.841  13.269 -1.0301  0.0990 -0.1883
  718MPD2     N10620   4.088   0.394  13.311 -0.4183 -0.3624  0.1149
  718MPD2    H510621   4.138   0.314  13.275 -0.8504 -1.5806  2.2167
  718MPD2    N110622   4.369   0.643  12.992 -0.0277  0.0200 -0.4371
  718MPD2    H710623   4.371   0.733  12.946  0.9400  0.2493  0.0434
  719TMC3    C110624   4.506   0.546  12.818 -0.4634 -0.3411 -0.3550
  719TMC3    C210625   4.549   0.422  12.780  0.4179 -0.1133  0.4833
  719TMC3    C310626   4.499   0.373  12.656  0.4166 -0.8250  0.2641
  719TMC3    C410627   4.448   0.623  12.726  0.0381  0.0578 -0.2929
  719TMC3    C510628   4.415   0.575  12.600 -0.3935  0.0157  0.0673
  719TMC3    C610629   4.437   0.445  12.556 -0.2196 -0.2317  0.4066
  719TMC3     C10630   4.441   0.537  12.946 -0.9673  0.0803 -0.2350
  719TMC3     O10631   4.445   0.425  12.988 -0.2949 -0.5876  0.5152
  719TMC3     H10632   4.604   0.367  12.856  0.0526 -0.4228  0.5182
  719TMC3    H110633   4.410   0.720  12.753 -1.4096 -0.4428 -0.5132
  719TMC3    H210634   4.389   0.408  12.466 -1.3742  0.7180  0.6359
  719TMC3    C710635   4.319   0.649  12.525 -0.7390  0.1021 -0.8063
  719TMC3    C810636   4.434   0.246  12.668  0.5818  0.0373  0.3187
  719TMC3    O110637   4.341   0.672  12.410 -0.3264 -0.0799 -0.3449
  719TMC3    O210638   4.406   0.199  12.563 -0.2612 -0.0868  0.7916
  720MPD2     C10639   2.016   2.706  14.218 -0.0663  0.8545 -0.9472
  720MPD2    C110640   2.073   2.634  14.111  0.5675  0.3718 -0.6845
  720MPD2    C210641   2.129   2.504  14.136  0.5056 -0.0465 -0.0219
  720MPD2    C310642   2.129   2.450  14.265  0.3308  0.2638 -0.4523
  720MPD2    C410643   2.070   2.523  14.364  1.3318 -0.2771 -0.5126
  720MPD2    C510644   2.011   2.644  14.344  0.3469 -0.2474  0.4224
  720MPD2     H10645   2.165   2.447  14.052 -0.9528 -2.2088  0.8264
  720MPD2    H110646   2.058   2.481  14.463  2.7509  0.8974  0.1580
  720MPD2    H210647   1.960   2.798  14.205  2.1725  2.7934  2.8561
  720MPD2    H310648   1.963   2.703  14.421 -1.3895 -0.8616 -0.2098
  720MPD2     N10649   2.202   2.331  14.284 -0.1715 -0.0552 -0.4357
  720MPD2    H510650   2.221   2.278  14.199 -0.8225 -2.9804  1.2239
  720MPD2    N110651   2.074   2.668  13.972  0.3981  0.3248 -0.2437
  720MPD2    H710652   2.115   2.592  13.918  0.1239 -0.5044  0.7216
  721TMC3    C110653   2.325   2.158  14.381  0.1588  0.2899 -0.4532
  721TMC3    C210654   2.298   2.054  14.465  0.1520 -0.1015  0.1487
  721TMC3    C310655   2.341   1.931  14.431  0.5037  0.5099  0.0065
  721TMC3    C410656   2.402   2.155  14.271  0.3114  0.1636 -0.3764
  721TMC3    C510657   2.443   2.027  14.235  0.4313  0.1313 -0.3973
  721TMC3    C610658   2.414   1.916  14.313 -0.3036  0.1064  0.4962
  721TMC3     C10659   2.246   2.274  14.401  0.2143 -0.2253  0.0471
  721TMC3     O10660   2.220   2.295  14.518  0.3579 -0.5766 -0.1706
  721TMC3     H10661   2.226   2.072  14.544  0.7953  2.7266  0.1180
  721TMC3    H110662   2.454   2.237  14.222  1.2596  0.0071  0.3474
  721TMC3    H210663   2.468   1.824  14.296  0.0821  0.1464  1.4954
  721TMC3    C710664   2.564   2.014  14.149  0.9826  0.1045  0.3759
  721TMC3    C810665   2.406   1.843  14.530 -0.3405 -0.1798 -0.2216
  721TMC3    O110666   2.643   2.106  14.141  0.2696  0.1399 -0.6066
  721TMC3    O210667   2.450   1.736  14.499  0.2281  0.3428 -0.4184
  722MPD2     C10668   1.664   0.499  13.884  0.1242  0.0619  0.3253
  722MPD2    C110669   1.583   0.607  13.848 -0.1155  0.0199 -0.3049
  722MPD2    C210670   1.450   0.577  13.809  0.4123 -0.2524 -0.1750
  722MPD2    C310671   1.414   0.450  13.783  0.1803 -0.1530 -0.4261
  722MPD2    C410672   1.501   0.344  13.817 -0.2350  0.0296  0.0374
  722MPD2    C510673   1.625   0.369  13.866  0.0546  0.0979  0.1406
  722MPD2     H10674   1.385   0.662  13.795  0.4369 -0.4882 -1.7602
  722MPD2    H110675   1.484   0.237  13.808 -0.2394  0.0264  0.0854
  722MPD2    H210676   1.763   0.522  13.922 -0.3133  1.6787  0.4740
  722MPD2    H310677   1.689   0.284  13.884 -1.0882 -0.9263 -0.6414
  722MPD2     N10678   1.289   0.434  13.727  0.1112 -0.3356  0.5820
  722MPD2    H510679   1.236   0.514  13.693 -2.0470 -1.2134  1.8559
  722MPD2    N110680   1.621   0.744  13.833 -0.2939 -0.4177  0.1165
  722MPD2    H710681   1.547   0.802  13.795 -0.7191  0.5345  2.3944
  723TMC3    C110682   1.118   0.306  13.620 -0.3993  0.0585 -0.2474
  723TMC3    C210683   1.047   0.190  13.617 -0.5701 -0.0410 -0.0420
  723TMC3    C310684   0.955   0.176  13.512  0.6538 -0.2484  0.5028
  723TMC3    C410685   1.109   0.408  13.522  0.4082 -0.3778 -0.0765
  723TMC3    C510686   1.019   0.382  13.417 -0.2146 -0.7121  0.1746
  723TMC3    C610687   0.942   0.273  13.415 -0.3817 -0.8000 -0.7024
  723TMC3     C10688   1.232   0.311  13.714  0.0337 -0.1760 -0.4632
  723TMC3     O10689   1.244   0.212  13.782  0.4690 -0.4481  0.3904
  723TMC3     H10690   1.069   0.114  13.691 -1.5109  0.3733  0.6475
  723TMC3    H110691   1.187   0.483  13.514 -1.8689  2.1723  1.8122
  723TMC3    H210692   0.866   0.268  13.338 -0.8164  1.3368 -0.4139
  723TMC3    C710693   1.027   0.451  13.283  0.2381 -0.3270 -0.1137
  723TMC3    C810694   0.907   0.042  13.482  0.1972 -0.6944  0.2624
  723TMC3    O110695   0.981   0.395  13.181 -0.2134  0.5037 -0.0085
  723TMC3    O210696   0.912   4.680  13.571  0.3105  0.0186 -0.7316
  724TMC3    C110697   1.624   3.486   9.857  0.0321 -0.5155 -0.5454
  724TMC3    C210698   1.529   3.581   9.894  0.0672 -0.1272 -0.1616
  724TMC3    C310699   1.579   3.700   9.946  0.5783 -0.0982 -0.2579
  724TMC3    C410700   1.757   3.508   9.856 -0.0511  0.0320 -0.3635
  724TMC3    C510701   1.800   3.630   9.892 -0.0436  0.2220  0.4390
  724TMC3    C610702   1.714   3.724   9.951  0.4491 -0.2604 -0.3691
  724TMC3     C10703   1.579   3.375   9.773  0.3879 -0.8493  0.3788
  724TMC3     O10704   1.636   3.368   9.665 -0.2981  0.3210  0.1143
  724TMC3     H10705   1.426   3.581   9.860  0.0778  2.2381 -0.1402
  724TMC3    H110706   1.822   3.434   9.811 -1.4822 -1.1098 -0.5591
  724TMC3    H210707   1.766   3.818   9.966 -0.1905 -0.0148  0.2639
  724TMC3    C710708   1.939   3.649   9.855 -0.0321  0.4330  0.9196
  724TMC3    C810709   1.480   3.808   9.955 -0.0377 -0.6457  0.3644
  724TMC3    O110710   2.000   3.547   9.837  0.3545 -0.2130 -0.1107
  724TMC3    O210711   1.364   3.795   9.917  0.6098  0.2096 -0.3066
  725TMC3    C110712   3.028   2.437  13.432  0.5059 -0.7757  0.3692
  725TMC3    C210713   2.963   2.507  13.332 -0.3328 -0.5272 -0.9915
  725TMC3    C310714   2.884   2.431  13.255  0.5218  0.3028 -1.3171
  725TMC3    C410715   3.036   2.297  13.436 -0.8691 -0.3170 -0.4967
  725TMC3    C510716   2.962   2.232  13.347  0.4755  0.4082  0.4615
  725TMC3    C610717   2.888   2.296  13.250  0.3255 -0.1328  0.4138
  725TMC3     C10718   3.126   2.520  13.502 -0.4408  0.9548 -0.0098
  725TMC3     O10719   3.146   2.631  13.455 -0.4063 -0.0218  0.3560
  725TMC3     H10720   2.978   2.613  13.315 -1.6670 -0.0072  1.1626
  725TMC3    H110721   3.100   2.247  13.508 -0.0725 -0.5575 -1.3696
  725TMC3    H210722   2.833   2.245  13.172  1.2072  0.7847 -0.8062
  725TMC3    C710723   3.021   2.100  13.324  0.3335  0.3104  0.1206
  725TMC3    C810724   2.792   2.495  13.166 -0.1369  0.9788  0.6902
  725TMC3    O110725   3.130   2.078  13.380 -0.0646  0.2156 -0.0749
  725TMC3    O210726   2.693   2.425  13.139 -0.0288  0.2849 -0.5519
  726MPD2     C10727   1.037   3.745  10.571  0.0706  0.5100 -0.5911
  726MPD2    C110728   0.941   3.825  10.512 -0.1183 -0.4105 -0.0592
  726MPD2    C210729   0.861   3.770  10.422 -0.1444  0.1326  0.1590
  726MPD2    C310730   0.867   3.633  10.403 -0.6254  0.3496 -0.5925
  726MPD2    C410731   0.963   3.550  10.463  0.5241  0.1912 -0.9120
  726MPD2    C510732   1.046   3.606  10.549  0.0107 -0.9623 -0.8185
  726MPD2     H10733   0.776   3.824  10.381 -0.6549 -2.8826 -2.7409
  726MPD2    H110734   0.976   3.443  10.448  2.6707  0.5724 -1.7543
  726MPD2    H210735   1.101   3.788  10.646  1.3511  0.7531 -1.8152
  726MPD2    H310736   1.119   3.544  10.600 -0.0051  1.4740  2.1574
  726MPD2     N10737   0.771   3.568  10.326  0.5661  0.2739 -1.0703
  726MPD2    H510738   0.750   3.471  10.351 -0.8550  0.8497 -0.0424
  726MPD2    N110739   0.922   3.961  10.540 -0.1356  0.1958 -0.8417
  726MPD2    H710740   0.842   4.004  10.494  1.3260  0.9083 -2.7456
  727TMC3    C110741   0.964   4.173  10.626 -0.0876 -0.1001  0.5611
  727TMC3    C210742   1.034   4.251  10.712 -1.0751 -0.3698  0.3046
  727TMC3    C310743   1.025   4.384  10.705  0.3358 -0.0478 -0.6941
  727TMC3    C410744   0.886   4.224  10.529 -0.2991 -0.4336 -0.1482
  727TMC3    C510745   0.875   4.357  10.528 -0.2705  0.3132  0.0292
  727TMC3    C610746   0.940   4.440  10.616 -0.3408 -0.2055  0.0955
  727TMC3     C10747   0.990   4.032  10.633 -0.2085 -0.3985  0.1087
  727TMC3     O10748   1.075   3.998  10.716  0.9178  0.4002 -0.9725
  727TMC3     H10749   1.107   4.209  10.780  0.4700 -0.6639 -1.5396
  727TMC3    H110750   0.831   4.160  10.462  0.1758 -1.0391  0.0388
  727TMC3    H210751   0.944   4.547  10.597 -1.7890  0.2567  2.3436
  727TMC3    C710752   0.768   4.415  10.448 -0.4295 -0.0320 -1.1065
  727TMC3    C810753   1.133   4.463  10.759  0.3879  0.2878  0.0644
  727TMC3    O110754   0.671   4.341  10.426  0.7314  0.1362 -0.1130
  727TMC3    O210755   1.237   4.399  10.765  0.2415  0.2471  0.5891
  728TMC3    C110756   0.462   2.821  15.601 -0.2551  0.1902  0.3057
  728TMC3    C210757   0.547   2.917  15.641  0.6272 -0.4765  0.2975
  728TMC3    C310758   0.567   3.021  15.557  0.1549  0.1324 -0.3122
  728TMC3    C410759   0.429   2.809  15.471 -0.6374 -0.5265  0.1982
  728TMC3    C510760   0.458   2.908  15.384  0.5302  0.0171  0.5554
  728TMC3    C610761   0.522   3.018  15.431  0.0387  0.2393  0.3410
  728TMC3     C10762   0.450   2.702  15.691  0.0437  0.1785 -0.3004
  728TMC3     O10763   0.545   2.686  15.771  0.8179  0.5115  0.0566
  728TMC3     H10764   0.593   2.915  15.740 -1.8868 -0.5599  1.4530
  728TMC3    H110765   0.367   2.730  15.431 -1.4136 -0.7858  1.8898
  728TMC3    H210766   0.547   3.101  15.366  0.2857  1.6324  2.2324
  728TMC3    C710767   0.403   2.906  15.252  0.6356 -0.0794 -0.1645
  728TMC3    C810768   0.616   3.150  15.612 -0.5677  0.4658 -0.0490
  728TMC3    O110769   0.376   2.798  15.202  0.4281  0.2689 -0.3870
  728TMC3    O210770   0.680   3.134  15.715  0.0643 -0.1684  0.1873
  729MPD2     C10771   3.051   3.361  16.934 -0.4209  0.3770 -0.2101
  729MPD2    C110772   2.957   3.462  16.909  0.3944  0.7607  0.3166
  729MPD2    C210773   2.880   3.496  17.021  0.4827  0.1144 -0.2174
  729MPD2    C310774   2.876   3.432  17.145 -0.5415 -0.1052 -0.7175
  729MPD2    C410775   2.962   3.321  17.154  0.2487  0.2517 -0.7820
  729MPD2    C510776   3.048   3.294  17.050 -0.4759 -0.0170 -0.6913
  729MPD2     H10777   2.809   3.578  17.012  1.2945  1.0666  1.9375
  729MPD2    H110778   2.951   3.248  17.234  0.0704  1.5851  0.4083
  729MPD2    H210779   3.120   3.327  16.858  0.4007  0.0257  0.6845
  729MPD2    H310780   3.114   3.209  17.057  0.1690  0.6674  1.6012
  729MPD2     N10781   2.793   3.469  17.262  0.0357  0.8681  0.0737
  729MPD2    H510782   2.792   3.405  17.340  1.5173 -1.9767 -2.2200
  729MPD2    N110783   2.948   3.515  16.779 -0.4695  0.1761 -0.0984
  729MPD2    H710784   3.003   3.474  16.705  1.7099 -1.0765  2.2154
  730TMC3    C110785   2.671   3.610  17.418  0.4094  0.0231 -0.2827
  730TMC3    C210786   2.725   3.547  17.526 -0.4735 -0.0408  0.5755
  730TMC3    C310787   2.671   3.573  17.650 -0.4705 -0.1666 -0.2156
  730TMC3    C410788   2.575   3.704  17.438 -0.4079 -0.4120 -0.3168
  730TMC3    C510789   2.519   3.723  17.563  0.3772  0.5029 -0.1793
  730TMC3    C610790   2.565   3.656  17.672  0.6756  0.1970  0.0754
  730TMC3     C10791   2.733   3.591  17.285  0.0563 -0.1726  0.1644
  730TMC3     O10792   2.701   3.675  17.203 -0.4141  0.5983  0.3490
  730TMC3     H10793   2.807   3.476  17.521  1.0743  1.8195 -0.4242
  730TMC3    H110794   2.531   3.753  17.351  2.2961  0.2344 -1.3329
  730TMC3    H210795   2.531   3.680   0.077  3.2363 -0.4610  1.0827
  730TMC3    C710796   2.475   3.857  17.601  0.4456 -0.4388  0.5260
  730TMC3    C810797   2.770   3.596   0.060 -0.0173 -0.8919  0.8502
  730TMC3    O110798   2.473   3.877   0.027  0.1416  0.1188 -0.0026
  730TMC3    O210799   2.729   3.571   0.172 -0.4095  0.3656 -0.1846
  731MPD2     C10800   2.628   2.619  12.460 -0.0945  0.5451  0.3593
  731MPD2    C110801   2.703   2.577  12.567 -0.1895  0.3864  0.0327
  731MPD2    C210802   2.643   2.543  12.687 -0.3833 -0.1738  0.3297
  731MPD2    C310803   2.507   2.524  12.695 -0.7944 -0.7686 -0.2305
  731MPD2    C410804   2.431   2.550  12.580 -1.0447 -0.0605 -0.2304
  731MPD2    C510805   2.495   2.604  12.468  0.0665  0.7281 -0.1775
  731MPD2     H10806   2.703   2.521  12.774  0.6529  0.2069 -0.2925
  731MPD2    H110807   2.323   2.550  12.569 -1.0227 -0.6039 -0.4656
  731MPD2    H210808   2.675   2.642  12.365  0.5074 -1.4264  0.1755
  731MPD2    H310809   2.436   2.641  12.384 -2.8777 -1.6510  0.8391
  731MPD2     N10810   2.461   2.479  12.813  0.0459  0.0551  0.0528
  731MPD2    H510811   2.516   2.471  12.898 -1.8788 -0.4070  1.2464
  731MPD2    N110812   2.844   2.589  12.545  0.1644 -0.1013 -0.0292
  731MPD2    H710813   2.872   2.617  12.452 -0.9986 -1.3916 -0.7726
  732TMC3    C110814   3.074   2.578  12.575  0.1142  0.1495  0.2045
  732TMC3    C210815   3.101   2.510  12.458 -0.1264 -0.4776 -0.4898
  732TMC3    C310816   3.211   2.433  12.446 -0.5555  0.1722  0.6764
  732TMC3    C410817   3.167   2.585  12.670 -0.0483  0.2877 -0.1661
  732TMC3    C510818   3.284   2.521  12.656 -1.1440 -0.8896  0.1062
  732TMC3    C610819   3.303   2.442  12.543  0.0725  0.2580  0.3179
  732TMC3     C10820   2.942   2.561  12.639  0.3875 -0.8525  0.9436
  732TMC3     O10821   2.940   2.526  12.758 -0.0912  0.4977  0.1375
  732TMC3     H10822   3.024   2.507  12.381  0.0635  1.1640 -0.7617
  732TMC3    H110823   3.150   2.660  12.747 -0.1953 -0.1069  0.1798
  732TMC3    H210824   3.388   2.377  12.526 -0.1808 -0.0226  0.1225
  732TMC3    C710825   3.353   2.495  12.776  0.1266 -0.2605 -0.5551
  732TMC3    C810826   3.222   2.324  12.342 -0.1748 -0.1914  0.1454
  732TMC3    O110827   3.342   2.585  12.862  0.1401  0.0399  0.8599
  732TMC3    O210828   3.325   2.263  12.331  0.9519  0.2568 -0.2113
  733TMC3    C110829   3.779   0.107  13.360 -0.5092  0.1625 -0.1862
  733TMC3    C210830   3.823   0.215  13.435  0.1987 -0.5398  1.0448
  733TMC3    C310831   3.962   0.231  13.426 -0.5520  0.0356  0.0891
  733TMC3    C410832   3.867   0.015  13.302  0.6143 -0.2658  0.0880
  733TMC3    C510833   4.002   0.026  13.316 -0.2208  0.5015  0.8079
  733TMC3    C610834   4.047   0.144  13.358 -0.0275  0.6090  0.1216
  733TMC3     C10835   3.635   0.083  13.345  0.4097 -0.5920  0.8697
  733TMC3     O10836   3.593   0.021  13.251  0.0359 -0.1342 -0.2165
  733TMC3     H10837   3.753   0.293  13.463  1.3973 -0.2725  3.2986
  733TMC3    H110838   3.822   4.650  13.257  1.1406 -1.0530  1.1089
  733TMC3    H210839   4.155   0.146  13.369  0.0071 -0.1561 -0.0360
  733TMC3    C710840   4.074   4.684  13.210 -0.4564 -0.3189 -0.1053
  733TMC3    C810841   3.980   0.371  13.395  0.2373  0.4176  0.0608
  733TMC3    O110842   4.037   4.574  13.176  0.2293 -0.3889  0.1695
  733TMC3    O210843   3.905   0.453  13.447 -0.1478  0.7650 -0.2045
  734MPD2     C10844   1.146   3.015  12.024 -0.4492 -0.0885  0.0055
  734MPD2    C110845   1.035   2.941  11.988 -0.4837 -0.2471 -0.3624
  734MPD2    C210846   1.012   2.896  11.861 -0.0970  0.8137 -0.4612
  734MPD2    C310847   1.110   2.914  11.770 -0.5095 -0.0709  0.1333
  734MPD2    C410848   1.221   2.988  11.800  0.5432 -0.3868 -0.1658
  734MPD2    C510849   1.240   3.033  11.927 -0.1181 -0.5618  0.1922
  734MPD2     H10850   0.925   2.838  11.834  0.7083 -0.7169  0.1938
  734MPD2    H110851   1.294   3.001  11.720  0.1954 -2.2546 -0.8015
  734MPD2    H210852   1.150   3.058  12.124 -2.8821  1.6284 -0.6539
  734MPD2    H310853   1.332   3.089  11.943  0.1967 -0.5415 -1.6734
  734MPD2     N10854   1.097   2.843  11.651  0.2451 -0.7998 -0.1075
  734MPD2    H510855   1.014   2.785  11.638 -0.5228  0.3016 -0.0562
  734MPD2    N110856   0.958   2.892  12.091  0.1570 -0.3487  0.4023
  734MPD2    H710857   0.990   2.901  12.187 -0.1701  1.2604  0.3536
  735TMC3    C110858   0.791   2.763  12.197 -0.3351  1.0953 -0.0213
  735TMC3    C210859   0.674   2.694  12.160 -0.2945 -0.0594 -0.3231
  735TMC3    C310860   0.657   2.563  12.199  0.2512  0.2667 -0.7690
  735TMC3    C410861   0.894   2.696  12.262 -0.5551  0.5629  0.2639
  735TMC3    C510862   0.872   2.562  12.292 -0.3048 -0.0070  0.1666
  735TMC3    C610863   0.749   2.502  12.268 -0.2526 -0.0870 -0.0831
  735TMC3     C10864   0.840   2.827  12.077 -0.8793 -0.2004 -0.5412
  735TMC3     O10865   0.762   2.810  11.980  0.6861 -0.1625  0.2910
  735TMC3     H10866   0.589   2.749  12.123 -0.4918 -0.3642 -0.3211
  735TMC3    H110867   0.990   2.741  12.289 -0.1067  0.7569 -1.6739
  735TMC3    H210868   0.732   2.395  12.276  2.6426 -0.3481  2.7214
  735TMC3    C710869   0.986   2.486  12.269 -0.1018  0.1064  0.0264
  735TMC3    C810870   0.614   2.472  12.097  0.4886 -0.2942  0.6211
  735TMC3    O110871   1.076   2.533  12.205 -0.1679 -0.2548 -0.5706
  735TMC3    O210872   0.578   2.358  12.127 -0.2287 -0.3973 -0.1701
  736MPD2     C10873   1.076   2.160  12.407  0.2425 -0.0754 -0.3261
  736MPD2    C110874   1.091   2.274  12.331  0.6489 -0.3700  0.8784
  736MPD2    C210875   1.190   2.270  12.238 -0.7213  0.4243  0.1529
  736MPD2    C310876   1.268   2.164  12.206  0.0913 -0.3627 -0.8257
  736MPD2    C410877   1.259   2.052  12.281 -0.0817  0.7360 -0.0290
  736MPD2    C510878   1.168   2.059  12.384 -0.2049  0.8724  0.0649
  736MPD2     H10879   1.210   2.361  12.182  0.2883  0.1520  0.0758
  736MPD2    H110880   1.320   1.964  12.268 -2.9937 -1.3096 -0.0164
  736MPD2    H210881   1.000   2.169  12.484  0.3724  1.0163 -0.3151
  736MPD2    H310882   1.149   1.966  12.436 -0.2775  0.4707 -0.6783
  736MPD2     N10883   1.352   2.161  12.093  0.3381  0.2668  0.0479
  736MPD2    H510884   1.373   2.068  12.060  0.5879 -0.2761  1.6979
  736MPD2    N110885   0.987   2.370  12.343 -0.0637 -0.5114 -0.2467
  736MPD2    H710886   0.905   2.343  12.397 -1.0545  1.5816 -0.7045
  737TMC3    C110887   1.383   2.239  11.866 -0.6654 -0.5333  0.9043
  737TMC3    C210888   1.402   2.345  11.777 -0.1588  0.2663  0.4156
  737TMC3    C310889   1.413   2.320  11.644 -0.8768 -0.4993 -0.5051
  737TMC3    C410890   1.377   2.112  11.821 -0.6807 -0.2607  0.5145
  737TMC3    C510891   1.397   2.091  11.689 -0.2744  0.2171 -0.1674
  737TMC3    C610892   1.420   2.187  11.594 -0.1572  0.0011 -0.3450
  737TMC3     C10893   1.378   2.267  12.009  0.0043 -0.1842 -0.3733
  737TMC3     O10894   1.389   2.383  12.048 -0.2330 -0.2813  0.5778
  737TMC3     H10895   1.391   2.446  11.816 -0.2778  0.4881 -0.1967
  737TMC3    H110896   1.355   2.029  11.886  0.2509  0.2528  1.4823
  737TMC3    H210897   1.432   2.164  11.488  0.6276  0.0459 -0.2618
  737TMC3    C710898   1.373   1.955  11.646  0.0260  0.2907 -0.1000
  737TMC3    C810899   1.410   2.435  11.562  0.3541  1.0534 -0.8619
  737TMC3    O110900   1.314   1.882  11.728 -0.0862  0.1792 -0.3615
  737TMC3    O210901   1.469   2.536  11.595  0.6078  0.1002  0.2616
  738MPD2     C10902   1.201   1.232  14.907 -0.0462  0.0084  0.2255
  738MPD2    C110903   1.240   1.176  15.026  0.3807  0.4055 -0.4577
  738MPD2    C210904   1.325   1.246  15.108 -0.1626 -0.1381 -1.3442
  738MPD2    C310905   1.381   1.364  15.079 -0.5627  0.3813 -0.0899
  738MPD2    C410906   1.325   1.434  14.971 -0.6944 -0.0992  0.0254
  738MPD2    C510907   1.232   1.364  14.888 -0.1406  0.7828 -0.5307
  738MPD2     H10908   1.368   1.193  15.193  0.2077  1.5661 -0.4571
  738MPD2    H110909   1.369   1.527  14.938 -0.6235 -1.3399 -3.3084
  738MPD2    H210910   1.130   1.192  14.836 -1.9229 -0.1754  2.1819
  738MPD2    H310911   1.196   1.411  14.798 -0.7534 -2.0243 -1.7460
  738MPD2     N10912   1.482   1.437  15.149 -0.5069 -0.2111 -0.1807
  738MPD2    H510913   1.509   1.523  15.101  2.6261 -0.8433  0.4596
  738MPD2    N110914   1.193   1.041  15.053 -0.4688  0.6914 -0.1113
  738MPD2    H710915   1.222   0.991  15.136 -1.1596  0.1534 -0.1928
  739TMC3    C110916   1.679   1.452  15.260  0.6369  0.2046 -0.4078
  739TMC3    C210917   1.740   1.485  15.140  0.0669  0.8505 -0.4615
  739TMC3    C310918   1.863   1.552  15.139 -0.4972 -1.2120  0.5484
  739TMC3    C410919   1.746   1.478  15.377 -0.4996 -0.6773 -0.0073
  739TMC3    C510920   1.858   1.552  15.369  0.3106 -0.0238 -0.1081
  739TMC3    C610921   1.920   1.587  15.257  0.2078  0.1139 -0.7296
  739TMC3     C10922   1.552   1.392  15.260 -0.4919 -0.7134  0.5311
  739TMC3     O10923   1.532   1.300  15.338  0.2431 -0.4309 -0.3443
  739TMC3     H10924   1.705   1.464  15.040  1.0680 -0.7636 -0.4754
  739TMC3    H110925   1.700   1.435  15.464 -0.6684 -1.5175 -0.5193
  739TMC3    H210926   2.008   1.650  15.260 -0.0144  0.4271 -0.8168
  739TMC3    C710927   1.925   1.585  15.492  0.3080  0.3221 -0.9929
  739TMC3    C810928   1.928   1.595  15.010  0.3921 -0.8380  0.3109
  739TMC3    O110929   2.052   1.602  15.496  0.0690 -0.1889 -0.5017
  739TMC3    O210930   1.930   1.499  14.936  0.2449 -0.0311  0.4239
  740TMC3    C110931   2.316   2.668  14.539  0.1945 -0.1111 -0.4773
  740TMC3    C210932   2.380   2.589  14.629  0.5641  0.1650  0.1214
  740TMC3    C310933   2.479   2.510  14.581 -0.4883  0.0875  0.3821
  740TMC3    C410934   2.350   2.678  14.408  0.1350  0.2387  0.5058
  740TMC3    C510935   2.440   2.585  14.361 -0.0486 -0.1604 -0.6270
  740TMC3    C610936   2.505   2.491  14.440 -0.5199  0.1292 -0.7638
  740TMC3     C10937   2.227   2.766  14.598  0.2135  0.2681 -0.6085
  740TMC3     O10938   2.219   2.872  14.537 -0.2429 -0.4007  0.3436
  740TMC3     H10939   2.347   2.583  14.732  2.3576  4.2843  0.9547
  740TMC3    H110940   2.299   2.749  14.345  0.8769  0.4569  0.1504
  740TMC3    H210941   2.592   2.442  14.399 -1.1308 -2.3012  0.9072
  740TMC3    C710942   2.458   2.561  14.217 -0.0517  0.3723  0.0778
  740TMC3    C810943   2.561   2.430  14.664  0.0348  0.2398 -0.0459
  740TMC3    O110944   2.521   2.459  14.185  0.9624 -0.4371 -0.4362
  740TMC3    O210945   2.628   2.344  14.616  0.3643  0.2082  0.1994
  741TMC3    C110946   1.685   1.813  14.568  0.6471 -0.6362  0.2611
  741TMC3    C210947   1.633   1.698  14.511  0.9053  0.1865  0.5766
  741TMC3    C310948   1.619   1.594  14.593 -0.1955  0.4308  0.8982
  741TMC3    C410949   1.678   1.841  14.699  0.2425 -0.5347  0.9605
  741TMC3    C510950   1.639   1.737  14.775  0.0312  0.4783  0.5733
  741TMC3    C610951   1.617   1.610  14.726  0.1649  0.5491 -0.3692
  741TMC3     C10952   1.732   1.918  14.481  0.7363 -0.4004  0.3760
  741TMC3     O10953   1.762   1.885  14.366 -0.4879  0.2058  0.5866
  741TMC3     H10954   1.611   1.685  14.405 -2.4888  1.7281  1.0848
  741TMC3    H110955   1.713   1.934  14.742 -0.6267  1.3520 -2.4112
  741TMC3    H210956   1.578   1.532  14.790 -1.1083  1.8159  0.3936
  741TMC3    C710957   1.605   1.761  14.917  0.3993  0.2715 -0.1159
  741TMC3    C810958   1.528   1.491  14.546 -0.6988 -0.2641 -0.3839
  741TMC3    O110959   1.559   1.657  14.967 -0.6187  0.0976 -0.4387
  741TMC3    O210960   1.457   1.524  14.450  0.0998  0.4586 -0.3985
  742TMC3    C110961   1.558   4.402  15.876  0.0268  0.6654 -0.5024
  742TMC3    C210962   1.523   4.429  15.748 -0.0367  0.1242 -0.5823
  742TMC3    C310963   1.607   4.430  15.647  0.7518 -0.1618  0.0142
  742TMC3    C410964   1.688   4.381  15.900  0.0743  0.3865  0.3666
  742TMC3    C510965   1.781   4.369  15.795 -0.0988 -0.7460 -0.6253
  742TMC3    C610966   1.739   4.391  15.665 -0.1564 -0.5714 -0.5149
  742TMC3     C10967   1.456   4.398  15.979  0.7257 -0.0582 -0.0444
  742TMC3     O10968   1.348   4.458  15.955 -0.6818 -0.0280  0.6998
  742TMC3     H10969   1.416   4.441  15.731  0.6284  3.0104 -2.8116
  742TMC3    H110970   1.719   4.370  16.003  0.5413  1.0708  0.3017
  742TMC3    H210971   1.816   4.402  15.590 -1.5134 -2.3030 -2.1910
  742TMC3    C710972   1.927   4.394  15.817  0.3122  0.2073  0.1488
  742TMC3    C810973   1.571   4.483  15.517  1.2223  0.0913  1.1094
  742TMC3    O110974   2.001   4.382  15.720  0.0777  0.6410  0.2887
  742TMC3    O210975   1.639   4.450  15.420  0.3622 -0.0249  0.5209
  743MPD2     C10976   3.902   1.127   1.978  0.3585  0.1837  0.2162
  743MPD2    C110977   3.948   1.097   1.855  0.1806 -0.5409  0.2793
  743MPD2    C210978   4.069   1.030   1.840 -0.0535 -0.0308  1.5098
  743MPD2    C310979   4.141   0.993   1.953  0.2516 -0.2322  0.6580
  743MPD2    C410980   4.091   1.023   2.082 -0.1242 -0.2224  0.0951
  743MPD2    C510981   3.981   1.095   2.088 -0.3698  1.3950  0.0709
  743MPD2     H10982   4.112   1.004   1.744 -2.4195 -0.2464  0.4979
  743MPD2    H110983   4.148   1.000   2.172 -0.5390  0.8763  0.6347
  743MPD2    H210984   3.806   1.174   1.994  0.0051 -0.8546  1.1375
  743MPD2    H310985   3.938   1.122   2.184  1.2327  1.5147  0.7650
  743MPD2     N10986   4.269   0.928   1.922  0.0826  0.3443  0.3145
  743MPD2    H510987   4.278   0.909   1.823  0.2020 -1.1169  0.6121
  743MPD2    N110988   3.864   1.138   1.746 -0.3700 -0.0767  0.2583
  743MPD2    H710989   3.780   1.192   1.760  1.2721  2.2328  1.0454
  744TMC3    C110990   3.790   1.188   1.521  0.3244  0.6252 -0.3812
  744TMC3    C210991   3.708   1.289   1.565  0.2468 -0.2472 -0.4039
  744TMC3    C310992   3.642   1.359   1.472  0.1374 -0.3166  0.8929
  744TMC3    C410993   3.786   1.146   1.390 -0.0740  0.3203  0.4313
  744TMC3    C510994   3.711   1.214   1.296 -0.7101  0.6923  0.1587
  744TMC3    C610995   3.640   1.321   1.338 -0.1513  0.0432  0.5408
  744TMC3     C10996   3.890   1.123   1.611  0.3805 -0.1191  0.0161
  744TMC3     O10997   3.961   1.035   1.560  0.3373  0.6119  0.1911
  744TMC3     H10998   3.718   1.332   1.663  0.0993 -1.6751  0.2405
  744TMC3    H110999   3.852   1.064   1.364  2.3594  1.4664  2.9630
  744TMC3    H211000   3.604   1.385   1.258 -1.8026 -0.6188  0.7463
  744TMC3    C711001   3.724   1.178   1.156 -0.2109 -0.4728 -0.2080
  744TMC3    C811002   3.575   1.490   1.512 -0.3884 -0.2487 -0.1473
  744TMC3    O111003   3.827   1.115   1.130 -0.8256 -0.4234  0.1892
  744TMC3    O211004   3.510   1.549   1.428 -0.0051 -0.5571 -0.1942
  745TMC3    C111005   2.349   0.092  13.990 -0.4005 -0.1588  0.2377
  745TMC3    C211006   2.301   0.073  14.114  0.0334  0.1520  0.5147
  745TMC3    C311007   2.221   4.686  14.131  0.2702  0.3330 -0.2589
  745TMC3    C411008   2.321   0.010  13.874  0.1721 -0.4022  0.4872
  745TMC3    C511009   2.238   4.630  13.900  0.7150  0.2829 -0.2673
  745TMC3    C611010   2.176   4.618  14.020  0.2831  0.1627  0.9233
  745TMC3     C11011   2.432   0.211  13.967  0.5318  0.3328  0.0549
  745TMC3     O11012   2.477   0.264  14.069 -0.0283  0.2074  0.1610
  745TMC3     H11013   2.349   0.117  14.200 -0.0186  0.4636  0.3835
  745TMC3    H111014   2.363   0.012  13.775 -0.9556  1.8187  0.0585
  745TMC3    H211015   2.102   4.539  14.032  0.8233 -0.7616 -1.8964
  745TMC3    C711016   2.232   4.519  13.798  1.2205  0.2256 -0.1131
  745TMC3    C811017   2.139   4.695  14.252  0.4355 -0.3533 -0.4399
  745TMC3    O111018   2.139   4.445  13.808  0.1955  0.2518  0.2202
  745TMC3    O211019   2.064   4.601  14.274  0.3032  0.1602  0.0036
  746TMC3    C111020   3.906   1.479  11.099 -0.5451 -0.0851 -0.4981
  746TMC3    C211021   4.016   1.444  11.017 -0.3844  0.0545  0.4864
  746TMC3    C311022   3.996   1.334  10.939 -0.5431  0.3223  0.2347
  746TMC3    C411023   3.787   1.410  11.108 -0.3848  0.2826 -0.1905
  746TMC3    C511024   3.778   1.292  11.042 -0.0393  0.2701 -0.1895
  746TMC3    C611025   3.884   1.257  10.957  0.0534  0.4521  0.1795
  746TMC3     C11026   3.912   1.619  11.136 -0.6016 -0.2457  0.2905
  746TMC3     O11027   4.009   1.663  11.199 -0.3597 -0.0701 -0.0477
  746TMC3     H11028   4.110   1.496  11.029 -0.7747  1.2127 -1.4483
  746TMC3    H111029   3.700   1.457  11.152 -0.0878 -1.7070  2.5330
  746TMC3    H211030   3.879   1.179  10.882  1.0337 -0.5030  1.1229
  746TMC3    C711031   3.650   1.235  11.003  0.4473 -1.0851 -1.1465
  746TMC3    C811032   4.065   1.314  10.811  0.7095  0.1185 -0.0347
  746TMC3    O111033   3.639   1.176  10.895  0.3028  0.1094 -0.1812
  746TMC3    O211034   4.094   1.198  10.779 -0.3008  0.1007 -0.2816
  747TMC3    C111035   1.849   1.713  10.757  0.2496 -0.1522  0.9552
  747TMC3    C211036   1.746   1.663  10.829 -0.3558 -0.0756 -0.3697
  747TMC3    C311037   1.759   1.667  10.966 -0.2340  0.0131 -0.5193
  747TMC3    C411038   1.965   1.758  10.811  0.0437 -0.3086  0.1199
  747TMC3    C511039   1.978   1.763  10.948 -0.1022  0.2039  0.3260
  747TMC3    C611040   1.875   1.712  11.026 -0.4522 -0.1190 -0.0071
  747TMC3     C11041   1.848   1.718  10.609  0.0505  0.0418 -0.1282
  747TMC3     O11042   1.915   1.804  10.557 -0.2323 -0.3148  0.1372
  747TMC3     H11043   1.651   1.639  10.783  0.0941 -1.1268 -0.7575
  747TMC3    H111044   2.050   1.790  10.752 -0.5629 -0.3841 -0.7970
  747TMC3    H211045   1.879   1.728  11.133 -0.6010 -1.0401  0.1359
  747TMC3    C711046   2.095   1.823  11.003 -0.2338 -0.5492  0.1032
  747TMC3    C811047   1.644   1.630  11.051  0.9975 -0.2158  0.4489
  747TMC3    O111048   2.144   1.922  10.953 -0.6155 -0.0184 -0.6271
  747TMC3    O211049   1.563   1.556  10.999 -0.2272  0.8233  0.0295
  748MPD2     C11050   3.114   1.999   2.289  0.1976 -0.0993 -0.2587
  748MPD2    C111051   3.192   1.889   2.329 -0.2194 -0.1395  0.1900
  748MPD2    C211052   3.317   1.880   2.272 -0.8201 -0.6226  0.2112
  748MPD2    C311053   3.366   1.975   2.185 -0.3344  0.6482  0.1072
  748MPD2    C411054   3.281   2.065   2.137 -0.0815  0.6558 -0.2761
  748MPD2    C511055   3.161   2.084   2.196 -0.4901  0.0426  1.0571
  748MPD2     H11056   3.389   1.813   2.319 -0.8216 -0.0784  0.9881
  748MPD2    H111057   3.320   2.137   2.065  0.4931 -0.4935 -1.1254
  748MPD2    H211058   3.014   2.004   2.330  0.6843  1.0509  0.7823
  748MPD2    H311059   3.098   2.168   2.168 -1.8139 -1.8471 -1.7061
  748MPD2     N11060   3.502   1.964   2.151  0.0392 -0.6105 -0.4848
  748MPD2    H511061   3.555   1.885   2.186 -0.4614 -1.5757 -1.8800
  748MPD2    N111062   3.145   1.801   2.423 -0.2396  0.0135 -0.0578
  748MPD2    H711063   3.055   1.826   2.463 -0.0596  0.6115 -0.0306
  749TMC3    C111064   3.694   2.028   2.021 -0.4292 -0.3900 -0.2466
  749TMC3    C211065   3.709   1.893   1.993  0.7439 -0.1428 -0.0630
  749TMC3    C311066   3.807   1.866   1.903 -0.7452 -0.5157 -0.3128
  749TMC3    C411067   3.754   2.134   1.957  0.0970 -0.4722  0.3236
  749TMC3    C511068   3.833   2.101   1.853  0.4905  0.7694  0.2759
  749TMC3    C611069   3.870   1.970   1.835 -0.3795  0.0155  0.3768
  749TMC3     C11070   3.569   2.066   2.093  0.8906  0.7122 -0.2566
  749TMC3     O11071   3.545   2.184   2.087 -0.3683 -0.5694  0.3913
  749TMC3     H11072   3.650   1.815   2.039 -1.8773  0.9496 -1.5955
  749TMC3    H111073   3.750   2.234   1.998  0.3139  0.1343 -1.1739
  749TMC3    H211074   3.941   1.951   1.755 -0.4265 -1.4930  0.7010
  749TMC3    C711075   3.904   2.204   1.786  1.6123  0.1721  0.4385
  749TMC3    C811076   3.865   1.735   1.913  0.3455 -0.1945  0.0866
  749TMC3    O111077   3.906   2.310   1.851 -0.4275 -0.0906 -0.2272
  749TMC3    O211078   3.797   1.647   1.969 -0.6316 -0.6274  0.2097
  750MPD2     C11079   4.645   3.600  11.133  1.1546  0.1842 -0.5197
  750MPD2    C111080   4.507   3.604  11.161  0.5669 -0.3571  0.2091
  750MPD2    C211081   4.421   3.512  11.103  0.3390 -0.3343 -0.0155
  750MPD2    C311082   4.468   3.412  11.027 -0.1604 -0.0254 -0.1000
  750MPD2    C411083   4.602   3.413  10.999  0.5526  0.6088 -0.0084
  750MPD2    C511084   4.687   3.503  11.048  0.2531  0.4128  0.7113
  750MPD2     H11085   4.314   3.517  11.123  0.2542 -2.3486  0.0412
  750MPD2    H111086   4.647   3.330  10.947 -0.6034  0.6376 -1.0595
  750MPD2    H211087   4.718   3.674  11.161 -0.2389  2.1404 -2.0270
  750MPD2    H311088   0.070   3.490  11.032  0.7847  1.5458  3.3018
  750MPD2     N11089   4.387   3.303  10.991  0.2139  0.0290  0.0777
  750MPD2    H511090   4.429   3.233  10.931 -0.4551 -1.2048  1.0467
  750MPD2    N111091   4.465   3.707  11.238 -0.4039  0.1101  0.2128
  750MPD2    H711092   4.541   3.760  11.279  1.4619  0.8790 -4.2279
  751TMC3    C111093   4.191   3.168  10.958  0.6475  0.5058 -0.3436
  751TMC3    C211094   4.082   3.107  11.013  0.0383 -0.3350  0.1122
  751TMC3    C311095   4.049   2.975  10.970  0.1631  0.5768 -0.2217
  751TMC3    C411096   4.269   3.106  10.865 -0.2199 -0.6775  0.1898
  751TMC3    C511097   4.232   2.983  10.820 -0.1643 -0.0249 -0.7179
  751TMC3    C611098   4.123   2.918  10.872  1.1335 -0.0011  0.0594
  751TMC3     C11099   4.250   3.285  11.029 -0.5956  0.4582  0.2925
  751TMC3     O11100   4.170   3.352  11.096 -0.4984  0.2917  0.5520
  751TMC3     H11101   4.029   3.156  11.094  1.9945  1.6959  0.1470
  751TMC3    H111102   4.347   3.165  10.819 -2.0995 -0.4709 -2.7228
  751TMC3    H211103   4.096   2.817  10.841  1.4485  0.8848 -3.1406
  751TMC3    C711104   4.263   2.958  10.678  0.2679 -0.1411  0.3598
  751TMC3    C811105   3.933   2.909  11.019  0.0806  0.1230 -0.1248
  751TMC3    O111106   4.369   3.001  10.638  0.5384 -0.0240  0.1872
  751TMC3    O211107   3.888   2.831  10.929  0.5069  0.3634 -0.2283
  752TMC3    C111108   3.824   3.911  17.029 -0.9784 -0.0733  0.0618
  752TMC3    C211109   3.952   3.912  17.070  0.6463 -0.1339  0.1866
  752TMC3    C311110   4.019   4.030  17.065 -0.4900 -0.7845  0.2848
  752TMC3    C411111   3.748   4.019  17.009  0.1668 -0.6696 -0.4356
  752TMC3    C511112   3.815   4.138  17.025  0.3344  0.2212 -0.0161
  752TMC3    C611113   3.948   4.151  17.047 -0.0366 -0.7347  0.0295
  752TMC3     C11114   3.776   3.778  16.973  0.0308  0.0633  0.9423
  752TMC3     O11115   3.830   3.673  17.005 -0.0201  0.3519  0.3723
  752TMC3     H11116   4.000   3.816  17.083 -2.5298 -1.6052  1.1781
  752TMC3    H111117   3.641   4.019  16.994 -0.2214  0.5829  2.2999
  752TMC3    H211118   4.003   4.244  17.034  0.3656 -0.9950 -0.1192
  752TMC3    C711119   3.740   4.260  16.993  0.1748 -0.0246 -0.4337
  752TMC3    C811120   4.154   4.025  17.108 -0.4527  0.5810 -0.1897
  752TMC3    O111121   3.631   4.253  16.943  0.1820 -0.2928  0.4593
  752TMC3    O211122   4.191   3.920  17.160  0.0901  0.2225  0.5068
  753TMC3    C111123   0.315   4.449  13.352  0.1025 -0.4675 -0.7650
  753TMC3    C211124   0.378   4.413  13.470 -0.4245  0.1908 -0.1559
  753TMC3    C311125   0.332   4.295  13.525  0.9104 -0.4195  0.3763
  753TMC3    C411126   0.206   4.387  13.301 -0.5562 -0.8904 -0.5543
  753TMC3    C511127   0.166   4.280  13.368 -0.3176 -0.9002 -0.2263
  753TMC3    C611128   0.225   4.224  13.478 -0.1373 -0.3627  0.0357
  753TMC3     C11129   0.341   4.581  13.296  0.3775  0.1125  0.0919
  753TMC3     O11130   0.304   4.603  13.178  0.0763  0.2869  0.1465
  753TMC3     H11131   0.464   4.465  13.510 -0.4819 -0.6419  1.0640
  753TMC3    H111132   0.155   4.422  13.212  2.6332  0.3146 -1.9331
  753TMC3    H211133   0.192   4.131  13.521 -0.0716  0.1207  1.1402
  753TMC3    C711134   0.056   4.213  13.309  0.4237  0.0175 -0.0668
  753TMC3    C811135   0.404   4.237  13.641 -0.0956  0.0437  0.2166
  753TMC3    O111136   0.040   4.229  13.188 -0.2094  0.0962 -0.0679
  753TMC3    O211137   0.397   4.114  13.652 -0.5059 -0.2445  0.5086
  754MPD2     C11138   4.121   3.042  14.290 -0.0734  0.7065  0.6114
  754MPD2    C111139   4.008   2.969  14.260  1.0311  0.5316  0.4377
  754MPD2    C211140   3.968   2.980  14.123  0.4489 -0.0637 -0.1786
  754MPD2    C311141   4.013   3.070  14.033 -0.5508 -0.1729  0.5381
  754MPD2    C411142   4.116   3.151  14.078 -1.1344  0.6311 -0.0614
  754MPD2    C511143   4.171   3.137  14.201  0.3501  0.8199 -0.5644
  754MPD2     H11144   3.885   2.923  14.083  1.7142 -0.1000 -2.7640
  754MPD2    H111145   4.168   3.218  14.009  2.3067 -2.2601 -0.2591
  754MPD2    H211146   4.157   3.056  14.391  2.3230 -0.2321 -0.1125
  754MPD2    H311147   4.256   3.194  14.237 -0.0360  0.1723  1.3825
  754MPD2     N11148   3.963   3.095  13.904  0.3668 -0.0872  0.5550
  754MPD2    H511149   3.984   3.183  13.858 -0.0273  0.1491  0.8285
  754MPD2    N111150   3.932   2.894  14.353  0.0003  0.0302 -0.7145
  754MPD2    H711151   3.983   2.858  14.433 -2.8005 -0.3163  0.8895
  755MPD2     C11152   3.372   3.781  13.529  0.0970  0.0720 -0.1515
  755MPD2    C111153   3.377   3.755  13.663 -0.3136  0.2702 -0.2628
  755MPD2    C211154   3.422   3.629  13.689 -0.5378  0.2718 -0.4643
  755MPD2    C311155   3.472   3.539  13.593  0.7525 -0.2836 -0.3894
  755MPD2    C411156   3.481   3.573  13.465  0.5826 -0.2393 -0.1596
  755MPD2    C511157   3.425   3.696  13.432  0.0322 -0.0923  0.7745
  755MPD2     H11158   3.424   3.602  13.795 -0.7805 -0.1760 -0.5707
  755MPD2    H111159   3.508   3.503  13.386 -1.0923 -1.2594  0.1698
  755MPD2    H211160   3.331   3.874  13.492  0.5708 -0.2144 -1.4076
  755MPD2    H311161   3.430   3.737  13.332  0.2170  0.2835  0.9344
  755MPD2     N11162   3.516   3.407  13.619  0.9608  0.2077  0.2885
  755MPD2    H511163   3.537   3.354  13.535 -0.0373 -0.2425  0.3155
  755MPD2    N111164   3.331   3.835  13.774 -0.3255  0.4659 -0.0681
  755MPD2    H711165   3.359   3.801  13.866  0.8071 -0.5033 -0.7686
  756MPD2     C11166   3.816   4.007   9.470  0.1862 -0.0854  0.0642
  756MPD2    C111167   3.818   3.872   9.485  0.5817  0.2247 -0.1116
  756MPD2    C211168   3.720   3.802   9.423  0.5795 -0.2150 -0.0732
  756MPD2    C311169   3.639   3.855   9.326  0.3017 -0.1499  0.2555
  756MPD2    C411170   3.652   3.987   9.301 -0.7859 -0.2231 -0.6560
  756MPD2    C511171   3.736   4.065   9.377  0.7695  0.1837  0.3746
  756MPD2     H11172   3.715   3.694   9.436 -0.2977 -0.6071 -3.7874
  756MPD2    H111173   3.597   4.040   9.225  0.8876  2.5523  0.0712
  756MPD2    H211174   3.871   4.076   9.533  0.2179 -1.0556  1.0900
  756MPD2    H311175   3.730   4.172   9.358 -1.0067  0.2094  1.1053
  756MPD2     N11176   3.529   3.774   9.275  0.2839  0.0442  0.0835
  756MPD2    H511177   3.524   3.677   9.304  0.6378  0.1775  0.6046
  756MPD2    N111178   3.888   3.813   9.591  0.0098  0.3927 -0.4265
  756MPD2    H711179   3.854   3.724   9.625 -2.1081  0.7513 -1.5886
  757MPD2     C11180   3.040   2.890   9.160  0.0047 -0.3978  0.5581
  757MPD2    C111181   3.150   2.948   9.225 -0.1199  0.4723 -0.0475
  757MPD2    C211182   3.175   3.080   9.228  0.1311  0.0604  0.2782
  757MPD2    C311183   3.092   3.162   9.146 -0.0723 -0.0386  1.0098
  757MPD2    C411184   2.980   3.103   9.085 -0.1382 -0.3056 -0.0267
  757MPD2    C511185   2.948   2.973   9.096 -0.0703 -0.3595 -0.7727
  757MPD2     H11186   3.265   3.114   9.278 -0.1703 -2.7607  2.7264
  757MPD2    H111187   2.916   3.168   9.026 -0.9852  0.4366  1.6941
  757MPD2    H211188   3.018   2.784   9.165  1.2125 -0.6805 -0.0371
  757MPD2    H311189   2.863   2.933   9.042 -0.3570 -1.0853  0.2306
  757MPD2     N11190   3.119   3.296   9.121  0.6387 -0.4801  0.1664
  757MPD2    H511191   3.055   3.342   9.057 -0.5546 -0.6816  1.2059
  757MPD2    N111192   3.237   2.849   9.278 -0.5398 -0.0651  0.1657
  757MPD2    H711193   3.200   2.755   9.268  0.9323 -0.6474  0.3282
  758MPD2     C11194   4.314   2.486  16.210 -0.2660  0.1980  0.3221
  758MPD2    C111195   4.423   2.476  16.294  0.1218  0.1508  0.2133
  758MPD2    C211196   4.418   2.516  16.426 -0.7382  0.7058  0.0880
  758MPD2    C311197   4.302   2.579  16.470 -0.0195 -0.5124 -0.3625
  758MPD2    C411198   4.194   2.595  16.388 -0.2774 -0.6413 -0.1191
  758MPD2    C511199   4.201   2.547  16.263 -0.5732  0.0052  0.6131
  758MPD2     H11200   4.504   2.512  16.492 -2.1286  0.4636  1.8906
  758MPD2    H111201   4.103   2.647  16.418  0.7991  0.4289  1.3265
  758MPD2    H211202   4.315   2.459  16.105 -1.1033 -0.8052  0.5803
  758MPD2    H311203   4.115   2.554  16.198 -1.0795 -0.0898  1.2718
  758MPD2     N11204   4.295   2.633  16.602  0.1848  0.1719 -0.1856
  758MPD2    H511205   4.209   2.682  16.623 -1.0151 -1.1516 -2.0108
  758MPD2    N111206   4.547   2.430  16.235  0.5908  0.2676 -0.6077
  758MPD2    H711207   4.548   2.428  16.134  2.3226  0.1377 -0.5739
  759MPD2     C11208   2.479   1.777  10.033  0.9331  0.0300 -0.1872
  759MPD2    C111209   2.464   1.641  10.033  0.3812 -0.0975 -0.3036
  759MPD2    C211210   2.549   1.562   9.952 -0.2385 -0.1881  0.3811
  759MPD2    C311211   2.628   1.620   9.862  0.4077  1.2458 -0.4304
  759MPD2    C411212   2.643   1.756   9.862 -0.1179  0.4206  0.0100
  759MPD2    C511213   2.573   1.831   9.948 -0.1935 -0.5862  0.0006
  759MPD2     H11214   2.540   1.455   9.961  0.4073 -0.1739  1.1735
  759MPD2    H111215   2.712   1.810   9.798  0.7855 -0.5324  0.1736
  759MPD2    H211216   2.425   1.832  10.109  0.7424  1.5786 -1.4307
  759MPD2    H311217   2.594   1.937   9.946  2.6365 -1.1543 -0.2486
  759MPD2     N11218   2.718   1.532   9.795  0.2404 -0.3967 -0.1651
  759MPD2    H511219   2.696   1.433   9.809 -1.3719 -0.1799 -1.1822
  759MPD2    N111220   2.370   1.589  10.124 -0.3509 -0.1732  0.2674
  759MPD2    H711221   2.357   1.489  10.115  0.1727 -0.1603 -0.5762
  760MPD2     C11222   2.421   3.456  11.892  0.4762 -0.3647 -0.1899
  760MPD2    C111223   2.550   3.480  11.922 -0.0132 -0.7522  0.3596
  760MPD2    C211224   2.618   3.406  12.022  0.0178  0.1325  0.3892
  760MPD2    C311225   2.557   3.314  12.102 -0.1096 -0.2393  0.3362
  760MPD2    C411226   2.426   3.288  12.069  0.1729  0.2962 -0.7255
  760MPD2    C511227   2.365   3.355  11.968 -0.5659  0.2018  0.4798
  760MPD2     H11228   2.721   3.431  12.046  0.0822 -0.1174  0.3646
  760MPD2    H111229   2.366   3.221  12.129  2.0004 -0.2707  0.4392
  760MPD2    H211230   2.363   3.500  11.812  0.8383  0.3354 -0.0620
  760MPD2    H311231   2.262   3.327  11.951 -0.8783  1.7605 -0.2043
  760MPD2     N11232   2.614   3.248  12.217  0.4212 -0.0220 -0.1081
  760MPD2    H511233   2.549   3.184  12.261 -0.6980  1.4606  0.3901
  760MPD2    N111234   2.624   3.565  11.847  0.3261  0.0728 -0.0215
  760MPD2    H711235   2.713   3.590  11.889  0.3237 -3.0692  1.8372
  761MPD2     C11236   3.702   2.644  11.389 -0.4678  0.6349  0.4733
  761MPD2    C111237   3.717   2.617  11.256  0.6291  0.1545  0.9669
  761MPD2    C211238   3.776   2.711  11.172  0.6945  0.0115 -0.2838
  761MPD2    C311239   3.840   2.823  11.233  0.1021  0.0361 -0.5972
  761MPD2    C411240   3.826   2.842  11.368 -0.0721  0.4626  0.2929
  761MPD2    C511241   3.770   2.749  11.444 -0.5085 -0.6974 -0.3774
  761MPD2     H11242   3.782   2.695  11.065  1.3644 -0.0199 -0.2442
  761MPD2    H111243   3.884   2.922  11.414  0.5717 -0.9094  1.8787
  761MPD2    H211244   3.645   2.577  11.453 -1.4021 -0.3069 -1.3646
  761MPD2    H311245   3.768   2.766  11.551  0.6944 -1.6978 -0.1924
  761MPD2     N11246   3.919   2.914  11.154  0.7340  0.0647 -0.1758
  761MPD2    H511247   3.965   2.990  11.203  0.3306 -0.0025  0.3118
  761MPD2    N111248   3.656   2.499  11.208 -0.0812 -0.8716 -0.8425
  761MPD2    H711249   3.586   2.456  11.268  1.5361  3.2553  3.9617
  762MPD2     C11250   3.708   2.567  10.449  0.4066 -0.4904  0.5598
  762MPD2    C111251   3.681   2.440  10.491 -0.1370  0.2300 -0.4569
  762MPD2    C211252   3.749   2.336  10.429  0.6869 -0.4973 -0.7226
  762MPD2    C311253   3.834   2.358  10.321 -0.0103  0.3767 -0.7359
  762MPD2    C411254   3.839   2.486  10.268 -0.3554 -0.4015 -0.2385
  762MPD2    C511255   3.780   2.591  10.335 -0.6751  0.3486 -0.5550
  762MPD2     H11256   3.733   2.232  10.454 -3.3381  0.3797  0.2374
  762MPD2    H111257   3.896   2.509  10.179  1.7752 -0.2365  1.1758
  762MPD2    H211258   3.665   2.655  10.494  2.5683  0.8050  0.0755
  762MPD2    H311259   3.797   2.689  10.292 -1.3110 -1.0338 -3.9784
  762MPD2     N11260   3.926   2.253  10.277 -0.6639  0.0677  0.3231
  762MPD2    H511261   3.916   2.161  10.316 -0.7175  0.2347  0.6984
  762MPD2    N111262   3.594   2.422  10.597  0.2603 -0.0505  0.1192
  762MPD2    H711263   3.575   2.502  10.656  1.0651 -0.5118  1.0047
  763MPD2     C11264   0.775   3.110  16.531 -0.4845 -0.1064 -0.0126
  763MPD2    C111265   0.884   3.153  16.449  0.2864  0.0510  0.0376
  763MPD2    C211266   0.953   3.258  16.502  0.0676 -0.2701  0.0004
  763MPD2    C311267   0.910   3.325  16.614  0.2998  0.7779  0.2827
  763MPD2    C411268   0.791   3.293  16.676 -0.0792 -0.0353 -0.2502
  763MPD2    C511269   0.730   3.182  16.634 -0.4236 -0.6864  0.0589
  763MPD2     H11270   1.040   3.297  16.451  0.9375  0.3113  1.9613
  763MPD2    H111271   0.766   3.335  16.773  1.4463  0.6844 -0.1671
  763MPD2    H211272   0.720   3.020  16.508  0.2504 -0.6897  0.5071
  763MPD2    H311273   0.633   3.156  16.677 -0.7255 -1.5984 -1.1778
  763MPD2     N11274   0.981   3.427  16.671  0.1919  0.0271  0.1199
  763MPD2    H511275   0.935   3.490  16.737 -0.4435  0.6934 -0.9686
  763MPD2    N111276   0.920   3.110  16.321 -0.6707 -0.0392  0.2023
  763MPD2    H711277   0.988   3.165  16.270  0.8137 -0.6636  1.5162
  764MPD2     C11278   4.558   4.716  17.154 -0.5788 -0.3406 -0.4605
  764MPD2    C111279   4.463   4.612  17.153 -0.6763 -0.0141 -0.0660
  764MPD2    C211280   4.471   4.526  17.260 -0.7918  0.0884 -0.0720
  764MPD2    C311281   4.548   4.547  17.373 -0.2820 -0.2237 -0.6572
  764MPD2    C411282   4.627   4.657  17.375  0.3915  0.2005  0.3271
  764MPD2    C511283   4.645   0.009  17.262 -0.7718  0.5102 -0.6542
  764MPD2     H11284   4.404   4.441  17.266 -1.0298  0.1658 -1.5723
  764MPD2    H111285   4.680   4.691  17.464 -1.3593  0.0546  1.4237
  764MPD2    H211286   4.561   0.073  17.082  0.3510  1.7638  1.9043
  764MPD2    H311287   4.709   0.096  17.261 -1.8002  1.2822  0.5250
  764MPD2     N11288   4.534   4.458  17.476  0.0831  0.0112 -0.0944
  764MPD2    H511289   4.473   4.378  17.459  2.0038 -1.1019 -1.6032
  764MPD2    N111290   4.359   4.595  17.060  0.0732 -0.0940 -0.0419
  764MPD2    H711291   4.296   4.516  17.067  0.3850 -0.3796 -0.4779
  765MPD2     C11292   3.789   2.292  16.189 -0.5202  0.0651 -0.4184
  765MPD2    C111293   3.842   2.397  16.114  0.5072  1.0779  0.6552
  765MPD2    C211294   3.951   2.368  16.036  0.1005 -0.3124  0.2707
  765MPD2    C311295   4.015   2.244  16.037  0.0833  0.0387 -0.5937
  765MPD2    C411296   3.963   2.149  16.120 -0.0724  0.0005  0.0445
  765MPD2    C511297   3.850   2.172  16.196 -0.4487 -0.7764 -0.1747
  765MPD2     H11298   3.991   2.435  15.961 -0.1836  0.1017  0.4926
  765MPD2    H111299   4.008   2.052  16.140  0.6555 -0.0010 -1.5576
  765MPD2    H211300   3.701   2.302  16.252  0.3963  0.6363  0.7815
  765MPD2    H311301   3.809   2.091  16.255 -1.9356 -0.1721 -0.3778
  765MPD2     N11302   4.130   2.228  15.957  0.0752  0.2778 -0.4545
  765MPD2    H511303   4.186   2.309  15.933 -0.3817  0.1127 -2.0825
  765MPD2    N111304   3.779   2.520  16.132  0.5564 -0.2150  0.1103
  765MPD2    H711305   3.687   2.524  16.175  0.9107  2.3362  0.6499
  766MPD2     C11306   3.172   2.682  15.763  0.0396 -0.1338 -0.1184
  766MPD2    C111307   3.302   2.635  15.754 -0.1973 -0.4839 -0.0141
  766MPD2    C211308   3.336   2.553  15.646 -0.1501  0.0929  0.1827
  766MPD2    C311309   3.245   2.532  15.543  0.1992 -0.2786  0.4407
  766MPD2    C411310   3.120   2.582  15.547  0.4979 -0.4137  0.0490
  766MPD2    C511311   3.082   2.658  15.660  0.0658 -0.3555  0.1839
  766MPD2     H11312   3.439   2.520  15.633  0.5095  2.2548  0.0053
  766MPD2    H111313   3.048   2.549  15.473  1.0835  0.3334 -0.8489
  766MPD2    H211314   3.143   2.752  15.841 -2.1511 -1.0962 -0.0520
  766MPD2    H311315   2.981   2.693  15.676 -0.4505 -0.8869 -1.9723
  766MPD2     N11316   3.276   2.459  15.427 -0.1627  0.1966 -0.5802
  766MPD2    H511317   3.211   2.451  15.349 -2.5904 -1.3342  1.6077
  766MPD2    N111318   3.407   2.676  15.841 -0.6116  0.3006  0.0658
  766MPD2    H711319   3.500   2.638  15.831 -0.7930 -0.5078  1.4641
  767MPD2     C11320   2.806   2.871  15.266  0.2562 -0.2040 -0.8846
  767MPD2    C111321   2.937   2.838  15.226  0.3391  0.5642 -0.4718
  767MPD2    C211322   2.945   2.771  15.098 -0.1917  0.2606 -0.1171
  767MPD2    C311323   2.834   2.758  15.022 -1.3247 -0.5859 -0.7599
  767MPD2    C411324   2.710   2.800  15.064  0.1413 -0.3788  0.2743
  767MPD2    C511325   2.696   2.851  15.190  0.4176 -0.0871 -0.1535
  767MPD2     H11326   3.038   2.752  15.047  0.0514 -1.8075  1.1008
  767MPD2    H111327   2.626   2.804  14.995 -0.1600 -0.2165  0.6561
  767MPD2    H211328   2.788   2.908  15.367 -0.3844  1.2255 -1.5291
  767MPD2    H311329   2.598   2.873  15.230  0.9195  2.5455 -0.4105
  767MPD2     N11330   2.853   2.696  14.898 -0.2431 -1.0076  0.2847
  767MPD2    H511331   2.944   2.655  14.878  0.4704  0.4750  0.4344
  767MPD2    N111332   3.047   2.872  15.305 -0.6746 -0.0383 -0.1663
  767MPD2    H711333   3.016   2.914  15.392 -1.7395  1.1933 -1.1592
  768MPD2     C11334   3.777   1.381  10.377  0.8659 -1.1165 -0.0028
  768MPD2    C111335   3.682   1.292  10.427 -0.2433  0.1894 -0.6331
  768MPD2    C211336   3.723   1.178  10.491 -0.2250  0.3557 -0.3879
  768MPD2    C311337   3.855   1.159  10.526 -0.6723 -0.5612 -0.5389
  768MPD2    C411338   3.950   1.234  10.469 -0.7033 -0.2504  0.7745
  768MPD2    C511339   3.916   1.353  10.401 -0.3796 -0.3629 -0.3984
  768MPD2     H11340   3.649   1.108  10.528  0.0351 -0.7010 -1.8823
  768MPD2    H111341   4.052   1.210  10.494  0.3516  0.6938 -2.5883
  768MPD2    H211342   3.747   1.469  10.321  0.7571  0.8936  3.1764
  768MPD2    H311343   3.995   1.416  10.363 -1.3785 -0.0209 -1.8995
  768MPD2     N11344   3.887   1.066  10.627  0.1664  0.1985  0.0424
  768MPD2    H511345   3.981   1.067  10.667  0.7085 -1.6338 -1.1884
  768MPD2    N111346   3.543   1.314  10.419 -0.0767 -0.1073 -0.1664
  768MPD2    H711347   3.484   1.242  10.458 -1.6284  1.0807 -0.3297
  769MPD2     C11348   4.698   3.778  15.223 -0.4845  0.2841  0.9018
  769MPD2    C111349   4.660   3.904  15.268 -0.3224 -0.5433  0.5087
  769MPD2    C211350   0.028   3.972  15.347  0.1565  0.1528 -0.2495
  769MPD2    C311351   0.153   3.918  15.382  0.1804 -1.1396 -0.3314
  769MPD2    C411352   0.187   3.795  15.331 -0.2880 -0.2191 -0.1424
  769MPD2    C511353   0.091   3.725  15.259  0.0495  0.0925  0.4098
  769MPD2     H11354   0.010   4.075  15.376 -2.4437 -0.4960  0.4178
  769MPD2    H111355   0.282   3.746  15.349 -0.7940 -1.1837 -0.0975
  769MPD2    H211356   4.632   3.711  15.170  2.4245 -2.0811  0.2731
  769MPD2    H311357   0.124   3.629  15.220  1.3298  0.1552  1.3320
  769MPD2     N11358   0.244   3.990  15.466 -0.5977  0.4063  0.8040
  769MPD2    H511359   0.206   4.079  15.498 -1.2787  1.2731 -2.3424
  769MPD2    N111360   4.536   3.954  15.226  0.0557 -0.5466  0.3958
  769MPD2    H711361   4.487   3.892  15.161 -0.4280  0.8222 -0.5367
  770MPD2     C11362   3.944   3.548  15.606 -0.1277  0.4860 -0.0809
  770MPD2    C111363   4.084   3.565  15.607  0.1258  0.1400 -0.4510
  770MPD2    C211364   4.131   3.694  15.573  0.7304  0.2634  0.6292
  770MPD2    C311365   4.044   3.794  15.522 -0.7084 -0.1703  0.2305
  770MPD2    C411366   3.909   3.771  15.529 -0.1402 -0.8414 -0.5552
  770MPD2    C511367   3.861   3.646  15.568  0.3045 -0.2874 -0.9975
  770MPD2     H11368   4.239   3.709  15.576  0.6133  1.2982 -0.2574
  770MPD2    H111369   3.841   3.850  15.498  3.0858  2.5544  1.0140
  770MPD2    H211370   3.904   3.454  15.642  1.0223 -0.1768 -0.5234
  770MPD2    H311371   3.755   3.625  15.569  0.5189 -1.2636  1.2276
  770MPD2     N11372   4.100   3.908  15.460 -0.4051 -0.4872  0.2390
  770MPD2    H511373   4.201   3.916  15.474 -0.5988  0.5592  1.0064
  770MPD2    N111374   4.159   3.449  15.628  0.8080  0.6569  0.1997
  770MPD2    H711375   4.107   3.362  15.630 -1.6169  2.0980  0.3444
  771MPD2     C11376   0.865   1.868  13.496  1.1946 -0.0576 -0.1928
  771MPD2    C111377   0.848   1.901  13.370 -0.8820  0.1820 -0.1598
  771MPD2    C211378   0.887   1.807  13.274  0.6756  0.0634 -0.2665
  771MPD2    C311379   0.951   1.690  13.300 -0.3463 -0.1914  0.1888
  771MPD2    C411380   0.971   1.660  13.431 -0.0560  0.5403  0.5763
  771MPD2    C511381   0.928   1.750  13.526  0.0680  0.2987 -0.3433
  771MPD2     H11382   0.869   1.826  13.169 -0.0645 -3.8960 -0.8604
  771MPD2    H111383   1.028   1.574  13.465 -0.8684 -1.0560 -2.0787
  771MPD2    H211384   0.840   1.933  13.579  1.5181 -0.4879  0.2461
  771MPD2    H311385   0.938   1.725  13.631 -0.0422 -1.7390 -0.8096
  771MPD2     N11386   1.000   1.595  13.201  0.3660  0.6714  0.2573
  771MPD2    H511387   0.971   1.617  13.106 -0.9171  0.8079  0.6830
  771MPD2    N111388   0.805   2.030  13.334 -0.4545  0.2612 -0.0830
  771MPD2    H711389   0.780   2.044  13.237  1.3344 -0.3188 -0.6279
  772MPD2     C11390   0.171   2.442  13.249  0.2378  0.4313  0.0059
  772MPD2    C111391   0.230   2.368  13.348 -0.1444  0.3277 -0.4141
  772MPD2    C211392   0.140   2.299  13.437  0.2755 -0.7820  0.7548
  772MPD2    C311393   0.004   2.310  13.418  0.6924  0.2873 -0.4986
  772MPD2    C411394   4.675   2.380  13.308  0.5990 -0.0943  0.0637
  772MPD2    C511395   0.040   2.442  13.220  0.3067  0.5987  0.4476
  772MPD2     H11396   0.183   2.243  13.519  1.5141  0.1099  0.7202
  772MPD2    H111397   4.569   2.390  13.285  0.6786 -0.6531 -0.5465
  772MPD2    H211398   0.233   2.504  13.184  0.4781 -0.6654 -0.8009
  772MPD2    H311399   4.722   2.508  13.145 -0.2891  1.4115  1.5053
  772MPD2     N11400   4.628   2.258  13.503 -0.2044  0.8086  0.0487
  772MPD2    H511401   4.530   2.269  13.476 -1.1425  0.8946  3.4587
  772MPD2    N111402   0.366   2.359  13.381 -0.1361 -0.2381 -0.4766
  772MPD2    H711403   0.401   2.283  13.439 -0.9414  1.1218  1.7953
  773MPD2     C11404   4.326   3.000   0.692 -0.0460 -0.3261  0.3469
  773MPD2    C111405   4.389   2.926   0.592 -0.4562  0.0847  0.5454
  773MPD2    C211406   4.454   2.806   0.624  0.0282 -0.2057  0.6378
  773MPD2    C311407   4.473   2.771   0.754  0.0397  0.1487  0.0984
  773MPD2    C411408   4.416   2.851   0.856 -0.0895  0.5561 -0.4471
  773MPD2    C511409   4.340   2.959   0.823 -0.0653 -0.4251 -0.1758
  773MPD2     H11410   4.501   2.754   0.541  0.4338  0.6533  0.3300
  773MPD2    H111411   4.435   2.829   0.960  1.3752 -2.3755 -1.3260
  773MPD2    H211412   4.263   3.083   0.662  0.5527  1.0422  2.8147
  773MPD2    H311413   4.299   3.018   0.904 -2.4355 -0.1158 -1.5898
  773MPD2     N11414   4.568   2.667   0.782  0.0922 -0.0345 -0.3030
  773MPD2    H511415   4.585   2.601   0.707 -0.9039 -1.0515  0.3632
  773MPD2    N111416   4.386   2.973   0.457 -0.0977  0.2924 -0.1852
  773MPD2    H711417   4.420   2.908   0.386 -1.0404 -0.8165  0.3740
  774MPD2     C11418   3.083   2.574  13.906 -0.8045  0.2506  0.0961
  774MPD2    C111419   3.172   2.518  14.000 -0.0012  0.4620 -0.0426
  774MPD2    C211420   3.264   2.610  14.057 -0.0567  0.3047 -1.6055
  774MPD2    C311421   3.286   2.730  14.008 -0.3174  0.4898  0.6542
  774MPD2    C411422   3.208   2.775  13.902  0.4552  0.1090  0.2937
  774MPD2    C511423   3.103   2.698  13.849  0.7156 -0.0688 -0.9263
  774MPD2     H11424   3.323   2.582  14.144 -0.4109  0.3665 -1.3435
  774MPD2    H111425   3.216   2.874  13.860 -2.4437  1.1489  2.1754
  774MPD2    H211426   3.004   2.512  13.866 -0.5272  0.5338 -0.8968
  774MPD2    H311427   3.027   2.732  13.778  0.5860 -0.1587 -0.8310
  774MPD2     N11428   3.385   2.804  14.065  0.2374  0.6907  0.2225
  774MPD2    H511429   3.439   2.759  14.138  0.3286 -2.2012 -1.6643
  774MPD2    N111430   3.167   2.375  14.036 -0.3733  0.3004 -0.0392
  774MPD2    H711431   3.106   2.322  13.976 -1.2778  2.3355 -0.9060
  775MPD2     C11432   0.683   3.925  16.005  0.0223  0.6828  0.0618
  775MPD2    C111433   0.677   4.049  16.061  0.0537  0.7123  0.6788
  775MPD2    C211434   0.756   4.152  16.018 -0.2198  0.0217 -0.1882
  775MPD2    C311435   0.842   4.137  15.907 -0.2094  0.8538 -0.3024
  775MPD2    C411436   0.842   4.013  15.845  0.2422  0.0052 -0.7970
  775MPD2    C511437   0.754   3.916  15.885 -0.1352 -0.3532  0.0580
  775MPD2     H11438   0.760   4.245  16.073 -1.4703 -0.6316  1.0053
  775MPD2    H111439   0.907   4.000  15.759  1.0306  0.0399 -0.2040
  775MPD2    H211440   0.631   3.836  16.038 -0.4134  0.1310 -2.1431
  775MPD2    H311441   0.752   3.826  15.825 -0.0866 -0.6449  0.4928
  775MPD2     N11442   0.942   4.234  15.865  0.0871 -0.3613  0.0525
  775MPD2    H511443   0.981   4.210  15.774 -0.8758 -0.7404 -0.2623
  775MPD2    N111444   0.587   4.057  16.170 -0.1104 -0.6701  0.4209
  775MPD2    H711445   0.527   3.979  16.194 -2.0156 -0.3839 -3.4516
  776MPD2     C11446   4.232   4.281  10.967  0.1368  0.3086  0.4701
  776MPD2    C111447   4.278   4.307  11.092  0.3931 -0.1749 -0.6976
  776MPD2    C211448   4.328   4.433  11.132  0.4126 -0.1893 -0.6648
  776MPD2    C311449   4.332   4.537  11.037 -0.1076  0.2000 -0.4746
  776MPD2    C411450   4.279   4.513  10.914  0.6851  0.0783 -0.2696
  776MPD2    C511451   4.240   4.387  10.881  0.3986  0.4813  0.0015
  776MPD2     H11452   4.367   4.455  11.231  1.9744 -2.0454 -0.8802
  776MPD2    H111453   4.274   4.589  10.837 -2.2046  0.8778  0.7086
  776MPD2    H211454   4.193   4.185  10.935 -0.3135  0.9751 -0.9863
  776MPD2    H311455   4.209   4.361  10.780 -0.0195 -0.7084  0.4433
  776MPD2     N11456   4.388   4.667  11.063 -0.1283 -0.2548  0.4420
  776MPD2    H511457   4.395   4.722  10.978  0.9976 -0.2562  0.5375
  776MPD2    N111458   4.272   4.204  11.186 -0.5350 -0.0164  0.3907
  776MPD2    H711459   4.217   4.122  11.161  0.6422 -1.0222  1.0801
  777MPD2     C11460   4.387   1.698   0.956  0.6793  0.4005 -0.4459
  777MPD2    C111461   4.405   1.572   1.004  0.6443 -0.4310  0.3502
  777MPD2    C211462   4.383   1.464   0.922  0.3667  0.6722  0.5987
  777MPD2    C311463   4.324   1.486   0.795  0.2041 -0.5147  0.7302
  777MPD2    C411464   4.295   1.613   0.754  0.2235  0.0067  0.4509
  777MPD2    C511465   4.322   1.723   0.839  0.3263  0.6051  0.1209
  777MPD2     H11466   4.405   1.360   0.942 -1.4393  0.1428 -0.1591
  777MPD2    H111467   4.244   1.633   0.661  2.7435 -0.0478 -0.9469
  777MPD2    H211468   4.415   1.780   1.021  0.4144 -0.0340  0.2109
  777MPD2    H311469   4.294   1.825   0.814  0.2991  0.3857 -0.7654
  777MPD2     N11470   4.285   1.380   0.714  0.7320  0.1674 -0.3700
  777MPD2    H511471   4.298   1.289   0.756  1.5475  0.6474  0.4072
  777MPD2    N111472   4.464   1.557   1.135 -0.4620 -0.7105 -0.1091
  777MPD2    H711473   4.468   1.647   1.183 -1.0754 -1.3629  1.1611
  778MPD2     C11474   0.669   1.615  15.294  0.1433 -0.1263  0.5062
  778MPD2    C111475   0.649   1.624  15.163 -0.4629 -0.3377 -0.3956
  778MPD2    C211476   0.719   1.715  15.091  0.6435 -0.5716  0.8101
  778MPD2    C311477   0.787   1.820  15.151  0.1291  0.0303  0.7339
  778MPD2    C411478   0.809   1.811  15.288 -0.9754  0.2269 -0.5257
  778MPD2    C511479   0.744   1.711  15.355  0.6119 -0.4165 -0.0566
  778MPD2     H11480   0.700   1.721  14.985  0.5282 -2.6027  0.7064
  778MPD2    H111481   0.872   1.878  15.346  0.5946  0.1736 -2.1844
  778MPD2    H211482   0.626   1.533  15.350  2.1788 -1.8107 -0.3903
  778MPD2    H311483   0.750   1.697  15.463  1.4955  1.7581  0.1847
  778MPD2     N11484   0.859   1.908  15.065  0.7971  0.1818  0.4630
  778MPD2    H511485   0.837   1.903  14.966 -0.3271  1.5369  0.6442
  778MPD2    N111486   0.569   1.529  15.094 -0.1369  0.6091 -0.5917
  778MPD2    H711487   0.572   1.523  14.992  0.4439  0.0221 -0.5397
  779MPD2     C11488   0.977   0.647  13.888  0.1493 -0.1052  0.0272
  779MPD2    C111489   0.912   0.625  14.009 -0.4171 -0.2032 -0.3191
  779MPD2    C211490   0.871   0.741  14.082  0.0387  0.7697  0.4258
  779MPD2    C311491   0.899   0.870  14.033 -0.6608 -0.0690  0.2731
  779MPD2    C411492   0.969   0.881  13.907 -0.4819 -0.6285 -0.7590
  779MPD2    C511493   1.009   0.769  13.837  0.0826 -0.5402  0.2196
  779MPD2     H11494   0.822   0.719  14.176 -0.1583  1.7774  0.5562
  779MPD2    H111495   0.998   0.977  13.865 -1.7706  1.4399  3.0212
  779MPD2    H211496   1.012   0.565  13.826  2.3864  2.2354 -1.7671
  779MPD2    H311497   1.059   0.778  13.742  0.6365 -0.3493  0.5272
  779MPD2     N11498   0.864   0.991  14.104 -0.2526 -0.0148  0.0101
  779MPD2    H511499   0.885   1.079  14.057  1.6223 -1.0290 -1.0505
  779MPD2    N111500   0.886   0.493  14.063 -0.3869  0.2903  0.2319
  779MPD2    H711501   0.831   0.495  14.148  0.0740 -1.2084  0.5713
  780MPD2     C11502   0.838   0.401   1.678  0.5455 -0.2750  0.3912
  780MPD2    C111503   0.756   0.509   1.683 -0.3162 -0.3287 -0.2039
  780MPD2    C211504   0.731   0.580   1.564 -0.2768 -0.1726  0.5171
  780MPD2    C311505   0.771   0.532   1.447 -0.2447  0.0477 -0.3015
  780MPD2    C411506   0.850   0.418   1.445 -0.1046 -0.3498 -0.5449
  780MPD2    C511507   0.882   0.354   1.559  0.2660  0.8012 -0.0131
  780MPD2     H11508   0.668   0.668   1.557 -0.4750 -0.3216  0.4381
  780MPD2    H111509   0.884   0.379   1.350 -0.0819 -0.5256 -0.4644
  780MPD2    H211510   0.849   0.338   1.766 -0.4570  0.3595  0.9683
  780MPD2    H311511   0.940   0.266   1.533  0.5488  1.3377 -1.2311
  780MPD2     N11512   0.737   0.601   1.334 -0.3425  0.4566 -0.3370
  780MPD2    H511513   0.702   0.695   1.351 -2.9817 -0.4731 -0.6182
  780MPD2    N111514   0.690   0.531   1.810 -0.1737  0.1082 -0.1932
  780MPD2    H711515   0.707   0.457   1.878 -2.1818  1.8321  2.1682
  781MPD2     C11516   2.523   2.967  12.021  0.1773 -0.0908 -0.6928
  781MPD2    C111517   2.427   2.871  12.047  0.4824 -0.3044 -0.2388
  781MPD2    C211518   2.394   2.795  11.938 -0.2140 -0.0022 -0.0315
  781MPD2    C311519   2.448   2.806  11.813 -0.3699 -0.1374 -0.2501
  781MPD2    C411520   2.536   2.905  11.795 -1.1522 -0.1285 -0.4492
  781MPD2    C511521   2.576   2.984  11.897 -0.3316 -0.0801 -0.0358
  781MPD2     H11522   2.321   2.717  11.954 -0.4526  0.2311 -0.0003
  781MPD2    H111523   2.588   2.921  11.702 -0.2960 -0.4850 -0.0316
  781MPD2    H211524   2.572   3.017  12.105 -0.5021  0.7242 -0.7800
  781MPD2    H311525   2.657   3.056  11.890 -1.2896  0.8504 -1.5651
  781MPD2     N11526   2.439   2.716  11.707  0.8122 -0.3022  0.3284
  781MPD2    H511527   2.496   2.728  11.624  0.3577 -2.6572 -0.3121
  781MPD2    N111528   2.357   2.856  12.170  0.3635 -0.1120 -0.3765
  781MPD2    H711529   2.312   2.769  12.197  1.6970 -0.6849  0.0340
  782MPD2     C11530   4.673   3.395   9.714  0.6071 -0.1877  0.1929
  782MPD2    C111531   0.008   3.272   9.743  0.3378 -0.0164 -0.6096
  782MPD2    C211532   0.144   3.271   9.765 -0.6754 -0.3997 -0.0151
  782MPD2    C311533   0.210   3.392   9.769  0.0622 -0.5209  0.4488
  782MPD2    C411534   0.155   3.511   9.739  0.2999 -0.7343 -0.2090
  782MPD2    C511535   0.023   3.508   9.705 -0.8674  0.3306  0.3793
  782MPD2     H11536   0.199   3.180   9.785  2.5069  0.9639 -2.4636
  782MPD2    H111537   0.214   3.599   9.720  0.1192 -0.5593  0.0467
  782MPD2    H211538   4.569   3.393   9.684  0.7586 -2.2032 -0.1705
  782MPD2    H311539   4.690   3.597   9.682 -3.2322 -1.1620  0.3673
  782MPD2     N11540   0.344   3.378   9.820 -0.2864  0.1930 -0.1938
  782MPD2    H511541   0.382   3.285   9.828 -0.5734 -0.0923 -2.0024
  782MPD2    N111542   4.661   3.148   9.751  0.0064  0.6090 -0.0464
  782MPD2    H711543   4.560   3.157   9.748 -0.1409 -1.4457 -1.6923
  783MPD2     C11544   4.027   2.883  10.403 -0.3394  0.0139  0.3173
  783MPD2    C111545   4.148   2.897  10.467  0.8649 -0.2271  0.0751
  783MPD2    C211546   4.264   2.887  10.393 -0.4574 -0.0635 -0.5820
  783MPD2    C311547   4.261   2.879  10.251 -0.1506  0.4198 -0.7334
  783MPD2    C411548   4.137   2.876  10.189 -1.5296  0.2135  0.1243
  783MPD2    C511549   4.026   2.881  10.266 -0.1411  0.3224  0.0248
  783MPD2     H11550   4.360   2.874  10.443  0.4303  2.3746 -1.6684
  783MPD2    H111551   4.115   2.857  10.085 -0.8849 -0.5325  0.1225
  783MPD2    H211552   3.938   2.902  10.463  0.6124 -0.2772  1.8372
  783MPD2    H311553   3.936   2.880  10.207  0.2397  1.2499 -0.5709
  783MPD2     N11554   4.382   2.870  10.179 -0.5420 -0.1666 -0.1872
  783MPD2    H511555   4.463   2.850  10.238  0.0464 -0.0877 -0.9759
  783MPD2    N111556   4.156   2.912  10.609 -0.2792  0.1969 -0.3435
  783MPD2    H711557   4.067   2.912  10.659  0.3650 -1.6775  0.7852
  784MPD2     C11558   2.857   3.650   0.660 -0.4954  0.0339  0.1741
  784MPD2    C111559   2.818   3.730   0.763  0.3349 -0.4745  0.1545
  784MPD2    C211560   2.691   3.791   0.761  0.8383 -0.1383 -0.4188
  784MPD2    C311561   2.606   3.760   0.657  0.2365 -0.2080 -0.2745
  784MPD2    C411562   2.650   3.689   0.549  0.3214 -0.4588 -0.2883
  784MPD2    C511563   2.774   3.625   0.557  0.3404 -0.0150 -0.3662
  784MPD2     H11564   2.663   3.867   0.833  1.3440 -0.4391  0.0982
  784MPD2    H111565   2.590   3.660   0.464  2.4057  0.1234 -1.9641
  784MPD2    H211566   2.958   3.611   0.655 -0.2538  0.2841  3.0493
  784MPD2    H311567   2.799   3.546   0.487  2.0220 -0.1779  0.4313
  784MPD2     N11568   2.470   3.808   0.646 -0.4484 -0.3011  0.0861
  784MPD2    H511569   2.420   3.795   0.559  1.0403 -1.2783 -0.6200
  784MPD2    N111570   2.910   3.777   0.869  0.3183 -0.5070  0.3024
  784MPD2    H711571   2.865   3.848   0.926 -0.7393 -1.5734  0.7836
  785MPD2     C11572   1.784   2.249  10.353 -0.4627 -0.0747  0.0222
  785MPD2    C111573   1.745   2.310  10.235  0.2592 -0.3916  0.3698
  785MPD2    C211574   1.660   2.239  10.145  0.1484  0.4716  0.0095
  785MPD2    C311575   1.616   2.112  10.172 -0.0400 -0.1764  0.5063
  785MPD2    C411576   1.653   2.055  10.292  0.5439 -0.8746  0.5549
  785MPD2    C511577   1.740   2.121  10.375 -0.0572  0.3819 -0.4270
  785MPD2     H11578   1.627   2.291  10.056 -2.6219  1.4541  1.6064
  785MPD2    H111579   1.625   1.954  10.319  2.0455 -1.2409  0.7063
  785MPD2    H211580   1.853   2.287  10.428 -0.6488 -0.8527  0.5957
  785MPD2    H311581   1.773   2.074  10.467  2.9853  1.0404 -1.1765
  785MPD2     N11582   1.530   2.051  10.079  0.9203 -0.8415 -0.6743
  785MPD2    H511583   1.513   2.102   9.993 -0.3871  1.7676  1.0880
  785MPD2    N111584   1.779   2.441  10.195 -0.5809  0.6874 -0.1817
  785MPD2    H711585   1.749   2.464  10.100 -2.3131  1.4913  0.5555
  786MPD2     C11586   1.268   0.062  15.227 -0.0199 -0.4370  0.1259
  786MPD2    C111587   1.360   4.683  15.191  0.2387  0.6791 -0.0153
  786MPD2    C211588   1.446   4.625  15.286 -0.4227 -0.2455 -0.3433
  786MPD2    C311589   1.434   4.656  15.424  0.3100  0.6008 -0.6474
  786MPD2    C411590   1.351   0.038  15.456 -0.3248  0.1616 -0.7210
  786MPD2    C511591   1.263   0.095  15.362 -0.3368  0.1278 -0.2677
  786MPD2     H11592   1.524   4.557  15.253 -0.3888 -0.0081 -0.7525
  786MPD2    H111593   1.346   0.078  15.557  1.8103  1.8686 -1.2938
  786MPD2    H211594   1.211   0.119  15.154  0.9542  0.0357 -0.2740
  786MPD2    H311595   1.195   0.170  15.398  0.4584 -0.2978  2.1158
  786MPD2     N11596   1.487   4.588  15.532 -0.5909  0.0246 -0.1258
  786MPD2    H511597   1.450   4.612  15.623  1.5074 -3.1952  1.5553
  786MPD2    N111598   1.374   4.646  15.055  0.4685  0.3410  0.1894
  786MPD2    H711599   1.450   4.588  15.020  0.6071  0.1922  0.7382
  787MPD2     C11600   1.507   3.953  14.674  1.0356 -1.4302 -0.2099
  787MPD2    C111601   1.565   4.075  14.703  0.3851  0.2590  0.0530
  787MPD2    C211602   1.687   4.077  14.762  0.2939  0.3594 -0.5211
  787MPD2    C311603   1.763   3.963  14.792  0.2168 -0.2805  0.1449
  787MPD2    C411604   1.703   3.840  14.764  0.4819  1.1686  0.5179
  787MPD2    C511605   1.577   3.843  14.707 -0.7726  0.4918  0.3240
  787MPD2     H11606   1.731   4.171  14.793 -1.3707  0.7313  0.7003
  787MPD2    H111607   1.747   3.749  14.803  0.3867  0.0405 -2.0762
  787MPD2    H211608   1.416   3.934  14.618  1.1719 -0.9659 -0.5881
  787MPD2    H311609   1.540   3.747  14.672 -1.1296  0.3297  1.1517
  787MPD2     N11610   1.895   3.987  14.846  0.8032 -0.0531  1.1881
  787MPD2    H511611   1.918   4.086  14.841  1.3196 -0.2102  0.3908
  787MPD2    N111612   1.482   4.184  14.693 -0.4052 -0.4201 -0.3825
  787MPD2    H711613   1.399   4.169  14.637 -1.6272  2.0348  0.7764
  788MPD2     C11614   3.498   2.891   0.900 -0.0902  0.1048 -0.6314
  788MPD2    C111615   3.495   2.788   0.807 -0.1514 -0.1464  0.2361
  788MPD2    C211616   3.537   2.818   0.676  0.0315 -0.2067  0.1180
  788MPD2    C311617   3.581   2.946   0.636  0.0604 -0.4249 -0.0620
  788MPD2    C411618   3.583   3.048   0.737  0.1059  0.0086  0.1142
  788MPD2    C511619   3.550   3.013   0.866 -0.1259  0.8244  1.0159
  788MPD2     H11620   3.522   2.738   0.605 -0.9789  1.5441 -1.6131
  788MPD2    H111621   3.603   3.153   0.720  1.7192  0.1987  3.2082
  788MPD2    H211622   3.458   2.881   1.001  2.6694  0.2377  0.4887
  788MPD2    H311623   3.551   3.091   0.942  2.6599  1.4302  0.3681
  788MPD2     N11624   3.605   2.984   0.498  0.0483 -0.5387  0.2883
  788MPD2    H511625   3.612   3.083   0.478  0.7445 -0.4455  0.9956
  788MPD2    N111626   3.461   2.656   0.844 -0.5745 -0.2513 -0.2781
  788MPD2    H711627   3.471   2.580   0.778 -0.9011 -0.7638  0.2624
  789MPD2     C11628   3.543   2.641  16.552 -0.8005 -0.6520  0.1871
  789MPD2    C111629   3.477   2.601  16.665 -0.2616  0.2180 -0.5933
  789MPD2    C211630   3.378   2.671  16.731 -0.0710 -0.5764 -0.6081
  789MPD2    C311631   3.330   2.785  16.655  0.0694 -0.0910 -0.4893
  789MPD2    C411632   3.393   2.828  16.538  1.1113 -0.1205 -0.5513
  789MPD2    C511633   3.506   2.762  16.492 -0.1642 -0.1986  0.0739
  789MPD2     H11634   3.346   2.635  16.828 -1.5845 -0.6878 -1.1549
  789MPD2    H111635   3.355   2.918  16.493  0.7657  0.4109  0.8154
  789MPD2    H211636   3.632   2.591  16.516  1.0920  1.6679  1.6797
  789MPD2    H311637   3.562   2.785  16.402 -0.1307  1.0317  0.4150
  789MPD2     N11638   3.221   2.849  16.719 -0.0250  0.5580  0.3738
  789MPD2    H511639   3.189   2.820  16.811 -0.5284  0.7793  0.2638
  789MPD2    N111640   3.519   2.482  16.729  0.1294  0.5124  0.1577
  789MPD2    H711641   3.483   2.463  16.822  0.3447 -0.3899  0.0563
  790MPD2     C11642   4.713   4.494  13.723  0.0129 -0.0328  0.3581
  790MPD2    C111643   4.588   4.451  13.747 -0.0681  0.8063 -0.5447
  790MPD2    C211644   4.493   4.450  13.645 -0.0410 -0.1261  0.4751
  790MPD2    C311645   4.540   4.476  13.515  0.6332  0.0451  0.2566
  790MPD2    C411646   4.667   4.519  13.496 -0.4073 -0.0730 -0.0637
  790MPD2    C511647   0.035   4.526  13.597  0.6871 -0.8132  0.8662
  790MPD2     H11648   4.391   4.423  13.666 -0.0001 -0.5177  0.1592
  790MPD2    H111649   4.701   4.540  13.396 -0.1164  1.7501  0.4209
  790MPD2    H211650   0.069   4.491  13.796  2.5238  1.8019 -2.2797
  790MPD2    H311651   0.140   4.551  13.591 -0.0569  2.7847  3.2138
  790MPD2     N11652   4.447   4.456  13.415 -0.5736 -0.0565 -0.0341
  790MPD2    H511653   4.373   4.395  13.447 -1.1054  1.0425  0.8151
  790MPD2    N111654   4.554   4.412  13.880  0.2468  0.5476 -0.1484
  790MPD2    H711655   4.628   4.408  13.949  0.5840 -1.8470 -0.6355
  791MPD2     C11656   3.839   4.416  12.975 -0.0384  0.1375 -0.0077
  791MPD2    C111657   3.897   4.297  13.019  0.2645 -0.2876  0.4115
  791MPD2    C211658   3.843   4.180  12.976  0.2787  0.3569  0.3397
  791MPD2    C311659   3.737   4.171  12.888  0.1678  0.0529  0.2999
  791MPD2    C411660   3.681   4.289  12.838 -0.0175  0.1770  0.2456
  791MPD2    C511661   3.728   4.408  12.886  0.2387  0.2439 -0.4772
  791MPD2     H11662   3.893   4.086  12.996  1.3061  0.5016 -1.4713
  791MPD2    H111663   3.607   4.284  12.758  0.9635 -2.6530 -0.4931
  791MPD2    H211664   3.889   4.509  12.999  1.3918 -0.1492 -1.9028
  791MPD2    H311665   3.692   4.500  12.841  0.9494  0.2449 -1.0419
  791MPD2     N11666   3.698   4.042  12.846 -0.4263 -0.0590  0.5184
  791MPD2    H511667   3.745   3.965  12.893  0.2557  1.2148  1.9475
  791MPD2    N111668   4.025   4.311  13.088  0.7447  0.0593  0.3110
  791MPD2    H711669   4.059   4.403  13.113  1.4584  0.3696 -1.7296
  792MPD2     C11670   0.326   4.161  10.962 -0.5544  0.2908  0.2460
  792MPD2    C111671   0.192   4.176  10.929 -0.2768  0.4353 -0.5206
  792MPD2    C211672   0.110   4.064  10.907 -0.7090 -0.6315  0.4590
  792MPD2    C311673   0.161   3.941  10.907  0.5030 -0.1895  1.3122
  792MPD2    C411674   0.299   3.926  10.929 -0.7020 -0.2969  0.3370
  792MPD2    C511675   0.374   4.032  10.957  0.3333  0.3029 -0.6677
  792MPD2     H11676   0.006   4.086  10.884 -0.5937 -1.9303 -1.3136
  792MPD2    H111677   0.340   3.826  10.938  1.9885  0.9143  1.2646
  792MPD2    H211678   0.397   4.242  10.974  0.5789  0.0415 -5.0253
  792MPD2    H311679   0.482   4.017  10.958 -0.0859 -2.6839 -0.3897
  792MPD2     N11680   0.078   3.829  10.868  0.2863  0.0380  0.3679
  792MPD2    H511681   0.116   3.741  10.834  0.4157  0.0250  0.5462
  792MPD2    N111682   0.139   4.309  10.902 -0.7096  0.0970  0.4363
  792MPD2    H711683   0.203   4.387  10.912  0.9141 -1.3168  1.1476
  793MPD2     C11684   3.948   3.549  10.307  0.1092  0.4768 -0.4588
  793MPD2    C111685   4.080   3.557  10.253 -0.2216  0.6642  0.1340
  793MPD2    C211686   4.185   3.569  10.345 -0.4610  0.3687  0.1460
  793MPD2    C311687   4.172   3.564  10.481 -0.8237  0.2111 -0.1994
  793MPD2    C411688   4.044   3.541  10.525 -0.7154 -0.5565 -0.1629
  793MPD2    C511689   3.934   3.532  10.438 -0.9785 -0.6690 -0.2712
  793MPD2     H11690   4.284   3.596  10.310  1.0811 -3.3963  1.5905
  793MPD2    H111691   4.015   3.551  10.629  2.1760  0.2511  0.5700
  793MPD2    H211692   3.857   3.542  10.248 -0.8087  1.1213  0.8728
  793MPD2    H311693   3.837   3.517  10.485  0.0774 -0.8402  1.8191
  793MPD2     N11694   4.286   3.603  10.561  0.1155 -0.4994  0.4030
  793MPD2    H511695   4.365   3.647  10.515 -0.2395 -1.3356 -1.0058
  793MPD2    N111696   4.104   3.572  10.114  0.3827 -0.2238 -0.0323
  793MPD2    H711697   4.199   3.597  10.087 -0.1586  0.1239 -1.6199
  794MPD2     C11698   4.420   3.610  17.548  0.2644 -0.1604  0.2356
  794MPD2    C111699   4.383   3.486  17.493  0.1292 -0.2270 -0.1041
  794MPD2    C211700   4.341   3.486  17.363  0.6749 -0.1194  0.2919
  794MPD2    C311701   4.345   3.597  17.290 -0.2698 -0.8510  0.0109
  794MPD2    C411702   4.374   3.716  17.345 -0.5107  0.2034 -0.1409
  794MPD2    C511703   4.417   3.721  17.472  0.0411 -0.7385 -0.6410
  794MPD2     H11704   4.313   3.387  17.329 -0.7680 -0.0972  1.4286
  794MPD2    H111705   4.377   3.806  17.286 -1.5851  1.0850  1.1418
  794MPD2    H211706   4.434   3.618  17.655  1.7880 -1.3009  0.1189
  794MPD2    H311707   4.443   3.820  17.508 -0.3588 -0.5790 -0.7964
  794MPD2     N11708   4.296   3.607  17.148 -0.0620  0.9280 -0.4371
  794MPD2    H511709   4.284   3.696  17.102  0.3313  0.7316 -0.9170
  794MPD2    N111710   4.363   3.366  17.573 -0.1858  0.6299 -0.3359
  794MPD2    H711711   4.317   3.287  17.530 -2.5832  2.0829 -0.4506
  795MPD2     C11712   2.192   1.227  13.478  0.1552  0.8194  0.0071
  795MPD2    C111713   2.164   1.101  13.527 -0.3881 -0.3139 -0.1646
  795MPD2    C211714   2.243   0.995  13.493  0.6560 -0.2393  1.0648
  795MPD2    C311715   2.337   1.009  13.396 -0.1586  0.0277 -0.8714
  795MPD2    C411716   2.366   1.136  13.352 -0.1833  0.0363 -0.5922
  795MPD2    C511717   2.303   1.252  13.394  0.8288 -0.5025  0.3592
  795MPD2     H11718   2.233   0.899  13.543  1.2979 -1.2804 -0.8435
  795MPD2    H111719   2.445   1.158  13.282  2.5918  0.0886  2.5230
  795MPD2    H211720   2.148   1.320  13.512  0.3593  1.0214 -0.2721
  795MPD2    H311721   2.331   1.353  13.365 -1.6838  0.3295  0.8432
  795MPD2     N11722   2.378   0.893  13.333 -0.4073  0.4492  1.0093
  795MPD2    H511723   2.344   0.805  13.370  1.0588  0.4366  2.3240
  795MPD2    N111724   2.070   1.086  13.631 -0.3167 -0.5514 -0.2208
  795MPD2    H711725   2.066   0.995  13.676 -0.1517 -0.7185 -0.5383
  796MPD2     C11726   1.273   2.347  16.085 -0.2604 -0.6277  0.4497
  796MPD2    C111727   1.361   2.385  16.190 -0.9965  0.5235 -0.1066
  796MPD2    C211728   1.406   2.512  16.203 -0.0545  0.4105 -0.3020
  796MPD2    C311729   1.362   2.609  16.108  0.8684  0.1274  0.7719
  796MPD2    C411730   1.287   2.566  15.995  0.0485 -0.4131 -0.2888
  796MPD2    C511731   1.245   2.436  15.989  1.0171  0.2543  0.2484
  796MPD2     H11732   1.468   2.553  16.282  0.5346  0.0613 -0.5862
  796MPD2    H111733   1.259   2.633  15.914  0.1904 -0.2308 -0.1878
  796MPD2    H211734   1.230   2.248  16.075 -2.2525  0.0621  2.1980
  796MPD2    H311735   1.182   2.409  15.905  1.7428  0.5715 -0.3942
  796MPD2     N11736   1.397   2.746  16.138  0.0301  0.0983  0.2497
  796MPD2    H511737   1.454   2.762  16.220  1.3814  1.2874 -0.9254
  796MPD2    N111738   1.388   2.287  16.284 -0.6784  0.0522  0.0737
  796MPD2    H711739   1.370   2.188  16.267 -0.1634  0.2363 -1.5240
  797MPD2     C11740   1.884   2.160  17.650 -0.5873  0.1641  0.2774
  797MPD2    C111741   1.993   2.247  17.655  0.1996  0.3225 -0.1268
  797MPD2    C211742   1.994   2.359  17.591 -0.1761  0.4351  0.2263
  797MPD2    C311743   1.896   2.388  17.502  0.1696  0.1360 -0.6122
  797MPD2    C411744   1.794   2.299  17.485 -0.5923 -0.3525  0.6856
  797MPD2    C511745   1.787   2.181  17.554  0.1212  0.3125  0.7550
  797MPD2     H11746   2.087   2.416  17.592 -0.2189  0.5235 -0.4144
  797MPD2    H111747   1.710   2.311  17.418 -0.4093 -0.2463  0.4766
  797MPD2    H211748   1.886   2.067   0.010  1.0792  1.6618  2.6983
  797MPD2    H311749   1.699   2.118  17.547  1.3625 -1.3066 -0.4743
  797MPD2     N11750   1.894   2.508  17.422 -0.4531  0.2972 -0.3792
  797MPD2    H511751   1.834   2.506  17.340  1.0868  0.5057 -1.5139
  797MPD2    N111752   2.106   2.216   0.035 -0.4936 -0.3382 -0.0765
  797MPD2    H711753   2.184   2.277   0.010 -0.9923  0.2277 -0.2428
  798MPD2     C11754   2.463   2.833  17.583 -0.7172  0.8099 -0.9438
  798MPD2    C111755   2.343   2.767  17.572  0.2707 -0.0687 -0.2017
  798MPD2    C211756   2.337   2.650  17.637 -0.4182  0.4423 -0.0322
  798MPD2    C311757   2.430   2.590   0.031  0.6822  0.2048  0.0155
  798MPD2    C411758   2.547   2.660   0.035 -0.2041  0.5373  0.4015
  798MPD2    C511759   2.560   2.780  17.666 -0.1434  0.7323 -0.9704
  798MPD2     H11760   2.244   2.600  17.613 -2.0028  3.5949 -0.4195
  798MPD2    H111761   2.633   2.638   0.097 -0.5942  2.5732  1.6449
  798MPD2    H211762   2.492   2.922  17.528 -3.5477  0.1229 -3.5268
  798MPD2    H311763   2.648   2.839  17.688 -0.4158  0.0793  1.9100
  798MPD2     N11764   2.403   2.470   0.088  0.1381  0.1142  0.1951
  798MPD2    H511765   2.319   2.420   0.059  0.8509  0.8538 -3.0128
  798MPD2    N111766   2.231   2.823  17.503 -0.6576  0.3225 -0.5438
  798MPD2    H711767   2.153   2.760  17.493  0.0936 -0.8388  0.9143
  799MPD2     C11768   0.797   3.517  14.427  0.0312  0.0965  0.5230
  799MPD2    C111769   0.927   3.567  14.435 -0.9322 -0.2994  0.3135
  799MPD2    C211770   0.944   3.699  14.417 -0.2950  0.7379  0.5133
  799MPD2    C311771   0.849   3.784  14.370  0.1597 -0.1872 -0.6426
  799MPD2    C411772   0.723   3.736  14.351  0.5101 -0.4787  0.7883
  799MPD2    C511773   0.698   3.604  14.384  0.0025 -0.4963 -0.7727
  799MPD2     H11774   1.046   3.734  14.426 -0.2338  0.4483  0.9722
  799MPD2    H111775   0.641   3.795  14.312  1.5370 -0.3379 -1.1297
  799MPD2    H211776   0.772   3.419  14.466  0.8579  0.1436  1.1776
  799MPD2    H311777   0.603   3.555  14.365 -0.1313  0.2524 -1.9966
  799MPD2     N11778   0.885   3.925  14.343  0.2779 -0.6936 -0.0292
  799MPD2    H511779   0.818   3.995  14.312  0.7865 -0.4256 -0.5326
  799MPD2    N111780   1.035   3.497  14.495  0.7011  0.3602 -0.3390
  799MPD2    H711781   1.115   3.543  14.538 -1.2946  3.0836  0.4822
  800MPD2     C11782   1.972   0.227  14.677 -0.4623  0.4605 -0.0107
  800MPD2    C111783   2.068   0.300  14.614 -0.2250 -0.1444  0.0257
  800MPD2    C211784   2.127   0.244  14.500 -0.1221 -0.0196 -0.4389
  800MPD2    C311785   2.096   0.125  14.450 -0.6105 -0.4894  1.2240
  800MPD2    C411786   2.000   0.052  14.514  0.6162  0.3170  0.1882
  800MPD2    C511787   1.943   0.104  14.627 -0.3340  0.4880  0.2648
  800MPD2     H11788   2.192   0.307  14.440  0.7921 -0.1978  0.3707
  800MPD2    H111789   1.970   4.676  14.484  1.8669 -0.1009  0.3103
  800MPD2    H211790   1.924   0.276  14.762 -0.1687 -0.7387  0.8391
  800MPD2    H311791   1.858   0.049  14.665 -0.8840  1.1391 -0.0130
  800MPD2     N11792   2.156   0.090  14.324  0.3498 -0.1786  0.4360
  800MPD2    H511793   2.202   0.166  14.277  1.0913 -1.5737 -1.0927
  800MPD2    N111794   2.110   0.421  14.657  0.3107  0.1247  0.1401
  800MPD2    H711795   2.059   0.470  14.730  1.4256 -0.2650  1.1922
  801MPD2     C11796   1.863   1.033  14.930 -0.7081  0.2135  0.2850
  801MPD2    C111797   1.856   0.920  14.864 -0.2649  0.4002  0.3161
  801MPD2    C211798   1.732   0.869  14.852 -0.0216 -0.5639  0.2453
  801MPD2    C311799   1.617   0.921  14.911 -0.5238 -0.6764 -0.8748
  801MPD2    C411800   1.625   1.033  14.982 -0.2288 -0.1750 -0.2590
  801MPD2    C511801   1.753   1.092  14.997 -0.2726  0.4127 -0.0056
  801MPD2     H11802   1.726   0.769  14.810  0.3403 -1.0195  1.2750
  801MPD2    H111803   1.546   1.087  15.032 -1.5197 -0.8992 -1.5274
  801MPD2    H211804   1.955   1.086  14.954 -1.6299  1.6125  0.7333
  801MPD2    H311805   1.765   1.179  15.060 -1.1453  1.5432 -1.4156
  801MPD2     N11806   1.494   0.855  14.908 -0.4995 -0.3667 -0.3591
  801MPD2    H511807   1.434   0.885  14.983 -0.8224 -0.9428 -0.3862
  801MPD2    N111808   1.970   0.852  14.820  0.1032  0.4497 -0.3621
  801MPD2    H711809   1.948   0.765  14.773 -3.1735  0.5080  1.0721
  802MPD2     C11810   0.891   1.375   0.001 -0.1835  0.2995  0.6858
  802MPD2    C111811   0.963   1.340   0.114 -0.4665 -0.1876  0.5056
  802MPD2    C211812   0.996   1.209   0.136  0.4874  0.8310  0.5868
  802MPD2    C311813   0.968   1.112   0.041 -0.2555  0.6085  0.7792
  802MPD2    C411814   0.900   1.148  17.622 -0.5014  0.5485 -0.3381
  802MPD2    C511815   0.856   1.276  17.611 -0.6223  0.0082 -0.5438
  802MPD2     H11816   1.036   1.175   0.230 -1.4330  3.4577  2.3546
  802MPD2    H111817   0.861   1.075  17.551 -0.5611 -1.1557  1.4443
  802MPD2    H211818   0.838   1.470  17.691 -0.9393 -0.1644  0.0128
  802MPD2    H311819   0.788   1.290  17.527 -0.8797  0.3538 -0.2789
  802MPD2     N11820   1.023   0.988   0.065 -0.4859 -0.2678  0.4079
  802MPD2    H511821   1.074   0.984   0.152 -0.9993  3.8853  0.9104
  802MPD2    N111822   0.982   1.431   0.222 -0.1742 -0.4160 -0.2912
  802MPD2    H711823   1.014   1.395   0.311 -4.4826 -1.5875  0.7876
  803MPD2     C11824   2.486   4.136  12.107  0.1475 -0.0351  0.7589
  803MPD2    C111825   2.581   4.143  12.207  0.4468 -0.2991  0.8351
  803MPD2    C211826   2.550   4.091  12.327  0.0428 -0.6428 -0.5200
  803MPD2    C311827   2.429   4.029  12.356  0.3970 -1.1817  0.3500
  803MPD2    C411828   2.330   4.027  12.258 -0.3354 -0.2425  0.1460
  803MPD2    C511829   2.367   4.080  12.138  0.5190  0.1623  0.5914
  803MPD2     H11830   2.628   4.083  12.401 -1.1313  1.6043  0.9508
  803MPD2    H111831   2.228   3.992  12.261 -1.0627  1.8699  0.0605
  803MPD2    H211832   2.504   4.170  12.006 -1.3029 -0.7936  0.2369
  803MPD2    H311833   2.301   4.081  12.052 -0.4776  1.0563  1.3678
  803MPD2     N11834   2.403   3.961  12.480  0.2244  0.7122  0.2566
  803MPD2    H511835   2.308   3.927  12.494  0.2926  0.3799 -0.1061
  803MPD2    N111836   2.701   4.216  12.195 -0.1181  0.0630 -0.6140
  803MPD2    H711837   2.762   4.212  12.277  0.1575  1.9734 -0.7185
  804MPD2     C11838   2.127   1.044  17.027 -0.4307 -0.4821 -0.6936
  804MPD2    C111839   2.089   1.025  17.159  0.0538  0.6480 -0.1009
  804MPD2    C211840   2.150   1.087  17.263  0.2997  0.3099 -0.3397
  804MPD2    C311841   2.246   1.182  17.242  0.1595  0.4051  0.4322
  804MPD2    C411842   2.264   1.221  17.109  0.1806 -0.1836 -0.2659
  804MPD2    C511843   2.202   1.156  17.008  0.3307  0.2601 -0.2553
  804MPD2     H11844   2.123   1.070  17.367  1.8961 -0.4527 -0.0476
  804MPD2    H111845   2.317   1.312  17.085 -0.0197 -0.9054 -3.4241
  804MPD2    H211846   2.085   0.998  16.939  0.5656  1.6822 -2.2887
  804MPD2    H311847   2.213   1.193  16.906  4.3730 -0.5375 -0.1154
  804MPD2     N11848   2.301   1.243  17.354  0.7877 -0.0779 -0.2155
  804MPD2    H511849   2.299   1.199  17.445  1.0415  0.0440 -0.1512
  804MPD2    N111850   2.014   0.913  17.197 -0.3620  0.7510 -0.4301
  804MPD2    H711851   1.981   0.902  17.293  0.3029  1.5245 -0.1117
  805MPD2     C11852   1.214   4.040  15.874  0.1540 -0.4189 -0.9583
  805MPD2    C111853   1.314   4.009  15.775  0.1400 -0.9160  0.2877
  805MPD2    C211854   1.444   3.993  15.824 -0.2181 -0.4039  0.6030
  805MPD2    C311855   1.470   3.996  15.965 -0.5743 -0.0705  0.1465
  805MPD2    C411856   1.373   4.019  16.053 -0.0197  0.1207  0.1334
  805MPD2    C511857   1.248   4.043  16.009  0.0737  0.0165 -0.3052
  805MPD2     H11858   1.522   3.980  15.750 -2.5581  2.2956 -2.3351
  805MPD2    H111859   1.388   4.025  16.160 -0.2429 -1.4655  0.2503
  805MPD2    H211860   1.110   4.043  15.845 -0.0888 -1.5345 -0.2043
  805MPD2    H311861   1.174   4.060  16.086 -0.8422  2.3286 -1.7237
  805MPD2     N11862   1.603   3.969  16.003 -0.1389 -0.0496  0.8402
  805MPD2    H511863   1.675   3.978  15.931 -1.6792 -2.0312 -0.9506
  805MPD2    N111864   1.290   3.997  15.632 -0.6399 -0.4606 -0.1216
  805MPD2    H711865   1.372   3.970  15.578 -0.0220  0.2999  0.4425
  806MPD2     C11866   1.435   2.720   0.238 -0.8414 -0.1153  0.3578
  806MPD2    C111867   1.446   2.784   0.358  1.5688  0.4890  0.2022
  806MPD2    C211868   1.507   2.909   0.359  0.6416 -0.4491  0.0872
  806MPD2    C311869   1.541   2.973   0.237  0.3737  0.1488  0.1227
  806MPD2    C411870   1.532   2.904   0.117  0.3276  0.7248  0.3523
  806MPD2    C511871   1.470   2.781   0.120 -0.4095 -0.3331 -0.2950
  806MPD2     H11872   1.510   2.973   0.446 -0.2159  2.2940 -1.9022
  806MPD2    H111873   1.568   2.939   0.020  0.4204  0.5081  0.3097
  806MPD2    H211874   1.404   2.618   0.219 -3.0856  0.6588 -0.1209
  806MPD2    H311875   1.461   2.731   0.024  1.7173 -2.3502  0.5460
  806MPD2     N11876   1.612   3.092   0.265  0.6443 -0.3452  0.7467
  806MPD2    H511877   1.656   3.114   0.355  2.5112  1.0482 -0.5011
  806MPD2    N111878   1.397   2.718   0.477  1.2087  0.3841 -0.4842
  806MPD2    H711879   1.354   2.626   0.466  2.2147  0.0058 -1.3131
  807MPD2     C11880   1.368   2.009   0.805 -1.1334  0.2693  0.3871
  807MPD2    C111881   1.312   2.097   0.900 -0.3955  0.4332  0.6020
  807MPD2    C211882   1.270   2.040   1.024  0.4692 -0.4119  0.8968
  807MPD2    C311883   1.284   1.903   1.051 -0.1781  0.1839  0.3937
  807MPD2    C411884   1.337   1.821   0.948  0.2257  0.4078  0.7565
  807MPD2    C511885   1.370   1.873   0.834 -0.4310  1.1854 -0.2905
  807MPD2     H11886   1.212   2.098   1.095  1.1175  0.6753  0.5361
  807MPD2    H111887   1.345   1.714   0.966  0.7958  0.3402  0.0956
  807MPD2    H211888   1.394   2.050   0.708 -2.6411 -0.3369 -0.2598
  807MPD2    H311889   1.405   1.805   0.756  0.1590  1.9489 -0.6929
  807MPD2     N11890   1.239   1.849   1.171 -0.1526  0.3481 -0.1838
  807MPD2    H511891   1.184   1.906   1.234 -0.7255  0.0990 -0.4642
  807MPD2    N111892   1.300   2.240   0.884 -0.8879 -0.7599 -0.4167
  807MPD2    H711893   1.264   2.284   0.968 -1.5661  0.5528 -1.3903
  808MPD2     C11894   2.308   4.624  10.280  0.1271 -0.1533 -0.1543
  808MPD2    C111895   2.224   0.004  10.304 -0.0997 -0.4742 -0.3997
  808MPD2    C211896   2.240   0.122  10.234 -0.0877  0.5434 -0.2302
  808MPD2    C311897   2.340   0.137  10.141  0.2916  0.2808  0.1830
  808MPD2    C411898   2.425   0.037  10.118  0.4169  0.4283 -0.2549
  808MPD2    C511899   2.412   4.636  10.188 -0.0765 -0.4716 -0.3084
  808MPD2     H11900   2.159   0.194  10.241  0.4387  1.2548 -1.6677
  808MPD2    H111901   2.501   0.045  10.041  0.2837  1.2555 -0.2963
  808MPD2    H211902   2.299   4.527  10.326 -1.2869  0.1402  0.1960
  808MPD2    H311903   2.473   4.551  10.159  1.4877  0.5847 -0.0844
  808MPD2     N11904   2.352   0.257  10.065 -0.2894 -0.7013  0.7291
  808MPD2    H511905   2.406   0.253   9.980 -2.4303 -0.7498 -0.6365
  808MPD2    N111906   2.106   4.706  10.374 -0.1202 -0.6100  0.4709
  808MPD2    H711907   2.042   0.061  10.383  1.0110  0.4848 -0.8557
  809MPD2     C11908   2.744   0.703   9.261  0.6748  0.4402  0.4048
  809MPD2    C111909   2.797   0.630   9.367 -0.1768 -0.4629 -0.6636
  809MPD2    C211910   2.719   0.608   9.480 -0.7098 -0.4379  0.3062
  809MPD2    C311911   2.580   0.643   9.487 -0.2042 -0.0602 -0.2715
  809MPD2    C411912   2.532   0.711   9.371 -0.3479 -0.2467  0.7052
  809MPD2    C511913   2.613   0.750   9.265  0.3882 -0.3397  0.0986
  809MPD2     H11914   2.759   0.559   9.568  1.9697  1.0907 -0.0690
  809MPD2    H111915   2.427   0.731   9.354 -0.1435  0.0269 -0.2305
  809MPD2    H211916   2.801   0.730   9.173  0.7917  0.7356  0.5700
  809MPD2    H311917   2.581   0.791   9.170 -1.0341 -3.4576 -0.7576
  809MPD2     N11918   2.499   0.627   9.602  0.1180 -0.0385 -0.7910
  809MPD2    H511919   2.411   0.677   9.593  0.4237  0.5490 -0.4933
  809MPD2    N111920   2.925   0.577   9.364 -0.2205 -0.4716 -0.9699
  809MPD2    H711921   2.956   0.526   9.446  2.4050  4.9660  1.3695
  810MPD2     C11922   1.949   3.945  10.522 -0.5685 -0.5956  0.4070
  810MPD2    C111923   1.828   4.016  10.540 -0.3415  0.0369  0.3076
  810MPD2    C211924   1.834   4.139  10.611 -0.0122  0.0968 -0.0411
  810MPD2    C311925   1.952   4.192  10.657  0.1100 -0.1111  0.6663
  810MPD2    C411926   2.068   4.127  10.629 -1.3280  0.1992  0.3645
  810MPD2    C511927   2.066   4.007  10.563 -0.2064  0.8172  0.3524
  810MPD2     H11928   1.741   4.192  10.626 -1.0684 -1.1024 -2.3032
  810MPD2    H111929   2.167   4.164  10.653 -1.6994 -0.1030  2.4368
  810MPD2    H211930   1.957   3.848  10.474 -2.0938 -0.1413 -0.7675
  810MPD2    H311931   2.161   3.957  10.546 -0.6414  0.6845 -1.7346
  810MPD2     N11932   1.970   4.317  10.720  0.0955 -0.1690  0.5739
  810MPD2    H511933   2.063   4.355  10.735  0.3761 -1.5338  2.2643
  810MPD2    N111934   1.709   3.957  10.495  0.4282 -1.4592 -0.2848
  810MPD2    H711935   1.719   3.892  10.417  0.5709 -0.9337 -0.7015
  811MPD2     C11936   0.871   4.161  10.142  0.0090  0.4372 -0.2142
  811MPD2    C111937   0.992   4.202  10.191 -0.3107  0.0845 -0.0037
  811MPD2    C211938   1.024   4.332  10.173  0.1752  0.2386 -0.2672
  811MPD2    C311939   0.932   4.425  10.121  0.3160  0.4265  0.0140
  811MPD2    C411940   0.814   4.376  10.056  0.5299  0.3352 -0.0150
  811MPD2    C511941   0.775   4.246  10.078 -0.0205  0.0992 -0.5302
  811MPD2     H11942   1.115   4.370  10.218 -0.3604  0.4554  0.6382
  811MPD2    H111943   0.743   4.440  10.004  1.1809  0.4346 -0.7808
  811MPD2    H211944   0.843   4.058  10.160 -0.2018  0.4445 -0.4963
  811MPD2    H311945   0.687   4.206  10.030 -0.2578 -0.9699  0.8271
  811MPD2     N11946   0.978   4.561  10.112  0.5287  0.0881 -0.1165
  811MPD2    H511947   1.068   4.572  10.156  0.4334 -1.5095  0.5083
  811MPD2    N111948   1.074   4.103  10.240  0.1303  0.0197 -0.0491
  811MPD2    H711949   1.053   4.010  10.205  0.6148 -0.7366  1.7059
  812MPD2     C11950   0.697   4.489  12.264 -0.5941  0.6061 -0.2471
  812MPD2    C111951   0.577   4.429  12.294  0.2173 -0.0875 -0.0622
  812MPD2    C211952   0.553   4.366  12.421  0.7599 -0.7218  0.3278
  812MPD2    C311953   0.661   4.349  12.505  0.5981  0.5288  0.1839
  812MPD2    C411954   0.782   4.407  12.466  0.2561 -0.8289  0.0125
  812MPD2    C511955   0.802   4.476  12.350 -0.4522 -0.9318 -0.6512
  812MPD2     H11956   0.455   4.332  12.453  0.0919  0.7284 -0.1576
  812MPD2    H111957   0.870   4.400  12.528  0.4253  1.3158  0.0043
  812MPD2    H211958   0.705   4.547  12.172 -0.4957  1.0630  0.0465
  812MPD2    H311959   0.894   4.529  12.331 -0.2856 -0.2023  2.1861
  812MPD2     N11960   0.644   4.271  12.615  0.0135 -0.1089 -0.3737
  812MPD2    H511961   0.561   4.214  12.632 -0.7789  1.5910  1.4604
  812MPD2    N111962   0.472   4.454  12.211  0.3830  0.1832  0.0151
  812MPD2    H711963   0.491   4.515  12.133  0.4121 -0.7254 -0.6926
  813MPD2     C11964   0.030   1.088  12.965  0.2522  0.9493 -0.0580
  813MPD2    C111965   4.696   1.199  12.906  0.8490 -0.5038 -0.1078
  813MPD2    C211966   4.652   1.306  12.990 -0.4768  0.1533  0.1378
  813MPD2    C311967   4.650   1.284  13.128  0.3460  0.5381 -0.2458
  813MPD2    C411968   4.710   1.173  13.182  0.5754 -0.1331 -0.1216
  813MPD2    C511969   0.035   1.079  13.099 -0.0022  0.2899 -0.1900
  813MPD2     H11970   4.620   1.395  12.936 -1.1594  0.2981  0.7923
  813MPD2    H111971   4.712   1.155  13.289  2.2966 -1.7622 -0.4308
  813MPD2    H211972   0.058   1.008  12.898  0.2579  0.6311  0.3310
  813MPD2    H311973   0.090   0.994  13.140 -1.9842 -0.9959 -0.1951
  813MPD2     N11974   4.588   1.381  13.204 -0.3256  0.0567  0.1301
  813MPD2    H511975   4.546   1.457  13.151  0.0911  1.9327  2.4929
  813MPD2    N111976   4.681   1.203  12.769  0.0008  0.1916 -0.2825
  813MPD2    H711977   4.706   1.118  12.719 -1.3113 -0.3249 -0.0669
  814MPD2     C11978   0.122   2.418  12.435  0.5275  0.1544 -0.3574
  814MPD2    C111979   0.202   2.465  12.331 -0.2108  0.0097 -0.2951
  814MPD2    C211980   0.265   2.589  12.347  0.2355 -0.8692 -0.1292
  814MPD2    C311981   0.258   2.657  12.465 -0.7538  0.0096 -0.5603
  814MPD2    C411982   0.184   2.606  12.569  0.0776 -0.1316  0.1267
  814MPD2    C511983   0.115   2.488  12.548  0.1195  0.0269  0.2746
  814MPD2     H11984   0.328   2.614  12.262  1.1819 -1.5698  0.3826
  814MPD2    H111985   0.167   2.665  12.658 -0.9938  0.7276 -0.6337
  814MPD2    H211986   0.068   2.324  12.434  2.1797 -0.8014  1.9512
  814MPD2    H311987   0.053   2.438  12.621 -0.1672  0.0866  0.0752
  814MPD2     N11988   0.318   2.782  12.491 -0.1489 -0.2216 -0.6853
  814MPD2    H511989   0.301   2.819  12.584  0.2301 -0.6420 -0.4441
  814MPD2    N111990   0.221   2.387  12.210  0.0161  0.0939  0.2496
  814MPD2    H711991   0.283   2.438  12.148  0.1008 -0.5034 -0.1561
  815MPD2     C11992   4.612   1.189  11.609 -0.2822 -0.8861  0.0493
  815MPD2    C111993   4.593   1.060  11.654 -0.2178 -0.4755  0.5115
  815MPD2    C211994   4.477   1.022  11.722  0.3293 -0.4000  0.2966
  815MPD2    C311995   4.368   1.109  11.730 -0.0816  0.3915  0.2800
  815MPD2    C411996   4.384   1.240  11.687 -0.0210  0.6492 -0.1393
  815MPD2    C511997   4.504   1.276  11.631  0.3903 -0.1771  0.0896
  815MPD2     H11998   4.471   0.922  11.763 -0.4929 -0.6395 -0.4049
  815MPD2    H111999   4.302   1.311  11.681 -1.7779 -1.4111 -0.3687
  815MPD2    H212000   4.696   1.221  11.549 -2.9997  0.8440 -2.7872
  815MPD2    H312001   4.509   1.375  11.585 -0.5156 -0.2870 -0.2430
  815MPD2     N12002   4.245   1.056  11.781  0.0709 -0.4968 -0.3034
  815MPD2    H512003   4.239   0.954  11.785 -0.8431 -0.4227  0.1464
  815MPD2    N112004   4.705   0.969  11.636  0.1362  0.1820  0.1179
  815MPD2    H712005   0.065   0.992  11.583 -0.1062 -1.6386 -1.0536
  816MPD2     C12006   0.219   4.701  17.532  0.2706  0.3210  0.3059
  816MPD2    C112007   0.225   0.106  17.475  0.1708 -0.4849  0.4229
  816MPD2    C212008   0.341   0.138  17.407  0.0477 -0.6938  0.7413
  816MPD2    C312009   0.443   0.053  17.395  0.5183  0.4167 -0.0615
  816MPD2    C412010   0.430   4.653  17.452  0.8237  0.6969 -0.6646
  816MPD2    C512011   0.320   4.617  17.523 -0.5932 -0.0330  0.8898
  816MPD2     H12012   0.336   0.236  17.360  1.3013 -0.2332  1.5729
  816MPD2    H112013   0.504   4.574  17.449 -2.2134 -2.0760 -2.0099
  816MPD2    H212014   0.132   4.675  17.591  1.2500 -0.5681  1.3542
  816MPD2    H312015   0.319   4.523  17.576 -1.9614 -1.1126 -1.0577
  816MPD2     N12016   0.554   0.089  17.314 -0.3125  0.0462  0.0431
  816MPD2    H512017   0.559   0.186  17.284 -0.3220  0.7369  2.3261
  816MPD2    N112018   0.113   0.193  17.484  0.5422 -0.6427  0.1675
  816MPD2    H712019   0.037   0.163  17.543 -1.0431  0.6521 -1.1978
  817MPD2     C12020   4.273   1.886   9.962 -0.2934  0.4611 -0.3017
  817MPD2    C112021   4.376   1.942   9.901  0.8793 -0.1474 -0.0670
  817MPD2    C212022   4.359   2.038   9.803 -0.0077  0.6310 -0.1559
  817MPD2    C312023   4.236   2.084   9.769  0.0483  0.6520  1.0640
  817MPD2    C412024   4.126   2.022   9.826  0.3090 -0.2271 -0.4827
  817MPD2    C512025   4.144   1.936   9.932  0.0852  1.0017 -0.7845
  817MPD2     H12026   4.443   2.072   9.743 -0.9455  2.3751 -0.5044
  817MPD2    H112027   4.025   2.040   9.792  0.5289  2.7752  0.4681
  817MPD2    H212028   4.268   1.801  10.030  3.1149 -1.9745 -3.1122
  817MPD2    H312029   4.055   1.900   9.982  1.4209 -2.0930 -0.6289
  817MPD2     N12030   4.227   2.183   9.673  0.3048 -0.7660  0.1369
  817MPD2    H512031   4.315   2.209   9.629 -0.2599 -0.6888 -0.9331
  817MPD2    N112032   4.506   1.895   9.919 -0.3637 -0.0024  0.5588
  817MPD2    H712033   4.570   1.922   9.846 -1.6935  0.6844 -0.3633
  818MPD2     C12034   3.686   2.295   9.964 -0.1532 -0.0375 -0.0304
  818MPD2    C112035   3.578   2.251  10.040  0.1668  0.3091 -0.4644
  818MPD2    C212036   3.577   2.112  10.072 -0.3194 -0.3240  0.2171
  818MPD2    C312037   3.671   2.026  10.015 -0.9003  0.1785  0.6295
  818MPD2    C412038   3.783   2.073   9.949 -0.4209  0.0879 -0.0880
  818MPD2    C512039   3.789   2.206   9.925  0.2405  0.4812 -0.3285
  818MPD2     H12040   3.492   2.062  10.116  0.5308 -0.5692  1.5816
  818MPD2    H112041   3.856   2.003   9.908 -0.7658 -0.2258 -0.1714
  818MPD2    H212042   3.695   2.402   9.950 -1.6486  0.0220 -0.5731
  818MPD2    H312043   3.869   2.240   9.860 -0.3613  2.7165  0.0710
  818MPD2     N12044   3.641   1.889  10.040 -0.2231  0.1600  0.4435
  818MPD2    H512045   3.557   1.869  10.091 -0.2298 -2.4197 -0.5882
  818MPD2    N112046   3.471   2.333  10.087 -0.7029 -0.5518 -0.1012
  818MPD2    H712047   3.400   2.279  10.136 -1.4818 -2.2198 -3.0876
  819MPD2     C12048   1.473   3.494  15.902 -0.1713  0.4025  0.0466
  819MPD2    C112049   1.527   3.374  15.874  0.0481  0.4747 -0.6293
  819MPD2    C212050   1.653   3.352  15.917  0.0153  0.6369  0.7550
  819MPD2    C312051   1.730   3.452  15.974 -0.0061 -0.1218  0.5363
  819MPD2    C412052   1.677   3.578  15.993  0.3476  0.4418 -0.8303
  819MPD2    C512053   1.544   3.596  15.959  0.1803 -0.6579 -0.6492
  819MPD2     H12054   1.691   3.255  15.887 -0.6128  0.2170  1.3468
  819MPD2    H112055   1.729   3.661  16.040  0.4729  0.5055 -1.0859
  819MPD2    H212056   1.369   3.522  15.888  0.1884  1.3063 -0.8470
  819MPD2    H312057   1.510   3.698  15.968 -0.7418 -0.9741 -0.5336
  819MPD2     N12058   1.857   3.408  16.022 -0.1976 -0.6229  0.2053
  819MPD2    H512059   1.898   3.321  15.991 -1.8594 -2.0763  2.0847
  819MPD2    N112060   1.457   3.272  15.803  0.0121  0.2630 -0.4416
  819MPD2    H712061   1.375   3.309  15.755  0.8051  1.4464 -0.8783
  820MPD2     C12062   1.101   3.474  15.015  0.2986 -0.3439 -0.4870
  820MPD2    C112063   1.185   3.516  15.119 -0.4633  0.9260 -0.0012
  820MPD2    C212064   1.247   3.419  15.200 -0.0829  0.7012  0.1075
  820MPD2    C312065   1.206   3.288  15.192  0.0791 -0.2879  0.8846
  820MPD2    C412066   1.127   3.244  15.091 -0.8316  0.2765  0.6513
  820MPD2    C512067   1.082   3.341  15.000  0.6190  0.4371  0.3948
  820MPD2     H12068   1.319   3.452  15.274  1.6051 -3.6428  0.3818
  820MPD2    H112069   1.096   3.143  15.068 -0.8420  0.2683  0.7016
  820MPD2    H212070   1.066   3.549  14.945 -0.1440  0.1056  0.2275
  820MPD2    H312071   1.029   3.302  14.914 -0.0406  0.4816  0.7829
  820MPD2     N12072   1.240   3.195  15.292  0.5434  0.2123  0.9027
  820MPD2    H512073   1.206   3.100  15.274 -1.6876  1.0287  0.7519
  820MPD2    N112074   1.195   3.659  15.148 -0.2014  0.3658 -0.2033
  820MPD2    H712075   1.139   3.726  15.097 -0.8477  0.4009  0.5470
  821MPD2     C12076   2.241   4.375  13.535  0.5880  0.2015 -0.1751
  821MPD2    C112077   2.341   4.461  13.576  0.0145 -0.3641  0.2277
  821MPD2    C212078   2.450   4.477  13.492  0.7739  0.6033 -0.0674
  821MPD2    C312079   2.452   4.443  13.362  0.0687  0.3081 -0.1844
  821MPD2    C412080   2.347   4.364  13.319  0.0488  0.0028  0.1403
  821MPD2    C512081   2.256   4.318  13.409  0.2019  0.5111  0.8498
  821MPD2     H12082   2.539   4.528  13.528  0.5669 -0.6726  2.2926
  821MPD2    H112083   2.333   4.332  13.216 -0.0334 -0.0638  0.1721
  821MPD2    H212084   2.162   4.340  13.600 -0.7668  3.1612 -0.2564
  821MPD2    H312085   2.181   4.244  13.383 -0.7485  1.3159  1.2951
  821MPD2     N12086   2.549   4.484  13.269 -0.2727  0.2140  0.2060
  821MPD2    H512087   2.534   4.470  13.169  1.1444 -1.9197  0.2941
  821MPD2    N112088   2.338   4.518  13.705  0.0682  0.2484 -0.0838
  821MPD2    H712089   2.418   4.576  13.728  1.8940 -2.5436  0.6022
  822MPD2     C12090   2.881   0.305  15.869  0.3095 -0.2383  0.2554
  822MPD2    C112091   2.865   0.254  15.998 -0.2975  0.0497  0.4795
  822MPD2    C212092   2.794   0.327  16.090  0.2584  0.3994 -0.3980
  822MPD2    C312093   2.737   0.446  16.052  0.5794 -0.3642  0.1310
  822MPD2    C412094   2.758   0.502  15.925  0.0151  0.6019  1.2029
  822MPD2    C512095   2.834   0.432  15.836  0.1976  0.1473  0.7535
  822MPD2     H12096   2.769   0.285  16.187  0.2097  1.7071  0.1653
  822MPD2    H112097   2.719   0.598  15.893  1.2397  1.0904  1.1405
  822MPD2    H212098   2.954   0.258  15.804 -0.4353 -0.4568 -0.4150
  822MPD2    H312099   2.858   0.484  15.744  0.4303  0.7737  1.1654
  822MPD2     N12100   2.668   0.510  16.155  0.6511 -0.0609 -0.4653
  822MPD2    H512101   2.633   0.457  16.234 -0.4512 -1.4244 -1.8886
  822MPD2    N112102   2.900   0.128  16.047 -0.2215  0.3252  0.2576
  822MPD2    H712103   2.873   0.097  16.140  0.2239 -0.5514  0.0924
  823MPD2     C12104   2.326   0.557  16.917  0.1190  0.1185 -0.4888
  823MPD2    C112105   2.387   0.493  16.804 -0.4136  0.0469  0.4597
  823MPD2    C212106   2.416   0.357  16.814 -0.0366  0.4332 -0.3368
  823MPD2    C312107   2.398   0.294  16.938  0.2656  0.2394 -0.0732
  823MPD2    C412108   2.339   0.361  17.044 -0.1274  0.3351  0.2250
  823MPD2    C512109   2.307   0.492  17.030  0.7243 -0.5958 -0.0289
  823MPD2     H12110   2.448   0.306  16.723  0.3599 -1.6479  0.9828
  823MPD2    H112111   2.313   0.317  17.140  0.0487 -0.8142 -0.2520
  823MPD2    H212112   2.301   0.662  16.924 -0.3761 -0.0068 -0.3657
  823MPD2    H312113   2.269   0.537  17.122 -2.3242 -0.3250 -1.4132
  823MPD2     N12114   2.434   0.160  16.966  0.7080  0.3426 -0.2350
  823MPD2    H512115   2.396   0.123  17.053 -0.3073  0.3265 -0.6834
  823MPD2    N112116   2.400   0.568  16.685 -0.3999 -0.0072  0.1649
  823MPD2    H712117   2.388   0.668  16.690 -0.8913 -0.1126  1.0527
  824MPD2     C12118   3.074   4.030  15.895 -0.6722  0.0602 -0.2965
  824MPD2    C112119   3.158   4.135  15.930 -0.8494  0.3713 -0.0948
  824MPD2    C212120   3.295   4.117  15.911 -0.0098  0.2524  0.9102
  824MPD2    C312121   3.351   3.992  15.872 -0.4831 -0.3139 -0.3732
  824MPD2    C412122   3.263   3.886  15.847  0.0052  0.2546 -0.0639
  824MPD2    C512123   3.128   3.903  15.856  0.4383 -0.4160  0.4871
  824MPD2     H12124   3.370   4.192  15.931 -0.9988  1.4954 -0.1325
  824MPD2    H112125   3.293   3.789  15.811 -0.3493  0.2588 -0.3764
  824MPD2    H212126   2.966   4.042  15.890 -0.3983  2.5946 -0.2422
  824MPD2    H312127   3.064   3.827  15.813  0.0010 -1.1131  2.3349
  824MPD2     N12128   3.498   3.980  15.860  0.3186 -0.6138 -0.6776
  824MPD2    H512129   3.561   4.058  15.875 -1.6793  1.2865 -2.1305
  824MPD2    N112130   3.104   4.264  15.961  0.4002 -0.1144 -0.9883
  824MPD2    H712131   3.178   4.333  15.959 -0.5689  0.9085 -1.0555
  825MPD2     C12132   4.297   4.221  15.695  0.6110  0.7967 -0.0637
  825MPD2    C112133   4.165   4.243  15.692  0.4372 -0.1712 -0.0148
  825MPD2    C212134   4.125   4.371  15.661 -0.2578 -0.3659  0.7670
  825MPD2    C312135   4.217   4.464  15.624  0.6333  0.2807 -0.1205
  825MPD2    C412136   4.348   4.436  15.634 -0.5817 -0.1517 -0.2178
  825MPD2    C512137   4.394   4.314  15.676  0.0548 -0.3716  0.1640
  825MPD2     H12138   4.020   4.394  15.646 -0.3544 -1.8678 -0.8584
  825MPD2    H112139   4.424   4.512  15.620  0.5367 -1.0958  0.6439
  825MPD2    H212140   4.330   4.120  15.716  0.8434  0.4799 -1.9616
  825MPD2    H312141   4.498   4.290  15.696  0.2198  1.0209  1.0126
  825MPD2     N12142   4.190   4.600  15.581  0.4836  0.0426 -0.2544
  825MPD2    H512143   4.267   4.666  15.574  0.4012  0.3294  1.4512
  825MPD2    N112144   4.081   4.134  15.723  0.3067  0.4076  0.2210
  825MPD2    H712145   4.111   4.044  15.758  2.3661  0.5919 -1.0695
  826MPD2     C12146   3.535   4.294  14.160 -0.0081 -0.6742 -0.7548
  826MPD2    C112147   3.471   4.301  14.035 -0.3790 -0.0139  0.9281
  826MPD2    C212148   3.347   4.365  14.027 -0.0827  0.0540  0.1624
  826MPD2    C312149   3.282   4.408  14.140  0.6781  0.3270 -0.5931
  826MPD2    C412150   3.337   4.391  14.265 -0.0783 -0.0042  0.7684
  826MPD2    C512151   3.461   4.332  14.266  0.6060  0.5832 -0.6478
  826MPD2     H12152   3.292   4.372  13.934  1.0795  0.3123 -0.5122
  826MPD2    H112153   3.290   4.416  14.359 -1.2637 -0.2775  0.2490
  826MPD2    H212154   3.627   4.241  14.180  0.5217  0.7530  0.5762
  826MPD2    H312155   3.513   4.316  14.360  0.3021  0.4166 -0.5083
  826MPD2     N12156   3.151   4.460  14.145  0.2403  0.6186 -0.1852
  826MPD2    H512157   3.113   4.471  14.238  0.8404  1.2022 -0.0060
  826MPD2    N112158   3.551   4.246  13.936  0.0517 -0.2166  0.4881
  826MPD2    H712159   3.635   4.199  13.969  0.7443 -0.1224 -1.1728
  827MPD2     C12160   3.744   0.380   9.924  0.5933 -0.4860  1.0518
  827MPD2    C112161   3.740   0.251   9.967  0.5590 -0.6171  0.3756
  827MPD2    C212162   3.667   0.163   9.893  0.5283 -0.9607  0.1711
  827MPD2    C312163   3.597   0.206   9.788 -0.0199 -0.7303 -0.2945
  827MPD2    C412164   3.588   0.338   9.747  0.9061 -0.2808 -0.4214
  827MPD2    C512165   3.675   0.416   9.814  0.3397  0.2351  0.0351
  827MPD2     H12166   3.667   0.058   9.922 -0.9039 -0.8727  0.4818
  827MPD2    H112167   3.538   0.369   9.656  0.7275 -2.6592 -1.1342
  827MPD2    H212168   3.804   0.460   9.966  0.1502  0.7982 -0.7608
  827MPD2    H312169   3.694   0.512   9.768 -0.3094 -0.0603 -0.8494
  827MPD2     N12170   3.523   0.111   9.725 -0.2825  0.1287  0.3629
  827MPD2    H512171   3.544   0.015   9.752  1.3602  0.2770 -0.3333
  827MPD2    N112172   3.818   0.216  10.080  0.3194  0.2111 -0.7267
  827MPD2    H712173   3.886   0.284  10.113 -0.9872  1.2169 -0.0890
  828MPD2     C12174   2.551   0.363  12.337 -0.6601 -0.8871 -0.5427
  828MPD2    C112175   2.477   0.426  12.238  0.5145 -0.4940  0.7515
  828MPD2    C212176   2.536   0.456  12.116  0.3296  0.5746 -0.5493
  828MPD2    C312177   2.665   0.404  12.088 -0.6139 -0.4905  0.3587
  828MPD2    C412178   2.733   0.350  12.187  0.2584  0.2714  0.2591
  828MPD2    C512179   2.679   0.331  12.310 -0.3264  0.2405  0.0930
  828MPD2     H12180   2.476   0.506  12.040  0.5467  0.1110 -1.0296
  828MPD2    H112181   2.836   0.319  12.175  0.3085  0.4129  0.3165
  828MPD2    H212182   2.516   0.329  12.434 -1.2883 -1.7356 -1.0583
  828MPD2    H312183   2.725   0.266  12.384 -1.0745 -0.2537  0.1258
  828MPD2     N12184   2.718   0.413  11.956 -0.2768  0.1438 -0.1595
  828MPD2    H512185   2.816   0.389  11.957  0.3842  2.8417 -0.9766
  828MPD2    N112186   2.343   0.462  12.263 -0.1132 -0.0556  0.3870
  828MPD2    H712187   2.295   0.505  12.184 -0.8049 -1.4225  0.0743
  829MPD2     C12188   1.892   0.559  11.604  0.3945 -0.2540 -0.1257
  829MPD2    C112189   1.791   0.536  11.694  0.1709  0.0903  0.2436
  829MPD2    C212190   1.815   0.536  11.830 -0.2696 -0.2344 -0.6975
  829MPD2    C312191   1.942   0.561  11.877  0.3038  0.5157  0.0739
  829MPD2    C412192   2.045   0.555  11.780  0.5858  0.4424 -0.2610
  829MPD2    C512193   2.018   0.562  11.642 -0.0824 -0.0067  0.5417
  829MPD2     H12194   1.739   0.531  11.908  0.5496  2.3571  0.2736
  829MPD2    H112195   2.145   0.574  11.818  0.2973  1.8943 -0.2368
  829MPD2    H212196   1.881   0.566  11.496  1.0379 -2.8632 -0.3640
  829MPD2    H312197   2.089   0.557  11.561  0.0144  0.3001  0.6064
  829MPD2     N12198   1.980   0.567  12.010 -0.1027  0.1228 -0.0486
  829MPD2    H512199   2.076   0.586  12.036  0.0453  0.2523 -0.6945
  829MPD2    N112200   1.662   0.506  11.642 -0.0079 -0.3294 -0.2321
  829MPD2    H712201   1.651   0.522  11.542  1.5936  0.0264 -0.3610
  830MPD2     C12202   2.517   3.047  15.685 -0.5701  0.2672  0.1037
  830MPD2    C112203   2.456   3.167  15.696 -0.4790  0.5378 -0.6134
  830MPD2    C212204   2.456   3.249  15.591  0.1001  0.4727 -0.3803
  830MPD2    C312205   2.534   3.223  15.479 -0.1014  0.2126  0.0551
  830MPD2    C412206   2.601   3.103  15.468  0.3750  0.3108  0.0508
  830MPD2    C512207   2.580   3.016  15.569 -0.0269  0.0296  0.4246
  830MPD2     H12208   2.406   3.345  15.603 -0.6578  0.1275 -0.7597
  830MPD2    H112209   2.669   3.083  15.386  1.3376  2.8394  0.2463
  830MPD2    H212210   2.513   2.979  15.769 -1.1881 -0.5011 -0.5457
  830MPD2    H312211   2.620   2.916  15.568 -1.8552 -0.6904 -0.0144
  830MPD2     N12212   2.544   3.323  15.381  0.2047 -0.1317 -0.4392
  830MPD2    H512213   2.632   3.326  15.331  1.3917 -3.1692  1.4502
  830MPD2    N112214   2.387   3.202  15.823 -0.2697 -0.0151 -1.0386
  830MPD2    H712215   2.380   3.130  15.895  1.7171  1.0391  0.1965
  831MPD2     C12216   2.917   0.539  16.525  0.3111  0.4387  0.0235
  831MPD2    C112217   2.966   0.437  16.441 -1.0860  0.0825  0.1234
  831MPD2    C212218   2.884   0.323  16.435 -0.3195  0.1554 -0.7407
  831MPD2    C312219   2.780   0.298  16.523  0.4025 -0.4181  0.4095
  831MPD2    C412220   2.753   0.391  16.616  0.8487 -0.7834  0.8792
  831MPD2    C512221   2.816   0.510  16.615  0.2370  0.2870  0.1435
  831MPD2     H12222   2.903   0.252  16.356 -0.1734  0.9776 -1.4546
  831MPD2    H112223   2.680   0.366  16.692  1.7715 -0.7440  1.7791
  831MPD2    H212224   2.971   0.632  16.515  5.4423 -2.4232  1.1201
  831MPD2    H312225   2.779   0.581  16.688  1.2270  0.5989  0.3366
  831MPD2     N12226   2.689   0.193  16.506 -0.3115  0.0273 -0.0730
  831MPD2    H512227   2.607   0.194  16.566  0.6424  0.1511  1.2419
  831MPD2    N112228   3.078   0.458  16.362 -0.1185  0.0572 -0.9139
  831MPD2    H712229   3.137   0.539  16.375 -3.2747  2.0794  1.0172
  832MPD2     C12230   1.137   1.090  17.332  0.4082  0.1626 -0.1038
  832MPD2    C112231   1.080   1.216  17.329 -0.1272  0.2425  0.1715
  832MPD2    C212232   0.967   1.239  17.262  0.8152  1.0417 -0.0437
  832MPD2    C312233   0.911   1.133  17.192  0.3095 -0.0140 -0.3490
  832MPD2    C412234   0.966   1.010  17.196  0.5649 -0.0801  0.3188
  832MPD2    C512235   1.080   0.991  17.265  0.8088  0.2023 -0.3636
  832MPD2     H12236   0.903   1.326  17.268  0.3885  0.7613 -0.4568
  832MPD2    H112237   0.935   0.919  17.146  1.8409 -0.8569  0.9477
  832MPD2    H212238   1.223   1.070  17.394  0.0859 -0.4446  0.1375
  832MPD2    H312239   1.119   0.891  17.272 -1.1110 -0.5641 -0.6129
  832MPD2     N12240   0.788   1.154  17.123 -0.0200 -0.4362  0.0255
  832MPD2    H512241   0.741   1.243  17.130  1.8439  0.3484  2.9960
  832MPD2    N112242   1.130   1.302  17.427  0.6097 -0.7821 -0.6591
  832MPD2    H712243   1.195   1.261  17.492 -2.2637 -4.1729  0.0463
  833MPD2     C12244   2.976   3.185  12.810  0.5684  0.0084 -0.1519
  833MPD2    C112245   2.994   3.240  12.682  0.6816  0.1196 -0.3119
  833MPD2    C212246   3.088   3.184  12.603  0.2710 -0.5757  0.6817
  833MPD2    C312247   3.164   3.073  12.651 -0.1771 -0.4199  0.6874
  833MPD2    C412248   3.152   3.032  12.781  0.0700  0.2624  0.1631
  833MPD2    C512249   3.055   3.091  12.864  0.6292 -0.1830 -0.2123
  833MPD2     H12250   3.101   3.214  12.500 -2.5893 -0.2754  0.3968
  833MPD2    H112251   3.207   2.946  12.817 -0.2211  0.0498  0.1031
  833MPD2    H212252   2.908   3.234  12.879  0.7961 -2.1727  1.6327
  833MPD2    H312253   3.061   3.064  12.969 -1.2294 -1.1630 -0.3627
  833MPD2     N12254   3.246   3.016  12.551 -0.1357 -0.1481  0.3234
  833MPD2    H512255   3.245   3.060  12.459  0.4412 -2.0929 -0.6143
  833MPD2    N112256   2.936   3.362  12.649  0.0528 -0.6403  0.1572
  833MPD2    H712257   2.858   3.392  12.707 -0.4249  0.3590 -1.0102
  834MPD2     C12258   3.545   2.301  11.829 -0.1320 -0.3153  0.4030
  834MPD2    C112259   3.479   2.409  11.775 -0.1511 -0.0879  0.4390
  834MPD2    C212260   3.462   2.525  11.848 -0.9704  0.0637 -0.0944
  834MPD2    C312261   3.488   2.523  11.986  0.5929  0.0478 -0.5486
  834MPD2    C412262   3.533   2.399  12.043  0.7274  0.1758 -0.6434
  834MPD2    C512263   3.562   2.289  11.960  0.3634  0.2605 -0.2224
  834MPD2     H12264   3.420   2.613  11.801  0.5979  1.2485  0.7489
  834MPD2    H112265   3.561   2.394  12.148 -3.3188  1.0651  0.4832
  834MPD2    H212266   3.557   2.217  11.761  0.0546  0.9680 -1.1326
  834MPD2    H312267   3.604   2.201  12.009  0.1079  0.2985  0.0693
  834MPD2     N12268   3.458   2.641  12.054 -0.3898  0.0456  0.3091
  834MPD2    H512269   3.432   2.720  11.996 -0.7335  2.0946  3.2670
  834MPD2    N112270   3.435   2.391  11.641  0.0074  0.2043 -0.0305
  834MPD2    H712271   3.460   2.303  11.597  0.2811  0.7790 -1.0218
  835MPD2     C12272   3.668   0.506  11.082  0.1176  0.3211  0.1473
  835MPD2    C112273   3.535   0.542  11.083  0.4567  0.3698 -0.2569
  835MPD2    C212274   3.485   0.582  11.211  0.0614  0.1205  0.0213
  835MPD2    C312275   3.557   0.560  11.331 -0.0505  1.1705 -0.1611
  835MPD2    C412276   3.683   0.503  11.321  0.9587 -0.1683 -0.7668
  835MPD2    C512277   3.736   0.491  11.197 -0.0674  0.3289  0.6022
  835MPD2     H12278   3.389   0.631  11.209 -0.1009 -0.0216  3.6655
  835MPD2    H112279   3.750   0.475  11.402  0.6913  3.3126  0.6626
  835MPD2    H212280   3.714   0.478  10.988  0.2547  1.2357 -0.0589
  835MPD2    H312281   3.835   0.445  11.198 -0.5393 -0.7497 -2.3287
  835MPD2     N12282   3.514   0.600  11.455  0.1466 -0.6618  0.1466
  835MPD2    H512283   3.582   0.590  11.529 -0.2546  3.4000  1.0638
  835MPD2    N112284   3.457   0.564  10.966  0.0575 -0.6240  0.2570
  835MPD2    H712285   3.364   0.602  10.980  0.0014  0.5047 -3.1347
  836MPD2     C12286   2.792   0.821  11.728  0.2113  0.3326  0.6853
  836MPD2    C112287   2.881   0.779  11.824  0.0907  0.2974 -0.5256
  836MPD2    C212288   2.837   0.732  11.947  0.2322  0.0229 -0.8231
  836MPD2    C312289   2.704   0.750  11.976 -0.2233  0.2099 -0.5149
  836MPD2    C412290   2.616   0.785  11.876 -0.9468  0.7369 -0.6906
  836MPD2    C512291   2.661   0.826  11.753  0.4606  0.1003  0.2178
  836MPD2     H12292   2.905   0.696  12.024  0.8837 -1.4381 -2.0821
  836MPD2    H112293   2.509   0.801  11.887 -0.4785  1.9949  2.1083
  836MPD2    H212294   2.827   0.842  11.627  0.6256  1.4038  1.0583
  836MPD2    H312295   2.583   0.855  11.684  0.7022  0.6004  0.1550
  836MPD2     N12296   2.649   0.743  12.106  0.8715 -0.1466  0.4881
  836MPD2    H512297   2.554   0.779  12.114  1.4917  0.8186  3.4011
  836MPD2    N112298   3.015   0.765  11.787 -0.3685  0.1467  0.2984
  836MPD2    H712299   3.042   0.809  11.700 -1.0399  1.2873  0.6666
  837MPD2     C12300   1.406   0.448   9.870 -0.3927 -0.3363 -0.3542
  837MPD2    C112301   1.366   0.469  10.008  0.0495  0.3144  0.3169
  837MPD2    C212302   1.352   0.600  10.044 -0.3179 -0.3824 -0.0223
  837MPD2    C312303   1.383   0.706   9.967  0.0366  0.7305  0.4432
  837MPD2    C412304   1.421   0.686   9.835  0.6193 -0.1211 -0.9270
  837MPD2    C512305   1.432   0.556   9.787 -0.3173 -0.1852  0.4616
  837MPD2     H12306   1.320   0.627  10.144  0.0011  1.2354 -0.3690
  837MPD2    H112307   1.426   0.769   9.765  0.8932 -1.8562 -2.9588
  837MPD2    H212308   1.418   0.348   9.829  0.6680  0.1421 -1.2128
  837MPD2    H312309   1.452   0.543   9.681 -0.3684  2.3756  0.1380
  837MPD2     N12310   1.356   0.838  10.017 -0.5076  0.1751 -0.5385
  837MPD2    H512311   1.324   0.848  10.113 -2.2583 -0.4156 -1.0514
  837MPD2    N112312   1.310   0.372  10.097  0.0974 -0.2497  0.2565
  837MPD2    H712313   1.282   0.415  10.185  0.9235  1.5419 -0.3514
  838MPD2     C12314   0.452   2.916  10.994 -0.6381  0.1791  0.2775
  838MPD2    C112315   0.334   2.871  11.033 -0.4545  0.0556  0.6592
  838MPD2    C212316   0.286   2.875  11.159 -0.2192 -0.1163 -0.3154
  838MPD2    C312317   0.363   2.948  11.255 -0.2261  0.1812  0.1785
  838MPD2    C412318   0.478   3.004  11.210 -0.3451  0.0585 -0.4515
  838MPD2    C512319   0.522   2.990  11.081 -0.5360 -0.3544 -0.6523
  838MPD2     H12320   0.192   2.827  11.185  0.3307 -0.4773  1.0601
  838MPD2    H112321   0.540   3.065  11.275 -0.8756  0.6784 -0.5342
  838MPD2    H212322   0.485   2.897  10.893  1.9579 -2.4295  1.6023
  838MPD2    H312323   0.617   3.035  11.055 -0.2068 -1.2398 -1.0101
  838MPD2     N12324   0.302   2.968  11.379 -0.6833  0.2153  0.1759
  838MPD2    H512325   0.216   2.917  11.400 -0.4444 -0.2293  0.0833
  838MPD2    N112326   0.242   2.817  10.942 -0.3995  0.3180 -0.2729
  838MPD2    H712327   0.159   2.779  10.987 -0.3253 -0.3539 -0.7130
  839MPD2     C12328   4.285   2.909  11.305 -0.2257  0.7410 -0.2153
  839MPD2    C112329   4.264   2.791  11.238  0.3499  0.1501  0.2596
  839MPD2    C212330   4.335   2.767  11.118 -0.4064 -0.0208  0.7834
  839MPD2    C312331   4.423   2.863  11.065  0.9042 -0.0256  0.8251
  839MPD2    C412332   4.440   2.984  11.129  0.3989  0.6505 -0.5559
  839MPD2    C512333   4.377   2.997  11.253  0.3451 -0.2564 -0.6120
  839MPD2     H12334   4.329   2.675  11.061 -2.3717  0.6978 -0.1638
  839MPD2    H112335   4.503   3.067  11.099 -2.2687  3.3710  1.4505
  839MPD2    H212336   4.232   2.929  11.397 -0.3280  0.8284 -0.2937
  839MPD2    H312337   4.403   3.080  11.318  0.6682 -1.3019  0.5857
  839MPD2     N12338   4.499   2.847  10.946 -0.1374 -0.1360 -0.2313
  839MPD2    H512339   4.563   2.920  10.917 -0.1042 -0.6289 -1.4192
  839MPD2    N112340   4.175   2.690  11.277 -0.3924  0.3849  0.0222
  839MPD2    H712341   4.156   2.616  11.211  0.6160 -0.1375  0.3095
  840MPD2     C12342   4.430   0.397  10.115 -0.1774  0.0511  0.4545
  840MPD2    C112343   4.382   0.392  10.243 -0.1790 -0.0408  0.4377
  840MPD2    C212344   4.438   0.470  10.344 -0.4622 -0.7461 -0.2322
  840MPD2    C312345   4.552   0.543  10.319 -0.5910 -0.3832  0.0846
  840MPD2    C412346   4.603   0.539  10.192  0.2100  0.3540  0.5553
  840MPD2    C512347   4.546   0.456  10.095 -0.0754 -0.3750 -0.0915
  840MPD2     H12348   4.383   0.479  10.437 -1.9220  0.4950 -1.2126
  840MPD2    H112349   4.684   0.603  10.159  1.2166  0.0253  2.3670
  840MPD2    H212350   4.378   0.349  10.032  0.9571 -1.3573  0.5673
  840MPD2    H312351   4.588   0.452   9.995 -0.2972  0.4543 -0.2216
  840MPD2     N12352   4.601   0.634  10.410 -0.2693  0.6981 -0.2304
  840MPD2    H512353   4.655   0.711  10.372 -2.2949  1.6340 -1.2258
  840MPD2    N112354   4.274   0.308  10.269  0.4996 -0.0847 -0.5837
  840MPD2    H712355   4.229   0.257  10.194 -0.2819  1.2411 -1.0065
  841MPD2     C12356   3.800   0.833  14.099  0.2534 -0.1554 -0.3249
  841MPD2    C112357   3.901   0.745  14.128 -0.7264 -0.3094 -0.2653
  841MPD2    C212358   4.028   0.790  14.106 -0.4017 -0.1977  0.0546
  841MPD2    C312359   4.048   0.912  14.048  0.2695  0.4454  0.0683
  841MPD2    C412360   3.943   0.986  14.001  1.0389 -0.1443 -0.0717
  841MPD2    C512361   3.822   0.947  14.037 -0.6546  0.7441  0.0825
  841MPD2     H12362   4.113   0.727  14.131  1.4556  1.1538 -2.9723
  841MPD2    H112363   3.958   1.084  13.958 -0.3876 -0.2168 -0.7494
  841MPD2    H212364   3.699   0.797  14.114  0.8986 -0.2611  3.9510
  841MPD2    H312365   3.749   1.025  14.016 -0.2200  1.1715  0.1506
  841MPD2     N12366   4.185   0.936  14.028  0.1699  0.2691 -0.1285
  841MPD2    H512367   4.251   0.862  14.051  0.0904  0.1289 -0.3566
  841MPD2    N112368   3.888   0.611  14.166 -0.5720  0.6842 -0.2318
  841MPD2    H712369   3.969   0.554  14.189  1.4657  3.6219 -0.1458
  842MPD2     C12370   0.383   1.743  16.900  0.0441 -0.1978  0.6297
  842MPD2    C112371   0.277   1.659  16.869 -0.9847  0.6165 -0.0612
  842MPD2    C212372   0.244   1.564  16.962 -0.3679  0.7220  0.4597
  842MPD2    C312373   0.320   1.549  17.081  0.2011  0.1385 -0.6780
  842MPD2    C412374   0.439   1.619  17.095 -0.0450  0.5859  0.5116
  842MPD2    C512375   0.468   1.714  17.003  0.0728 -0.5346  0.1849
  842MPD2     H12376   0.148   1.514  16.955  0.8270 -0.9714 -3.6878
  842MPD2    H112377   0.514   1.602  17.172  0.1989 -3.4863 -0.6260
  842MPD2    H212378   0.435   1.808  16.830 -2.2114  0.7700 -0.1569
  842MPD2    H312379   0.559   1.770  17.020 -0.1038 -0.7008  1.7017
  842MPD2     N12380   0.288   1.453  17.174  0.3331  0.8877 -0.3137
  842MPD2    H512381   0.330   1.463  17.266 -2.1606 -1.2753  1.0696
  842MPD2    N112382   0.207   1.685  16.748  0.3164 -0.7434 -0.1368
  842MPD2    H712383   0.247   1.757  16.689 -0.0109  1.0310  1.7820
  843MPD2     C12384   1.962   2.401   0.329 -0.1755 -0.6121 -1.2161
  843MPD2    C112385   2.038   2.354   0.434 -0.3026  0.0681  0.2346
  843MPD2    C212386   2.161   2.410   0.450 -0.7656  0.1346  0.3686
  843MPD2    C312387   2.197   2.521   0.381 -0.9838  0.0052 -0.0037
  843MPD2    C412388   2.123   2.561   0.278  0.1335  0.5224  0.3902
  843MPD2    C512389   2.006   2.498   0.246  0.2267 -0.7378 -0.2146
  843MPD2     H12390   2.216   2.372   0.535 -0.9090  0.8289  0.7654
  843MPD2    H112391   2.154   2.642   0.213 -0.9072  1.4165  1.0069
  843MPD2    H212392   1.868   2.356   0.298 -1.1338  1.1979 -0.9848
  843MPD2    H312393   1.952   2.527   0.157  0.2291  0.0972  0.0501
  843MPD2     N12394   2.318   2.590   0.399 -0.3911  0.1353 -0.1033
  843MPD2    H512395   2.331   2.663   0.330  1.7385 -3.1779 -3.2423
  843MPD2    N112396   2.002   2.236   0.505  0.1536 -0.2231  0.9991
  843MPD2    H712397   1.919   2.193   0.465 -0.9296  2.7168  0.0253
  844MPD2     C12398   0.827   1.068  16.513 -0.0466  0.1379  0.2569
  844MPD2    C112399   0.960   1.023  16.529  0.3576  0.2388  0.9567
  844MPD2    C212400   1.035   1.085  16.632  0.5270 -0.1567  0.1582
  844MPD2    C312401   0.982   1.185  16.713 -0.8371 -0.4117 -0.2461
  844MPD2    C412402   0.855   1.217  16.697 -0.7476  0.0330  0.0567
  844MPD2    C512403   0.781   1.165  16.592  0.5092 -0.0528  0.1991
  844MPD2     H12404   1.138   1.059  16.654  0.1066 -3.0962 -1.4088
  844MPD2    H112405   0.803   1.287  16.762  1.6299  2.5712 -0.7483
  844MPD2    H212406   0.767   1.018  16.438  1.0972 -0.7381 -0.0743
  844MPD2    H312407   0.677   1.196  16.592  0.6963  0.5912  3.7036
  844MPD2     N12408   1.065   1.241  16.808 -0.1783 -0.1517 -0.1330
  844MPD2    H512409   1.162   1.211  16.802  0.0748  1.3061 -3.2216
  844MPD2    N112410   1.017   0.922  16.443  0.1975  0.0716 -0.3452
  844MPD2    H712411   1.115   0.897  16.450  0.3142  0.4201 -0.7134
  845MPD2     C12412   1.053   2.061  17.423 -0.0757  0.4219 -0.3126
  845MPD2    C112413   0.985   1.940  17.445  0.6133  0.4304  0.3288
  845MPD2    C212414   0.994   1.844  17.351 -0.3018  0.1541 -0.3372
  845MPD2    C312415   1.078   1.860  17.242  0.6367  0.3120  0.0955
  845MPD2    C412416   1.147   1.977  17.217  0.0358  0.1041  0.7537
  845MPD2    C512417   1.118   2.082  17.299 -0.0734 -0.0136  0.0956
  845MPD2     H12418   0.957   1.742  17.353 -1.3579  0.5316 -0.5449
  845MPD2    H112419   1.212   1.988  17.131 -0.9458 -0.5349 -0.0664
  845MPD2    H212420   1.049   2.139  17.499 -0.5204  0.0504  0.0494
  845MPD2    H312421   1.167   2.176  17.275 -0.4638 -0.6598 -3.2266
  845MPD2     N12422   1.100   1.739  17.172 -0.2133 -0.2129 -1.2807
  845MPD2    H512423   1.035   1.661  17.181  0.4952 -0.2622  3.5582
  845MPD2    N112424   0.925   1.919  17.570 -0.2660  0.1431 -0.0291
  845MPD2    H712425   0.947   1.989  17.640 -1.3598  1.2133 -0.7466
  846MPD2     C12426   2.480   2.688  13.719  0.4180 -0.3271  0.1419
  846MPD2    C112427   2.481   2.804  13.792 -0.2432  0.2731  0.4128
  846MPD2    C212428   2.463   2.799  13.930 -0.1365 -0.5499  0.4365
  846MPD2    C312429   2.442   2.679  13.996  0.5248  0.5584  0.2310
  846MPD2    C412430   2.441   2.564  13.927  0.2320  0.4190 -0.8815
  846MPD2    C512431   2.464   2.568  13.789 -0.3457  0.3502  0.3746
  846MPD2     H12432   2.474   2.887  13.993  1.4261 -1.7946  1.9206
  846MPD2    H112433   2.439   2.463  13.966  2.2665  0.3294 -0.9798
  846MPD2    H212434   2.488   2.679  13.611  0.6933  1.2510  0.0271
  846MPD2    H312435   2.442   2.477  13.733  0.5580  0.3240  0.0703
  846MPD2     N12436   2.435   2.672  14.135 -0.4901  0.5146 -0.6369
  846MPD2    H512437   2.419   2.759  14.184 -2.0513  0.7918 -1.6688
  846MPD2    N112438   2.502   2.931  13.727 -0.3929  0.2203  0.0824
  846MPD2    H712439   2.519   3.011  13.787  0.9337 -0.5391  0.7285
  847MPD2     C12440   2.864   0.152  14.728 -0.4101  0.2068  0.1543
  847MPD2    C112441   2.894   0.065  14.828 -0.2618  0.1915 -0.5464
  847MPD2    C212442   2.969   4.676  14.810 -0.0045  0.4407  0.5368
  847MPD2    C312443   3.008   4.648  14.683 -0.3964  0.3734  0.3900
  847MPD2    C412444   2.974   0.004  14.580 -0.7002  0.2798 -0.7343
  847MPD2    C512445   2.907   0.119  14.603 -0.8900 -0.7967 -0.2700
  847MPD2     H12446   2.992   4.600  14.884  0.1105  1.2911  1.3778
  847MPD2    H112447   3.004   4.721  14.476 -0.1289 -0.3014 -0.5287
  847MPD2    H212448   2.822   0.250  14.746 -1.6575 -0.3942  0.5307
  847MPD2    H312449   2.877   0.190  14.527  1.0224  0.8505  0.5227
  847MPD2     N12450   3.082   4.525  14.667  0.2476 -0.1793  0.1035
  847MPD2    H512451   3.110   4.479  14.753 -0.8468  0.4667  0.8042
  847MPD2    N112452   2.845   0.087  14.960  0.7549  0.6963 -0.2264
  847MPD2    H712453   2.870   0.012  15.023 -0.2495  1.5392  1.1669
  848MPD2     C12454   0.495   1.549  16.582 -0.2697  0.0047 -0.1205
  848MPD2    C112455   0.562   1.545  16.699 -1.0615 -0.5467  0.3133
  848MPD2    C212456   0.662   1.640  16.722  1.0224  1.0586 -0.4511
  848MPD2    C312457   0.674   1.753  16.644  0.1793  0.1635  0.2724
  848MPD2    C412458   0.598   1.761  16.529 -0.4985  0.2277  0.4094
  848MPD2    C512459   0.511   1.660  16.505  0.0750  0.7428 -0.1638
  848MPD2     H12460   0.709   1.635  16.820  0.3325  1.5322 -0.0956
  848MPD2    H112461   0.592   1.846  16.461  1.8421  0.2152  0.1644
  848MPD2    H212462   0.410   1.483  16.566 -0.3260 -0.1483  0.8078
  848MPD2    H312463   0.442   1.661  16.422  0.5453 -2.4418 -0.5922
  848MPD2     N12464   0.760   1.864  16.676 -0.0298 -0.0658  0.0174
  848MPD2    H512465   0.756   1.934  16.603  0.5672 -1.3479 -1.2313
  848MPD2    N112466   0.553   1.434  16.784  0.8741 -0.1582 -0.3103
  848MPD2    H712467   0.614   1.436  16.866 -0.9135 -0.8529  1.0414
  849MPD2     C12468   0.648   1.868  12.587 -0.3691 -0.0958  0.5314
  849MPD2    C112469   0.729   1.779  12.653  0.2662 -0.2073  0.0880
  849MPD2    C212470   0.698   1.743  12.783 -0.3967 -0.3824 -0.4776
  849MPD2    C312471   0.580   1.789  12.838  0.5680  0.1270  0.0604
  849MPD2    C412472   0.498   1.885  12.776  0.6645 -0.3999 -1.0802
  849MPD2    C512473   0.538   1.918  12.649 -0.9853  0.8048 -0.5460
  849MPD2     H12474   0.763   1.669  12.829  1.6409  1.1034 -0.9668
  849MPD2    H112475   0.416   1.931  12.829  1.2759 -1.8186  1.0884
  849MPD2    H212476   0.673   1.897  12.486  3.8010 -0.0352  1.5786
  849MPD2    H312477   0.482   2.002  12.608 -1.6746  0.0052 -1.2396
  849MPD2     N12478   0.541   1.729  12.966 -0.2419  0.1459  0.1483
  849MPD2    H512479   0.606   1.657  12.996  0.6690  1.4302  1.2921
  849MPD2    N112480   0.838   1.715  12.594 -0.0407  0.3404 -0.1503
  849MPD2    H712481   0.881   1.639  12.645 -0.2538 -0.7022 -1.5358
  850MPD2     C12482   2.766   0.345  15.516 -0.3835  0.5830  0.4634
  850MPD2    C112483   2.842   0.226  15.512 -0.0476 -0.3800  1.2007
  850MPD2    C212484   2.957   0.235  15.430  0.7676  0.7396  0.1696
  850MPD2    C312485   2.978   0.346  15.351 -0.3937 -0.1604  0.3958
  850MPD2    C412486   2.901   0.457  15.362  0.1363  0.3123 -0.2509
  850MPD2    C512487   2.800   0.455  15.448 -0.1665 -0.1785  0.7446
  850MPD2     H12488   3.042   0.169  15.439  0.4696  0.0085 -2.2717
  850MPD2    H112489   2.935   0.553  15.323  1.0689  0.8022  1.7940
  850MPD2    H212490   2.673   0.341  15.571 -1.7484  2.1848 -1.7242
  850MPD2    H312491   2.741   0.546  15.448 -0.5197 -0.4052 -0.8928
  850MPD2     N12492   3.079   0.346  15.249  0.9957  0.7087  0.3196
  850MPD2    H512493   3.100   0.433  15.202  0.9787  2.0385  2.7347
  850MPD2    N112494   2.811   0.112  15.592 -0.3550 -0.0620  0.3630
  850MPD2    H712495   2.735   0.134  15.656 -0.7578  0.9017 -0.4491
  851MPD2     C12496   3.077   4.071  15.454  0.4620  0.0140  0.5158
  851MPD2    C112497   2.945   4.087  15.500  0.1340 -0.9929 -0.0677
  851MPD2    C212498   2.856   3.999  15.449  0.4975  0.0105 -0.0411
  851MPD2    C312499   2.885   3.899  15.351  0.1983 -0.5201 -0.2385
  851MPD2    C412500   3.013   3.892  15.303 -0.2941 -0.5330 -0.0601
  851MPD2    C512501   3.112   3.973  15.359  0.1742  0.0166 -0.4743
  851MPD2     H12502   2.753   4.003  15.484  0.3096 -1.8188 -0.3631
  851MPD2    H112503   3.022   3.831  15.214  1.3593 -1.4232  0.7064
  851MPD2    H212504   3.149   4.141  15.494  0.8935 -0.0768 -0.1182
  851MPD2    H312505   3.207   3.978  15.308  0.2540 -0.1648 -0.3432
  851MPD2     N12506   2.772   3.811  15.317 -1.1363 -0.2405 -0.4906
  851MPD2    H512507   2.682   3.839  15.355 -0.3468  2.9352 -0.9202
  851MPD2    N112508   2.909   4.205  15.569  0.1861 -0.6970  0.3351
  851MPD2    H712509   2.986   4.272  15.569  0.6723 -1.2439  1.5410
  852MPD2     C12510   1.889   1.580   9.595  0.4332  0.6018  0.6664
  852MPD2    C112511   1.875   1.710   9.631  0.1254 -0.0607  0.2141
  852MPD2    C212512   1.986   1.790   9.627  0.0279 -0.0389  0.0253
  852MPD2    C312513   2.109   1.743   9.589 -0.7403 -0.4464 -0.0278
  852MPD2    C412514   2.121   1.610   9.547  0.5182  0.7298 -0.9277
  852MPD2    C512515   2.011   1.530   9.548 -0.2655  0.5516  0.0130
  852MPD2     H12516   1.980   1.883   9.683  0.8256 -0.6769  1.1867
  852MPD2    H112517   2.218   1.574   9.514  0.5224  0.5040 -0.6663
  852MPD2    H212518   1.800   1.520   9.577 -0.3106  2.0697 -0.5902
  852MPD2    H312519   2.022   1.434   9.499 -0.9315  1.3155 -1.6214
  852MPD2     N12520   2.219   1.831   9.597 -0.5476  0.6053  0.3496
  852MPD2    H512521   2.191   1.915   9.647  1.0523  1.2459  0.1678
  852MPD2    N112522   1.759   1.775   9.681 -0.2509 -0.0188  0.1157
  852MPD2    H712523   1.766   1.872   9.711  0.0141  0.0399 -0.1411
  853MPD2     C12524   4.251   1.527  12.290  0.9397  0.3922 -0.8409
  853MPD2    C112525   4.180   1.637  12.248 -0.9529  0.8607 -0.1099
  853MPD2    C212526   4.123   1.629  12.119 -0.3645 -0.2000  0.4504
  853MPD2    C312527   4.134   1.516  12.046  0.3051  0.4949  0.4057
  853MPD2    C412528   4.214   1.416  12.089  0.4659  0.2335 -0.2972
  853MPD2    C512529   4.274   1.417  12.213 -0.4115 -0.6792  0.3283
  853MPD2     H12530   4.088   1.720  12.073 -1.0968 -0.8376 -0.2383
  853MPD2    H112531   4.222   1.324  12.034 -1.0161 -0.7302  1.0991
  853MPD2    H212532   4.291   1.537  12.391 -0.3829  1.8744 -0.4531
  853MPD2    H312533   4.317   1.328  12.258  1.7392  0.6553  0.9393
  853MPD2     N12534   4.088   1.503  11.912 -0.1449  0.3819  0.3647
  853MPD2    H512535   4.108   1.424  11.852  2.3866  2.6009 -1.6828
  853MPD2    N112536   4.175   1.750  12.325 -0.2772  0.8171  0.3567
  853MPD2    H712537   4.223   1.750  12.415 -0.8530 -1.5980  0.6577
  854MPD2     C12538   1.476   2.283  13.227  0.8677  0.2813 -0.2351
  854MPD2    C112539   1.547   2.280  13.112 -0.4341  0.4424  0.3497
  854MPD2    C212540   1.657   2.195  13.090 -0.5425 -0.0481 -0.6864
  854MPD2    C312541   1.705   2.121  13.204 -0.2173  0.3882  0.0978
  854MPD2    C412542   1.631   2.128  13.325  0.1031  0.3233  0.0244
  854MPD2    C512543   1.515   2.206  13.329 -0.8914 -0.0827 -0.0477
  854MPD2     H12544   1.708   2.190  12.995  1.2013 -0.2548  0.2503
  854MPD2    H112545   1.659   2.065  13.409 -2.7009  1.0886  1.5334
  854MPD2    H212546   1.385   2.343  13.226  1.8395  1.7757  0.4800
  854MPD2    H312547   1.448   2.202  13.414  0.3294  0.9973  0.9692
  854MPD2     N12548   1.819   2.027  13.197  0.0736 -0.0239  0.2365
  854MPD2    H512549   1.831   1.970  13.280  0.1612 -1.3168 -0.6566
  854MPD2    N112550   1.506   2.370  13.013  0.5929  0.0741  0.0170
  854MPD2    H712551   1.438   2.438  13.045 -1.1000 -1.2916 -0.6645
  855MPD2     C12552   2.307   1.880  13.865  0.6385  0.7655 -0.6698
  855MPD2    C112553   2.240   1.765  13.829  0.9692  0.6032 -0.7452
  855MPD2    C212554   2.204   1.743  13.696  0.0713  0.3013  0.3872
  855MPD2    C312555   2.239   1.837  13.597  0.1482 -0.6234  0.3177
  855MPD2    C412556   2.295   1.958  13.630  0.3242 -0.2266  0.2304
  855MPD2    C512557   2.333   1.974  13.763  0.0666 -0.2424 -0.0070
  855MPD2     H12558   2.158   1.648  13.669 -0.4021  0.8419 -0.6816
  855MPD2    H112559   2.315   2.042  13.564  0.7012 -0.0132  0.6138
  855MPD2    H212560   2.344   1.908  13.963 -0.1206  2.0233 -0.7359
  855MPD2    H312561   2.398   2.060  13.770 -2.1845  1.5728 -1.4544
  855MPD2     N12562   2.201   1.830  13.462  0.2458  0.3355  1.3551
  855MPD2    H512563   2.225   1.913  13.409 -0.8941 -0.5891 -0.6062
  855MPD2    N112564   2.205   1.667  13.917 -0.1752  0.4766  0.5031
  855MPD2    H712565   2.127   1.608  13.889  0.5553  0.3092 -1.1363
  856MPD2     C12566   3.250   2.791  14.357  0.5204  0.1155 -0.4294
  856MPD2    C112567   3.317   2.891  14.426 -0.3194 -0.2288 -0.2076
  856MPD2    C212568   3.268   3.020  14.434 -0.0802 -0.1907  0.1734
  856MPD2    C312569   3.155   3.057  14.362 -0.8090 -0.4230 -0.4211
  856MPD2    C412570   3.096   2.960  14.281 -0.0873 -0.9040  0.3265
  856MPD2    C512571   3.148   2.837  14.276 -0.2280  0.5218 -0.8743
  856MPD2     H12572   3.310   3.089  14.506 -0.5952  0.5845 -0.2756
  856MPD2    H112573   3.011   2.983  14.217  1.3869  1.0148 -0.9534
  856MPD2    H212574   3.270   2.685  14.357  1.0749  0.2200  0.2416
  856MPD2    H312575   3.095   2.769  14.211 -2.6210 -0.2538  1.8618
  856MPD2     N12576   3.105   3.189  14.359  0.2175  0.5377 -0.0944
  856MPD2    H512577   3.020   3.207  14.307  1.4627  0.2203 -2.2446
  856MPD2    N112578   3.429   2.872  14.510  0.5106  0.5980 -0.1103
  856MPD2    H712579   3.471   2.952  14.555  1.2180  0.8715 -1.2461
  857MPD2     C12580   0.615   4.464  13.168 -0.1829  0.7177  0.4189
  857MPD2    C112581   0.677   4.568  13.098  0.1271  0.0923 -1.4817
  857MPD2    C212582   0.754   4.667  13.167 -0.1718  0.0331 -0.1431
  857MPD2    C312583   0.785   4.641  13.296 -0.7002 -0.6542  0.7855
  857MPD2    C412584   0.729   4.536  13.360  0.2616 -0.3324 -0.1832
  857MPD2    C512585   0.643   4.441  13.296 -0.3890 -0.7268 -0.1331
  857MPD2     H12586   0.796   0.026  13.110  0.1757  0.2851  0.4839
  857MPD2    H112587   0.756   4.506  13.460 -0.8514 -0.2255  0.1514
  857MPD2    H212588   0.556   4.384  13.124  1.7380  1.2661 -3.1595
  857MPD2    H312589   0.605   4.358  13.355  2.1109 -0.3574  2.0095
  857MPD2     N12590   0.865   0.021  13.352  0.5563 -0.7365  0.2579
  857MPD2    H512591   0.881   0.097  13.287 -2.0606  0.5342  1.0950
  857MPD2    N112592   0.651   4.574  12.960 -0.4396 -0.4853 -0.3846
  857MPD2    H712593   0.590   4.498  12.931 -0.4716 -1.1601  1.4383
  858MPD2     C12594   1.037   4.178  16.739 -0.5982 -0.7457  0.0491
  858MPD2    C112595   1.132   4.114  16.809 -0.3684 -0.0422  0.4477
  858MPD2    C212596   1.183   4.177  16.927  0.9913  1.0216 -0.6264
  858MPD2    C312597   1.146   4.306  16.962  0.0500  0.0886 -0.2874
  858MPD2    C412598   1.050   4.366  16.894 -0.5422  0.2751  0.5194
  858MPD2    C512599   0.993   4.299  16.781  0.1734  0.4972  0.3157
  858MPD2     H12600   1.267   4.137  16.983 -1.0968 -0.8937  1.1285
  858MPD2    H112601   0.991   4.450  16.928 -0.6039  1.1966 -1.8232
  858MPD2    H212602   1.002   4.148  16.641 -2.4909  2.6114 -0.3203
  858MPD2    H312603   0.911   4.357  16.740  0.3245  0.0757 -0.5742
  858MPD2     N12604   1.194   4.373  17.082  0.4537  0.1161  0.6554
  858MPD2    H512605   1.145   4.457  17.109  2.5490  0.3758  3.6610
  858MPD2    N112606   1.183   3.989  16.766  0.1020 -0.7671  0.0507
  858MPD2    H712607   1.258   3.952  16.823 -0.2581  0.0433  1.0522
  859MPD2     C12608   4.701   0.898  15.123 -0.2766 -0.2471  0.1819
  859MPD2    C112609   4.624   0.890  15.006  0.0214 -0.1796 -0.1151
  859MPD2    C212610   4.609   0.758  14.952  0.5421 -0.6477  0.2586
  859MPD2    C312611   4.643   0.644  15.026 -0.3960  0.2680 -0.4120
  859MPD2    C412612   4.687   0.659  15.156  0.5282  0.8064  0.3932
  859MPD2    C512613   0.001   0.786  15.195  0.1280  0.7021  0.3274
  859MPD2     H12614   4.583   0.740  14.849 -1.0100  0.1444  0.5179
  859MPD2    H112615   4.713   0.577  15.222 -0.8881 -0.1579 -0.2605
  859MPD2    H212616   4.719   0.991  15.176 -0.4921 -0.3648  0.4648
  859MPD2    H312617   0.051   0.805  15.289  0.8038 -0.5455  0.2341
  859MPD2     N12618   4.663   0.511  14.973  0.0962 -0.3408  0.4665
  859MPD2    H512619   4.719   0.445  15.027  1.6511 -0.2028 -0.9767
  859MPD2    N112620   4.577   1.008  14.949 -0.1155 -0.0815 -0.4058
  859MPD2    H712621   4.572   1.092  15.006  0.3442 -2.2664  2.8376
  860MPD2     C12622   3.165   2.106  12.137 -0.2498  0.7188  0.4801
  860MPD2    C112623   3.072   2.185  12.202 -0.4887  0.4214 -0.0009
  860MPD2    C212624   2.935   2.162  12.180 -0.5212 -0.8274  0.5729
  860MPD2    C312625   2.891   2.064  12.085  0.4471  0.1939 -0.8880
  860MPD2    C412626   2.993   1.987  12.028  0.7171 -0.1332 -0.7819
  860MPD2    C512627   3.129   2.008  12.052  0.3495  0.2463  0.1536
  860MPD2     H12628   2.862   2.228  12.223  0.8865  0.1690  1.4446
  860MPD2    H112629   2.970   1.910  11.955  0.5582  0.0921 -0.9685
  860MPD2    H212630   3.269   2.132  12.141 -0.3640  1.0738  1.1209
  860MPD2    H312631   3.205   1.940  12.016 -2.1284 -0.6182 -3.4883
  860MPD2     N12632   2.748   2.044  12.075  0.0556 -0.8377 -0.1908
  860MPD2    H512633   2.696   2.112  12.129 -0.7561  0.3206 -2.4310
  860MPD2    N112634   3.102   2.293  12.284 -0.4170 -0.7988 -0.1159
  860MPD2    H712635   3.029   2.343  12.335  0.0472 -0.3929  0.1481
  861MPD2     C12636   0.848   4.323  11.106 -0.2526 -0.1414 -0.2390
  861MPD2    C112637   0.831   4.452  11.141  0.6030  0.1610 -0.0064
  861MPD2    C212638   0.786   4.532  11.044 -0.1961  0.4917 -0.1595
  861MPD2    C312639   0.748   4.488  10.917  0.1644 -0.1532  0.6115
  861MPD2    C412640   0.745   4.355  10.893 -0.2227 -0.2719  0.3147
  861MPD2    C512641   0.800   4.269  10.985  0.4455 -0.3034 -0.5677
  861MPD2     H12642   0.772   4.638  11.059 -1.7627 -0.0983  2.6504
  861MPD2    H112643   0.699   4.307  10.807  1.3882  2.9565 -2.3353
  861MPD2    H212644   0.880   4.242  11.171 -0.2712  0.1552  0.1406
  861MPD2    H312645   0.821   4.169  10.951 -0.1991 -0.5025 -0.3750
  861MPD2     N12646   0.688   4.577  10.825 -0.3922 -0.3061 -0.0417
  861MPD2    H512647   0.621   4.534  10.761 -1.4683  1.2389  0.0504
  861MPD2    N112648   0.872   4.490  11.271 -0.0629  0.4868  0.3247
  861MPD2    H712649   0.924   4.423  11.327  1.1640  2.5593  1.6306
  862MPD2     C12650   0.056   4.589  10.496  0.0627 -0.2774 -0.1709
  862MPD2    C112651   0.165   4.543  10.560 -1.3958 -0.0959 -0.5365
  862MPD2    C212652   0.193   4.406  10.555 -0.7230 -0.3313  0.2184
  862MPD2    C312653   0.111   4.310  10.500  0.7644 -0.2251  0.2758
  862MPD2    C412654   0.001   4.365  10.438  0.0815  0.2808  0.0751
  862MPD2    C512655   4.690   4.496  10.444 -0.1632 -0.1472 -0.6370
  862MPD2     H12656   0.275   4.368  10.614 -1.0314  1.8409  2.0556
  862MPD2    H112657   4.653   4.303  10.386  0.2978  1.0094 -1.1060
  862MPD2    H212658   0.024   4.691  10.478 -3.3922 -1.3403 -0.2048
  862MPD2    H312659   4.609   4.533  10.382 -0.1673 -1.5541 -1.4617
  862MPD2     N12660   0.133   4.170  10.516 -0.2395 -0.2231 -0.4259
  862MPD2    H512661   0.068   4.108  10.469 -0.2404 -0.5909  0.0714
  862MPD2    N112662   0.264   4.632  10.608 -0.5181 -0.7283 -0.5477
  862MPD2    H712663   0.346   4.583  10.643 -1.4918 -0.7858  1.5993
  863MPD2     C12664   0.074   3.149  17.104  0.3742 -0.2882 -0.4036
  863MPD2    C112665   0.028   3.021  17.134  0.1217  0.4423  0.7741
  863MPD2    C212666   0.074   2.961  17.250  0.2059 -0.6562  0.7806
  863MPD2    C312667   0.157   3.028  17.335  0.1021  0.3826 -0.7098
  863MPD2    C412668   0.199   3.158  17.305 -0.3547  0.6172  0.1648
  863MPD2    C512669   0.156   3.221  17.191 -0.4466 -0.5038 -0.5189
  863MPD2     H12670   0.039   2.862  17.278 -0.2842 -0.4183  1.0153
  863MPD2    H112671   0.244   3.218  17.383 -0.8732 -0.1201  1.0416
  863MPD2    H212672   0.039   3.191  17.010 -1.9982 -0.4084  0.4329
  863MPD2    H312673   0.185   3.325  17.184 -1.0231 -0.4949 -2.5730
  863MPD2     N12674   0.207   2.973  17.451  0.1637 -0.3038 -0.0684
  863MPD2    H512675   0.241   3.045  17.514  1.6863 -0.4295 -0.7332
  863MPD2    N112676   4.655   2.965  17.047  0.3121 -0.1074  0.2852
  863MPD2    H712677   4.633   3.021  16.965  0.1158 -0.4573  0.0967
  864MPD2     C12678   0.084   4.072  17.626 -0.1816  0.5098  0.6035
  864MPD2    C112679   0.110   4.035  17.497  0.1225  0.3779 -0.4501
  864MPD2    C212680   0.146   4.138  17.412 -0.2947  0.6482  0.1150
  864MPD2    C312681   0.161   4.268  17.453  0.1618  0.0041  0.3718
  864MPD2    C412682   0.124   4.301  17.581  0.2060  0.2480  0.0416
  864MPD2    C512683   0.091   4.203  17.668  0.7177 -0.5253  0.1034
  864MPD2     H12684   0.139   4.118  17.306 -1.3756 -1.1390  0.5136
  864MPD2    H112685   0.119   4.405  17.610  1.9737  0.6501 -1.1258
  864MPD2    H212686   0.060   3.995   0.003  0.4133 -1.5197 -1.3707
  864MPD2    H312687   0.076   4.232   0.076 -0.9727 -0.4439 -0.1519
  864MPD2     N12688   0.193   4.374  17.364 -0.4170  0.1532 -0.0954
  864MPD2    H512689   0.166   4.468  17.392 -2.6899  0.1282 -2.1582
  864MPD2    N112690   0.082   3.901  17.458 -0.0059  0.6685  0.4517
  864MPD2    H712691   0.049   3.838  17.531  2.0916 -1.4448 -0.4300
  865MPD2     C12692   0.256   0.019  16.489 -0.6943 -0.9569  0.7222
  865MPD2    C112693   0.252   4.626  16.568 -0.2014 -0.2900  0.3248
  865MPD2    C212694   0.225   4.635  16.707 -0.1529  0.3741  0.4847
  865MPD2    C312695   0.205   0.032  16.765  0.1781  0.5501 -0.1207
  865MPD2    C412696   0.213   0.146  16.684  0.0914 -0.2531  1.0383
  865MPD2    C512697   0.231   0.138  16.549  0.5439  0.2046  0.2317
  865MPD2     H12698   0.232   4.545  16.767 -0.5337  1.2972  1.9144
  865MPD2    H112699   0.202   0.247  16.722  0.9374  0.5256 -0.7586
  865MPD2    H212700   0.281   0.028  16.384  0.1397 -1.0884  0.9113
  865MPD2    H312701   0.223   0.231  16.493  2.4143  0.0365 -0.3394
  865MPD2     N12702   0.180   0.045  16.902  0.0424  0.3893 -0.1472
  865MPD2    H512703   0.192   0.135  16.948 -0.0469  0.1010  0.4385
  865MPD2    N112704   0.267   4.497  16.510  0.3161  0.2496 -0.2596
  865MPD2    H712705   0.301   4.492  16.414 -0.2390 -0.9354 -0.3980
  866MPD2     C12706   1.331   4.679  11.273  0.0453 -1.1110  0.2547
  866MPD2    C112707   1.383   0.086  11.274 -0.5528  0.3270  0.1707
  866MPD2    C212708   1.294   0.193  11.262 -0.4735 -0.5888  0.4160
  866MPD2    C312709   1.160   0.169  11.231  0.6110 -0.2871 -0.5314
  866MPD2    C412710   1.118   0.039  11.212  0.2597  0.4526 -0.4309
  866MPD2    C512711   1.204   4.655  11.228  0.1055  0.1580 -0.6230
  866MPD2     H12712   1.328   0.296  11.267 -1.6683 -0.1402 -0.6441
  866MPD2    H112713   1.019   0.013  11.178 -0.9827  1.5088  2.3780
  866MPD2    H212714   1.390   4.588  11.274 -0.5662 -1.5229 -1.3562
  866MPD2    H312715   1.178   4.552  11.208 -0.7738  0.3859 -0.6438
  866MPD2     N12716   1.062   0.267  11.208 -0.2850  0.6025 -0.5981
  866MPD2    H512717   0.969   0.236  11.182  0.1711 -0.8596 -0.5297
  866MPD2    N112718   1.526   0.101  11.278 -0.4659  0.4727 -0.2579
  866MPD2    H712719   1.580   0.016  11.292 -1.0038  0.5469  2.1840
  867MPD2     C12720   3.749   3.943  16.608 -0.0461 -0.5425  0.1385
  867MPD2    C112721   3.880   3.945  16.666 -0.6584  0.3694 -0.3478
  867MPD2    C212722   3.934   4.070  16.692 -0.3319 -0.4917  0.6770
  867MPD2    C312723   3.872   4.187  16.662  0.3169 -0.0510  0.2730
  867MPD2    C412724   3.739   4.181  16.614  0.0136  0.0390  0.8508
  867MPD2    C512725   3.678   4.061  16.593  0.4571  0.0931 -0.2982
  867MPD2     H12726   4.024   4.073  16.754  0.0067  3.5731 -0.0713
  867MPD2    H112727   3.702   4.278  16.582  1.8312  0.9722  1.5258
  867MPD2    H212728   3.702   3.850  16.576 -0.7357 -0.3713  0.6517
  867MPD2    H312729   3.587   4.059  16.534  0.7396  0.5257 -0.7459
  867MPD2     N12730   3.927   4.313  16.701 -0.0470  0.4433 -0.5614
  867MPD2    H512731   3.869   4.395  16.688 -0.8469 -0.0770 -0.2806
  867MPD2    N112732   3.932   3.817  16.692  0.0526  0.6014  0.2900
  867MPD2    H712733   3.863   3.743  16.680 -1.9251  2.5123 -0.1864
  868MPD2     C12734   0.248   3.731  12.912  0.2972  0.3397 -0.3726
  868MPD2    C112735   0.302   3.679  13.023 -0.2962 -0.1813  0.0127
  868MPD2    C212736   0.231   3.676  13.139  0.7754  0.1024  0.0525
  868MPD2    C312737   0.096   3.707  13.139 -0.4641  0.3285 -0.4306
  868MPD2    C412738   0.034   3.757  13.026  0.1239  0.4280 -0.2744
  868MPD2    C512739   0.118   3.770  12.912 -0.0790 -0.3500 -0.2539
  868MPD2     H12740   0.283   3.651  13.231  1.4870  1.2415 -0.0301
  868MPD2    H112741   4.653   3.783  13.017  0.1667  0.4962 -0.5821
  868MPD2    H212742   0.310   3.742  12.823 -1.3328 -0.9792 -1.6693
  868MPD2    H312743   0.079   3.811  12.819 -1.3781  1.1873  0.9830
  868MPD2     N12744   0.026   3.707  13.261 -0.4387  0.2475  0.1847
  868MPD2    H512745   0.078   3.688  13.346 -1.6267 -2.8105  0.2413
  868MPD2    N112746   0.426   3.616  13.013  0.3303 -0.6654  0.2512
  868MPD2    H712747   0.475   3.622  12.925 -3.7718  1.8720 -1.8711
  869MPD2     C12748   2.558   0.846   1.708  0.2423 -0.8721 -0.1367
  869MPD2    C112749   2.445   0.860   1.784 -0.2075  1.4355 -0.5497
  869MPD2    C212750   2.332   0.924   1.723 -0.6726  0.5721 -0.3640
  869MPD2    C312751   2.344   0.986   1.601  0.2209  0.0940  0.5736
  869MPD2    C412752   2.462   0.974   1.527 -0.1607 -0.1366  0.0162
  869MPD2    C512753   2.564   0.892   1.579  0.5693  0.3561  0.1676
  869MPD2     H12754   2.245   0.943   1.784 -0.2092 -0.3620  0.5714
  869MPD2    H112755   2.476   1.015   1.428  0.9595 -2.1746 -0.6734
  869MPD2    H212756   2.644   0.798   1.751  2.0088  2.8530  0.4877
  869MPD2    H312757   2.650   0.867   1.518  0.3946 -0.9954  0.4738
  869MPD2     N12758   2.239   1.065   1.548 -0.4820 -0.1258  0.2653
  869MPD2    H512759   2.256   1.114   1.460 -2.9552  0.6107  0.1879
  869MPD2    N112760   2.437   0.807   1.915  0.1842  0.7715  0.0737
  869MPD2    H712761   2.527   0.779   1.953 -0.4631 -0.8510  0.3900
  870MPD2     C12762   2.340   4.529   1.851 -0.5507 -0.1973 -1.0506
  870MPD2    C112763   2.247   4.458   1.780 -0.1127 -0.1067 -0.4059
  870MPD2    C212764   2.149   4.528   1.711 -0.5032 -0.2992  0.3571
  870MPD2    C312765   2.131   4.663   1.736 -0.4237  0.2902  0.2818
  870MPD2    C412766   2.217   0.005   1.822  0.0552 -0.2430 -0.0510
  870MPD2    C512767   2.319   4.662   1.877 -0.4245 -0.4428  0.1058
  870MPD2     H12768   2.084   4.462   1.655 -1.0431  0.6333 -0.1083
  870MPD2    H112769   2.203   0.112   1.837 -1.1416 -0.5027  0.6130
  870MPD2    H212770   2.425   4.483   1.901 -0.0569 -1.2055 -2.7914
  870MPD2    H312771   2.400   4.712   1.929 -1.5300  3.1260 -1.6160
  870MPD2     N12772   2.022   0.011   1.676 -0.3969 -0.3553  0.1458
  870MPD2    H512773   2.006   0.107   1.702  0.5860 -0.1750  0.0897
  870MPD2    N112774   2.269   4.315   1.773  0.1343 -0.0217 -0.1161
  870MPD2    H712775   2.346   4.278   1.829 -2.0443 -0.0564  2.8293
  871MPD2     C12776   2.550   4.374  16.436  0.0247 -0.5902  0.7212
  871MPD2    C112777   2.547   4.310  16.558 -0.0112 -0.4914  0.7621
  871MPD2    C212778   2.602   4.189  16.559 -0.3581 -0.2550 -0.2014
  871MPD2    C312779   2.672   4.135  16.460  0.4879 -0.0737  0.3408
  871MPD2    C412780   2.673   4.200  16.334 -0.5410 -0.3316  0.0492
  871MPD2    C512781   2.607   4.323  16.320  0.3922 -0.2261 -0.3628
  871MPD2     H12782   2.618   4.146  16.657  2.6748  0.2230 -0.5051
  871MPD2    H112783   2.716   4.154  16.245 -1.3103  0.8228 -0.9144
  871MPD2    H212784   2.520   4.478  16.434 -0.4550 -0.7558 -1.0201
  871MPD2    H312785   2.604   4.370  16.223 -0.1439 -1.1914 -0.8126
  871MPD2     N12786   2.743   4.014  16.483  0.1584 -0.2425  0.6099
  871MPD2    H512787   2.728   3.963  16.569  0.7198 -1.0075  0.2491
  871MPD2    N112788   2.509   4.383  16.675 -0.4684 -0.0413 -0.4816
  871MPD2    H712789   2.477   4.478  16.660  0.8109  0.2177 -1.4953
  872MPD2     C12790   2.883   1.727  13.877  0.4041  0.8584  0.0773
  872MPD2    C112791   2.899   1.837  13.960 -0.8018 -0.1279 -0.1521
  872MPD2    C212792   2.794   1.882  14.041 -0.4768  0.2517  0.6422
  872MPD2    C312793   2.669   1.839  14.019 -0.0425  0.2733 -0.0889
  872MPD2    C412794   2.649   1.720  13.942 -0.4024  0.5193 -0.3042
  872MPD2    C512795   2.760   1.671  13.870  0.1677 -0.2209  0.4605
  872MPD2     H12796   2.819   1.971  14.097  0.8870  0.1509  0.2003
  872MPD2    H112797   2.551   1.675  13.927 -0.8799  0.9132  1.6307
  872MPD2    H212798   2.969   1.697  13.820 -0.5305 -1.8059  0.0591
  872MPD2    H312799   2.740   1.580  13.815 -1.0916  1.5083 -1.8975
  872MPD2     N12800   2.563   1.892  14.097 -0.9967 -0.3386 -0.0223
  872MPD2    H512801   2.477   1.839  14.100  0.5119 -2.6889  1.5538
  872MPD2    N112802   3.019   1.903  13.974 -0.4668 -0.8027 -0.5990
  872MPD2    H712803   3.020   1.967  14.053 -2.1730 -0.0407 -1.1939
  873MPD2     C12804   4.652   1.884   1.117 -0.0489  0.4633  0.6746
  873MPD2    C112805   4.720   1.817   1.212  0.0088 -0.6979 -0.6781
  873MPD2    C212806   0.059   1.701   1.167  0.4670 -0.4733 -0.1082
  873MPD2    C312807   0.078   1.652   1.040 -0.3163  0.5127 -0.1472
  873MPD2    C412808   0.019   1.735   0.949 -0.0130  0.1776 -0.0335
  873MPD2    C512809   4.667   1.840   0.986 -0.1685 -0.2092 -0.2926
  873MPD2     H12810   0.092   1.637   1.249  1.0625 -1.0364 -0.7926
  873MPD2    H112811   0.002   1.707   0.846  0.8445 -2.6112  0.5764
  873MPD2    H212812   4.584   1.967   1.136 -1.7589 -0.5322 -0.9849
  873MPD2    H312813   4.613   1.897   0.912  1.1756 -0.3200 -1.3657
  873MPD2     N12814   0.140   1.536   1.001  0.4739 -0.3703 -0.4716
  873MPD2    H512815   0.141   1.526   0.900 -0.8682  0.6185 -0.5925
  873MPD2    N112816   0.006   1.841   1.353  0.4328 -0.9583 -0.0554
  873MPD2    H712817   0.066   1.777   1.404  2.0686 -0.2965 -1.1419
  874MPD2     C12818   0.402   2.190  16.233  0.3361 -0.7288 -0.0039
  874MPD2    C112819   0.378   2.125  16.351  0.0367 -0.0437  0.0860
  874MPD2    C212820   0.459   2.144  16.464 -0.4666  0.0313 -0.1650
  874MPD2    C312821   0.565   2.237  16.445  0.2591 -0.1574  0.1554
  874MPD2    C412822   0.589   2.301  16.328  0.4995  0.0300  0.5835
  874MPD2    C512823   0.507   2.276  16.219  0.2873 -0.0433  0.2146
  874MPD2     H12824   0.438   2.112  16.566  3.0492 -0.6777  0.3392
  874MPD2    H112825   0.665   2.377  16.318  0.6473 -0.2245 -0.2280
  874MPD2    H212826   0.329   2.179  16.153  1.0655 -0.4720 -0.7006
  874MPD2    H312827   0.510   2.329  16.125  0.5728  0.3207  0.4283
  874MPD2     N12828   0.649   2.245  16.555  0.0295  0.6293 -0.5400
  874MPD2    H512829   0.623   2.197  16.640  1.4997 -0.7266 -0.8468
  874MPD2    N112830   0.260   2.046  16.358 -0.1908  0.3230  0.1194
  874MPD2    H712831   0.200   2.055  16.276 -2.1107 -0.8141  1.3890
  875MPD2     C12832   0.889   0.062  14.699  0.0047 -0.6105  0.1446
  875MPD2    C112833   0.892   0.176  14.630  0.0304 -0.5490 -1.2865
  875MPD2    C212834   0.906   0.293  14.702  0.1924  0.3382  0.2879
  875MPD2    C312835   0.895   0.303  14.842 -0.5370 -0.3505  0.1004
  875MPD2    C412836   0.864   0.184  14.906  0.1252  0.2408  0.4475
  875MPD2    C512837   0.873   0.069  14.833  0.5461 -0.5287  0.2704
  875MPD2     H12838   0.927   0.379  14.640  0.3699  0.1842  0.1337
  875MPD2    H112839   0.852   0.181  15.013  4.2109 -2.9519  0.8369
  875MPD2    H212840   0.893   4.691  14.647 -0.9608 -0.5457 -0.0451
  875MPD2    H312841   0.859   4.699  14.886  4.4092 -1.7769 -0.9542
  875MPD2     N12842   0.914   0.420  14.917 -0.6936 -0.4367 -0.7268
  875MPD2    H512843   0.919   0.407  15.018  0.3652 -0.8107 -0.8297
  875MPD2    N112844   0.892   0.194  14.489  0.1995 -0.4395 -0.3472
  875MPD2    H712845   0.889   0.289  14.451 -2.6556 -0.5607 -0.4152
  876MPD2     C12846   0.243   1.869  15.868  0.3025  0.5978  0.1556
  876MPD2    C112847   0.300   1.791  15.765  0.1682 -0.3945  0.8101
  876MPD2    C212848   0.347   1.665  15.807  0.1551  0.6847 -0.1354
  876MPD2    C312849   0.341   1.610  15.939  0.5478  0.1727  0.4388
  876MPD2    C412850   0.287   1.697  16.038 -0.1736  0.1920 -0.0551
  876MPD2    C512851   0.247   1.823  15.998 -0.2255 -0.0198 -0.2716
  876MPD2     H12852   0.376   1.595  15.729 -0.2936 -1.0256  1.2370
  876MPD2    H112853   0.291   1.675  16.144 -0.1659  2.2153  0.3668
  876MPD2    H212854   0.199   1.966  15.847  0.0607  0.4946  0.1890
  876MPD2    H312855   0.195   1.885  16.071  0.8660  2.8169 -1.9269
  876MPD2     N12856   0.405   1.483  15.964 -0.1292  0.2365  0.0368
  876MPD2    H512857   0.417   1.415  15.890  0.0200  0.6045 -0.2746
  876MPD2    N112858   0.296   1.835  15.631 -0.3502 -0.5905  0.3882
  876MPD2    H712859   0.235   1.915  15.616 -1.8102 -1.4700  1.6342
  877MPD2     C12860   0.621   2.094  14.860  0.3197  0.3994  0.9525
  877MPD2    C112861   0.521   1.995  14.866 -0.3445 -0.7182 -0.3513
  877MPD2    C212862   0.477   1.952  14.748 -0.3249 -0.0618 -0.1334
  877MPD2    C312863   0.521   2.000  14.620  0.1736 -0.5219 -0.3565
  877MPD2    C412864   0.623   2.089  14.621  0.2607  0.4587 -0.0366
  877MPD2    C512865   0.662   2.142  14.737 -0.9920 -0.2098  0.1790
  877MPD2     H12866   0.394   1.883  14.761  0.1540 -0.3514  1.4643
  877MPD2    H112867   0.680   2.119  14.534 -1.3102  0.1819 -1.1534
  877MPD2    H212868   0.658   2.131  14.955  1.6904 -1.3385  1.0828
  877MPD2    H312869   0.742   2.215  14.741  0.4633 -1.8201  0.8538
  877MPD2     N12870   0.453   1.969  14.497 -0.9040 -1.2967  0.7758
  877MPD2    H512871   0.510   2.001  14.419 -1.1218  1.1016  1.5899
  877MPD2    N112872   0.451   1.956  14.984  0.3865  0.2745  0.1372
  877MPD2    H712873   0.367   1.902  14.968  0.6807  0.2112 -1.2515
  878MPD2     C12874   0.414   1.021  12.259 -0.0170  0.2040  0.4181
  878MPD2    C112875   0.387   1.150  12.305 -0.3677 -0.6738  0.1306
  878MPD2    C212876   0.494   1.233  12.344 -0.4132 -0.1813 -0.4704
  878MPD2    C312877   0.625   1.194  12.317 -0.1744  0.0199  0.3695
  878MPD2    C412878   0.646   1.076  12.254 -0.3282  0.1302 -0.1399
  878MPD2    C512879   0.543   0.987  12.230 -0.2935  0.2727  0.5299
  878MPD2     H12880   0.478   1.331  12.387  0.4939 -0.1861 -0.1304
  878MPD2    H112881   0.746   1.041  12.232 -0.5196  0.0582 -0.8809
  878MPD2    H212882   0.329   0.958  12.235  1.4249 -1.7763  0.5857
  878MPD2    H312883   0.552   0.886  12.191 -0.1670  1.0348 -1.4318
  878MPD2     N12884   0.734   1.286  12.334  0.1889  0.4132  0.2129
  878MPD2    H512885   0.700   1.368  12.385 -1.0996 -0.5359  0.8865
  878MPD2    N112886   0.252   1.186  12.336 -0.5035  0.0545  0.2412
  878MPD2    H712887   0.181   1.114  12.335 -0.1373 -0.2381 -3.6661
  879MPD2     C12888   0.807   2.913  17.635 -0.2397  0.8653  0.1961
  879MPD2    C112889   0.744   2.819   0.012 -0.5284 -0.1283  0.6911
  879MPD2    C212890   0.659   2.729  17.633  0.0330 -0.8449 -0.5719
  879MPD2    C312891   0.659   2.730  17.493 -0.0007 -0.1173  0.0169
  879MPD2    C412892   0.747   2.810  17.428 -0.4206 -0.0704  0.4690
  879MPD2    C512893   0.816   2.902  17.502 -0.1374  0.3375 -0.7362
  879MPD2     H12894   0.592   2.667  17.691  0.4147  1.8582  2.7936
  879MPD2    H112895   0.758   2.829  17.322 -1.1651  0.0972  0.4231
  879MPD2    H212896   0.854   2.996  17.686 -1.0977  1.1176  0.5773
  879MPD2    H312897   0.873   2.972  17.442 -1.4638  1.5816 -0.5585
  879MPD2     N12898   0.577   2.642  17.414  0.1254 -0.4561  0.1003
  879MPD2    H512899   0.579   2.642  17.313 -1.6344  1.0732  0.0713
  879MPD2    N112900   0.757   2.829   0.157 -0.3800 -0.1244 -0.3199
  879MPD2    H712901   0.818   2.901   0.193 -0.0571 -0.4130 -0.2844
  880MPD2     C12902   2.137   4.629   0.203  0.5412  0.0456  0.1215
  880MPD2    C112903   2.110   4.650   0.334  0.0440 -0.3542  0.1798
  880MPD2    C212904   2.126   4.545   0.422  0.2794  0.6601  0.0679
  880MPD2    C312905   2.168   4.424   0.377 -0.5273 -0.9068 -0.1312
  880MPD2    C412906   2.204   4.412   0.248 -0.0249 -0.1043 -0.1361
  880MPD2    C512907   2.181   4.511   0.158 -0.2933  0.2090  0.5382
  880MPD2     H12908   2.095   4.561   0.525 -2.0309  0.4917 -0.5854
  880MPD2    H112909   2.239   4.314   0.215 -0.6797 -0.3890  0.0216
  880MPD2    H212910   2.140   4.710   0.132 -1.5756 -0.6939 -0.8096
  880MPD2    H312911   2.214   4.505   0.054  0.0594 -0.6426  0.6967
  880MPD2     N12912   2.167   4.315   0.471 -0.2534  0.2022 -0.0422
  880MPD2    H512913   2.136   4.327   0.567 -1.7022 -2.3063 -0.2036
  880MPD2    N112914   2.073   0.057   0.360  0.1983  0.4198  0.2105
  880MPD2    H712915   2.075   0.122   0.281 -0.7119 -0.2815 -0.3782
  881MPD2     C12916   1.699   0.885   0.048 -0.5788  0.0327  0.1929
  881MPD2    C112917   1.693   0.759  17.683 -0.0583 -0.1535  0.9799
  881MPD2    C212918   1.690   0.646   0.070  0.2852 -0.2146 -0.4808
  881MPD2    C312919   1.682   0.649   0.210  0.1999 -0.0453 -0.5111
  881MPD2    C412920   1.670   0.776   0.267  0.4913 -0.3935 -0.9774
  881MPD2    C512921   1.689   0.890   0.186 -0.1678  0.9419 -0.4771
  881MPD2     H12922   1.712   0.554   0.019  1.3629 -0.0730 -0.2894
  881MPD2    H112923   1.658   0.789   0.374 -3.6760  3.0251 -1.8247
  881MPD2    H212924   1.734   0.968  17.683 -1.8779  1.3967  1.3237
  881MPD2    H312925   1.698   0.986   0.235  2.6406  0.2197  0.4012
  881MPD2     N12926   1.680   0.539   0.301 -0.2688  0.6315 -0.6333
  881MPD2    H512927   1.683   0.566   0.398  0.1156  0.8875 -0.7163
  881MPD2    N112928   1.728   0.744  17.547  0.2069 -1.0042 -0.0155
  881MPD2    H712929   1.757   0.831  17.503  0.1315 -2.1114 -2.2673
  882MPD2     C12930   4.590   1.845  13.832 -0.2958  0.3270 -0.0197
  882MPD2    C112931   4.584   1.872  13.965 -0.5899 -0.1754  0.8165
  882MPD2    C212932   4.457   1.879  14.028 -0.6001 -0.7253  0.1758
  882MPD2    C312933   4.342   1.852  13.952 -0.9363  0.0766 -0.2081
  882MPD2    C412934   4.355   1.814  13.825 -0.1638 -0.1949  0.7090
  882MPD2    C512935   4.477   1.814  13.764  0.3634  0.1635  0.1135
  882MPD2     H12936   4.446   1.913  14.130 -0.0655  0.3884 -0.1376
  882MPD2    H112937   4.266   1.800  13.765  0.7115  0.9741 -0.8743
  882MPD2    H212938   4.680   1.821  13.778 -2.2023 -1.5049 -2.3598
  882MPD2    H312939   4.487   1.787  13.659  0.5541  0.4907  0.0472
  882MPD2     N12940   4.208   1.863  14.000 -0.0736  0.4301  0.3407
  882MPD2    H512941   4.127   1.850  13.940  0.1367  1.5776 -0.2042
  882MPD2    N112942   4.703   1.884  14.025  0.3034  0.1262  0.2335
  882MPD2    H712943   0.060   1.872  13.965 -1.9516 -0.1765 -2.7562
  883MPD2     C12944   1.873   1.872  16.572  0.3886  0.4397 -0.5209
  883MPD2    C112945   1.924   1.963  16.479 -0.4728 -0.3417  0.7443
  883MPD2    C212946   2.029   2.036  16.523  0.0134 -0.3753  0.2052
  883MPD2    C312947   2.081   2.033  16.654  0.4135 -0.4635  0.3847
  883MPD2    C412948   2.044   1.927  16.731  0.3289  0.4085  0.8592
  883MPD2    C512949   1.933   1.857  16.698 -0.3429 -0.1940  0.1810
  883MPD2     H12950   2.064   2.120  16.463 -0.5023 -0.8117 -0.6977
  883MPD2    H112951   2.098   1.913  16.824  0.3057 -1.2578  0.6285
  883MPD2    H212952   1.792   1.802  16.552 -0.9511  2.3479 -1.7998
  883MPD2    H312953   1.899   1.784  16.771 -1.1361 -0.0655 -0.0657
  883MPD2     N12954   2.179   2.129  16.685  0.0757 -0.3048  0.8342
  883MPD2    H512955   2.206   2.182  16.603 -1.3428  0.3037  0.7664
  883MPD2    N112956   1.871   1.985  16.351 -0.1129 -0.4269 -0.3035
  883MPD2    H712957   1.912   2.058  16.293  2.2376 -0.4205  1.3621
  884MPD2     C12958   4.047   2.757  15.732 -0.1070 -0.0137 -0.8144
  884MPD2    C112959   4.023   2.880  15.691 -0.1070 -0.0952 -0.8788
  884MPD2    C212960   3.898   2.926  15.648  0.2222 -0.5828 -0.5871
  884MPD2    C312961   3.802   2.827  15.641 -0.4662  0.8561  0.0257
  884MPD2    C412962   3.825   2.695  15.671 -0.0342  0.5029  0.1875
  884MPD2    C512963   3.950   2.660  15.721  0.0363  0.1803  0.7166
  884MPD2     H12964   3.874   3.024  15.608 -0.7589  0.2985  2.1215
  884MPD2    H112965   3.748   2.618  15.669 -0.0532  0.5783 -1.4743
  884MPD2    H212966   4.138   2.708  15.767  0.7542  1.5871 -0.8241
  884MPD2    H312967   3.970   2.561  15.761 -0.8877 -1.2373 -2.2919
  884MPD2     N12968   3.674   2.873  15.597  0.3187  0.6774  0.0771
  884MPD2    H512969   3.669   2.973  15.580 -1.7692  0.6184  0.3356
  884MPD2    N112970   4.126   2.978  15.683 -0.3271 -0.2151  0.8580
  884MPD2    H712971   4.105   3.063  15.631 -1.6884 -0.6347  0.7190
  885MPD2     C12972   1.957   2.853   0.384  0.2565 -0.4668  0.1734
  885MPD2    C112973   2.082   2.917   0.417 -0.4465 -0.9071  0.1394
  885MPD2    C212974   2.134   3.002   0.319  0.7658 -0.1868  1.1534
  885MPD2    C312975   2.071   3.022   0.197  0.9042 -0.1350  0.1503
  885MPD2    C412976   1.954   2.951   0.169 -0.0146 -0.0279 -0.3304
  885MPD2    C512977   1.894   2.871   0.263 -0.5793 -0.3792  0.0008
  885MPD2     H12978   2.230   3.051   0.335  1.8578 -1.0076 -2.9212
  885MPD2    H112979   1.909   2.951   0.071 -0.7425  0.0556  0.0030
  885MPD2    H212980   1.912   2.787   0.458 -1.3886 -1.3983 -1.6441
  885MPD2    H312981   1.805   2.813   0.246 -0.3924 -1.4639  2.7010
  885MPD2     N12982   2.130   3.122   0.110 -0.1644  0.2554 -0.4399
  885MPD2    H512983   2.212   3.172   0.143  1.0670 -0.9181 -1.7258
  885MPD2    N112984   2.134   2.904   0.545 -0.6239 -0.5896  0.4800
  885MPD2    H712985   2.073   2.849   0.604 -1.1772 -1.2006 -0.6609
  886MPD2     C12986   3.550   1.537  15.722  0.6965  0.0447 -0.5131
  886MPD2    C112987   3.659   1.535  15.637 -0.1026  0.7523  0.3593
  886MPD2    C212988   3.664   1.613  15.521 -0.0937  0.0556 -0.4024
  886MPD2    C312989   3.557   1.696  15.495 -0.3055  0.6782 -0.0548
  886MPD2    C412990   3.449   1.709  15.584 -0.1779 -0.5579  0.0161
  886MPD2    C512991   3.448   1.633  15.695  0.0931  0.5713 -0.3221
  886MPD2     H12992   3.740   1.598  15.445  0.3157  0.0183  0.0159
  886MPD2    H112993   3.359   1.765  15.561  0.5341  1.1004  1.3359
  886MPD2    H212994   3.554   1.482  15.815 -1.3838  0.7621 -0.0036
  886MPD2    H312995   3.352   1.639  15.744  1.3581  0.9419  2.0718
  886MPD2     N12996   3.565   1.757  15.369 -0.2279  0.3989  0.5742
  886MPD2    H512997   3.640   1.738  15.304 -0.1396  2.8362 -0.0528
  886MPD2    N112998   3.774   1.455  15.660 -0.7433 -0.3588  0.1452
  886MPD2    H712999   3.860   1.477  15.610  1.3232 -3.2303  2.4076
  887MPD2     C13000   4.348   1.491  15.359 -0.3350 -0.0875 -1.0430
  887MPD2    C113001   4.283   1.499  15.482  0.1192 -0.5020  0.1924
  887MPD2    C213002   4.288   1.616  15.552 -0.4267 -0.4062  0.3678
  887MPD2    C313003   4.368   1.719  15.500 -0.3798 -0.6291  0.1736
  887MPD2    C413004   4.441   1.699  15.386 -0.4376  0.5778 -0.1212
  887MPD2    C513005   4.424   1.583  15.315 -0.1736  0.6256 -0.4874
  887MPD2     H13006   4.219   1.619  15.636 -0.6045 -1.0660  0.2495
  887MPD2    H113007   4.500   1.782  15.350 -1.2158  1.6669  1.1363
  887MPD2    H213008   4.336   1.400  15.302  0.6851  0.9226 -2.8762
  887MPD2    H313009   4.462   1.568  15.215  0.6924  0.4781 -0.1436
  887MPD2     N13010   4.373   1.836  15.576  0.1498  0.9120  0.1967
  887MPD2    H513011   4.312   1.837  15.657  2.5534 -2.1142  2.0480
  887MPD2    N113012   4.195   1.396  15.537  0.0961 -0.6710 -0.0703
  887MPD2    H713013   4.131   1.430  15.609  2.2214  0.1885  1.4217
  888MPD2     C13014   1.280   1.863  14.834 -0.4218  0.5675  0.1614
  888MPD2    C113015   1.250   1.879  14.969 -1.1609  0.3414 -0.0427
  888MPD2    C213016   1.289   1.991  15.040  0.3844 -0.4447  0.7204
  888MPD2    C313017   1.376   2.084  14.980 -0.0080  0.1828 -0.2728
  888MPD2    C413018   1.394   2.063  14.845 -0.1635  0.0972 -0.0457
  888MPD2    C513019   1.352   1.959  14.768  0.5574  0.3304  0.2140
  888MPD2     H13020   1.271   2.002  15.146 -1.3318 -0.1618  0.3995
  888MPD2    H113021   1.439   2.141  14.785  0.5193 -1.4720 -1.5799
  888MPD2    H213022   1.258   1.770  14.782  1.1750  0.7118 -0.7593
  888MPD2    H313023   1.378   1.942  14.664 -1.9211  1.3767 -0.5653
  888MPD2     N13024   1.418   2.203  15.051 -0.2597 -0.0748 -0.0212
  888MPD2    H513025   1.386   2.200  15.147 -0.5867  1.0684 -0.0993
  888MPD2    N113026   1.181   1.772  15.028  0.2763  0.6050  0.1160
  888MPD2    H713027   1.144   1.705  14.962  1.2367  0.2848 -0.0987
  889MPD2     C13028   1.136   0.606  13.065 -0.2529 -0.3094  0.8264
  889MPD2    C113029   1.121   0.661  13.186  0.3008  0.2408  0.5200
  889MPD2    C213030   1.182   0.789  13.209 -0.7920  0.4702 -0.1530
  889MPD2    C313031   1.213   0.874  13.105  0.4515  0.9005 -0.0134
  889MPD2    C413032   1.210   0.817  12.983  1.1273 -0.1136  0.5045
  889MPD2    C513033   1.187   0.688  12.957 -0.3607 -0.6119 -0.1375
  889MPD2     H13034   1.185   0.826  13.311 -2.3592 -0.0021  0.0653
  889MPD2    H113035   1.243   0.863  12.890  0.6623 -0.9868 -0.0917
  889MPD2    H213036   1.092   0.514  13.030 -0.1446  0.2244 -0.7096
  889MPD2    H313037   1.197   0.643  12.860  1.7334 -1.1946  0.3533
  889MPD2     N13038   1.238   1.015  13.124 -0.0390 -0.1830  0.0649
  889MPD2    H513039   1.209   1.067  13.206  1.2515  1.6928 -0.6699
  889MPD2    N113040   1.084   0.578  13.294  0.1903 -0.4263  0.1596
  889MPD2    H713041   1.113   0.611  13.385 -1.4383  3.2694 -0.6389
  890MPD2     C13042   0.276   3.167  14.821 -0.1988 -0.3566  0.0134
  890MPD2    C113043   0.310   3.259  14.922 -0.2138  0.0082  1.0055
  890MPD2    C213044   0.345   3.211  15.050 -0.0580  0.1785 -0.1974
  890MPD2    C313045   0.358   3.074  15.076  0.8766  0.0971  0.2263
  890MPD2    C413046   0.333   2.984  14.972  0.0313 -0.2566 -0.1603
  890MPD2    C513047   0.284   3.032  14.850  0.3488  0.3493 -0.1278
  890MPD2     H13048   0.357   3.282  15.131 -1.2521 -0.1534  0.2732
  890MPD2    H113049   0.340   2.876  14.976  1.1974 -0.1988 -0.6874
  890MPD2    H213050   0.239   3.197  14.724 -0.9377 -1.1066  0.0726
  890MPD2    H313051   0.247   2.959  14.778  0.9926  0.1581 -0.2618
  890MPD2     N13052   0.387   3.035  15.205  0.3820  0.7666  0.0635
  890MPD2    H513053   0.402   3.108  15.273  1.7938 -0.7283  1.3634
  890MPD2    N113054   0.294   3.395  14.894  0.2999 -0.4012  0.3062
  890MPD2    H713055   0.266   3.415  14.798  0.5582  0.8843  0.4896
  891MPD2     C13056   2.917   1.170  16.907  0.1115  0.7203 -0.4447
  891MPD2    C113057   2.866   1.289  16.940 -0.4311 -0.3495 -0.3655
  891MPD2    C213058   2.950   1.357  17.028 -1.2763 -0.3453 -0.6084
  891MPD2    C313059   3.083   1.325  17.051 -0.3227  0.1122 -0.0402
  891MPD2    C413060   3.127   1.201  17.016  0.6104 -0.2519 -0.2391
  891MPD2    C513061   3.048   1.125  16.930 -0.1355 -0.1102  0.4141
  891MPD2     H13062   2.920   1.455  17.063  2.4960  1.4302 -2.3672
  891MPD2    H113063   3.228   1.171  17.040  0.9350 -1.5702 -3.2192
  891MPD2    H213064   2.856   1.115  16.837 -0.3445 -0.7265  1.0821
  891MPD2    H313065   3.093   1.040  16.880 -2.1662 -1.0708  0.2145
  891MPD2     N13066   3.162   1.422  17.120  0.2160  0.3926 -0.3622
  891MPD2    H513067   3.119   1.497  17.173 -0.8428 -0.9842  0.7283
  891MPD2    N113068   2.743   1.340  16.894 -0.4870 -0.2521 -0.2931
  891MPD2    H713069   2.690   1.289  16.824  1.8486 -2.5862 -0.3823
  892MPD2     C13070   3.859   1.958  14.967  0.1993  1.0304  0.8744
  892MPD2    C113071   3.775   2.044  14.891  0.0201  0.0910 -0.1141
  892MPD2    C213072   3.791   2.035  14.755 -0.3323 -0.2501  0.0046
  892MPD2    C313073   3.873   1.938  14.691  0.2830  0.0596  0.3359
  892MPD2    C413074   3.964   1.868  14.770  0.9160  0.0472 -1.1712
  892MPD2    C513075   3.950   1.877  14.906  0.5463 -0.0148  0.5273
  892MPD2     H13076   3.727   2.104  14.701 -0.4123 -0.0093  0.4086
  892MPD2    H113077   4.042   1.805  14.729 -1.1977 -3.3451  0.0773
  892MPD2    H213078   3.860   1.959  15.075  0.5368 -1.5367  0.8926
  892MPD2    H313079   4.014   1.826  14.978 -0.3211 -0.1605  1.1902
  892MPD2     N13080   3.885   1.914  14.551 -0.0340  0.2257 -0.3441
  892MPD2    H513081   3.954   1.845  14.522  0.6731  0.3804  0.9817
  892MPD2    N113082   3.685   2.136  14.935 -0.0773  0.1642 -0.1525
  892MPD2    H713083   3.643   2.198  14.867  0.3815 -0.9525 -1.4549
  893MPD2     C13084   0.763   0.383   2.317 -0.1867 -1.0936  0.1263
  893MPD2    C113085   0.869   0.298   2.306  0.0226  0.2867  0.4374
  893MPD2    C213086   0.860   0.163   2.338 -0.1854  0.3637 -0.9741
  893MPD2    C313087   0.737   0.111   2.387  0.3769 -0.2930 -0.8739
  893MPD2    C413088   0.638   0.197   2.395 -0.3397  0.3181  0.6598
  893MPD2    C513089   0.651   0.329   2.366  0.0175  0.3268  0.3105
  893MPD2     H13090   0.948   0.100   2.331  0.4014  1.1454 -0.6647
  893MPD2    H113091   0.540   0.152   2.404 -0.7440  0.7096 -1.7821
  893MPD2    H213092   0.758   0.488   2.290 -3.8127 -1.6316 -1.2915
  893MPD2    H313093   0.561   0.388   2.377  0.7144  1.1814  1.3533
  893MPD2     N13094   0.694   4.704   2.415 -0.5442  0.2018  0.0028
  893MPD2    H513095   0.600   4.685   2.450 -0.7328 -0.3402 -0.7873
  893MPD2    N113096   0.986   0.350   2.250 -0.4152 -0.2855 -0.1375
  893MPD2    H713097   0.978   0.445   2.215 -0.8758 -0.0856  0.5200
  894MPD2     C13098   4.275   3.343   0.961 -0.7033 -0.5251 -0.3842
  894MPD2    C113099   4.250   3.397   1.085 -0.0448  0.0666  0.0466
  894MPD2    C213100   4.315   3.514   1.123 -0.3058 -0.1055  0.2351
  894MPD2    C313101   4.412   3.576   1.038  0.4319  0.3116  0.7312
  894MPD2    C413102   4.436   3.519   0.916  0.7685  0.2511 -0.0068
  894MPD2    C513103   4.367   3.408   0.879  0.1642  0.4881 -0.2081
  894MPD2     H13104   4.287   3.557   1.218 -0.5681  0.9838 -0.3383
  894MPD2    H113105   4.506   3.554   0.842  1.1792 -2.0913 -0.7177
  894MPD2    H213106   4.216   3.263   0.916 -0.9025 -1.1555  0.9782
  894MPD2    H313107   4.395   3.365   0.784  1.5952  0.2225  0.3397
  894MPD2     N13108   4.475   3.695   1.067  0.2101 -0.1988 -0.0193
  894MPD2    H513109   4.443   3.743   1.150  1.2263 -0.2710  0.4193
  894MPD2    N113110   4.155   3.349   1.171 -0.4548 -0.3551  0.0206
  894MPD2    H713111   4.130   3.403   1.254  0.7603  1.1279 -0.5724
  895MPD2     C13112   3.226   1.384  13.405  0.9218  0.8577  0.5013
  895MPD2    C113113   3.135   1.428  13.307  0.0637  0.1906 -0.4036
  895MPD2    C213114   3.147   1.378  13.175  0.0359  0.5333  0.2528
  895MPD2    C313115   3.249   1.289  13.141  0.2199  0.0404  0.9558
  895MPD2    C413116   3.338   1.243  13.237 -0.3302 -0.0556  0.8637
  895MPD2    C513117   3.311   1.278  13.372 -0.0714 -0.2254 -0.5026
  895MPD2     H13118   3.075   1.402  13.098  1.2367 -0.7691 -1.2717
  895MPD2    H113119   3.418   1.169  13.230 -0.3724 -0.1373  1.2324
  895MPD2    H213120   3.212   1.412  13.509 -2.7379 -0.7363  0.4508
  895MPD2    H313121   3.368   1.242  13.456  1.0209 -0.5325 -1.3825
  895MPD2     N13122   3.255   1.226  13.015  0.1675  0.6376  0.3680
  895MPD2    H513123   3.318   1.148  13.002 -0.1916  0.2224  1.1559
  895MPD2    N113124   3.029   1.525  13.335  0.4130  0.0885  0.1661
  895MPD2    H713125   2.965   1.527  13.256  0.6290 -2.3514 -0.0644
  896MPD2     C13126   1.072   3.979   1.543 -0.0087  0.7729 -0.3540
  896MPD2    C113127   1.045   4.010   1.417 -0.0934 -0.4187  0.6369
  896MPD2    C213128   0.925   3.967   1.355  0.3619  0.1351  0.0722
  896MPD2    C313129   0.833   3.902   1.433  0.3917  0.0178 -0.7187
  896MPD2    C413130   0.855   3.891   1.564 -0.5031 -0.5761 -0.2104
  896MPD2    C513131   0.971   3.927   1.619  0.2046  0.5173  0.0278
  896MPD2     H13132   0.916   3.955   1.248 -1.2324  0.5008  0.1607
  896MPD2    H113133   0.791   3.842   1.636  0.2209 -4.5106 -2.2880
  896MPD2    H213134   1.153   4.019   1.602  1.2451 -0.9862 -0.8824
  896MPD2    H313135   0.976   3.925   1.727 -0.5984 -2.0358  0.0189
  896MPD2     N13136   0.714   3.846   1.370  0.1622  0.0261  0.0322
  896MPD2    H513137   0.691   3.871   1.274 -0.2690  2.6166  0.8112
  896MPD2    N113138   1.150   4.070   1.346  0.0934  0.6741 -0.1637
  896MPD2    H713139   1.235   4.082   1.400 -0.5545 -0.0795  1.0376
  897MPD2     C13140   1.554   0.549  10.523 -0.3996 -0.6888 -0.0425
  897MPD2    C113141   1.480   0.639  10.453 -0.3167  0.3644  0.7608
  897MPD2    C213142   1.351   0.677  10.493 -0.5632 -0.3336 -0.4400
  897MPD2    C313143   1.310   0.652  10.623  0.4037  0.7598 -0.3469
  897MPD2    C413144   1.385   0.574  10.696  0.9419  0.9696  0.3802
  897MPD2    C513145   1.500   0.518  10.647 -0.6419  0.4328 -0.2823
  897MPD2     H13146   1.294   0.741  10.427 -1.0960 -0.0954  0.2521
  897MPD2    H113147   1.355   0.558  10.799 -0.5108  0.8174 -0.0641
  897MPD2    H213148   1.654   0.522  10.493  0.0189  1.3735 -0.4931
  897MPD2    H313149   1.561   0.462  10.717  0.2878 -0.8781 -2.1384
  897MPD2     N13150   1.199   0.716  10.686  0.5501  0.6521 -0.2324
  897MPD2    H513151   1.189   0.698  10.785 -1.0350  0.1157 -0.4762
  897MPD2    N113152   1.550   0.695  10.346 -0.2157  0.5182 -0.2681
  897MPD2    H713153   1.639   0.650  10.326 -0.2868  0.6646 -0.9133
  898MPD2     C13154   3.304   2.255   0.085  0.0403  0.7312  0.2136
  898MPD2    C113155   3.359   2.186  17.671 -0.0635  0.0024  0.5636
  898MPD2    C213156   3.358   2.250  17.546 -0.1363 -1.2101 -0.6626
  898MPD2    C313157   3.291   2.374  17.534  0.5431 -0.8035 -0.7409
  898MPD2    C413158   3.225   2.430  17.645 -0.3993 -0.0022  0.2739
  898MPD2    C513159   3.243   2.371   0.069 -0.7787  0.3609 -0.1545
  898MPD2     H13160   3.404   2.206  17.458  3.2180  0.5973  0.2006
  898MPD2    H113161   3.178   2.528  17.646 -2.6554 -1.0683  0.4127
  898MPD2    H213162   3.295   2.210   0.183  0.5400 -2.3978 -1.1560
  898MPD2    H313163   3.200   2.414   0.159  0.8631  0.1172  0.7394
  898MPD2     N13164   3.306   2.442  17.410 -0.6014 -0.5260  0.1348
  898MPD2    H513165   3.361   2.401  17.335  0.4447 -2.3555  1.8960
  898MPD2    N113166   3.398   2.047  17.677  0.0893 -0.0219  0.0455
  898MPD2    H713167   3.401   1.996  17.589  0.6139  0.0441  0.0272
  899MPD2     C13168   0.211   2.243  17.692  0.6029 -0.1367  0.6186
  899MPD2    C113169   0.164   2.330   0.090 -0.4924 -0.1240 -0.0345
  899MPD2    C213170   0.054   2.298   0.169 -0.0735 -0.7670  0.4037
  899MPD2    C313171   4.717   2.167   0.166 -0.4024 -0.2029  0.3582
  899MPD2    C413172   0.050   2.078   0.080 -0.3989  0.2476  0.2164
  899MPD2    C513173   0.159   2.112  17.690  0.6216 -0.5693  0.4142
  899MPD2     H13174   0.014   2.370   0.240  1.4800 -0.1438  0.6299
  899MPD2    H113175   0.010   1.978   0.090 -1.9239  1.0788  2.4049
  899MPD2    H213176   0.298   2.263  17.631  0.4389  1.0551  0.7788
  899MPD2    H313177   0.202   2.039  17.622 -1.0874 -0.0696 -1.2089
  899MPD2     N13178   4.599   2.123   0.235  0.1396 -0.6329  0.3491
  899MPD2    H513179   4.568   2.028   0.219  1.0497 -0.8667 -0.0250
  899MPD2    N113180   0.218   2.457   0.082 -0.4646  0.5633  0.2010
  899MPD2    H713181   0.274   2.474  17.694 -1.4858  4.1050  0.2331
  900MPD2     C13182   4.134   4.026  12.724  0.7725  0.4559 -0.6129
  900MPD2    C113183   4.060   3.931  12.657  0.6653  0.0249  0.4727
  900MPD2    C213184   3.958   3.975  12.571 -0.9620  0.1267  0.1425
  900MPD2    C313185   3.936   4.108  12.564  0.8762 -0.5413  0.6016
  900MPD2    C413186   4.003   4.203  12.646 -0.0557  0.3158  0.3482
  900MPD2    C513187   4.098   4.165  12.727  0.2361 -0.5795 -0.0124
  900MPD2     H13188   3.893   3.912  12.511  1.1603  0.4870 -2.5188
  900MPD2    H113189   3.965   4.305  12.647 -0.7982  0.0215  1.5394
  900MPD2    H213190   4.220   4.000  12.784 -0.9358 -2.5572  0.5325
  900MPD2    H313191   4.147   4.239  12.790 -1.7050  3.2710 -3.0602
  900MPD2     N13192   3.827   4.146  12.483 -0.5457  0.2228 -0.2496
  900MPD2    H513193   3.773   4.073  12.438 -0.4201  0.0275 -0.0805
  900MPD2    N113194   4.112   3.805  12.668 -0.0109  0.2602 -0.9521
  900MPD2    H713195   4.189   3.794  12.734  0.5065 -1.6402 -1.8846
  901MPD2     C13196   4.062   2.707  12.696 -0.5299 -0.0204  0.3830
  901MPD2    C113197   4.171   2.745  12.624  0.7099 -0.6011  0.3820
  901MPD2    C213198   4.194   2.881  12.610 -0.3457 -0.4450 -0.0214
  901MPD2    C313199   4.115   2.969  12.676 -0.2713  0.5631  0.2419
  901MPD2    C413200   4.005   2.926  12.745  0.2636 -0.2995 -0.5229
  901MPD2    C513201   3.973   2.792  12.747  0.4242  0.6729  0.3374
  901MPD2     H13202   4.283   2.915  12.559  1.1609 -0.3798  2.6828
  901MPD2    H113203   3.946   2.987  12.813  0.1488 -0.1035 -0.7984
  901MPD2    H213204   4.047   2.603  12.724 -0.6327 -1.1051 -3.7110
  901MPD2    H313205   3.887   2.761  12.805  0.3642 -0.1849 -0.2044
  901MPD2     N13206   4.158   3.105  12.682  0.1892 -0.0549 -0.2424
  901MPD2    H513207   4.246   3.131  12.638  0.1575 -0.4661 -0.5430
  901MPD2    N113208   4.261   2.646  12.576  0.4853  0.1253 -0.1611
  901MPD2    H713209   4.221   2.553  12.588  0.1772  0.7300  3.6430
  902MPD2     C13210   2.886   1.866  13.076  0.1663  0.6108  0.0381
  902MPD2    C113211   2.966   1.899  13.179  0.2762 -0.1644 -0.4996
  902MPD2    C213212   3.093   1.834  13.192  0.5935 -0.0837  1.6561
  902MPD2    C313213   3.127   1.741  13.096  0.9670 -0.8177 -0.1470
  902MPD2    C413214   3.034   1.700  13.007 -0.6516  0.2332 -0.3521
  902MPD2    C513215   2.910   1.758  12.997  0.3681  0.0572 -0.4132
  902MPD2     H13216   3.159   1.868  13.271  1.6847  0.0250  0.6917
  902MPD2    H113217   3.051   1.629  12.928  1.8109  1.1830 -0.6784
  902MPD2    H213218   2.804   1.932  13.051 -0.5251 -0.6821 -1.1224
  902MPD2    H313219   2.838   1.731  12.921  0.3869 -3.7943  0.9548
  902MPD2     N13220   3.251   1.689  13.077 -0.4192 -0.1703  0.4376
  902MPD2    H513221   3.277   1.635  12.995  0.6301 -1.5795  1.6897
  902MPD2    N113222   2.936   2.025  13.239  0.0112 -0.9095  0.2114
  902MPD2    H713223   2.846   2.064  13.213  0.1020 -0.2796  0.8328
  903MPD2     C13224   3.674   2.243  13.081  0.1674 -0.3374  0.5447
  903MPD2    C113225   3.632   2.151  12.988  0.1638 -0.0809  0.2796
  903MPD2    C213226   3.544   2.199  12.891 -0.2800  0.3734 -0.3186
  903MPD2    C313227   3.505   2.334  12.885  0.1850 -0.7064  0.7424
  903MPD2    C413228   3.555   2.423  12.985 -0.1036 -0.3223 -0.2525
  903MPD2    C513229   3.639   2.377  13.085  0.4955 -0.3285 -0.1533
  903MPD2     H13230   3.503   2.129  12.820 -0.1527 -0.3350  0.3003
  903MPD2    H113231   3.528   2.528  12.985 -1.0355 -0.5655 -1.3354
  903MPD2    H213232   3.752   2.214  13.150  1.8633  0.8611 -0.8687
  903MPD2    H313233   3.690   2.454  13.141  0.5919 -1.0101  0.7021
  903MPD2     N13234   3.413   2.373  12.780 -0.5829 -0.0547 -0.4364
  903MPD2    H513235   3.399   2.298  12.713 -0.0779 -0.9238  0.4333
  903MPD2    N113236   3.673   2.023  12.995  0.3504  0.1153  0.1668
  903MPD2    H713237   3.723   1.996  13.079 -1.5040 -0.3291  1.1306
  904MPD2     C13238   3.306   0.907  13.546 -0.0349 -0.2809 -0.7915
  904MPD2    C113239   3.229   1.015  13.589  0.6535 -0.5884  0.2945
  904MPD2    C213240   3.265   1.090  13.699  0.1369  1.1539  0.6389
  904MPD2    C313241   3.380   1.062  13.769  0.3701 -0.1554  0.4599
  904MPD2    C413242   3.462   0.961  13.736 -0.3550 -0.1572 -0.5553
  904MPD2    C513243   3.417   0.883  13.628  0.1327  0.1750 -0.1427
  904MPD2     H13244   3.207   1.176  13.731  0.4301  1.1099  1.2947
  904MPD2    H113245   3.555   0.933  13.784 -1.2593 -0.0481  1.2915
  904MPD2    H213246   3.280   0.840  13.464 -1.0966 -2.3549  1.2501
  904MPD2    H313247   3.483   0.805  13.592 -0.4301 -0.1541 -0.4711
  904MPD2     N13248   3.419   1.155  13.866  0.3039  0.4098 -0.3825
  904MPD2    H513249   3.357   1.224  13.906  1.4232 -0.4636  2.8707
  904MPD2    N113250   3.111   1.058  13.514 -0.3237  0.2673  0.1406
  904MPD2    H713251   3.063   1.146  13.530  0.6778  0.5174  1.7466
  905MPD2     C13252   2.873   0.899  12.752  0.4312  0.1404  0.1023
  905MPD2    C113253   2.861   1.024  12.811 -1.0046 -0.1637  0.2138
  905MPD2    C213254   2.915   1.126  12.735  0.2298 -0.4581 -0.3298
  905MPD2    C313255   2.971   1.095  12.609  0.4040 -0.5080  0.0406
  905MPD2    C413256   2.961   0.974  12.551 -0.2027  0.0601 -0.1160
  905MPD2    C513257   2.912   0.874  12.625 -0.3004 -0.3875  0.4850
  905MPD2     H13258   2.927   1.223  12.780  0.3544  1.0512 -3.6339
  905MPD2    H113259   3.005   0.951  12.454  0.1664  2.2136 -0.4526
  905MPD2    H213260   2.847   0.813  12.813  0.6521 -2.2706 -3.2421
  905MPD2    H313261   2.909   0.773  12.586 -0.0883 -0.3662  0.4103
  905MPD2     N13262   3.041   1.205  12.550 -0.4687 -0.1021  0.0040
  905MPD2    H513263   3.047   1.295  12.595 -1.1058 -0.0915  0.0742
  905MPD2    N113264   2.828   1.038  12.947  0.0352 -0.3728  0.1663
  905MPD2    H713265   2.841   0.950  12.995 -0.8852  0.0094  1.1281
  906MPD2     C13266   4.556   0.866  11.239  0.7239 -0.5465 -0.2491
  906MPD2    C113267   4.543   0.769  11.148  0.4793  0.1810  0.1171
  906MPD2    C213268   4.473   0.657  11.178 -0.6189 -0.1372 -0.4757
  906MPD2    C313269   4.423   0.638  11.308  0.0437 -0.2763 -0.2806
  906MPD2    C413270   4.441   0.734  11.402  0.1814 -0.2160 -0.1327
  906MPD2    C513271   4.502   0.850  11.365  0.5842  0.3481  0.2827
  906MPD2     H13272   4.459   0.581  11.102  0.4964 -1.5814  0.7753
  906MPD2    H113273   4.402   0.726  11.503 -1.0883 -0.6617 -0.6550
  906MPD2    H213274   4.613   0.956  11.221 -0.7741  0.4034 -0.1668
  906MPD2    H313275   4.516   0.933  11.434  0.4555  1.2992 -0.8334
  906MPD2     N13276   4.357   0.519  11.329 -0.8222  0.4931 -0.0689
  906MPD2    H513277   4.338   0.467  11.244 -1.7487 -0.9281  1.0153
  906MPD2    N113278   4.595   0.778  11.017  0.2479 -0.1410  0.9000
  906MPD2    H713279   4.596   0.687  10.974 -1.0600 -0.6615  1.9809
  907MPD2     C13280   4.390   0.490  15.935 -0.0594 -0.5909 -0.0169
  907MPD2    C113281   4.392   0.352  15.903  0.5502  0.4585 -0.4009
  907MPD2    C213282   4.448   0.262  15.988 -0.4055  0.1351 -0.2919
  907MPD2    C313283   4.500   0.309  16.106  0.6858  0.3596 -0.6124
  907MPD2    C413284   4.512   0.444  16.134 -0.1659  0.0480  0.3698
  907MPD2    C513285   4.452   0.539  16.051 -0.1489 -0.1923 -0.6616
  907MPD2     H13286   4.441   0.156  15.968 -0.3072 -0.0434  0.6187
  907MPD2    H113287   4.568   0.479  16.220  1.6427 -0.2181 -0.6975
  907MPD2    H213288   4.364   0.566  15.862 -3.2080 -2.6088 -0.9580
  907MPD2    H313289   4.448   0.643  16.080 -2.2309 -0.4686  0.0523
  907MPD2     N13290   4.552   0.212  16.198 -0.2082 -0.2278  0.8344
  907MPD2    H513291   4.554   0.118  16.160 -0.4311  0.5077 -1.0367
  907MPD2    N113292   4.328   0.296  15.791 -0.5595  0.0918 -0.2177
  907MPD2    H713293   4.334   0.196  15.781  0.9398  0.3569 -1.8658
  908MPD2     C13294   2.019   0.353   9.702 -0.1008  1.2940 -0.3559
  908MPD2    C113295   1.971   0.322   9.831  0.0204  0.3157 -0.1756
  908MPD2    C213296   1.913   0.416   9.910  0.3411  0.4461  0.6694
  908MPD2    C313297   1.891   0.543   9.859 -0.5224  0.4134 -0.2851
  908MPD2    C413298   1.945   0.571   9.732 -0.1806 -0.1862 -0.4817
  908MPD2    C513299   2.011   0.482   9.656  0.6513  0.2479 -0.1932
  908MPD2     H13300   1.860   0.399  10.003 -0.4122 -0.4885  0.0788
  908MPD2    H113301   1.948   0.672   9.694 -0.9256 -0.1733 -0.5241
  908MPD2    H213302   2.080   0.275   9.656 -0.6531  1.7978 -1.9283
  908MPD2    H313303   2.049   0.509   9.558 -2.0436 -1.9676 -1.8350
  908MPD2     N13304   1.825   0.635   9.938 -0.4276  0.7126  0.6275
  908MPD2    H513305   1.811   0.611  10.036 -0.5116  0.4420  0.5476
  908MPD2    N113306   1.982   0.187   9.870 -0.2519 -0.1495  0.2737
  908MPD2    H713307   2.023   0.131   9.795  1.7540 -0.3315  1.4869
  909MPD2     C13308   1.905   3.441  11.744 -0.7821 -0.3896 -0.0365
  909MPD2    C113309   1.936   3.568  11.699 -0.0907 -0.5173 -0.1587
  909MPD2    C213310   1.893   3.683  11.763 -0.5902 -0.1781 -0.1114
  909MPD2    C313311   1.812   3.668  11.874 -0.2311  0.3527  0.2234
  909MPD2    C413312   1.783   3.540  11.915  0.5105  0.0865  0.7615
  909MPD2    C513313   1.826   3.426  11.852  0.0279 -0.6721 -0.7429
  909MPD2     H13314   1.916   3.779  11.718  0.4166 -1.3462 -2.0674
  909MPD2    H113315   1.715   3.525  11.997  1.1663 -0.9057  1.1285
  909MPD2    H213316   1.936   3.348  11.697  0.3383  0.1822 -0.4276
  909MPD2    H313317   1.797   3.328  11.887  0.1678 -0.3932  0.1565
  909MPD2     N13318   1.759   3.784  11.937 -0.6550 -0.5634 -0.5462
  909MPD2    H513319   1.787   3.875  11.904 -2.7902  0.7569  1.2522
  909MPD2    N113320   2.017   3.595  11.592  0.4770  0.5852 -0.6857
  909MPD2    H713321   2.033   3.692  11.569  0.8075  0.6295 -0.2664
  910MPD2     C13322   2.905   1.097  16.126  0.1371 -0.1192  0.5915
  910MPD2    C113323   3.016   1.090  16.040 -0.2600  0.5096 -0.2365
  910MPD2    C213324   2.992   1.118  15.912 -0.5867 -0.2649  0.1595
  910MPD2    C313325   2.864   1.147  15.860 -0.5088  0.3798 -0.3008
  910MPD2    C413326   2.758   1.166  15.943 -0.1763  0.4984  0.3149
  910MPD2    C513327   2.779   1.134  16.078 -0.3566  0.0484 -0.4066
  910MPD2     H13328   3.082   1.127  15.852 -0.8376 -0.5588 -0.2552
  910MPD2    H113329   2.655   1.185  15.916  0.1940  0.0427 -1.4785
  910MPD2    H213330   2.910   1.056  16.226 -1.6327 -0.6471  0.4623
  910MPD2    H313331   2.701   1.144  16.153  0.1301 -0.2931  0.1416
  910MPD2     N13332   2.832   1.166  15.720  0.1495 -0.3296 -0.8102
  910MPD2    H513333   2.735   1.190  15.705 -0.3147 -0.6968  1.6490
  910MPD2    N113334   3.146   1.053  16.076 -0.6986 -0.3716  0.3696
  910MPD2    H713335   3.218   1.051  16.004 -0.9543  0.4093  0.0962
  911MPD2     C13336   1.342   1.081  16.322  0.7836  0.2031  0.3872
  911MPD2    C113337   1.343   1.154  16.439  0.5602  0.0732  0.3394
  911MPD2    C213338   1.246   1.250  16.456  0.5636 -0.6739  0.8107
  911MPD2    C313339   1.144   1.267  16.366 -0.6962 -0.8874  0.3188
  911MPD2    C413340   1.153   1.201  16.242 -0.3946  0.3266 -0.5326
  911MPD2    C513341   1.255   1.110  16.219  0.2044  0.8099 -0.3486
  911MPD2     H13342   1.242   1.310  16.546 -1.6989 -0.9636  0.9209
  911MPD2    H113343   1.083   1.233  16.165 -2.8156 -0.3702  1.3904
  911MPD2    H213344   1.410   0.998  16.306 -1.9214 -1.7307 -1.2352
  911MPD2    H313345   1.252   1.054  16.126 -0.4079 -0.5109  0.4554
  911MPD2     N13346   1.033   1.346  16.384 -0.2198  0.6323 -0.0280
  911MPD2    H513347   0.953   1.332  16.322 -1.6832  3.4418  1.2227
  911MPD2    N113348   1.437   1.106  16.532  0.3874 -0.1086  0.8176
  911MPD2    H713349   1.512   1.050  16.494 -0.1972  0.4383 -1.1170
  912MPD2     C13350   0.856   1.332  15.897  0.1553 -0.1125 -0.7593
  912MPD2    C113351   0.807   1.295  16.021 -1.0835 -0.1366 -0.1636
  912MPD2    C213352   0.817   1.161  16.058 -0.0524 -0.3566  0.1240
  912MPD2    C313353   0.849   1.065  15.973  0.3400 -0.5641  0.4106
  912MPD2    C413354   0.866   1.099  15.846  0.9668 -0.4840 -0.1983
  912MPD2    C513355   0.876   1.229  15.806  0.0235  0.2224 -0.8557
  912MPD2     H13356   0.780   1.123  16.153  1.7629 -1.8913  0.2030
  912MPD2    H113357   0.889   1.021  15.774 -0.3891 -0.7496 -0.3411
  912MPD2    H213358   0.858   1.436  15.866  2.6654  0.9043  2.7674
  912MPD2    H313359   0.904   1.255  15.705  3.4586  1.1966  0.3683
  912MPD2     N13360   0.863   0.928  16.021  0.2437 -0.0808 -0.1092
  912MPD2    H513361   0.871   0.930  16.122  0.7354 -2.1527 -0.0930
  912MPD2    N113362   0.769   1.399  16.108  0.0193  0.0255 -0.3499
  912MPD2    H713363   0.783   1.494  16.075  2.9992 -0.7535 -1.3170
  913MPD2     C13364   1.314   2.853  10.066 -0.5893  0.2124 -0.5385
  913MPD2    C113365   1.399   2.816  10.169 -0.4479  0.1431  0.0480
  913MPD2    C213366   1.468   2.921  10.231 -0.3975 -0.1927 -0.4800
  913MPD2    C313367   1.451   3.057  10.190  0.2409 -0.4957 -0.9635
  913MPD2    C413368   1.360   3.090  10.092 -0.1730  0.5777  0.4322
  913MPD2    C513369   1.304   2.982  10.027 -0.5073 -0.1421  0.2990
  913MPD2     H13370   1.534   2.898  10.314 -0.0383 -0.7860 -0.9301
  913MPD2    H113371   1.341   3.192  10.060  3.4618  0.4188 -2.2429
  913MPD2    H213372   1.256   2.788  10.001 -0.8923  2.8907 -2.9155
  913MPD2    H313373   1.232   3.005   9.949  1.3114  0.9572 -1.0405
  913MPD2     N13374   1.517   3.154  10.268 -0.5995  0.3754  0.2204
  913MPD2    H513375   1.582   3.114  10.335 -0.7879  0.9786  0.7556
  913MPD2    N113376   1.405   2.680  10.202 -0.5515 -0.4135 -0.8850
  913MPD2    H713377   1.361   2.610  10.143 -1.3434  1.3526 -2.3807
  914MPD2     C13378   0.016   2.544  11.684  0.8426  0.6150  0.4164
  914MPD2    C113379   4.714   2.654  11.766 -0.0122  1.0001  0.1506
  914MPD2    C213380   4.664   2.632  11.894 -0.2224  0.0015  0.0645
  914MPD2    C313381   4.620   2.511  11.936 -0.2561  0.5682 -0.4745
  914MPD2    C413382   4.633   2.407  11.850  0.1842 -0.1584 -0.1346
  914MPD2    C513383   4.695   2.421  11.730  0.0566 -0.6434 -0.8366
  914MPD2     H13384   4.655   2.710  11.968 -0.5492  0.7984 -0.8240
  914MPD2    H113385   4.591   2.311  11.878  0.0351 -0.0506  0.0159
  914MPD2    H213386   0.058   2.547  11.584 -0.7988 -1.4366 -0.3363
  914MPD2    H313387   4.718   2.331  11.674  1.7136 -1.4294  1.1032
  914MPD2     N13388   4.578   2.505  12.068  0.2119  0.5684 -0.0892
  914MPD2    H513389   4.605   2.582  12.128  1.8491 -0.7561  0.8493
  914MPD2    N113390   0.044   2.784  11.721 -0.6638  0.7551 -0.4306
  914MPD2    H713391   0.071   2.792  11.624  0.4627 -1.0242 -0.2641
  915MPD2     C13392   2.224   2.776  15.578 -0.3398 -0.3728  0.1676
  915MPD2    C113393   2.195   2.909  15.609  0.7550  0.6827 -0.4136
  915MPD2    C213394   2.157   2.934  15.740  0.1621  0.2422 -0.4469
  915MPD2    C313395   2.135   2.833  15.832 -0.9045  0.9757  0.1047
  915MPD2    C413396   2.146   2.702  15.786  0.1560  0.3603 -0.3260
  915MPD2    C513397   2.197   2.669  15.659 -0.1982 -0.0091  0.5130
  915MPD2     H13398   2.159   3.035  15.781 -0.7614  0.8986 -2.0012
  915MPD2    H113399   2.107   2.618  15.842 -1.6223 -0.9446 -3.5078
  915MPD2    H213400   2.248   2.742  15.478  1.5797 -1.4315  0.9813
  915MPD2    H313401   2.206   2.565  15.627  0.2427  0.2225 -0.1342
  915MPD2     N13402   2.097   2.876  15.960  0.7911  0.0822  0.1123
  915MPD2    H513403   2.063   2.971  15.974  1.1336  0.1346  0.5642
  915MPD2    N113404   2.209   3.002  15.506  0.1357 -0.4674 -0.7829
  915MPD2    H713405   2.252   2.964  15.422 -1.5441 -1.5259 -1.1626
  916MPD2     C13406   0.572   1.111  15.516  0.2831 -0.1063  0.1147
  916MPD2    C113407   0.541   1.029  15.621  0.5905 -0.2458  0.7865
  916MPD2    C213408   0.548   0.895  15.592 -0.6759 -0.5486 -0.0460
  916MPD2    C313409   0.587   0.841  15.468 -0.6333 -0.0141  1.2030
  916MPD2    C413410   0.614   0.926  15.365  0.0063  0.8584  0.1453
  916MPD2    C513411   0.606   1.061  15.391 -0.5484 -0.7123  0.0300
  916MPD2     H13412   0.527   0.825  15.672 -1.4624 -0.6330 -0.3251
  916MPD2    H113413   0.650   0.885  15.272  2.2358  0.1470  1.3179
  916MPD2    H213414   0.549   1.216  15.527  1.8204  0.2393 -0.0229
  916MPD2    H313415   0.636   1.132  15.315  2.2765  0.1080  1.9418
  916MPD2     N13416   0.614   0.701  15.460 -0.9438 -0.4572  0.1582
  916MPD2    H513417   0.590   0.646  15.542  0.0133 -2.3411 -0.8519
  916MPD2    N113418   0.502   1.082  15.750 -0.0200 -0.1222 -0.1031
  916MPD2    H713419   0.498   1.183  15.759  1.4862 -0.1141  0.4385
  917MPD2     C13420   1.144   3.249  11.629 -0.2297  0.2543 -0.0205
  917MPD2    C113421   1.026   3.204  11.577  0.1928 -0.7616  0.3767
  917MPD2    C213422   1.024   3.159  11.445  0.0456 -0.2322  0.3087
  917MPD2    C313423   1.135   3.181  11.362 -0.3648  0.3746  0.1433
  917MPD2    C413424   1.247   3.236  11.418 -0.8163  0.0520 -0.5234
  917MPD2    C513425   1.255   3.249  11.555 -0.4443  0.0433 -0.4030
  917MPD2     H13426   0.930   3.117  11.410 -1.4754  1.9472  1.7454
  917MPD2    H113427   1.333   3.256  11.356 -1.5348  2.1928 -0.8193
  917MPD2    H213428   1.148   3.287  11.731 -0.9014  0.8474 -0.2153
  917MPD2    H313429   1.348   3.275  11.604 -1.0368 -0.9317  1.2169
  917MPD2     N13430   1.136   3.143  11.226  0.1598 -0.3270 -0.2205
  917MPD2    H513431   1.225   3.152  11.177  0.4136 -0.1026  0.2782
  917MPD2    N113432   0.911   3.179  11.657  0.6776 -0.0420 -0.2891
  917MPD2    H713433   0.839   3.130  11.605 -0.0938  0.8214 -0.0250
  918MPD2     C13434   0.521   3.838  12.213  1.3768 -0.3826  0.3742
  918MPD2    C113435   0.641   3.805  12.159  0.3559 -0.0697  0.1012
  918MPD2    C213436   0.655   3.688  12.088 -0.6517 -0.7564  0.7352
  918MPD2    C313437   0.559   3.592  12.087 -0.1153  0.2078  0.3504
  918MPD2    C413438   0.440   3.621  12.155  0.4387 -0.3348  1.0606
  918MPD2    C513439   0.415   3.750  12.197  0.3545  0.7752 -0.5253
  918MPD2     H13440   0.754   3.670  12.046 -0.9739  0.7945 -0.7117
  918MPD2    H113441   0.353   3.558  12.164 -0.7436  1.3209  1.3480
  918MPD2    H213442   0.503   3.934  12.260  1.7190 -0.5123  0.7711
  918MPD2    H313443   0.318   3.770  12.239  0.2526  0.5028 -0.6314
  918MPD2     N13444   0.586   3.465  12.028  0.1410  0.1947 -0.2340
  918MPD2    H513445   0.678   3.462  11.985 -0.2712 -0.2188 -1.0865
  918MPD2    N113446   0.760   3.888  12.171  0.2264 -0.4311  0.2965
  918MPD2    H713447   0.848   3.851  12.138  0.8857  1.2702  0.1248
  919MPD2     C13448   1.464   2.575  11.297 -0.1126  0.2595 -0.4314
  919MPD2    C113449   1.371   2.469  11.314 -0.3187 -0.4837  0.9272
  919MPD2    C213450   1.312   2.414  11.204 -0.3623 -0.3848 -0.0409
  919MPD2    C313451   1.339   2.455  11.078 -0.6689 -0.5049 -0.6141
  919MPD2    C413452   1.440   2.549  11.058 -0.2415 -0.1686 -0.7180
  919MPD2    C513453   1.500   2.602  11.167 -0.1588  0.0336 -0.8509
  919MPD2     H13454   1.229   2.344  11.215 -0.9315  0.4052  0.6714
  919MPD2    H113455   1.465   2.573  10.955 -0.2892  1.3082 -0.3874
  919MPD2    H213456   1.532   2.604  11.376  1.2596 -5.2934  0.4278
  919MPD2    H313457   1.591   2.660  11.154 -1.2658  1.7096 -1.1021
  919MPD2     N13458   1.270   2.398  10.962  0.0190  0.2984  0.4358
  919MPD2    H513459   1.287   2.448  10.876  1.6200 -2.4596 -0.8307
  919MPD2    N113460   1.358   2.402  11.439 -0.4572 -0.0517  0.0227
  919MPD2    H713461   1.303   2.316  11.438  0.0679 -0.4153  1.2319
  920MPD2     C13462   0.890   2.688  10.087 -0.3974  0.2096 -0.3030
  920MPD2    C113463   0.799   2.597  10.138  0.1095  0.4420 -0.1176
  920MPD2    C213464   0.841   2.524  10.243 -0.0499 -0.9051  0.0850
  920MPD2    C313465   0.953   2.544  10.319  0.5626 -0.4149 -0.8585
  920MPD2    C413466   1.031   2.649  10.276 -0.1406  0.6675 -0.2115
  920MPD2    C513467   1.005   2.714  10.163  0.8088 -0.4578  0.0950
  920MPD2     H13468   0.772   2.446  10.273 -3.3662  1.3848 -1.5989
  920MPD2    H113469   1.115   2.681  10.336 -0.3541  0.1348  0.3779
  920MPD2    H213470   0.865   2.750  10.001 -1.6231  0.7428  0.4372
  920MPD2    H313471   1.076   2.786  10.124 -0.5262 -0.9926 -3.2440
  920MPD2     N13472   0.969   2.459  10.431  0.7481 -0.4835  0.1015
  920MPD2    H513473   0.905   2.383  10.449  2.1314 -1.0282  2.7088
  920MPD2    N113474   0.675   2.562  10.079 -0.0873 -0.0575  0.1991
  920MPD2    H713475   0.618   2.484  10.110 -2.3095  1.2610 -0.5684
  921MPD2     C13476   2.055   1.518  17.245  0.5308 -0.6011 -0.1255
  921MPD2    C113477   2.059   1.496  17.108 -0.0457  0.4645 -0.4563
  921MPD2    C213478   1.964   1.412  17.048 -0.1991  0.0171  0.2669
  921MPD2    C313479   1.874   1.346  17.120  0.9251 -0.7482 -0.3958
  921MPD2    C413480   1.883   1.359  17.255 -0.4279 -0.0566  0.4493
  921MPD2    C513481   1.972   1.437  17.321  0.0067 -0.3131  1.2670
  921MPD2     H13482   1.966   1.396  16.940 -3.7936  0.0005  0.2153
  921MPD2    H113483   1.819   1.298  17.316  0.1645 -1.0387  0.0908
  921MPD2    H213484   2.130   1.583  17.289 -0.3604  1.4969 -1.7291
  921MPD2    H313485   1.976   1.441  17.429 -0.0043  1.8896  1.1828
  921MPD2     N13486   1.790   1.250  17.063 -0.1918 -0.0680 -0.6375
  921MPD2    H513487   1.716   1.215  17.122 -0.2523 -1.2717 -1.4213
  921MPD2    N113488   2.174   1.550  17.029 -0.0284  0.6998 -0.1783
  921MPD2    H713489   2.243   1.600  17.084 -0.1114  2.0477 -1.3105
  922MPD2     C13490   3.203   3.780   0.256  0.4615  0.3943 -0.1454
  922MPD2    C113491   3.225   3.768   0.122 -0.2794  0.5401  0.0071
  922MPD2    C213492   3.119   3.725   0.044 -0.0536 -0.1193 -0.2653
  922MPD2    C313493   3.003   3.673   0.099 -0.6925 -0.3036  0.5884
  922MPD2    C413494   2.992   3.664   0.239 -0.6605  0.0104  0.4827
  922MPD2    C513495   3.100   3.710   0.314  0.3393 -0.7892 -0.9893
  922MPD2     H13496   3.117   3.747  17.634  0.7748  0.9796 -0.0439
  922MPD2    H113497   2.909   3.623   0.295  0.4141 -1.5147  0.9594
  922MPD2    H213498   3.278   3.817   0.325 -0.3994  3.0719 -0.6581
  922MPD2    H313499   3.103   3.714   0.422 -0.4707 -0.8987 -0.9629
  922MPD2     N13500   2.897   3.629   0.017  0.6199 -0.0870  0.8064
  922MPD2    H513501   2.917   3.651  17.615 -2.0016  0.8273  0.4692
  922MPD2    N113502   3.336   3.821   0.056 -0.3871 -0.0262  0.1943
  922MPD2    H713503   3.337   3.801  17.652 -1.2624 -0.0482  0.1869
  923MPD2     C13504   4.393   0.928   8.961  0.0479  0.1777  0.3955
  923MPD2    C113505   4.353   0.997   9.071 -0.7650  0.6089  0.2093
  923MPD2    C213506   4.427   0.983   9.184 -0.5900 -0.0591 -0.3553
  923MPD2    C313507   4.534   0.896   9.193 -0.7424  0.1308  0.1641
  923MPD2    C413508   4.583   0.835   9.079 -0.5635 -0.8607 -0.4751
  923MPD2    C513509   4.509   0.845   8.963  0.4224  0.1613 -0.5342
  923MPD2     H13510   4.399   1.047   9.267  0.6774 -0.1420  0.1311
  923MPD2    H113511   4.665   0.764   9.083  0.5566  0.3217 -3.0464
  923MPD2    H213512   4.330   0.918   8.873  0.0795 -2.0974  0.6307
  923MPD2    H313513   4.524   0.769   8.887  1.9212  0.3121 -0.3942
  923MPD2     N13514   4.607   0.869   9.309  0.9781 -0.1776  0.6974
  923MPD2    H513515   4.688   0.808   9.305 -0.5311 -2.0359 -1.9613
  923MPD2    N113516   4.237   1.078   9.055 -0.2233  0.3689 -0.2934
  923MPD2    H713517   4.206   1.106   8.963 -3.0975  1.2821  0.9402
  924MPD2     C13518   4.173   4.277  16.018 -0.3985  0.7650 -0.2524
  924MPD2    C113519   4.180   4.412  16.025 -0.1420 -0.4468  0.1808
  924MPD2    C213520   4.299   4.470  16.058 -0.1716 -0.1890 -0.4373
  924MPD2    C313521   4.411   4.396  16.103  0.4663  0.4728 -0.2053
  924MPD2    C413522   4.393   4.258  16.105  0.4843 -0.0177 -0.3415
  924MPD2    C513523   4.281   4.197  16.056  0.3239 -0.3244 -0.1403
  924MPD2     H13524   4.304   4.576  16.039  2.7739 -0.7089 -2.5109
  924MPD2    H113525   4.480   4.199  16.128  0.9334  0.4684 -0.7996
  924MPD2    H213526   4.088   4.223  15.979  1.0295  0.0761 -2.4452
  924MPD2    H313527   4.273   4.090  16.041 -1.5768 -0.3225  0.8596
  924MPD2     N13528   4.538   4.446  16.138  0.4568 -0.7652  0.0041
  924MPD2    H513529   4.608   4.388  16.182  0.4936 -1.3387 -0.8118
  924MPD2    N113530   4.072   4.501  15.988 -0.1910  0.2849 -0.5064
  924MPD2    H713531   4.094   4.599  16.001 -0.7423  0.0608  2.1539
  925MPD2     C13532   2.519   1.720  14.780 -0.0298 -0.1231  0.1625
  925MPD2    C113533   2.452   1.843  14.776 -0.0211  0.7058  0.1497
  925MPD2    C213534   2.416   1.905  14.893 -0.3928 -0.1804  0.1066
  925MPD2    C313535   2.473   1.869  15.011  1.0467 -0.0757 -0.3637
  925MPD2    C413536   2.550   1.755  15.015 -0.6589  0.0825  0.3013
  925MPD2    C513537   2.571   1.685  14.900  0.2146 -0.5772  0.1997
  925MPD2     H13538   2.356   1.995  14.885  0.9876  0.9031  2.0656
  925MPD2    H113539   2.603   1.722  15.104 -0.9651 -1.2873 -0.0307
  925MPD2    H213540   2.558   1.668  14.693 -0.8303 -1.2640  0.4721
  925MPD2    H313541   2.627   1.592  14.902 -1.1422 -1.4039  0.0594
  925MPD2     N13542   2.457   1.930  15.137  0.2286  0.5788 -0.0659
  925MPD2    H513543   2.480   1.870  15.216  1.5838  1.2163  0.0132
  925MPD2    N113544   2.401   1.902  14.657  0.3172  0.5018  0.5929
  925MPD2    H713545   2.356   1.989  14.683  1.0505  1.6533 -1.9797
  926MPD2     C13546   2.139   0.395  13.531 -0.6457 -0.3152  0.6936
  926MPD2    C113547   2.082   0.507  13.596 -0.1377  0.0709 -0.7913
  926MPD2    C213548   2.033   0.614  13.518 -0.0131 -1.1242  0.2573
  926MPD2    C313549   2.046   0.612  13.384  0.2584 -0.1515  0.0087
  926MPD2    C413550   2.110   0.503  13.319  0.8351 -0.2002 -0.5630
  926MPD2    C513551   2.164   0.400  13.396 -0.2433  0.4835  0.5819
  926MPD2     H13552   1.987   0.691  13.578  1.8104 -0.4566  0.8137
  926MPD2    H113553   2.116   0.508  13.211 -1.8811 -1.9134 -0.8077
  926MPD2    H213554   2.172   0.304  13.581  0.6675 -1.2402 -1.8877
  926MPD2    H313555   2.214   0.316  13.350 -0.5256  0.3597  0.4989
  926MPD2     N13556   2.007   0.724  13.303  0.1213 -0.0958 -0.3735
  926MPD2    H513557   2.018   0.722  13.203 -0.4758 -2.6022 -0.4039
  926MPD2    N113558   2.066   0.516  13.736 -0.9338 -0.5020 -0.2828
  926MPD2    H713559   2.030   0.605  13.769 -2.0889 -0.7406 -0.9020
  927MPD2     C13560   1.060   2.813   0.661  0.6886 -0.7770 -0.0533
  927MPD2    C113561   1.041   2.675   0.634  0.4346 -0.5000  0.5556
  927MPD2    C213562   1.051   2.627   0.503  0.0869  0.4850 -0.1122
  927MPD2    C313563   1.083   2.714   0.396  0.2454  0.1526 -0.0368
  927MPD2    C413564   1.097   2.851   0.427  0.0433 -0.4540 -0.1337
  927MPD2    C513565   1.082   2.896   0.556 -0.3744 -0.1333 -0.0192
  927MPD2     H13566   1.043   2.523   0.476 -1.7052  1.0275 -1.6779
  927MPD2    H113567   1.123   2.925   0.352 -0.2173 -0.8399 -0.6139
  927MPD2    H213568   1.039   2.847   0.762  1.6168  0.7131 -0.3753
  927MPD2    H313569   1.101   3.000   0.580  0.4128 -0.6319  1.5089
  927MPD2     N13570   1.096   2.663   0.264  0.3048  0.0685 -0.0422
  927MPD2    H513571   1.111   2.563   0.257 -0.5982 -0.0858  0.1833
  927MPD2    N113572   1.018   2.592   0.743 -0.5339 -0.1685  0.0907
  927MPD2    H713573   1.009   2.642   0.832 -1.5708 -0.7703  0.3270
  928MPD2     C13574   3.474   1.181   0.896  0.8289  0.1093  0.7257
  928MPD2    C113575   3.600   1.176   0.947  0.3764 -0.2197  0.2344
  928MPD2    C213576   3.708   1.143   0.866  0.7937 -0.6600  0.2467
  928MPD2    C313577   3.679   1.133   0.728  0.2269 -0.2417 -0.0441
  928MPD2    C413578   3.554   1.148   0.682  0.3628 -0.0447 -0.6180
  928MPD2    C513579   3.449   1.167   0.767 -0.0963  0.3446 -0.2105
  928MPD2     H13580   3.810   1.131   0.901 -0.1857 -0.5712  3.1243
  928MPD2    H113581   3.534   1.144   0.575  0.8207  0.8539 -0.7380
  928MPD2    H213582   3.385   1.199   0.956 -0.1955 -3.2279  0.1739
  928MPD2    H313583   3.350   1.152   0.727 -0.7974 -1.7401  2.3067
  928MPD2     N13584   3.787   1.116   0.630 -0.0466  0.4784 -0.5938
  928MPD2    H513585   3.758   1.154   0.540  1.7171  0.4162 -1.1873
  928MPD2    N113586   3.618   1.206   1.080 -0.5806 -0.1304  0.3413
  928MPD2    H713587   3.533   1.241   1.124 -0.3134 -0.2471  0.9515
  929MPD2     C13588   4.041   0.968  10.180 -0.2423  0.3479 -0.1746
  929MPD2    C113589   3.911   0.960  10.209 -0.1535 -0.0702 -0.0780
  929MPD2    C213590   3.825   1.057  10.158 -0.0753  0.8213 -0.3677
  929MPD2    C313591   3.875   1.165  10.091 -0.3025  0.0106  0.1018
  929MPD2    C413592   4.009   1.170  10.070 -0.0380 -0.1049 -0.0224
  929MPD2    C513593   4.089   1.065  10.102  0.3878  0.4539 -0.7949
  929MPD2     H13594   3.722   1.063  10.193 -0.9848 -1.4026 -2.6384
  929MPD2    H113595   4.054   1.254  10.018  0.8373  0.9656  2.4897
  929MPD2    H213596   4.103   0.884  10.209 -0.5498 -0.9908 -3.3947
  929MPD2    H313597   4.194   1.075  10.081  0.1197  1.7327 -1.5118
  929MPD2     N13598   3.805   1.279  10.038  0.0121  0.0732  0.4400
  929MPD2    H513599   3.862   1.363  10.035 -0.2126  0.2621  1.6523
  929MPD2    N113600   3.872   0.853  10.283  0.5302  0.0116 -0.7652
  929MPD2    H713601   3.945   0.788  10.314  2.4570  2.7463  0.4022
  930MPD2     C13602   1.395   3.450  14.275  0.6724 -0.4780  1.0763
  930MPD2    C113603   1.309   3.530  14.208  0.4144  0.4915  0.3875
  930MPD2    C213604   1.229   3.480  14.110 -0.1941 -0.5454  0.2976
  930MPD2    C313605   1.245   3.347  14.075  0.3776 -0.0811 -0.1097
  930MPD2    C413606   1.331   3.268  14.152  0.5109 -0.0486 -1.0715
  930MPD2    C513607   1.400   3.314  14.255  1.0206 -0.1340  0.3042
  930MPD2     H13608   1.164   3.554  14.066  0.8536 -0.5210 -1.2159
  930MPD2    H113609   1.329   3.161  14.134  0.5554 -0.4347  1.3216
  930MPD2    H213610   1.464   3.488  14.349  2.4701 -2.8978  0.6212
  930MPD2    H313611   1.475   3.251  14.302  1.9484 -0.2781 -1.3734
  930MPD2     N13612   1.182   3.294  13.960  0.1876  0.0577  0.2917
  930MPD2    H513613   1.224   3.212  13.917  0.8091  0.1619  0.6944
  930MPD2    N113614   1.325   3.669  14.238 -0.0054 -0.5160 -0.6678
  930MPD2    H713615   1.401   3.686  14.303 -1.0105 -0.2559  0.4310
  931MPD2     C13616   0.991   1.809   0.795 -0.4086 -0.3517 -0.6355
  931MPD2    C113617   0.965   1.871   0.915 -0.4739 -0.3098  0.4292
  931MPD2    C213618   0.922   1.791   1.022 -0.3008 -0.4882 -0.1674
  931MPD2    C313619   0.948   1.659   1.019  0.8575 -0.2978  0.0064
  931MPD2    C413620   0.989   1.597   0.904 -0.2280  0.2445  0.8203
  931MPD2    C513621   1.008   1.672   0.791  0.4370  0.0160 -0.3517
  931MPD2     H13622   0.898   1.841   1.115  0.1260 -0.5880 -0.0018
  931MPD2    H113623   1.001   1.490   0.894 -1.3978  0.2221 -0.2285
  931MPD2    H213624   0.999   1.867   0.704 -0.7738  2.2840  1.0249
  931MPD2    H313625   1.037   1.619   0.701 -3.3515 -0.9085 -0.9972
  931MPD2     N13626   0.943   1.573   1.129 -0.4565  0.3888  0.2115
  931MPD2    H513627   0.963   1.474   1.118 -0.5571  0.4139 -0.1997
  931MPD2    N113628   0.948   2.010   0.913  0.0979  0.3218  0.0332
  931MPD2    H713629   0.957   2.063   0.827 -0.3701  1.6944  0.8352
  932MPD2     C13630   3.054   1.823  11.340 -0.5375 -0.5207  0.1138
  932MPD2    C113631   3.115   1.898  11.435  0.0592 -0.6401  0.1080
  932MPD2    C213632   3.137   1.838  11.558  0.0525  0.0212  0.1794
  932MPD2    C313633   3.099   1.706  11.582  0.0599 -0.0135  0.1298
  932MPD2    C413634   3.049   1.630  11.483  0.1876 -0.2114 -0.5211
  932MPD2    C513635   3.028   1.688  11.356 -0.6616 -0.0846  0.4922
  932MPD2     H13636   3.184   1.895  11.638  0.9641 -0.7848  0.2226
  932MPD2    H113637   3.022   1.525  11.491 -1.5320  0.4849  2.9646
  932MPD2    H213638   3.040   1.869  11.243  0.7868 -2.2226 -0.8765
  932MPD2    H313639   2.977   1.631  11.279 -0.7149  0.9311 -0.2271
  932MPD2     N13640   3.114   1.639  11.708 -0.5358  0.0541  0.3340
  932MPD2    H513641   3.086   1.542  11.719 -0.9311  0.0955 -0.3461
  932MPD2    N113642   3.148   2.034  11.425  0.3231 -0.2557 -0.1744
  932MPD2    H713643   3.219   2.072  11.487 -0.1879 -0.6275  0.6260
  933MPD2     C13644   3.462   1.612   1.846  0.4482  0.0776 -0.2312
  933MPD2    C113645   3.521   1.622   1.720  0.1796 -0.2579  0.4385
  933MPD2    C213646   3.523   1.745   1.660  0.0575 -0.4153 -0.0077
  933MPD2    C313647   3.466   1.859   1.714  0.2784 -0.0035 -0.4917
  933MPD2    C413648   3.395   1.840   1.833 -0.4740 -0.3604 -0.3978
  933MPD2    C513649   3.402   1.720   1.900 -0.3653 -0.2352 -0.3527
  933MPD2     H13650   3.575   1.754   1.565  1.8244 -0.8187  0.9201
  933MPD2    H113651   3.347   1.928   1.875  2.0022  1.2348 -0.9126
  933MPD2    H213652   3.475   1.521   1.903  3.5840 -0.4287 -1.6983
  933MPD2    H313653   3.359   1.712   1.999 -0.1364 -1.9435 -0.3948
  933MPD2     N13654   3.489   1.976   1.636 -0.0221 -0.0677  0.0826
  933MPD2    H513655   3.548   1.951   1.557 -0.5175  0.5646 -0.4920
  933MPD2    N113656   3.570   1.509   1.654 -0.1091 -0.0546  0.3691
  933MPD2    H713657   3.577   1.424   1.709  1.0309 -0.3202 -0.1790
  934MPD2     C13658   1.157   3.145   1.779  0.4653 -0.0932 -0.6249
  934MPD2    C113659   1.087   3.243   1.709  0.0496  0.1745  0.5053
  934MPD2    C213660   0.950   3.234   1.677 -0.0682  0.5372  0.2471
  934MPD2    C313661   0.883   3.120   1.715 -0.0234  0.1717  0.2521
  934MPD2    C413662   0.951   3.019   1.786  0.5373  0.1767  0.1205
  934MPD2    C513663   1.085   3.036   1.818 -0.8213 -0.7127 -0.6881
  934MPD2     H13664   0.906   3.322   1.632 -1.8445 -0.2592  0.4355
  934MPD2    H113665   0.902   2.923   1.793  1.1779 -0.3015 -1.8643
  934MPD2    H213666   1.262   3.159   1.802  0.8135 -5.0658  0.9198
  934MPD2    H313667   1.133   2.967   1.887  0.3754 -1.2480 -2.0599
  934MPD2     N13668   0.744   3.104   1.683 -0.3210 -0.1147 -0.0628
  934MPD2    H513669   0.692   3.025   1.721 -0.7974  0.5939  0.7600
  934MPD2    N113670   1.149   3.365   1.688 -0.4258 -0.2006  0.1805
  934MPD2    H713671   1.096   3.443   1.652 -2.3704 -2.0036 -0.8085
  935MPD2     C13672   4.554   2.688   1.799  0.4666 -0.5670 -0.0455
  935MPD2    C113673   4.658   2.637   1.734 -0.6513 -0.5173 -0.3385
  935MPD2    C213674   0.042   2.725   1.721  0.7173 -0.3607  0.2722
  935MPD2    C313675   0.039   2.854   1.776  0.2565  0.3498 -0.1350
  935MPD2    C413676   4.654   2.891   1.847  0.0954  0.1453 -0.0197
  935MPD2    C513677   4.552   2.805   1.864 -0.4774 -0.1601  0.4619
  935MPD2     H13678   0.124   2.684   1.664  1.4663 -0.6597  1.5812
  935MPD2    H113679   4.647   2.989   1.893 -3.6288  1.0113 -2.4651
  935MPD2    H213680   4.459   2.637   1.804  0.6562 -0.9001  0.2369
  935MPD2    H313681   4.457   2.826   1.912 -1.0044  1.5375 -1.3012
  935MPD2     N13682   0.135   2.955   1.758  0.1985 -0.6282  0.4391
  935MPD2    H513683   0.106   3.045   1.795 -2.1170 -2.0639  2.1168
  935MPD2    N113684   4.654   2.519   1.658 -0.1447 -0.7322  0.6302
  935MPD2    H713685   0.022   2.496   1.619 -0.7823  0.8130 -1.7413
  936MPD2     C13686   4.210   4.619  12.956  0.2309  0.0001 -0.3959
  936MPD2    C113687   4.226   0.017  13.030 -0.4542  0.3120  0.0191
  936MPD2    C213688   4.294   0.126  12.972  0.0012  0.8427 -0.1887
  936MPD2    C313689   4.338   0.107  12.841  0.2552  0.7934 -0.4966
  936MPD2    C413690   4.301   4.723  12.768  0.1173 -0.3781  0.3945
  936MPD2    C513691   4.241   4.619  12.825  0.4133  1.0343  0.1135
  936MPD2     H13692   4.291   0.218  13.028 -1.0567  0.0941  0.9930
  936MPD2    H113693   4.326   4.711  12.663 -1.1789 -1.8499  0.2498
  936MPD2    H213694   4.161   4.531  12.997  0.7126  0.2211  0.6542
  936MPD2    H313695   4.221   4.535  12.759  3.1807  1.1501 -0.8766
  936MPD2     N13696   4.401   0.221  12.796 -0.5625 -0.4077  0.0243
  936MPD2    H513697   4.422   0.289  12.868 -3.7722 -0.1778  0.7318
  936MPD2    N113698   4.169   0.042  13.155  0.1489  0.9293 -0.2202
  936MPD2    H713699   4.198   0.123  13.209  1.3204  0.2931  0.1056
  937MPD2     C13700   1.367   1.696  11.472  0.2755  0.1300 -0.0606
  937MPD2    C113701   1.453   1.800  11.455  0.7284  0.4544 -0.3350
  937MPD2    C213702   1.534   1.802  11.344  0.0022 -0.1046 -0.5226
  937MPD2    C313703   1.553   1.697  11.267 -0.2408 -0.0462  0.4380
  937MPD2    C413704   1.487   1.580  11.299  0.7940 -0.5453 -0.0575
  937MPD2    C513705   1.391   1.585  11.396 -0.1761 -0.0065 -0.0211
  937MPD2     H13706   1.578   1.899  11.322  2.0332 -1.3560 -1.9318
  937MPD2    H113707   1.507   1.485  11.251  3.3701 -0.3603  0.6705
  937MPD2    H213708   1.295   1.683  11.552  1.7220 -2.1479  0.8802
  937MPD2    H313709   1.323   1.501  11.407 -1.5803  1.3521  1.5512
  937MPD2     N13710   1.647   1.707  11.166 -0.2176 -0.6978 -0.3439
  937MPD2    H513711   1.716   1.778  11.186 -0.9224  0.6548 -2.6783
  937MPD2    N113712   1.428   1.926  11.519 -0.1755  0.7556  0.1436
  937MPD2    H713713   1.484   2.001  11.480 -0.0980  0.4888 -0.2631
  938MPD2     C13714   4.136   2.420   1.377  0.6429 -0.2308  0.6153
  938MPD2    C113715   4.108   2.469   1.506  0.5604  0.1234  0.8789
  938MPD2    C213716   4.025   2.392   1.591 -0.0027 -0.1185 -1.2443
  938MPD2    C313717   3.994   2.262   1.563  0.1544 -0.2339  0.0499
  938MPD2    C413718   4.017   2.218   1.436  0.1600 -0.0222 -0.3785
  938MPD2    C513719   4.092   2.298   1.345  0.1608  0.4726  0.2161
  938MPD2     H13720   4.005   2.427   1.691 -0.2143  2.0702 -2.0610
  938MPD2    H113721   3.991   2.118   1.403 -0.4347  0.2256 -0.6624
  938MPD2    H213722   4.191   2.467   1.296 -1.4335  0.2863 -0.4997
  938MPD2    H313723   4.110   2.260   1.245  1.8093 -0.3272  0.8307
  938MPD2     N13724   3.930   2.178   1.659 -0.4243  0.5236  0.0320
  938MPD2    H513725   3.900   2.091   1.616 -0.2038  1.9710 -3.0054
  938MPD2    N113726   4.161   2.596   1.548 -0.1727 -0.3946  0.2755
  938MPD2    H713727   4.142   2.626   1.643  0.7249 -0.3499  0.4414
  939MPD2     C13728   1.436   4.427   1.440 -0.2225 -0.0320  0.8010
  939MPD2    C113729   1.312   4.470   1.390  0.2610 -0.1992  0.2109
  939MPD2    C213730   1.310   4.544   1.275 -0.3193  0.6290  0.3752
  939MPD2    C313731   1.417   4.556   1.193  0.0112 -0.7636 -0.2813
  939MPD2    C413732   1.540   4.512   1.243 -0.8352 -0.5809  0.5849
  939MPD2    C513733   1.546   4.442   1.361 -0.0355 -0.1590 -0.0746
  939MPD2     H13734   1.225   4.596   1.234 -1.9464 -3.1145 -0.9389
  939MPD2    H113735   1.634   4.537   1.195 -1.9275  0.4821 -0.9785
  939MPD2    H213736   1.442   4.375   1.535 -1.9438 -0.6362  0.5926
  939MPD2    H313737   1.641   4.412   1.402  0.4043  0.7467 -0.4293
  939MPD2     N13738   1.396   4.629   1.066 -0.4161  0.9397 -0.2013
  939MPD2    H513739   1.298   4.648   1.048  0.2572  2.3470 -2.3882
  939MPD2    N113740   1.208   4.457   1.482  0.1408 -0.2678 -0.3649
  939MPD2    H713741   1.237   4.406   1.565  1.5219 -0.9606 -1.2735
  940MPD2     C13742   0.250   0.457  13.173 -0.0881  0.1136 -0.0786
  940MPD2    C113743   0.182   0.333  13.178 -0.0875  0.0047  0.3951
  940MPD2    C213744   0.146   0.269  13.054  0.5626 -0.3443 -0.6450
  940MPD2    C313745   0.176   0.323  12.932 -0.2045 -0.5629  0.0964
  940MPD2    C413746   0.236   0.450  12.931 -0.1775  0.5611  0.1761
  940MPD2    C513747   0.276   0.510  13.051  0.3325 -0.3763 -0.0678
  940MPD2     H13748   0.103   0.171  13.066 -0.2394  0.0402 -0.3970
  940MPD2    H113749   0.272   0.494  12.839 -1.5524 -2.1741 -1.6464
  940MPD2    H213750   0.284   0.521  13.253 -1.4567  0.1900  0.4393
  940MPD2    H313751   0.329   0.605  13.047  1.2849 -0.8987  0.1523
  940MPD2     N13752   0.150   0.264  12.804 -0.6079  0.0677  0.2952
  940MPD2    H513753   0.201   0.300  12.725 -1.4055 -2.3162 -1.3013
  940MPD2    N113754   0.146   0.268  13.299  0.3350  0.2817 -0.5109
  940MPD2    H713755   0.088   0.185  13.293 -1.4274  1.5347 -0.7999
  941MPD2     C13756   3.018   3.521   9.426  0.2434 -0.1782  0.4598
  941MPD2    C113757   3.114   3.485   9.516  0.2529  0.1028  0.7054
  941MPD2    C213758   3.118   3.350   9.552 -0.4841 -0.5239 -0.0494
  941MPD2    C313759   3.034   3.250   9.507  0.6009 -0.2269 -0.0851
  941MPD2    C413760   2.940   3.291   9.412  0.5785  0.3353 -0.3706
  941MPD2    C513761   2.930   3.424   9.377  0.1401 -0.3432 -0.5257
  941MPD2     H13762   3.205   3.312   9.604  0.2124 -0.5836 -1.2616
  941MPD2    H113763   2.879   3.218   9.360  0.4526 -0.1521  0.4601
  941MPD2    H213764   2.998   3.623   9.395 -1.7146  0.0321  2.4372
  941MPD2    H313765   2.860   3.465   9.306 -0.3418 -1.0929 -0.4771
  941MPD2     N13766   3.035   3.112   9.545  0.4227 -0.5816  0.2414
  941MPD2    H513767   2.974   3.044   9.500  0.3249 -0.7029  0.5557
  941MPD2    N113768   3.227   3.566   9.558  0.4942 -0.4202  0.4605
  941MPD2    H713769   3.296   3.516   9.613  0.8384 -1.3013 -0.7729
  942MPD2     C13770   3.091   0.843   9.671 -0.1023 -0.4607 -0.2620
  942MPD2    C113771   3.034   0.913   9.567  0.2894  0.1934 -0.0785
  942MPD2    C213772   3.113   0.954   9.467 -0.1142  0.6606  0.1462
  942MPD2    C313773   3.253   0.936   9.468  0.0317 -0.4574  0.0298
  942MPD2    C413774   3.308   0.876   9.581  0.1755 -0.5774  0.4111
  942MPD2    C513775   3.229   0.836   9.681  0.4242 -0.3799 -0.0979
  942MPD2     H13776   3.072   1.012   9.385  2.9494  1.1141 -1.0427
  942MPD2    H113777   3.416   0.877   9.593  0.2118  0.0504  0.0579
  942MPD2    H213778   3.025   0.806   9.748  0.1842  0.2544  0.3306
  942MPD2    H313779   3.271   0.789   9.769  1.8041  2.4069  0.7446
  942MPD2     N13780   3.342   0.965   9.361 -0.3328  0.2557  0.3539
  942MPD2    H513781   3.435   0.930   9.380 -0.2857 -0.2837 -0.8966
  942MPD2    N113782   2.897   0.964   9.571  0.1450 -0.2935 -0.3364
  942MPD2    H713783   2.878   1.025   9.492  2.8129 -0.2924 -0.9899
  943MPD2     C13784   2.684   2.861  10.009 -0.6529 -0.0503  0.9394
  943MPD2    C113785   2.756   2.971  10.049  0.0721 -0.3461  0.3893
  943MPD2    C213786   2.774   3.074   9.955 -0.4322  0.5788  0.4032
  943MPD2    C313787   2.725   3.053   9.826  0.8995 -0.7645 -0.1030
  943MPD2    C413788   2.669   2.932   9.782 -0.2545 -0.8827 -0.1627
  943MPD2    C513789   2.643   2.835   9.880 -0.5703 -0.6134 -0.0805
  943MPD2     H13790   2.818   3.169   9.984 -1.1376  1.1968 -0.5596
  943MPD2    H113791   2.637   2.915   9.680 -0.1158 -3.2781  0.1965
  943MPD2    H213792   2.662   2.786  10.083  0.2638  0.8289  2.0965
  943MPD2    H313793   2.589   2.745   9.856 -2.9467  0.7197  0.2701
  943MPD2     N13794   2.720   3.157   9.730  1.3493  0.6030  0.0012
  943MPD2    H513795   2.690   3.126   9.639  2.7593  1.1823 -0.6692
  943MPD2    N113796   2.769   2.989  10.187 -0.0235 -0.4476 -0.3234
  943MPD2    H713797   2.725   2.922  10.250  1.8481 -1.8207 -0.4520
  944MPD2     C13798   1.747   2.840  11.262  0.1329  0.1734  0.2740
  944MPD2    C113799   1.747   2.939  11.162  0.2810 -0.0712  1.1682
  944MPD2    C213800   1.709   3.069  11.199 -0.0782  0.5832  0.6630
  944MPD2    C313801   1.689   3.102  11.334  0.0231 -0.2925 -0.4961
  944MPD2    C413802   1.684   3.003  11.430 -0.6910 -0.2809  0.0728
  944MPD2    C513803   1.716   2.878  11.387 -0.1416  0.3660 -0.0119
  944MPD2     H13804   1.694   3.142  11.121  2.5477 -0.1660 -0.5256
  944MPD2    H113805   1.676   3.025  11.536  1.2155  0.1029  0.1287
  944MPD2    H213806   1.788   2.742  11.241  0.1916  0.4323 -0.8597
  944MPD2    H313807   1.727   2.798  11.459  0.7465 -0.7775 -1.4320
  944MPD2     N13808   1.645   3.240  11.355  0.2963  0.8581  0.0929
  944MPD2    H513809   1.644   3.299  11.273  0.1766 -0.6585 -1.0139
  944MPD2    N113810   1.776   2.898  11.026 -0.0174  0.2536  0.6968
  944MPD2    H713811   1.810   2.805  11.007  0.5024  0.6634 -0.3291
    1TCq1    O113812   4.560   3.750  14.056  0.2528 -0.3164  0.0702
    1TCq1    C113813   4.618   3.822  14.155 -0.1725 -0.4892  0.7132
    1TCq1    O213814   4.658   3.936  14.135  0.0864 -0.0607  0.5404
    1TCq1    C213815   4.690   3.729  14.245  0.7899 -0.4209  0.6089
    1TCq1    C313816   4.659   3.601  14.257  0.8979 -0.1380 -0.0821
    1TCq1    C413817   0.020   3.514  14.317 -0.8710  0.2158 -0.5455
    1TCq1    C513818   0.142   3.559  14.369 -0.5522  0.0762  0.0885
    1TCq1    C613819   0.171   3.692  14.346  0.1969 -0.0310  0.2543
    1TCq1    C713820   0.085   3.777  14.286  0.2783 -0.1019  0.6960
    1TCq1    C813821   0.281   3.747  14.430  0.1355  0.3497  0.3809
    1TCq1    O413822   0.373   3.668  14.450  0.7148  0.0970 -0.4228
    1TCq1    C913823   4.694   3.379  14.337 -0.0444 -0.1927 -0.2057
    1TCq1    O513824   0.037   3.316  14.421  0.4048  0.1700 -0.6399
    1TCq1    O613825   4.569   3.362  14.324 -0.4233  0.4118  0.0035
    1TCq1    H113826   4.532   3.658  14.073  0.5731 -1.1082 -3.7347
    1TCq1    H213827   4.556   3.573  14.237  0.5318  0.2748  1.2535
    1TCq1    H313828   0.205   3.495  14.430  0.7883  1.2903 -0.0304
    1TCq1    H413829   0.117   3.878  14.263  3.2233 -1.2360 -0.1457
    2MPD2     C13830   0.471   4.098  14.751  0.2128 -0.0688  0.1449
    2MPD2    C113831   0.352   4.146  14.695  0.5757  0.4408  0.1666
    2MPD2    C213832   0.275   4.063  14.616  0.2152  0.2632 -0.5638
    2MPD2    C313833   0.325   3.938  14.581 -0.4122  0.3143  0.1249
    2MPD2    C413834   0.448   3.901  14.625 -0.3386  0.5145  0.4069
    2MPD2    C513835   0.509   3.977  14.718 -0.7545  0.0446 -0.1439
    2MPD2     H13836   0.174   4.081  14.582 -0.0447  1.2375  0.7422
    2MPD2    H113837   0.485   3.799  14.611 -1.1794  0.4811 -1.6209
    2MPD2    H213838   0.524   4.153  14.827  1.6076 -0.3749 -0.6122
    2MPD2    H313839   0.599   3.936  14.763 -1.4976 -0.2639  1.0485
    2MPD2     N13840   0.246   3.860  14.496  0.0529 -0.4868 -0.1352
    2MPD2    H513841   0.154   3.893  14.469 -0.2850 -2.3687 -1.3029
    2MPD2    N113842   0.297   4.270  14.751  0.0848 -0.0586  1.1570
    2MPD2    H713843   0.356   4.334  14.802  0.5530  0.3758  0.0845
    3TMC2    C113844   0.124   4.431  14.808  0.4799  0.5030  0.1626
    3TMC2    C213845   0.178   4.442  14.933  0.2866  0.3316  0.3176
    3TMC2    C313846   0.135   4.546  15.008  0.4698 -0.3625  0.5244
    3TMC2    C413847   0.015   4.498  14.765  0.4191 -0.2016 -0.0390
    3TMC2    C513848   4.696   4.595  14.849  0.2797 -1.3167 -0.0425
    3TMC2    C613849   0.034   4.617  14.965 -0.4201 -0.2739 -0.0185
    3TMC2     C13850   0.159   4.294  14.752  0.1829  0.0530  0.3875
    3TMC2     O13851   0.063   4.229  14.716 -0.0778 -0.0446  0.5716
    3TMC2     H13852   0.245   4.361  14.963  1.4382  1.3609  0.5068
    3TMC2    H113853   4.694   4.477  14.668  2.4045 -0.1671 -0.9552
    3TMC2    H213854   4.713   4.704  15.012  0.2903 -0.1674  0.4499
    3TMC2    C713855   4.598   4.690  14.801  0.3795  0.1733  0.0105
    3TMC2    C813856   0.212   4.587  15.118 -0.4989  0.3378  1.0645
    3TMC2    O113857   4.520   0.009  14.882 -0.1299  0.5046 -0.3140
    3TMC2    O213858   0.184   4.639  15.223  0.4236  0.4143 -0.1153
    3TMC2    O513859   0.338   4.585  15.070 -0.6264  0.0946  0.5247
    3TMC2    H513860   0.349   4.551  14.978 -1.7442  1.8816 -0.2691
    4MPD2     C13861   4.115   0.847  13.648  0.4298  0.3955 -0.1034
    4MPD2    C113862   4.246   0.863  13.606  0.0663 -0.0722  0.1402
    4MPD2    C213863   4.337   0.767  13.644 -0.5361 -0.6789 -0.6183
    4MPD2    C313864   4.290   0.668  13.736  0.4475 -0.6215 -0.6735
    4MPD2    C413865   4.161   0.655  13.786  0.9031  0.0823 -0.2369
    4MPD2    C513866   4.079   0.749  13.738  0.1441  0.5405  0.3683
    4MPD2     H13867   4.443   0.775  13.624 -0.9093  0.7415 -2.0735
    4MPD2    H113868   4.120   0.585  13.859  0.3766  0.6598  0.0229
    4MPD2    H213869   4.037   0.913  13.611  1.3868  1.0450 -0.9750
    4MPD2    H313870   3.975   0.754  13.767  0.0451 -0.3788  0.1714
    4MPD2     N13871   4.391   0.585  13.783 -0.5396 -0.4411 -0.2312
    4MPD2    H513872   4.481   0.595  13.738 -1.2573 -1.2458 -1.8325
    4MPD2    N113873   4.271   0.957  13.499 -0.3359 -0.2362 -0.0717
    4MPD2    H713874   4.192   1.013  13.469 -0.1216 -0.1763 -0.5185
    5TCq2    C113875   4.392   0.498  13.883  0.2203  0.3910  0.1421
    5TCq2    O213876   4.291   0.463  13.951  0.6942 -0.4613 -0.1381
    5TCq2    C213877   4.523   0.435  13.902 -0.4350 -0.4935 -0.1934
    5TCq2    C313878   4.642   0.506  13.876 -0.0628 -0.1204 -0.3325
    5TCq2    C413879   0.037   0.464  13.930 -0.6207 -0.4673  0.1494
    5TCq2    C513880   0.034   0.368  14.024 -0.4138 -0.8883 -0.1227
    5TCq2    C613881   4.637   0.310  14.063  0.8679  0.2602 -0.1896
    5TCq2    C713882   4.523   0.343  13.999  0.5477 -0.8103  0.2687
    5TCq2    C813883   4.634   0.229  14.191  0.4062  0.7414 -0.2126
    5TCq2    O413884   4.705   0.128  14.206 -0.4701 -0.0426  0.3553
    5TCq2    C913885   0.165   0.513  13.879  0.5379  0.2100  0.6875
    5TCq2    O513886   0.259   0.428  13.890  0.3541 -0.0119  0.1625
    5TCq2    O613887   0.168   0.607  13.791 -0.1514  0.1520 -0.6319
    5TCq2    H213888   4.648   0.586  13.803  0.1895 -0.4680 -0.6916
    5TCq2    H313889   0.120   0.342  14.084  2.0657  2.7960 -2.0880
    5TCq2    H413890   4.432   0.297  14.037  0.1285 -1.6414 -1.7210
    6MPD1     C13891   3.478   1.601  11.717 -0.8406 -0.1193 -0.0656
    6MPD1    C113892   3.526   1.470  11.739 -0.1608 -0.7733  0.3582
    6MPD1    C213893   3.621   1.446  11.840  0.5262 -0.3271  0.2024
    6MPD1    C313894   3.662   1.537  11.936  0.1394  0.3632  0.1309
    6MPD1    C413895   3.608   1.665  11.915 -0.0944  0.7873  0.5466
    6MPD1    C513896   3.525   1.695  11.810 -0.5093  0.3525  0.9353
    6MPD1     H13897   3.657   1.346  11.859  1.5070 -0.2907 -1.4919
    6MPD1    H113898   3.623   1.740  11.992  3.4411  1.0911 -0.4523
    6MPD1    H213899   3.426   1.645  11.633  0.7079 -0.5133 -1.2250
    6MPD1    H313900   3.481   1.793  11.804 -0.1093  0.5423  1.0880
    6MPD1     N13901   3.742   1.504  12.049 -0.0512  0.4811 -0.1152
    6MPD1    H513902   3.767   1.582  12.110  2.8277 -0.4328 -0.1585
    6MPD1    N113903   3.496   1.364  11.648  0.0756 -0.1548  0.0869
    6MPD1    H613904   3.408   1.380  11.599 -1.0523  2.0267  2.7820
    6MPD1    H713905   3.508   1.269  11.681  1.1544 -0.3056 -0.7414
    7MPD2     C13906   3.966   1.623  12.826  0.5323  0.0405  0.1415
    7MPD2    C113907   3.964   1.493  12.785  0.3054  0.8406 -0.3742
    7MPD2    C213908   4.003   1.392  12.870 -0.6987  0.5379  0.5900
    7MPD2    C313909   4.064   1.426  12.987  0.2546  0.1932 -0.4297
    7MPD2    C413910   4.076   1.559  13.021 -0.3924  0.6382  0.2031
    7MPD2    C513911   4.012   1.656  12.951  0.1950  0.0268 -0.7044
    7MPD2     H13912   3.992   1.288  12.841  0.3596  0.8134 -0.7714
    7MPD2    H113913   4.126   1.587  13.113  0.9806 -1.8943  0.2499
    7MPD2    H213914   3.948   1.706  12.758  0.8151  1.1876  1.4531
    7MPD2    H313915   4.017   1.760  12.983  1.3005 -0.7310  1.6003
    7MPD2     N13916   4.128   1.321  13.049 -0.8314 -0.0701  0.1388
    7MPD2    H513917   4.130   1.237  12.991  0.7971 -0.2340  0.4073
    7MPD2    N113918   3.930   1.460  12.654  0.2129  0.3358  0.3390
    7MPD2    H713919   3.930   1.362  12.629  0.3071  0.3732  0.1879
    8TMC3    C113920   4.287   1.213  13.182 -0.1052  0.1600  0.1005
    8TMC3    C213921   4.302   1.153  13.306  0.5491  0.1988 -0.1832
    8TMC3    C313922   4.384   1.038  13.313  0.7731  0.1816 -0.0019
    8TMC3    C413923   4.336   1.158  13.064 -0.3432 -0.4424 -0.0976
    8TMC3    C513924   4.403   1.040  13.082  0.3320  0.7291  0.2048
    8TMC3    C613925   4.434   0.980  13.201  0.3156  0.1656 -0.2340
    8TMC3     C13926   4.194   1.322  13.170  0.2186  0.2188 -1.1136
    8TMC3     O13927   4.193   1.403  13.260 -0.1384 -0.5570 -0.2996
    8TMC3     H13928   4.271   1.198  13.400 -1.5485 -1.6007 -0.0113
    8TMC3    H113929   4.333   1.199  12.964  1.5905 -1.8326 -0.7117
    8TMC3    H213930   4.511   0.905  13.191 -0.5984 -0.4665 -2.6543
    8TMC3    C713931   4.442   0.965  12.962  0.1431  0.0853 -0.3512
    8TMC3    C813932   4.393   0.968  13.438 -0.3293  0.5099 -0.2988
    8TMC3    O113933   4.529   0.880  12.970  0.0178 -0.3828  0.7325
    8TMC3    O213934   4.497   0.908  13.450  0.0766  0.2540  0.1801
    9TMC3    C113935   3.859   1.379  12.220 -0.0922 -0.3495 -0.0238
    9TMC3    C213936   3.928   1.261  12.239  0.7456 -0.3811  0.4453
    9TMC3    C313937   4.010   1.259  12.340 -0.3482  0.1193 -0.2388
    9TMC3    C413938   3.854   1.486  12.314  0.6209  0.2995 -0.1739
    9TMC3    C513939   3.924   1.458  12.427  0.1102  0.6516 -1.4402
    9TMC3    C613940   4.008   1.352  12.441  0.6284 -0.2441  0.2003
    9TMC3     C13941   3.784   1.381  12.093 -0.3971  0.1768 -0.2048
    9TMC3     O13942   3.746   1.273  12.043  0.0298 -0.0334  0.1040
    9TMC3     H13943   3.912   1.172  12.179  0.4826  0.7524 -1.1779
    9TMC3    H113944   3.778   1.563  12.302 -0.3200 -0.3647  1.4503
    9TMC3    H213945   4.083   1.336  12.519 -1.8809 -0.3188  2.5913
    9TMC3    C713946   3.909   1.542  12.545  0.4777  0.6548 -0.5041
    9TMC3    C813947   4.114   1.155  12.340  0.3973 -0.6559  0.4353
    9TMC3    O113948   3.887   1.662  12.543  0.0547  0.4428 -0.1447
    9TMC3    O213949   4.151   1.097  12.239  0.0456  0.2469 -0.0429
   10MPD2     C13950   4.466   0.961  12.656 -0.5782  0.5867 -0.2627
   10MPD2    C113951   4.353   0.986  12.728 -0.1449 -0.6145  0.3054
   10MPD2    C213952   4.242   1.037  12.667  0.3178 -0.0871  0.1178
   10MPD2    C313953   4.246   1.050  12.529  0.9305  0.3077 -0.8743
   10MPD2    C413954   4.357   1.014  12.452  0.5095  0.1442  0.0448
   10MPD2    C513955   4.470   0.974  12.521  0.6072 -0.1381  0.1108
   10MPD2     H13956   4.156   1.065  12.727 -0.5232 -0.6412 -0.8183
   10MPD2    H113957   4.363   1.037  12.347  0.6989  1.8601  0.4253
   10MPD2    H213958   4.552   0.918  12.707  0.0047  1.4930 -0.5010
   10MPD2    H313959   4.559   0.947  12.465 -0.9731  0.0722 -2.4801
   10MPD2     N13960   4.136   1.118  12.474 -0.3721 -0.7325 -0.2233
   10MPD2    H513961   4.059   1.143  12.536  0.9847  0.9495  0.7833
   10MPD2    N113962   4.342   0.982  12.873  0.1639 -0.2122  0.3152
   10MPD2    H713963   4.258   1.024  12.910  1.8928  1.5391  2.2498
   11MPD2     C13964   4.415   0.134  14.650 -0.6992  0.2149 -1.0658
   11MPD2    C113965   4.526   0.077  14.594  0.2305  0.0159  0.5289
   11MPD2    C213966   4.561   0.111  14.467 -0.1285  0.8513  0.3626
   11MPD2    C313967   4.491   0.210  14.397  0.3207  1.3070 -0.0709
   11MPD2    C413968   4.378   0.266  14.445 -0.6843  0.8554  0.5242
   11MPD2    C513969   4.343   0.225  14.571  0.5510 -0.2364  0.3260
   11MPD2     H13970   4.654   0.073  14.427 -0.2745  1.3483 -0.4528
   11MPD2    H113971   4.325   0.349  14.400 -0.5117  0.5348 -0.2740
   11MPD2    H213972   4.379   0.117  14.751  1.6540 -1.4416 -0.5084
   11MPD2    H313973   4.258   0.274  14.618  0.8437 -0.1837  0.8038
   11MPD2     N13974   4.531   0.269  14.274 -0.9226 -0.4592  0.1136
   11MPD2    H513975   4.474   0.345  14.239  1.1477 -0.0984 -2.5029
   11MPD2    N113976   4.611   4.715  14.667 -0.1495  0.7327 -0.2666
   11MPD2    H713977   4.693   4.681  14.617 -0.5054 -0.1174 -0.2768
    1MPD1     C13978   1.692   1.735  17.651 -0.1190 -0.0565  0.0695
    1MPD1    C113979   1.799   1.707   0.030 -0.5223 -0.4753  0.4258
    1MPD1    C213980   1.921   1.744  17.684 -0.7582  0.4605  0.3554
    1MPD1    C313981   1.942   1.812  17.564  0.2603  1.0771  0.2770
    1MPD1    C413982   1.826   1.843  17.489  0.6917 -0.2284  0.1031
    1MPD1    C513983   1.700   1.812  17.534 -0.0013  0.1389 -1.0875
    1MPD1     H13984   2.003   1.721   0.055 -1.1212  1.0048  0.9966
    1MPD1    H113985   1.836   1.892  17.393  2.4440 -3.5648 -1.4185
    1MPD1    H213986   1.591   1.710  17.683 -0.9326  1.1400 -1.5665
    1MPD1    H313987   1.622   1.840  17.465  0.8985  0.9263 -1.7894
    1MPD1     N13988   2.068   1.851  17.512 -0.0160 -0.1741  0.0529
    1MPD1    H513989   2.056   1.879  17.415  2.7141 -0.7566 -0.4320
    1MPD1    N113990   1.791   1.622   0.136  0.4702 -0.2242 -0.0945
    1MPD1    H613991   1.698   1.626   0.179  1.3252  1.2680  1.6232
    1MPD1    H713992   1.860   1.647   0.206 -0.2539  1.1872  0.1077
    2MPD1     C13993   2.846   2.536  17.546 -0.2562  0.5528  0.1694
    2MPD1    C113994   2.735   2.548  17.461 -1.4707  0.6114  0.1638
    2MPD1    C213995   2.665   2.433  17.424 -0.4788 -0.3525  0.4092
    2MPD1    C313996   2.687   2.321  17.497 -0.2695 -0.2598  0.2189
    2MPD1    C413997   2.788   2.301  17.584 -0.2741 -0.3357 -0.1630
    2MPD1    C513998   2.874   2.409  17.602 -0.2462 -0.8294  0.3272
    2MPD1     H13999   2.597   2.438  17.340 -0.7409 -0.1248  0.6378
    2MPD1    H114000   2.808   2.217  17.649 -1.3684  0.3628  1.0809
    2MPD1    H214001   2.916   2.619  17.555 -3.4934  3.3201 -0.4378
    2MPD1    H314002   2.953   2.396  17.675 -0.0192 -2.1112 -0.1348
    2MPD1     N14003   2.605   2.206  17.463  0.1073  0.4802  0.1134
    2MPD1    H514004   2.546   2.212  17.381  0.4875  4.6617  0.1218
    2MPD1    N114005   2.731   2.670  17.383 -0.1642  0.4898 -0.4128
    2MPD1    H614006   2.764   2.750  17.437  1.0551 -1.4144  1.7092
    2MPD1    H714007   2.639   2.688  17.344 -1.2841  0.6725  2.2903
    3TMC3    C114008   2.499   2.002  17.473  0.4094 -0.2682  0.0112
    3TMC3    C214009   2.510   1.992  17.335 -0.0072 -0.0035 -0.2396
    3TMC3    C314010   2.409   1.914  17.280 -0.3906 -0.5342 -0.0360
    3TMC3    C414011   2.400   1.935  17.544 -0.3738  0.3823 -0.2326
    3TMC3    C514012   2.295   1.877  17.481  0.1001 -0.2019  0.1096
    3TMC3    C614013   2.301   1.861  17.348  0.5042  0.5137  0.8456
    3TMC3     C14014   2.587   2.095  17.543 -0.5711 -0.1315 -0.5877
    3TMC3     O14015   2.603   2.080  17.664 -0.0716 -0.9009  0.4410
    3TMC3     H14016   2.580   2.045  17.272  1.0788  2.0596  2.6885
    3TMC3    H114017   2.415   1.949  17.650 -0.0653 -1.3783 -0.0450
    3TMC3    H214018   2.218   1.816  17.294  2.0671 -0.2927 -0.8585
    3TMC3    C714019   2.184   1.824  17.568 -0.1509  0.1398 -1.0127
    3TMC3    C814020   2.421   1.861  17.145  0.6416  0.8122 -0.3840
    3TMC3    O114021   2.211   1.812  17.685 -0.5496  0.5797  0.2473
    3TMC3    O214022   2.331   1.790  17.107  0.0387 -0.2442 -0.2778
    4MPD1     C14023   2.622   1.894  16.671  0.2837 -0.6262  0.0947
    4MPD1    C114024   2.726   1.925  16.760  0.7318  0.7673 -0.3876
    4MPD1    C214025   2.700   1.933  16.891  0.1148 -0.0504  0.6213
    4MPD1    C314026   2.577   1.891  16.942  0.2358  0.2765 -0.4545
    4MPD1    C414027   2.476   1.865  16.850  0.0297 -0.3988  0.2793
    4MPD1    C514028   2.494   1.870  16.713 -0.7496  0.3939 -0.4985
    4MPD1     H14029   2.770   1.964  16.968 -1.0269 -1.2687  2.1488
    4MPD1    H114030   2.378   1.837  16.887 -0.1911  0.3328  0.2393
    4MPD1    H214031   2.647   1.893  16.566  0.1500 -1.7863  0.0647
    4MPD1    H314032   2.416   1.847  16.641 -1.1731 -2.4834  0.8550
    4MPD1     N14033   2.542   1.900  17.082  0.2985 -0.2215  0.5230
    4MPD1    H514034   2.619   1.940  17.134 -0.4064  0.3394  1.1352
    4MPD1    N114035   2.849   1.974  16.704 -0.0731  0.6141 -0.1448
    4MPD1    H614036   2.924   1.955  16.770  1.3408  1.8978 -1.3712
    4MPD1    H714037   2.872   1.933  16.613  0.5736  0.4862  0.0736
    1TCq1    O114038   2.013   0.473  11.008  0.0162 -0.2166  0.3566
    1TCq1    C114039   2.070   0.450  10.891  0.4911  0.0742 -0.0368
    1TCq1    O214040   2.001   0.446  10.789 -0.2227  0.3332 -0.5566
    1TCq1    C214041   2.206   0.488  10.890 -0.3738 -0.8495  0.7567
    1TCq1    C314042   2.281   0.444  10.784 -1.1909 -0.6073  0.3593
    1TCq1    C414043   2.411   0.484  10.785  0.0237  0.0231 -0.2211
    1TCq1    C514044   2.476   0.509  10.903 -0.0520 -0.7896 -0.5815
    1TCq1    C614045   2.401   0.550  11.008 -0.4357 -0.1471  0.4804
    1TCq1    C714046   2.264   0.538  11.000 -0.1460  0.6186 -0.2094
    1TCq1    C814047   2.468   0.577  11.136 -0.5979  0.4946  0.1252
    1TCq1    O414048   2.399   0.619  11.225 -0.3940 -0.2493  0.1193
    1TCq1    C914049   2.503   0.421  10.695 -0.5457  0.2972 -0.2010
    1TCq1    O514050   2.626   0.418  10.713 -0.1634  0.6377 -0.9216
    1TCq1    O614051   2.447   0.337  10.621  0.1606 -0.6930  0.1214
    1TCq1    H114052   2.088   0.469  11.072 -0.9496 -0.9697  1.4391
    1TCq1    H214053   2.229   0.406  10.697 -1.0509  1.5792 -0.6761
    1TCq1    H314054   2.582   0.525  10.894 -0.6681  3.6868  0.0402
    1TCq1    H414055   2.196   0.579  11.074 -1.5519  2.3330 -2.4622
    2MPD1     C14056   2.898   0.635  11.418 -0.0246 -0.1721 -0.0456
    2MPD1    C114057   2.938   0.603  11.288 -0.1275 -0.2697  0.0508
    2MPD1    C214058   2.834   0.574  11.201  0.2669 -0.0306 -0.2813
    2MPD1    C314059   2.703   0.595  11.234 -0.6999  0.0897 -0.1329
    2MPD1    C414060   2.664   0.644  11.354 -0.1506 -0.1132  0.3282
    2MPD1    C514061   2.762   0.658  11.450  0.4890 -0.3600 -0.1738
    2MPD1     H14062   2.850   0.536  11.101 -0.2082 -1.1959  0.0839
    2MPD1    H114063   2.561   0.645  11.387 -0.6784 -2.7776 -1.2090
    2MPD1    H214064   2.972   0.650  11.496 -0.1368  1.6849 -0.3098
    2MPD1    H314065   2.737   0.676  11.554 -2.2079 -3.5188 -0.2837
    2MPD1     N14066   2.609   0.560  11.138 -0.5872  0.1459  0.8759
    2MPD1    H514067   2.646   0.537  11.046  2.0624  0.5089  1.8528
    2MPD1    N114068   3.075   0.571  11.257  0.6931 -0.2125 -0.2551
    2MPD1    H614069   3.144   0.623  11.311 -1.4318  2.3935 -0.0582
    2MPD1    H714070   3.103   0.589  11.161  1.5950 -2.4132 -0.4037
    1TCq1    O114071   1.730   1.571   2.102  0.3027 -0.1096  0.6180
    1TCq1    C114072   1.670   1.456   2.054  0.1248  0.1315 -0.3317
    1TCq1    O214073   1.681   1.350   2.117  0.1433  0.3735 -0.4942
    1TCq1    C214074   1.546   1.512   2.003  0.0450  0.1340 -0.2334
    1TCq1    C314075   1.547   1.633   1.949  0.0951  1.4397  0.1788
    1TCq1    C414076   1.425   1.694   1.935  0.7920 -0.3524  0.0054
    1TCq1    C514077   1.327   1.660   2.026 -0.3352 -0.2812 -0.0981
    1TCq1    C614078   1.338   1.546   2.100 -0.2336 -0.2857 -0.3674
    1TCq1    C714079   1.445   1.470   2.084  0.1692 -0.5079 -1.2419
    1TCq1    C814080   1.221   1.479   2.155  0.1103  0.5292 -0.0947
    1TCq1    O414081   1.239   1.391   2.234 -0.1257  0.5709 -0.0136
    1TCq1    C914082   1.420   1.831   1.882  0.0365 -0.2070  0.5551
    1TCq1    O514083   1.314   1.899   1.904  0.8409 -0.5063 -0.3025
    1TCq1    O614084   1.510   1.855   1.802 -0.3084 -0.0958 -0.1306
    1TCq1    H114085   1.692   1.654   2.067 -0.2413 -1.6689 -2.4173
    1TCq1    H214086   1.631   1.671   1.892  0.9948 -0.7646  0.0265
    1TCq1    H314087   1.247   1.733   2.034 -1.7074 -1.9823  1.5735
    1TCq1    H414088   1.459   1.377   2.138  0.6232  0.6047  0.5454
    2MPD1     C14089   0.716   1.402   2.202 -0.2138  0.1947 -0.2406
    2MPD1    C114090   0.731   1.521   2.134  0.5570 -0.0485  0.7184
    2MPD1    C214091   0.865   1.561   2.109 -0.0473  0.2921  0.3904
    2MPD1    C314092   0.977   1.484   2.146  0.1761 -0.4989 -0.0549
    2MPD1    C414093   0.953   1.362   2.201 -0.1033  0.4079  0.0990
    2MPD1    C514094   0.823   1.319   2.231 -0.5055 -0.4486 -0.2184
    2MPD1     H14095   0.878   1.662   2.070 -0.8429  0.5692  0.8438
    2MPD1    H114096   1.032   1.288   2.214 -1.6251 -1.0869  0.7748
    2MPD1    H214097   0.621   1.354   2.221 -0.7278  1.6593  0.8897
    2MPD1    H314098   0.800   1.221   2.271  0.2952  0.8738  3.5499
    2MPD1     N14099   1.105   1.536   2.118  0.0628  0.1302 -0.3494
    2MPD1    H514100   1.100   1.628   2.074 -2.1485 -0.6041 -1.6568
    2MPD1    N114101   0.616   1.601   2.108  0.9797 -0.5852  0.0140
    2MPD1    H614102   0.524   1.557   2.118  0.6170 -0.1777 -1.5425
    2MPD1    H714103   0.636   1.648   2.021  1.3320  1.8951  1.4476
    1MPD1     C14104   0.132   0.688  12.045  0.3316 -0.3699 -0.4341
    1MPD1    C114105   0.059   0.796  12.010  0.1145 -0.1425  0.0731
    1MPD1    C214106   0.131   0.911  11.961 -0.0908  0.5755 -0.2815
    1MPD1    C314107   0.267   0.909  11.950  0.1602  0.7484  0.3937
    1MPD1    C414108   0.345   0.795  11.986 -1.0256  0.2270 -0.2363
    1MPD1    C514109   0.267   0.696  12.032 -0.2468  0.2153  0.0409
    1MPD1     H14110   0.072   0.997  11.934 -1.2742 -0.5366 -1.2717
    1MPD1    H114111   0.453   0.792  11.989 -1.0622 -0.8120  0.1938
    1MPD1    H214112   0.096   0.594  12.086  1.0161 -0.4536 -0.0408
    1MPD1    H314113   0.322   0.606  12.056  0.6457  0.5535 -0.7151
    1MPD1     N14114   0.332   1.029  11.912  0.2207  0.2968  0.2618
    1MPD1    H514115   0.264   1.101  11.892 -1.9645 -1.5945  0.8265
    1MPD1    N114116   4.646   0.801  12.045  0.2953  0.2015  0.6951
    1MPD1    H614117   4.605   0.883  12.001 -1.6887 -1.2642 -0.1720
    1MPD1    H714118   4.591   0.716  12.043 -3.2623  2.5479 -1.4454
    2MPD1     C14119   4.266   2.018  11.162  0.2678 -0.7086 -0.5761
    2MPD1    C114120   4.220   1.946  11.052  0.0042  0.0145  0.0109
    2MPD1    C214121   4.278   1.829  11.025 -0.1859 -0.2056  0.6341
    2MPD1    C314122   4.370   1.777  11.121 -0.0331 -0.1534  0.5952
    2MPD1    C414123   4.404   1.839  11.236 -0.0408  0.2584  0.1925
    2MPD1    C514124   4.355   1.965  11.257  0.3418 -0.5269  0.5522
    2MPD1     H14125   4.249   1.781  10.933 -1.5218 -0.7077  1.3198
    2MPD1    H114126   4.476   1.800  11.307  0.7331 -2.2702 -1.9875
    2MPD1    H214127   4.228   2.118  11.180 -0.7152 -1.3433  0.8153
    2MPD1    H314128   4.383   2.032  11.337 -0.8545  0.4008  0.1990
    2MPD1     N14129   4.426   1.647  11.100  0.0782 -0.1227  0.1497
    2MPD1    H514130   4.488   1.609  11.171  1.1246  1.7075  0.2403
    2MPD1    N114131   4.144   2.006  10.954 -0.7915 -0.1247  0.3627
    2MPD1    H614132   4.102   1.936  10.894 -0.9459  0.5940 -0.3766
    2MPD1    H714133   4.057   2.039  10.996 -0.5332  1.4883 -0.3773
    3MPD1     C14134   4.348   0.916  10.354  0.2970  0.0875 -0.6879
    3MPD1    C114135   4.285   0.889  10.470  0.5950 -0.5809  0.6139
    3MPD1    C214136   4.323   0.964  10.584 -0.4551 -0.5754 -0.7604
    3MPD1    C314137   4.424   1.053  10.581 -0.2611  0.0654  0.1128
    3MPD1    C414138   4.496   1.071  10.466 -0.5388  0.0498  0.6322
    3MPD1    C514139   4.460   0.996  10.353 -0.9963  0.3691  0.8196
    3MPD1     H14140   4.259   0.950  10.670 -0.2376 -0.7722 -0.6319
    3MPD1    H114141   4.581   1.137  10.453  0.0764 -0.8535  0.0283
    3MPD1    H214142   4.318   0.866  10.263 -0.8446 -1.5198  0.5741
    3MPD1    H314143   4.512   1.014  10.259 -0.7875  0.8998  1.0316
    3MPD1     N14144   4.445   1.129  10.699  0.6650  0.1962  0.6359
    3MPD1    H514145   4.388   1.117  10.783 -1.7859 -0.4270 -1.1269
    3MPD1    N114146   4.167   0.807  10.466  0.3494 -0.0177  0.4287
    3MPD1    H614147   4.150   0.754  10.551  0.4464  0.3202  0.6605
    3MPD1    H714148   4.179   0.741  10.390  0.3635 -0.1983  0.5896
    4MPD2     C14149   0.237   1.718  11.799  0.1763 -0.2253  0.7477
    4MPD2    C114150   0.371   1.690  11.790  0.3782 -0.5726  0.5783
    4MPD2    C214151   0.443   1.748  11.688  0.3039 -0.1035  0.3314
    4MPD2    C314152   0.384   1.824  11.586 -0.7562 -0.4445 -0.2358
    4MPD2    C414153   0.245   1.837  11.583  0.5917 -0.3897 -0.4783
    4MPD2    C514154   0.181   1.794  11.694 -0.2734  0.5288  0.6243
    4MPD2     H14155   0.551   1.733  11.695  0.2327 -0.0843  1.3910
    4MPD2    H114156   0.208   1.915  11.516 -0.7749 -1.5137 -1.0321
    4MPD2    H214157   0.176   1.683  11.881  0.0146  3.0123  2.0093
    4MPD2    H314158   0.080   1.828  11.712 -1.6856 -2.1112 -2.2496
    4MPD2     N14159   0.472   1.904  11.505 -0.3384  0.1335  0.1295
    4MPD2    H514160   0.438   1.953  11.423  2.2196 -1.2156 -1.7305
    4MPD2    N114161   0.435   1.593  11.876 -0.7881 -0.6966 -0.0481
    4MPD2    H714162   0.534   1.576  11.860 -0.3221  1.9517 -0.0030
    5TMC3    C114163   0.466   1.404  11.994  0.3207 -0.8647 -0.2262
    5TMC3    C214164   0.414   1.283  11.968  0.5746 -0.7518 -1.3489
    5TMC3    C314165   0.498   1.195  11.904  0.1444  0.6752  0.6779
    5TMC3    C414166   0.594   1.443  11.955 -0.9355  0.3312 -0.0859
    5TMC3    C514167   0.678   1.346  11.901  0.1573 -0.2375 -0.7054
    5TMC3    C614168   0.624   1.225  11.873  0.1212 -0.4372  0.0770
    5TMC3     C14169   0.373   1.506  11.960 -0.5683  0.1526 -0.1332
    5TMC3     O14170   0.258   1.502  11.998  0.6562 -0.4069 -0.2924
    5TMC3     H14171   0.328   1.253  12.028  0.7780  1.1738 -0.0690
    5TMC3    H114172   0.632   1.537  11.993 -0.0423  0.7650 -2.0879
    5TMC3    H214173   0.684   1.151  11.822  1.5702  1.5808 -1.1573
    5TMC3    C714174   0.750   1.406  11.784  0.5565 -0.7439 -0.0037
    5TMC3    C814175   0.464   1.055  11.893 -0.3974  0.9615 -0.4421
    5TMC3    O114176   0.714   1.516  11.743 -0.1007  0.0568 -0.3198
    5TMC3    O214177   0.559   0.976  11.871 -0.4400  0.6536 -0.3494
    6TMC3    C114178   4.497   1.461  10.972  0.3373  0.1451  0.0502
    6TMC3    C214179   4.473   1.355  10.881 -0.7549 -0.9169  0.1353
    6TMC3    C314180   4.572   1.264  10.853 -0.6844  0.1716  0.4733
    6TMC3    C414181   4.626   1.490  11.009 -0.0350  0.9037  0.1723
    6TMC3    C514182   0.005   1.403  10.974  0.4587 -0.3813 -0.0291
    6TMC3    C614183   4.702   1.293  10.901 -0.3469  0.4812 -0.0460
    6TMC3     C14184   4.401   1.573  10.982  0.7608  0.0593 -0.4384
    6TMC3     O14185   4.318   1.584  10.889  0.3024 -0.3489 -0.1605
    6TMC3     H14186   4.384   1.364  10.820 -0.7109  0.1693  0.2289
    6TMC3    H114187   4.652   1.582  11.060 -0.0592  0.8189  0.3392
    6TMC3    H214188   0.056   1.221  10.875  0.9769  0.5521  3.6787
    6TMC3    C714189   0.138   1.462  10.981 -0.3091 -0.0996 -0.0677
    6TMC3    C814190   4.563   1.194  10.723  0.6988  0.2335 -0.4285
    6TMC3    O114191   0.150   1.584  10.987  0.6147  0.6234  0.3347
    6TMC3    O214192   4.668   1.199  10.658  0.0593 -0.6158 -0.6873
    7MPD2     C14193   1.084   1.371  11.392 -0.2921  0.2613 -0.5749
    7MPD2    C114194   1.008   1.479  11.439 -0.0356  0.0837  0.2678
    7MPD2    C214195   0.936   1.473  11.554  0.0247 -0.3576  0.5378
    7MPD2    C314196   0.932   1.355  11.623  0.5772  0.1560 -0.0862
    7MPD2    C414197   1.011   1.254  11.582 -0.0374 -0.0254  0.6821
    7MPD2    C514198   1.093   1.258  11.473 -0.5633 -0.3500 -0.4421
    7MPD2     H14199   0.882   1.561  11.585  3.1110  0.2699  4.0777
    7MPD2    H114200   1.025   1.162  11.638 -1.1459 -0.4033  0.3523
    7MPD2    H214201   1.139   1.374  11.298  3.4457  0.4625  1.6207
    7MPD2    H314202   1.147   1.169  11.442 -0.2324 -0.3730  0.2064
    7MPD2     N14203   0.845   1.322  11.731 -0.4327 -0.0393  0.0555
    7MPD2    H514204   0.870   1.243  11.790 -3.1431 -1.6096 -0.9288
    7MPD2    N114205   1.004   1.594  11.364  0.3376  0.2628  0.2320
    7MPD2    H714206   1.024   1.582  11.265  1.4392 -0.9990  0.5987
    8TMC3    C114207   0.888   1.807  11.346 -0.3084  0.4066  0.1080
    8TMC3    C214208   0.827   1.749  11.238 -0.2802  0.3115  0.2034
    8TMC3    C314209   0.699   1.799  11.207 -0.0366 -0.5045 -0.1113
    8TMC3    C414210   0.823   1.896  11.427  0.5037  0.1904 -0.3879
    8TMC3    C514211   0.691   1.922  11.411 -0.1643 -0.3983  0.1236
    8TMC3    C614212   0.633   1.886  11.290  0.1629 -0.2159  0.0915
    8TMC3     C14213   0.982   1.722  11.420 -0.5131  0.1461  0.5618
    8TMC3     O14214   1.009   1.758  11.533  0.4364  0.3156 -0.3167
    8TMC3     H14215   0.886   1.687  11.171 -1.3787 -0.7046  0.1859
    8TMC3    H114216   0.875   1.940  11.511 -0.3750 -2.6791  1.6592
    8TMC3    H214217   0.530   1.916  11.277 -0.6503 -2.1101  2.2258
    8TMC3    C714218   0.610   1.929  11.529 -0.3370 -0.1168  1.2858
    8TMC3    C814219   0.611   1.729  11.117  0.9895 -0.2310 -0.4398
    8TMC3    O114220   0.675   1.921  11.633 -0.6142 -0.3323  0.0548
    8TMC3    O214221   0.504   1.781  11.082 -0.2115  0.0740  0.0994
    9MPD2     C14222   0.631   1.365  11.056 -0.4593  0.1714 -0.0355
    9MPD2    C114223   0.568   1.491  11.057  0.1826 -1.2033  0.0242
    9MPD2    C214224   0.438   1.501  11.005 -0.2303 -0.6298  0.5751
    9MPD2    C314225   0.370   1.378  10.986  0.1691 -0.2238  0.6748
    9MPD2    C414226   0.433   1.252  10.979 -0.0139  0.1103  0.4582
    9MPD2    C514227   0.568   1.247  11.018 -0.0241  0.1925 -0.4018
    9MPD2     H14228   0.382   1.592  11.019 -0.3898 -0.8822  1.5362
    9MPD2    H114229   0.383   1.157  10.962  0.9615 -0.6783  1.9705
    9MPD2    H214230   0.735   1.351  11.085  0.1013 -0.2462 -2.2656
    9MPD2    H314231   0.621   1.154  11.034  0.3057  0.6000  0.8871
    9MPD2     N14232   0.231   1.364  10.969  0.0251  0.2819 -0.2271
    9MPD2    H514233   0.197   1.268  10.974 -0.0340  0.5113  3.1590
    9MPD2    N114234   0.651   1.599  11.100 -0.2641  0.7732 -0.2812
    9MPD2    H714235   0.738   1.584  11.150 -0.1763  1.2671 -0.2875
    1MPD1     C14236   1.267   0.805  16.837  0.1952  0.0787  0.5864
    1MPD1    C114237   1.212   0.696  16.767  0.4653  0.7041 -0.5091
    1MPD1    C214238   1.077   0.682  16.752 -0.4227 -0.0041 -0.1364
    1MPD1    C314239   0.994   0.782  16.804 -0.1094 -0.1710 -0.3564
    1MPD1    C414240   1.049   0.887  16.868 -0.2749  0.4517 -0.8926
    1MPD1    C514241   1.183   0.895  16.890 -0.0734  0.3599  0.4913
    1MPD1     H14242   1.036   0.600  16.693 -2.0059  0.2533  0.5919
    1MPD1    H114243   0.976   0.950  16.918 -1.9026 -2.0565 -0.0932
    1MPD1    H214244   1.374   0.809  16.856  0.2915  2.9568 -0.6600
    1MPD1    H314245   1.214   0.973  16.958 -1.0597  1.0960  0.1016
    1MPD1     N14246   0.853   0.780  16.797 -0.0573 -0.2049 -0.5460
    1MPD1    H514247   0.799   0.833  16.865  0.4751  0.5875 -0.7545
    1MPD1    N114248   1.295   0.607  16.702 -0.2072  0.1523  0.4048
    1MPD1    H614249   1.255   0.515  16.686 -0.1840  0.5068 -1.6427
    1MPD1    H714250   1.391   0.606  16.737 -0.7564 -0.4134  1.9356
    2MPD1     C14251   0.267   0.344  16.118 -0.1514 -0.5535 -0.3302
    2MPD1    C114252   0.403   0.365  16.130 -0.1046 -0.2150 -0.3740
    2MPD1    C214253   0.438   0.447  16.239  0.4810  0.4218  0.0993
    2MPD1    C314254   0.348   0.471  16.345  0.0448  0.2438  0.4891
    2MPD1    C414255   0.215   0.445  16.325  0.1420 -0.0889  0.0031
    2MPD1    C514256   0.177   0.379  16.217 -0.2007  0.9693  0.4318
    2MPD1     H14257   0.543   0.467  16.254  0.8452  0.2607 -2.2526
    2MPD1    H114258   0.136   0.462  16.398 -0.0474 -0.7679 -0.0438
    2MPD1    H214259   0.227   0.312  16.023 -1.6348  2.7744 -0.8369
    2MPD1    H314260   0.070   0.364  16.205  0.5210 -2.5319 -1.8540
    2MPD1     N14261   0.401   0.528  16.461 -0.0388 -0.3455 -0.2642
    2MPD1    H514262   0.501   0.548  16.460 -0.6331  2.6599 -0.4863
    2MPD1    N114263   0.500   0.332  16.029  0.4741 -0.6295  0.6958
    2MPD1    H614264   0.490   0.239  15.990 -0.5457 -0.1413 -0.2268
    2MPD1    H714265   0.591   0.341  16.073  1.6526  1.6203 -2.1962
    3TCq2    C114266   0.345   0.536  16.579  0.2038 -0.6569  0.1673
    3TCq2    O214267   0.237   0.494  16.617 -0.2094  0.0431  0.1058
    3TCq2    C214268   0.439   0.594  16.678 -0.2323  0.3895  0.8285
    3TCq2    C314269   0.412   0.561  16.809  0.3094 -0.8298  0.0919
    3TCq2    C414270   0.492   0.612  16.906 -0.0716  0.1501 -0.7505
    3TCq2    C514271   0.604   0.684  16.869  0.4241  0.0844  0.8588
    3TCq2    C614272   0.639   0.698  16.739 -0.0594 -0.0500  0.9577
    3TCq2    C714273   0.555   0.665  16.641  0.5874 -0.1736  0.4826
    3TCq2    C814274   0.781   0.700  16.710  0.3686 -0.0704  0.2162
    3TCq2    O414275   0.812   0.654  16.602 -0.5281 -0.2110  0.1356
    3TCq2    C914276   0.465   0.583  17.047 -0.2479  0.3078  0.7764
    3TCq2    O514277   0.353   0.531  17.070  0.3761  0.2219 -0.3501
    3TCq2    O614278   0.560   0.569  17.127  0.0894 -0.0805 -0.2073
    3TCq2    H214279   0.346   0.480  16.838  0.6677 -1.5894 -1.1746
    3TCq2    H314280   0.662   0.714  16.955 -0.1037  3.5174 -0.0060
    3TCq2    H414281   0.593   0.662  16.539  2.0582 -2.3231  1.0717
    1TCq1    O114282   3.417   4.522  12.700 -0.0935 -0.4266 -0.3723
    1TCq1    C114283   3.433   4.605  12.806 -0.7218 -0.1294 -0.2900
    1TCq1    O214284   3.483   4.715  12.819 -0.4248 -0.1511  0.3393
    1TCq1    C214285   3.362   4.547  12.916 -0.6176  0.1132  0.3597
    1TCq1    C314286   3.236   4.501  12.890  0.7375 -0.3954 -0.6331
    1TCq1    C414287   3.176   4.413  12.979 -0.0125 -0.2254 -1.2718
    1TCq1    C514288   3.227   4.390  13.100 -0.3977  0.3041  0.0123
    1TCq1    C614289   3.345   4.443  13.131 -0.0176  0.6292 -0.2030
    1TCq1    C714290   3.417   4.521  13.041 -0.4945 -0.3521  0.6927
    1TCq1    C814291   3.396   4.425  13.265  0.2858 -0.4407  0.0649
    1TCq1    O414292   3.316   4.415  13.356  0.5071 -0.0300 -0.3315
    1TCq1    C914293   3.046   4.356  12.958 -0.1386 -0.4309  0.3242
    1TCq1    O514294   2.989   4.393  12.851  0.1358 -0.0356  0.1411
    1TCq1    O614295   3.019   4.245  13.007  0.4884  0.0999 -0.0259
    1TCq1    H114296   3.378   4.432  12.707  0.0196 -0.1739  3.2426
    1TCq1    H214297   3.204   4.507  12.786  0.3296 -0.9531 -0.5381
    1TCq1    H314298   3.177   4.321  13.167  0.7409 -1.4172 -0.8899
    1TCq1    H414299   3.517   4.557  13.063 -1.6285  2.8602  0.6560
    2MPD2     C14300   3.756   4.402  13.332 -0.0251 -0.3622  0.4792
    2MPD2    C114301   3.623   4.433  13.360  0.3637 -0.5147  0.6317
    2MPD2    C214302   3.585   4.483  13.490 -0.1177 -0.5279  0.1840
    2MPD2    C314303   3.682   4.507  13.588  0.6793 -0.6783 -0.1890
    2MPD2    C414304   3.816   4.486  13.550 -0.0533 -0.4152 -0.5035
    2MPD2    C514305   3.852   4.429  13.432  0.1933 -0.4462  0.5920
    2MPD2     H14306   3.488   4.529  13.507 -1.5099 -3.9609  1.4429
    2MPD2    H114307   3.897   4.507  13.619  0.4368  1.4496 -1.6357
    2MPD2    H214308   3.788   4.370  13.233 -0.7146 -1.3603  0.5789
    2MPD2    H314309   3.955   4.407  13.407 -0.4982 -3.7093  0.6061
    2MPD2     N14310   3.643   4.538  13.721 -0.7735 -0.1151 -0.4954
    2MPD2    H514311   3.545   4.539  13.749 -0.3163 -0.8141  1.1486
    2MPD2    N114312   3.527   4.425  13.256 -0.4342 -0.0968  0.1176
    2MPD2    H714313   3.562   4.413  13.161  0.3926 -1.7072  0.6311
    3TCq1    O114314   3.268   0.051  14.097 -0.0623 -0.2316 -0.1926
    3TCq1    C114315   3.374   0.095  14.020 -0.5638  0.1717  0.8961
    3TCq1    O214316   3.358   0.150  13.911  0.1329 -0.7693 -0.5781
    3TCq1    C214317   3.480   4.721  14.033 -0.1129 -0.1218 -0.3094
    3TCq1    C314318   3.533   4.718  14.164  0.2240 -0.3315 -0.0247
    3TCq1    C414319   3.652   4.656  14.176 -0.4417  0.4998  0.1181
    3TCq1    C514320   3.713   4.592  14.072  0.2146 -0.4549 -0.2801
    3TCq1    C614321   3.658   4.603  13.945 -0.0370  0.2321 -0.3302
    3TCq1    C714322   3.544   4.681  13.925  0.8497  0.4003  0.4357
    3TCq1    C814323   3.730   4.560  13.825  0.5371 -0.4699  0.1359
    3TCq1    O414324   3.852   4.541  13.844  0.0934  0.2771  0.2715
    3TCq1    C914325   3.703   4.656  14.312  0.1882 -0.8076 -0.2649
    3TCq1    O514326   3.621   4.704  14.393 -0.3974  0.1763  0.1912
    3TCq1    O614327   3.823   4.641  14.337  0.1943  0.5259 -0.6288
    3TCq1    H114328   3.290   0.032  14.191 -1.2343 -0.4732  0.0300
    3TCq1    H214329   3.480   0.049  14.241  1.7124 -2.1757  2.2846
    3TCq1    H314330   3.795   4.523  14.086 -0.6067 -1.7844 -2.1226
    3TCq1    H414331   3.492   4.689  13.830  0.5227  0.4128  0.6127
    1MPD2     C14332   3.779   1.052  14.705 -0.4496  0.3515 -0.0920
    1MPD2    C114333   3.799   1.093  14.833 -0.4247 -0.5069  0.4302
    1MPD2    C214334   3.912   1.047  14.902  0.8595  0.1457  0.3963
    1MPD2    C314335   4.003   0.956  14.851  0.0982  0.3502 -0.6444
    1MPD2    C414336   3.987   0.920  14.719  0.0898 -0.4249 -0.8364
    1MPD2    C514337   3.874   0.962  14.654  0.4240  0.4109 -0.4599
    1MPD2     H14338   3.936   1.091  14.998  1.3077  2.9260 -0.9792
    1MPD2    H114339   4.056   0.850  14.673  0.6963 -0.1421 -0.3652
    1MPD2    H214340   3.706   1.094  14.637 -0.0994  0.3220 -0.4860
    1MPD2    H314341   3.865   0.926  14.553 -1.3205 -0.1341 -0.1114
    1MPD2     N14342   4.104   0.914  14.928 -0.4580 -0.5671 -0.2129
    1MPD2    H514343   4.101   0.948  15.024 -0.2199  1.8939 -1.0975
    1MPD2    N114344   3.714   1.193  14.884  0.0280 -0.6481 -0.0605
    1MPD2    H714345   3.631   1.213  14.829  1.4653 -0.9239 -2.3065
    2TMC3    C114346   3.594   1.333  15.036  0.6310 -0.8592 -0.8765
    2TMC3    C214347   3.608   1.364  15.168  0.7258 -0.2524 -0.0460
    2TMC3    C314348   3.510   1.356  15.261 -0.9300 -0.1317  0.4908
    2TMC3    C414349   3.472   1.276  14.993  0.3351  0.3354 -0.2452
    2TMC3    C514350   3.373   1.270  15.083  0.0840 -0.8694  0.5817
    2TMC3    C614351   3.392   1.314  15.212  0.1550 -0.3926 -0.2911
    2TMC3     C14352   3.720   1.265  15.000 -0.3039  0.2021  0.3566
    2TMC3     O14353   3.806   1.254  15.089 -0.4921  0.3865  0.8012
    2TMC3     H14354   3.693   1.424  15.195 -2.3001  2.9103  2.3590
    2TMC3    H114355   3.464   1.239  14.891 -2.1236  1.4137 -0.4432
    2TMC3    H214356   3.316   1.304  15.288 -1.1859  1.5168 -1.3990
    2TMC3    C714357   3.238   1.239  15.043  0.6349 -0.1613 -0.1914
    2TMC3    C814358   3.548   1.274  15.374 -0.0971 -0.7505  0.7503
    2TMC3    O114359   3.161   1.211  15.129  0.4328  0.4968 -0.0241
    2TMC3    O214360   3.475   1.257  15.471  0.2207  0.6564  0.1570
    3TCq1    O114361   2.642   0.862  14.080  0.2205  0.2461 -0.4673
    3TCq1    C114362   2.753   0.900  14.014  0.4224  0.7442  0.2888
    3TCq1    O214363   2.787   0.863  13.900 -0.5491  0.4630 -0.0967
    3TCq1    C214364   2.839   0.975  14.093 -0.4600  0.2098  0.1398
    3TCq1    C314365   2.915   1.063  14.031  0.1368 -0.1734  0.0463
    3TCq1    C414366   2.987   1.152  14.105 -0.3132 -0.6815 -0.1978
    3TCq1    C514367   2.981   1.152  14.243 -0.2072 -0.4754 -0.0101
    3TCq1    C614368   2.909   1.057  14.302  0.3933 -0.1070 -0.5410
    3TCq1    C714369   2.840   0.961  14.234  0.4517 -1.2662 -0.2598
    3TCq1    C814370   2.883   1.055  14.446  0.2452 -0.3721 -0.0420
    3TCq1    O414371   2.768   1.030  14.472 -0.0914  0.3287 -0.0554
    3TCq1    C914372   3.064   1.247  14.028  0.3667 -0.0336  0.1996
    3TCq1    O514373   3.188   1.256  14.064 -0.3079 -0.3973  0.0223
    3TCq1    O614374   2.997   1.327  13.965  0.0868  1.0379  0.1211
    3TCq1    H114375   2.626   0.908  14.165  3.0030 -0.1842  0.2940
    3TCq1    H214376   2.920   1.069  13.923  1.5257 -1.6452  0.0314
    3TCq1    H314377   3.036   1.213  14.314 -3.1252  0.1928  1.6904
    3TCq1    H414378   2.788   0.887  14.294  0.1036  0.6353  1.7655
    4MPD2     C14379   2.861   1.092  14.734  0.0220  0.0367  0.2130
    4MPD2    C114380   2.961   1.143  14.658  0.2935  0.0458 -0.4290
    4MPD2    C214381   3.068   1.210  14.719  0.6418  0.0194 -0.3369
    4MPD2    C314382   3.089   1.223  14.854  0.1233  0.1616 -0.4501
    4MPD2    C414383   2.981   1.174  14.927  0.5199  0.3879  0.9743
    4MPD2    C514384   2.864   1.118  14.871  0.1482 -0.2682  0.3692
    4MPD2     H14385   3.141   1.247  14.647 -0.6378  2.4722 -0.3617
    4MPD2    H114386   2.978   1.193  15.034 -0.6576  1.3309  0.7735
    4MPD2    H214387   2.775   1.039  14.695  0.7787 -1.2303  0.3000
    4MPD2    H314388   2.785   1.081  14.936  0.3115 -2.4279 -0.6736
    4MPD2     N14389   3.218   1.257  14.911 -0.6308  0.4683  0.4759
    4MPD2    H514390   3.291   1.282  14.844  0.5743 -0.9314  1.2413
    4MPD2    N114391   2.979   1.117  14.523 -0.0482 -0.4634  1.3427
    4MPD2    H714392   3.075   1.128  14.491  0.1613 -0.1241  2.0995
    5TMC2    C114393   4.209   0.875  15.228  0.3981 -0.0088  0.3349
    5TMC2    C214394   4.210   0.738  15.258 -0.5899 -0.3962  0.3058
    5TMC2    C314395   4.269   0.652  15.169  0.3987  0.9769 -0.2046
    5TMC2    C414396   4.264   0.908  15.112  0.1597  0.9755 -0.3085
    5TMC2    C514397   4.295   0.819  15.015 -0.3825 -0.1364  0.4373
    5TMC2    C614398   4.315   0.691  15.049  0.7291 -0.2233  0.4818
    5TMC2     C14399   4.094   0.942  15.263  0.4187  0.0256  0.4035
    5TMC2     O14400   4.068   1.035  15.186  0.0305  0.0785  0.2296
    5TMC2     H14401   4.156   0.694  15.341  0.1876 -2.1940 -0.1332
    5TMC2    H114402   4.269   1.015  15.093 -1.2098  1.2066  0.6197
    5TMC2    H214403   4.342   0.614  14.977  1.3819 -0.2876  0.7986
    5TMC2    C714404   4.216   0.840  14.898 -0.4058  0.4915  0.5689
    5TMC2    C814405   4.308   0.511  15.207 -0.4399  0.1780 -0.2080
    5TMC2    O114406   4.249   0.794  14.789 -0.5692  0.3095 -0.5445
    5TMC2    O214407   4.328   0.421  15.127  0.2301  0.2805 -0.7310
    5TMC2    O514408   4.371   0.507  15.323  0.0697 -0.2180  0.3114
    5TMC2    H514409   4.387   0.600  15.350  0.9668 -0.6417  1.2226
    6MPD2     C14410   3.672   1.040  15.527 -0.5331 -0.5634  0.0859
    6MPD2    C114411   3.724   1.097  15.412  0.4785  0.9533 -0.2726
    6MPD2    C214412   3.844   1.054  15.370  0.2797 -1.0066 -0.2914
    6MPD2    C314413   3.902   0.942  15.424 -0.7302 -0.0983 -0.6967
    6MPD2    C414414   3.846   0.876  15.525 -0.3303  0.4338 -0.1204
    6MPD2    C514415   3.735   0.927  15.582  0.2998  0.5198  0.2269
    6MPD2     H14416   3.898   1.109  15.294  2.1904 -0.5102  1.3959
    6MPD2    H114417   3.892   0.790  15.573  1.9343  1.5709 -0.2519
    6MPD2    H214418   3.580   1.079  15.569  0.2215 -1.2266  2.3289
    6MPD2    H314419   3.697   0.885  15.674 -0.1626 -0.2052 -0.3001
    6MPD2     N14420   4.024   0.893  15.371  0.2448  0.0006 -0.7639
    6MPD2    H514421   4.072   0.814  15.414  1.1712  0.0280 -1.7370
    6MPD2    N114422   3.662   1.202  15.340  0.0941  0.6895 -0.2652
    6MPD2    H714423   3.714   1.225  15.256  0.4183 -0.5139 -0.4009
  945NH4     N114424   2.233   3.192   9.187  0.3103  0.2337  0.0184
  945NH4     H214425   2.176   3.208   9.101 -0.2015 -0.9536  0.1343
  945NH4     H314426   2.167   3.145   9.252  1.1669  1.2026  1.5720
  945NH4     H414427   2.269   3.283   9.221  2.7446 -1.2384  1.3742
  945NH4     H514428   2.310   3.124   9.170 -0.8378 -0.5385 -2.1483
  946SOD     NA14429   2.016   4.462   4.229 -0.2465  0.0011  0.2615
  947SOD     NA14430   0.796   4.443  17.396 -0.2251  0.0509  0.3307
  948SOD     NA14431   1.436   4.618   2.253  0.1790  0.0453  0.0837
  949SOD     NA14432   4.336   1.771  17.092 -0.4176  0.6796 -0.0997
  950SOD     NA14433   1.490   1.265   1.190 -0.3755  0.6427 -0.4931
  951SOD     NA14434   2.750   0.336   3.140  0.1246 -0.4104  0.1559
  952SOD     NA14435   3.777   3.437  11.327  0.4496 -0.2871  0.2050
  953SOD     NA14436   1.100   0.170   7.125 -0.4248 -0.5994 -0.0064
  954SOD     NA14437   3.463   0.170  12.435 -0.3878 -0.2333 -0.1231
  955SOD     NA14438   2.628   0.186  10.685  0.2713  0.1701 -0.1297
  956SOD     NA14439   2.635   3.663  13.291 -0.4067  0.1148 -0.0432
  957SOD     NA14440   0.779   1.960   1.351 -0.5625  0.0100  0.1927
  958SOD     NA14441   2.438   3.664  14.652  0.2208 -0.7268  0.4522
  959SOD     NA14442   1.236   3.090  12.412 -0.0092 -0.5367 -0.5238
  960SOD     NA14443   2.309   0.173  10.572  0.0805 -0.0029 -0.2670
  961SOD     NA14444   0.980   4.151   2.160  0.2498 -0.4059 -0.0308
  962SOD     NA14445   3.506   1.930  12.579 -0.0810 -0.2655  0.2965
  963SOD     NA14446   4.179   4.685  14.508 -0.2246  0.1914  0.5764
  964SOD     NA14447   0.429   3.263  13.658  0.2242 -0.1065 -0.1470
  965SOD     NA14448   1.086   1.642  12.001  0.1974  0.0450  0.3322
  966SOD     NA14449   2.406   3.536   1.083  0.0436 -0.4260 -0.3619
  967SOD     NA14450   3.430   3.115  10.165 -0.2870  0.0115  0.2849
  968SOD     NA14451   2.132   1.118  11.110 -0.3595 -0.3736 -0.0329
  969SOD     NA14452   1.998   0.349  10.539 -0.4054  0.2082  0.2634
  970SOD     NA14453   0.092   1.430   8.476 -0.2631 -0.2340  0.1632
  971SOD     NA14454   3.871   0.021  14.516 -0.0011 -0.0230 -0.4677
  972SOD     NA14455   3.998   4.529  14.311  0.1163  0.0247  0.0181
  973SOD     NA14456   3.117   4.052  13.025  0.1244 -0.2731  0.0527
  974SOD     NA14457   1.858   4.584   0.930  0.3094  0.6267 -0.0173
  975SOD     NA14458   0.106   4.207   4.303 -0.2433  0.4744 -0.6711
  976SOD     NA14459   3.678   3.633  10.064  0.0084 -0.3276  0.2674
  977SOD     NA14460   1.123   4.007   0.071 -0.2832 -0.1425 -0.1454
  978SOD     NA14461   3.460   3.583  15.944  0.2405 -0.0177  0.1256
  979SOD     NA14462   3.370   4.641  11.912  0.1854  0.4547 -0.4916
  980SOD     NA14463   2.222   1.191  14.814 -0.3777  0.0754  0.2099
  981SOD     NA14464   1.631   3.285  10.857 -0.3660 -0.1423  0.5396
  982SOD     NA14465   1.451   0.195   5.713 -0.0305 -0.2748  0.1090
  983SOD     NA14466   0.141   2.349  16.817  0.0334  0.1335  0.0150
  984SOD     NA14467   0.482   0.471  15.847  0.2823  0.1233  0.6790
  985SOD     NA14468   2.486   3.215   7.668  0.2193 -0.2802  0.2469
  986SOD     NA14469   3.436   4.363  11.842 -0.0630 -0.1304 -0.3782
  987SOD     NA14470   3.818   3.651  12.340 -0.2861  0.1999  0.1671
  988SOD     NA14471   3.756   3.686   0.566 -0.1373 -0.0506 -0.8458
  989SOD     NA14472   0.007   0.888   2.523 -0.3220 -0.3506  0.3068
  990SOD     NA14473   3.325   4.174  10.428  0.1535  0.6524 -0.0282
  991SOD     NA14474   2.043   2.333  10.768  0.2582 -0.1194 -0.0922
  992SOD     NA14475   3.783   2.526  14.244  0.0585  0.6308  0.0837
  993SOD     NA14476   0.568   0.394  14.900 -0.0969  0.2002 -0.7336
  994SOD     NA14477   3.117   0.564  14.743  0.9360 -0.0521  0.0681
  995SOD     NA14478   2.576   2.137  10.936 -0.4566  0.0504 -0.1625
  996SOD     NA14479   3.013   4.374  13.700  0.0234  0.5821  0.2453
  997SOD     NA14480   1.811   2.166   8.992 -0.5270 -0.0297  0.2896
  998SOD     NA14481   4.670   0.762  13.503  0.1824  0.3105  0.5900
  999SOD     NA14482   0.404   2.815  13.257 -0.2288 -0.3505 -0.1119
 1000SOD     NA14483   2.852   0.086  10.506  0.1279 -0.0037  0.6691
 1001SOD     NA14484   3.273   1.170  15.554  0.7099 -0.0557 -0.3307
 1002SOD     NA14485   4.520   2.419   5.620  0.1110  0.2029  0.2914
 1003SOD     NA14486   4.571   2.216   2.463  0.4795 -0.1538  0.1307
 1004SOD     NA14487   0.477   0.060  14.987 -0.1156  0.4781  0.1070
 1005SOD     NA14488   0.458   2.661  14.650  0.6929  0.4211  0.1182
 1006SOD     NA14489   3.124   1.008  12.180 -0.0181 -0.0792 -0.2422
 1007SOD     NA14490   1.707   0.056   8.690  0.2251 -0.1532  0.6039
 1008SOD     NA14491   3.526   3.130   3.597 -0.0020 -0.1000 -0.3586
 1009SOD     NA14492   4.494   0.319  10.610  0.3778  0.2283  0.0865
 1010SOD     NA14493   0.368   2.622   1.752 -0.2358  0.2213 -0.6344
 1011SOL     OW14494   3.006   0.858   2.273 -0.1343  0.2844  0.0071
 1011SOL    HW114495   2.983   0.867   2.365 -0.8064  2.5163 -0.3896
 1011SOL    HW214496   2.985   0.945   2.241 -0.9513 -0.0285 -0.3046
 1012SOL     OW14497   0.122   0.615  16.984  0.2422 -0.4501  0.1614
 1012SOL    HW114498   0.209   0.579  16.999 -0.5181 -2.2282  0.3251
 1012SOL    HW214499   0.154   0.705  16.980  2.9494 -1.3816  0.9712
 1013SOL     OW14500   2.446   2.660  10.883 -0.0160  0.6249  0.3659
 1013SOL    HW114501   2.437   2.605  10.961  0.6581  0.3043  0.2208
 1013SOL    HW214502   2.355   2.686  10.869 -0.5284 -0.9015  0.8787
 1014SOL     OW14503   0.006   0.842  10.212  0.1115 -0.2910 -0.2958
 1014SOL    HW114504   0.007   0.931  10.248  1.6032 -0.8780  1.1359
 1014SOL    HW214505   4.695   0.856  10.124 -1.3393 -1.8203  0.0237
 1015SOL     OW14506   2.184   0.128   3.124 -0.4315  0.3396 -0.2527
 1015SOL    HW114507   2.110   0.126   3.185 -0.0495  1.2485  0.2427
 1015SOL    HW214508   2.212   0.218   3.140  0.0986  0.3223 -1.0723
 1016SOL     OW14509   1.520   0.830   3.494  0.4162 -0.2662 -0.4832
 1016SOL    HW114510   1.541   0.900   3.556  3.0743 -0.4803 -1.1230
 1016SOL    HW214511   1.426   0.845   3.488  0.1604 -1.9098 -0.6493
 1017SOL     OW14512   4.668   3.702   4.724 -0.5411  0.3688 -0.2960
 1017SOL    HW114513   4.721   3.631   4.688 -0.7077  1.1890 -2.1461
 1017SOL    HW214514   0.012   3.749   4.773 -1.1403  2.1100 -1.1253
 1018SOL     OW14515   0.743   3.198   5.800 -0.0155  0.3565  0.4916
 1018SOL    HW114516   0.651   3.184   5.777  0.6986  0.2699 -2.2724
 1018SOL    HW214517   0.763   3.109   5.827  0.5808  0.7580  1.3466
 1019SOL     OW14518   3.672   2.270   5.063 -0.3728  0.1496  0.4178
 1019SOL    HW114519   3.587   2.311   5.076  0.0556  1.7019 -1.7753
 1019SOL    HW214520   3.676   2.228   4.977  0.0438  3.4003 -1.1436
 1020SOL     OW14521   2.816   3.130   6.875  0.7042  0.1446  0.2041
 1020SOL    HW114522   2.910   3.133   6.857  0.8259  1.6825  1.0707
 1020SOL    HW214523   2.788   3.221   6.863 -0.1679 -0.1689 -0.1044
 1021SOL     OW14524   0.725   2.275  15.279 -0.3343 -0.2384  0.1290
 1021SOL    HW114525   0.753   2.283  15.188 -1.9536  1.0691 -0.2357
 1021SOL    HW214526   0.688   2.187  15.277 -0.1272 -0.3553  1.1087
 1022SOL     OW14527   2.630   2.402   2.078  0.2375 -0.0903  0.0409
 1022SOL    HW114528   2.603   2.485   2.117  1.1772 -0.1605  0.8431
 1022SOL    HW214529   2.613   2.413   1.984 -1.2455  0.8268  0.4253
 1023SOL     OW14530   4.486   2.142   5.996 -0.1709 -0.4786  0.5775
 1023SOL    HW114531   4.537   2.217   5.964  0.8517 -0.0562  3.1896
 1023SOL    HW214532   4.552   2.072   5.986  1.7838  1.5213 -0.5083
 1024SOL     OW14533   2.643   1.650   5.765  0.5576  0.1365  0.0833
 1024SOL    HW114534   2.646   1.684   5.675 -3.7733  0.8284  0.2272
 1024SOL    HW214535   2.686   1.727   5.802 -0.9304  0.1005  1.8641
 1025SOL     OW14536   1.695   1.554   8.937  0.3825  0.6048 -0.4680
 1025SOL    HW114537   1.711   1.484   8.874  0.4531 -0.1320  0.3808
 1025SOL    HW214538   1.769   1.526   8.990 -0.0482 -0.8535 -0.6375
 1026SOL     OW14539   0.119   1.838   8.088  0.3836  0.9878 -0.3298
 1026SOL    HW114540   0.134   1.745   8.075 -1.0221  1.0211 -2.0994
 1026SOL    HW214541   0.040   1.832   8.142  0.4054  2.2755 -0.1456
 1027SOL     OW14542   0.968   0.770  12.335 -0.3809  0.2258 -0.0142
 1027SOL    HW114543   0.889   0.737  12.379  0.3242  1.2534  2.0352
 1027SOL    HW214544   1.043   0.720  12.366  0.4435  1.9034  0.6628
 1028SOL     OW14545   2.524   0.762   6.946  0.0165 -0.6837 -0.4936
 1028SOL    HW114546   2.488   0.746   7.033  2.0497  0.7485  0.6097
 1028SOL    HW214547   2.598   0.819   6.967 -0.7117  0.4937 -1.1387
 1029SOL     OW14548   0.398   2.263   4.465 -0.9190 -0.3304  0.5111
 1029SOL    HW114549   0.365   2.352   4.452 -0.3708 -0.1672  0.2568
 1029SOL    HW214550   0.486   2.271   4.501 -1.3445  3.3877  0.6822
 1030SOL     OW14551   4.401   4.169   9.272 -0.4762 -0.0250 -0.0004
 1030SOL    HW114552   4.351   4.201   9.196  1.6291 -1.0470 -1.8101
 1030SOL    HW214553   4.333   4.131   9.326 -1.6532  2.6989  0.4542
 1031SOL     OW14554   1.427   1.988   7.500 -0.0036  0.5900 -0.0217
 1031SOL    HW114555   1.494   1.956   7.439  0.3071  2.0017 -0.4325
 1031SOL    HW214556   1.404   2.070   7.456  1.2214  0.6280 -0.5906
 1032SOL     OW14557   0.350   1.421  15.449 -0.2440  0.5350 -0.6499
 1032SOL    HW114558   0.422   1.383  15.399 -0.1141 -0.1204  0.0431
 1032SOL    HW214559   0.383   1.509  15.467  1.3856 -0.6694  2.2983
 1033SOL     OW14560   3.650   2.502   3.135  0.2697 -0.0055 -0.5136
 1033SOL    HW114561   3.612   2.551   3.062  1.1387  0.6798 -0.5099
 1033SOL    HW214562   3.576   2.447   3.162 -0.6113  1.3616 -0.1527
 1034SOL     OW14563   4.062   1.964   5.286  0.0748  0.3438 -0.2096
 1034SOL    HW114564   4.114   1.892   5.320 -0.1024  0.0792 -0.4991
 1034SOL    HW214565   4.100   2.041   5.328 -0.4107  0.3344  0.2384
 1035SOL     OW14566   0.059   4.218   3.485  0.1292  0.0237 -0.0658
 1035SOL    HW114567   4.718   4.200   3.554 -1.6196  0.0694 -1.6774
 1035SOL    HW214568   0.135   4.215   3.543 -1.1042  1.1528  1.6183
 1036SOL     OW14569   3.186   0.407  10.396  0.2658  0.2079 -0.0327
 1036SOL    HW114570   3.159   0.499  10.388  2.3523  0.7300 -1.0660
 1036SOL    HW214571   3.280   0.423  10.383  0.7392 -0.7926  2.2279
 1037SOL     OW14572   1.159   0.604   5.689 -0.2457 -0.1790  0.8630
 1037SOL    HW114573   1.074   0.646   5.684 -1.6948 -3.2399 -0.3845
 1037SOL    HW214574   1.210   0.682   5.709  1.5963 -1.9406  3.0593
 1038SOL     OW14575   4.474   1.070   6.796  0.2817 -0.5146  0.5008
 1038SOL    HW114576   4.448   1.131   6.726 -1.0383  1.1126  2.3966
 1038SOL    HW214577   4.390   1.047   6.837 -0.7096 -1.5271 -2.0686
 1039SOL     OW14578   4.636   4.418   8.223 -0.2352  0.0137 -0.1309
 1039SOL    HW114579   4.640   4.506   8.187 -0.5918  0.7467  1.6076
 1039SOL    HW214580   4.705   4.377   8.171 -0.1152 -0.2472  0.2270
 1040SOL     OW14581   3.308   1.826   2.877  0.2716  0.3273 -0.0521
 1040SOL    HW114582   3.222   1.801   2.910  0.7203 -3.8194 -2.0784
 1040SOL    HW214583   3.329   1.779   2.797 -1.7760 -1.8014  0.6666
 1041SOL     OW14584   2.080   3.733   5.947  0.8632 -0.2601  0.1567
 1041SOL    HW114585   2.078   3.674   5.871 -1.8934 -1.1875  0.9639
 1041SOL    HW214586   2.124   3.811   5.914 -0.0976  0.7755  1.3285
 1042SOL     OW14587   3.544   4.176   1.900  0.0846 -0.1754 -0.3019
 1042SOL    HW114588   3.566   4.211   1.814  1.7617 -0.3866  0.0528
 1042SOL    HW214589   3.565   4.082   1.897 -0.6143 -0.3316 -0.4883
 1043SOL     OW14590   4.169   3.203  10.428 -0.1102  0.3974 -0.0317
 1043SOL    HW114591   4.208   3.117  10.410 -0.1865 -0.0129  1.7402
 1043SOL    HW214592   4.217   3.234  10.505  1.3303 -1.0204 -0.3669
 1044SOL     OW14593   3.555   0.136   1.593 -0.2681 -0.3042 -0.2155
 1044SOL    HW114594   3.627   0.076   1.576 -0.0485  0.4404 -1.8738
 1044SOL    HW214595   3.487   0.118   1.528 -1.0897  0.7677  0.3468
 1045SOL     OW14596   3.379   0.563   3.268 -0.1185  0.3245  0.5109
 1045SOL    HW114597   3.441   0.636   3.264  0.2724 -0.1585 -1.8932
 1045SOL    HW214598   3.390   0.536   3.177 -0.0797  0.8271  0.3637
 1046SOL     OW14599   0.572   1.042  13.326  1.0566  0.5157 -0.0228
 1046SOL    HW114600   0.533   1.010  13.245  0.1286 -1.1743  1.1039
 1046SOL    HW214601   0.544   0.982  13.395  0.6490  0.2128 -0.4524
 1047SOL     OW14602   1.675   2.589  10.685  0.2445 -0.1454  0.5913
 1047SOL    HW114603   1.637   2.500  10.684  0.7124 -0.3382  0.3514
 1047SOL    HW214604   1.601   2.637  10.648 -0.6379 -0.6560  1.6770
 1048SOL     OW14605   4.094   3.523   3.367 -0.1783  0.2381 -0.0428
 1048SOL    HW114606   4.057   3.577   3.297  1.2190  1.1093 -0.1135
 1048SOL    HW214607   4.187   3.523   3.345 -0.3849 -1.1717 -0.9584
 1049SOL     OW14608   3.407   3.493   0.346 -0.5379 -0.1701  0.0146
 1049SOL    HW114609   3.389   3.504   0.440  0.9663  2.2237  0.0358
 1049SOL    HW214610   3.371   3.407   0.327 -0.9981 -0.0181  0.1861
 1050SOL     OW14611   2.457   3.336   1.146 -0.5182  0.2810  0.2752
 1050SOL    HW114612   2.409   3.257   1.171 -2.2876  0.6385 -1.9374
 1050SOL    HW214613   2.541   3.291   1.133 -1.3284 -1.8178  2.4100
 1051SOL     OW14614   2.732   3.188   6.195  0.3817 -0.7887  0.7128
 1051SOL    HW114615   2.720   3.239   6.114 -0.7921 -1.3272  0.5451
 1051SOL    HW214616   2.645   3.151   6.214 -0.2465  0.9995  1.3116
 1052SOL     OW14617   0.429   3.495  14.641 -0.2208  0.4138 -0.3550
 1052SOL    HW114618   0.425   3.570  14.582  0.7221  3.6244  3.5795
 1052SOL    HW214619   0.441   3.421  14.581  0.1905  0.5466 -0.4414
 1053SOL     OW14620   4.375   4.318   3.637 -0.3810  0.1138 -0.5902
 1053SOL    HW114621   4.428   4.398   3.631 -0.4808  0.1673 -0.7776
 1053SOL    HW214622   4.290   4.346   3.602 -0.4617  1.0681  0.3853
 1054SOL     OW14623   4.219   2.697  14.145 -0.3330 -0.4143 -0.3184
 1054SOL    HW114624   4.192   2.731  14.230  1.3721  0.8009 -0.2491
 1054SOL    HW214625   4.289   2.635  14.166  0.4494  1.1891  1.7613
 1055SOL     OW14626   2.905   1.593   7.319  0.4235  0.0884  0.3605
 1055SOL    HW114627   2.892   1.532   7.247 -1.5001 -0.4946  1.2033
 1055SOL    HW214628   2.850   1.664   7.285 -1.8675 -0.4392  2.9177
 1056SOL     OW14629   0.802   2.475  14.689  0.4180 -0.1381  0.4097
 1056SOL    HW114630   0.725   2.526  14.661  2.2440  3.4936  1.9614
 1056SOL    HW214631   0.770   2.417  14.758  0.7575 -0.4545  0.3023
 1057SOL     OW14632   2.675   2.774  11.506  0.5279  0.0328  0.0849
 1057SOL    HW114633   2.750   2.742  11.456 -1.2500 -2.7055 -0.8420
 1057SOL    HW214634   2.697   2.866  11.520  2.1256 -0.3135 -0.1196
 1058SOL     OW14635   0.500   3.011  12.872 -0.2620  0.3506 -0.3136
 1058SOL    HW114636   0.441   3.065  12.924 -0.5828 -0.3989  0.0850
 1058SOL    HW214637   0.569   3.076  12.855  1.6642 -1.1989  1.5411
 1059SOL     OW14638   1.586   0.793   7.811  0.1743  0.2662  0.1828
 1059SOL    HW114639   1.659   0.765   7.866  0.5311  0.3887 -0.2334
 1059SOL    HW214640   1.531   0.714   7.809 -1.2222  1.2386  0.5866
 1060SOL     OW14641   3.366   0.397   2.365 -0.2436  0.0559 -0.0942
 1060SOL    HW114642   3.272   0.410   2.355  0.0290  0.9615 -1.4326
 1060SOL    HW214643   3.388   0.490   2.361 -0.3454  0.1128  0.7388
 1061SOL     OW14644   2.700   3.794   4.496 -0.1771 -0.2984 -0.1749
 1061SOL    HW114645   2.698   3.854   4.422 -0.1487 -0.0218  0.0492
 1061SOL    HW214646   2.623   3.740   4.477  0.0255 -0.3112 -0.9452
 1062SOL     OW14647   3.208   0.940   7.852 -0.1067  0.2920  0.1438
 1062SOL    HW114648   3.277   0.924   7.787 -0.6169 -3.5867  0.5684
 1062SOL    HW214649   3.267   0.983   7.914 -0.6107  1.1416  0.0286
 1063SOL     OW14650   3.524   0.864  12.273  0.0356  0.7449 -0.1689
 1063SOL    HW114651   3.532   0.795  12.207  1.7131  1.0106 -0.2452
 1063SOL    HW214652   3.607   0.903  12.244 -0.3931  2.0995  0.4558
 1064SOL     OW14653   2.492   3.018   9.272  0.4273  0.3265 -0.1373
 1064SOL    HW114654   2.440   3.025   9.352  0.9300  1.9050  0.0538
 1064SOL    HW214655   2.537   3.102   9.274  0.5429  0.2537  0.2294
 1065SOL     OW14656   1.670   4.571   6.563 -0.2087 -0.2438  0.8197
 1065SOL    HW114657   1.683   4.495   6.620  1.6183 -0.0155  0.7210
 1065SOL    HW214658   1.620   4.520   6.499 -0.1047 -0.5362  0.9689
 1066SOL     OW14659   3.863   0.807   2.631  0.1116 -0.6593 -0.3767
 1066SOL    HW114660   3.949   0.775   2.604  0.2549 -0.4695 -0.1397
 1066SOL    HW214661   3.846   0.868   2.559  1.4124 -0.0364 -0.1504
 1067SOL     OW14662   2.493   3.662   4.955  0.1823  0.2058 -0.9430
 1067SOL    HW114663   2.495   3.704   4.869 -2.2840  1.7346 -0.2565
 1067SOL    HW214664   2.409   3.617   4.949 -0.9932  2.0881  1.2954
 1068SOL     OW14665   2.041   0.182   9.414 -0.0523  0.2733 -0.2530
 1068SOL    HW114666   2.105   0.200   9.344  0.5851 -1.3201 -0.0696
 1068SOL    HW214667   1.985   0.259   9.400 -0.6557  0.3663  2.6398
 1069SOL     OW14668   3.931   0.691   9.970  0.1744 -0.2111 -0.9904
 1069SOL    HW114669   3.998   0.747  10.010  1.5482 -2.6512  0.1474
 1069SOL    HW214670   3.959   0.605  10.001 -3.0899 -0.8435  0.1675
 1070SOL     OW14671   1.845   0.610  16.487 -0.0929  0.1409 -0.3289
 1070SOL    HW114672   1.874   0.582  16.400 -0.2057  2.5457 -1.1401
 1070SOL    HW214673   1.875   0.701  16.486 -0.1363  0.1477 -1.1101
 1071SOL     OW14674   0.973   3.304   7.616  0.1338  0.3512 -0.0004
 1071SOL    HW114675   0.960   3.386   7.567 -2.3533 -0.9161 -1.4900
 1071SOL    HW214676   1.051   3.266   7.576 -0.2410  0.8776 -1.2389
 1072SOL     OW14677   2.761   2.682  13.784 -0.0390  0.4386 -0.5162
 1072SOL    HW114678   2.791   2.641  13.865  0.8391  0.4914 -0.8127
 1072SOL    HW214679   2.667   2.693  13.793 -0.2133 -0.9176 -0.8215
 1073SOL     OW14680   0.571   4.445   9.572 -0.1686 -0.3228  0.2392
 1073SOL    HW114681   0.543   4.511   9.636  1.4734  1.5959 -1.0218
 1073SOL    HW214682   0.652   4.410   9.607 -0.2896  0.6058  1.4566
 1074SOL     OW14683   0.305   4.019  16.839 -0.0134 -0.2768  0.6016
 1074SOL    HW114684   0.301   4.021  16.935  2.8616 -2.0711  0.7880
 1074SOL    HW214685   0.399   4.037  16.826 -0.3050 -0.1739 -1.3926
 1075SOL     OW14686   1.734   3.220  15.494  0.0222  0.1482  0.1072
 1075SOL    HW114687   1.761   3.274  15.568 -1.8095  0.6136  0.4272
 1075SOL    HW214688   1.759   3.136  15.533 -1.0652 -0.5367 -0.6686
 1076SOL     OW14689   2.450   3.931   7.971 -0.1009  0.1264 -0.4428
 1076SOL    HW114690   2.499   3.848   7.970 -0.9501 -0.3535 -2.0832
 1076SOL    HW214691   2.458   3.945   7.877  2.1500 -0.4385 -0.3556
 1077SOL     OW14692   2.042   1.125  11.344 -0.2421  0.0500 -0.1104
 1077SOL    HW114693   2.072   1.175  11.420  0.5935 -0.7322  0.0835
 1077SOL    HW214694   1.957   1.091  11.369 -0.3321  0.7942  0.5641
 1078SOL     OW14695   4.197   3.122   3.054 -0.2757  0.2886  1.1286
 1078SOL    HW114696   4.185   3.130   3.148 -2.4064  0.0964  0.8747
 1078SOL    HW214697   4.248   3.042   3.046 -0.4105  0.3493 -0.4909
 1079SOL     OW14698   4.212   2.234   5.373 -0.4788 -0.0694 -0.6221
 1079SOL    HW114699   4.121   2.262   5.370 -0.2741  0.6058 -0.4639
 1079SOL    HW214700   4.240   2.228   5.282  0.8625 -1.2297 -0.1444
 1080SOL     OW14701   2.422   1.874   5.472 -0.0594 -0.1914 -0.1845
 1080SOL    HW114702   2.464   1.950   5.433 -1.2453  1.1868  1.2092
 1080SOL    HW214703   2.498   1.823   5.500  0.1200 -0.1358 -0.5692
 1081SOL     OW14704   2.229   3.598   8.616 -0.6047  0.0627 -0.1096
 1081SOL    HW114705   2.297   3.578   8.681  0.2906 -0.3373 -1.1839
 1081SOL    HW214706   2.224   3.694   8.619 -0.0121  0.0441  1.9158
 1082SOL     OW14707   4.109   0.703   5.579  0.3582  0.0685 -0.4431
 1082SOL    HW114708   4.155   0.623   5.605 -2.4620 -1.8488 -1.3768
 1082SOL    HW214709   4.027   0.698   5.628  1.1939 -0.8381  0.8607
 1083SOL     OW14710   2.006   1.586   2.937 -0.6375  0.0266  0.1244
 1083SOL    HW114711   1.994   1.524   2.865 -0.8247 -0.5068  0.6225
 1083SOL    HW214712   1.967   1.670   2.911 -1.5371 -0.8590 -1.4235
 1084SOL     OW14713   2.470   3.581   3.725  0.0896 -0.1894  0.1043
 1084SOL    HW114714   2.555   3.626   3.723 -1.0747  1.9756  0.1962
 1084SOL    HW214715   2.401   3.646   3.735 -0.1533 -0.4849  0.3430
 1085SOL     OW14716   0.960   0.998   7.619  0.6359 -0.1078 -0.3231
 1085SOL    HW114717   0.919   0.922   7.660  0.1104  0.2375 -0.1982
 1085SOL    HW214718   0.997   0.953   7.543 -1.0172 -1.7194 -0.1864
 1086SOL     OW14719   3.296   3.255   1.874 -0.4360 -0.6421  0.1337
 1086SOL    HW114720   3.346   3.181   1.909  1.4618  0.4506 -0.2827
 1086SOL    HW214721   3.348   3.265   1.794  1.3746  0.4430  1.4548
 1087SOL     OW14722   3.892   3.790   1.826  0.2456  0.4713  0.3820
 1087SOL    HW114723   3.932   3.764   1.910 -0.3123 -2.0558 -0.1510
 1087SOL    HW214724   3.930   3.724   1.769  0.6528  0.9633  0.0797
 1088SOL     OW14725   2.343   0.127  12.064 -0.0342  0.6214  0.3751
 1088SOL    HW114726   2.320   0.207  12.016 -0.7491  0.3518  0.2629
 1088SOL    HW214727   2.393   0.084  11.995 -2.1322  3.8436 -3.2400
 1089SOL     OW14728   2.822   2.495   7.118 -0.4816 -0.4074 -0.5404
 1089SOL    HW114729   2.735   2.471   7.150 -0.3806 -0.9212 -0.6593
 1089SOL    HW214730   2.804   2.589   7.113  1.8245 -0.0716 -2.5350
 1090SOL     OW14731   0.330   0.034   2.514 -0.5636 -0.1122 -0.3514
 1090SOL    HW114732   0.296   0.116   2.478 -0.6990 -0.4614 -1.0215
 1090SOL    HW214733   0.248   4.709   2.527  0.5747 -1.7871  0.5683
 1091SOL     OW14734   3.204   0.630  15.391  0.1328  0.6574  0.7453
 1091SOL    HW114735   3.166   0.709  15.354  0.6035  0.7426  0.4442
 1091SOL    HW214736   3.294   0.659  15.405  0.1787  1.5406 -1.4206
 1092SOL     OW14737   2.518   2.678  15.442  0.3697 -0.2587 -0.2581
 1092SOL    HW114738   2.571   2.752  15.412  0.0548  0.3539  0.7116
 1092SOL    HW214739   2.572   2.633  15.507  0.7411  1.3021  0.5006
 1093SOL     OW14740   1.321   0.061  10.510  1.0356  0.3960 -0.2434
 1093SOL    HW114741   1.371   0.037  10.588  0.7280  0.2557 -0.0894
 1093SOL    HW214742   1.385   0.052  10.440  0.0143 -0.8847 -1.0177
 1094SOL     OW14743   2.934   2.967   5.869  0.2786 -0.0633 -0.0177
 1094SOL    HW114744   2.890   2.954   5.953 -1.5544 -1.9714 -1.2940
 1094SOL    HW214745   2.945   2.874   5.851 -0.1078  0.0229 -0.6877
 1095SOL     OW14746   4.484   2.846  14.617 -0.0226 -0.2343 -0.1976
 1095SOL    HW114747   4.564   2.799  14.640  1.2219  1.7565 -0.4061
 1095SOL    HW214748   4.501   2.866  14.525  0.3931  0.5715  0.0544
 1096SOL     OW14749   1.124   0.100   5.219  0.0154 -0.1123  0.4728
 1096SOL    HW114750   1.143   0.151   5.297  0.4988  0.0215  0.2666
 1096SOL    HW214751   1.193   0.132   5.161 -0.2337  0.5094  0.5148
 1097SOL     OW14752   3.794   3.564  11.509  0.3455 -0.3094 -0.4365
 1097SOL    HW114753   3.761   3.644  11.551 -0.3252 -0.8758  0.1222
 1097SOL    HW214754   3.815   3.508  11.583 -1.8249 -1.2329 -0.4930
 1098SOL     OW14755   0.779   2.875   6.087 -0.7603 -0.1102 -0.1974
 1098SOL    HW114756   0.772   2.801   6.148  1.0432 -0.7412 -0.7612
 1098SOL    HW214757   0.708   2.934   6.114  0.2826  1.2212 -0.3898
 1099SOL     OW14758   4.214   2.761   7.624 -0.5403 -0.1128 -0.1495
 1099SOL    HW114759   4.153   2.795   7.559  0.0707 -0.1658 -0.7569
 1099SOL    HW214760   4.293   2.785   7.576  0.1817 -0.3286  0.9392
 1100SOL     OW14761   3.375   1.322  14.661 -0.1437  0.5783  0.0111
 1100SOL    HW114762   3.397   1.230  14.647 -0.0972  0.4929  0.6554
 1100SOL    HW214763   3.358   1.356  14.573  0.8122  2.1035  0.4127
 1101SOL     OW14764   3.059   2.445  14.904 -0.3349  0.2036 -0.7312
 1101SOL    HW114765   3.154   2.447  14.917 -0.2284 -0.3570 -1.4562
 1101SOL    HW214766   3.033   2.367  14.954  2.2175 -0.9620 -1.2639
 1102SOL     OW14767   0.981   0.499   2.877  0.1141  0.4033  0.2062
 1102SOL    HW114768   1.018   0.524   2.961 -0.7945 -0.6131  0.8977
 1102SOL    HW214769   0.918   0.569   2.857  1.1779  0.9888 -1.1649
 1103SOL     OW14770   2.752   4.596   6.737 -0.4767  0.5933  0.4743
 1103SOL    HW114771   2.807   4.606   6.815  1.9942 -1.0983 -1.0389
 1103SOL    HW214772   2.817   4.574   6.670  0.2820 -0.2455  1.4709
 1104SOL     OW14773   4.567   2.732   1.239  0.3830  0.0776 -0.2368
 1104SOL    HW114774   4.472   2.720   1.226  0.5997  0.0776 -1.8371
 1104SOL    HW214775   4.603   2.758   1.154  0.8109  1.9521  0.5152
 1105SOL     OW14776   4.081   4.590   4.924  0.4134 -0.4405  0.1725
 1105SOL    HW114777   4.022   4.604   4.998  0.9552 -2.7868  1.0356
 1105SOL    HW214778   4.028   4.523   4.880  0.9510 -0.5756 -0.2750
 1106SOL     OW14779   2.667   2.497   5.057 -0.4764  0.6426 -0.2884
 1106SOL    HW114780   2.666   2.431   4.988 -0.1161  1.1504 -0.7883
 1106SOL    HW214781   2.603   2.562   5.027 -0.5797  0.8772  0.4387
 1107SOL     OW14782   2.302   0.932  11.935  0.2127  0.0442 -0.4284
 1107SOL    HW114783   2.233   0.936  11.868  0.8181  3.4762 -0.8545
 1107SOL    HW214784   2.363   0.990  11.890 -1.3488  0.9094 -1.4172
 1108SOL     OW14785   0.073   2.910  13.653 -0.3202  0.4586 -0.2144
 1108SOL    HW114786   0.016   2.944  13.584 -0.5386  0.3562 -0.0830
 1108SOL    HW214787   0.075   2.822  13.614  0.9345  0.1138  0.6106
 1109SOL     OW14788   3.936   3.041   9.499  0.9771  0.1573  0.7068
 1109SOL    HW114789   3.921   2.951   9.471  3.2368 -0.6445  2.0392
 1109SOL    HW214790   3.851   3.051   9.542  1.2488 -0.1691  1.3289
 1110SOL     OW14791   3.524   0.077  11.984  0.5397 -0.1260  0.1593
 1110SOL    HW114792   3.595   0.140  11.993 -0.6311  0.7750  3.0712
 1110SOL    HW214793   3.554   0.011  12.046 -0.5882 -1.2671 -0.5161
 1111SOL     OW14794   4.524   1.803   5.199 -0.1296  0.4085  0.1672
 1111SOL    HW114795   4.479   1.806   5.284 -2.4748 -0.1244 -1.0684
 1111SOL    HW214796   4.529   1.893   5.168  0.5034  1.0146  2.0457
 1112SOL     OW14797   3.111   1.538   3.642  0.2904 -0.2671  0.5551
 1112SOL    HW114798   3.196   1.568   3.609  0.8808 -2.7447 -0.2349
 1112SOL    HW214799   3.131   1.566   3.731 -1.3162  0.2527  0.7519
 1113SOL     OW14800   3.648   1.519   8.089 -0.0590  0.3931 -0.4561
 1113SOL    HW114801   3.697   1.591   8.050 -0.4542  2.1280  2.2428
 1113SOL    HW214802   3.560   1.550   8.071 -0.4082  0.2616  1.0245
 1114SOL     OW14803   3.516   1.119   2.851  0.3336  0.7029  0.1777
 1114SOL    HW114804   3.489   1.033   2.884 -1.8392  0.0690 -3.2562
 1114SOL    HW214805   3.493   1.117   2.758 -1.1291  1.9760  0.5204
 1115SOL     OW14806   0.666   4.190   1.969  0.3651 -0.1614 -0.3908
 1115SOL    HW114807   0.580   4.148   1.978 -0.1208  1.1295  0.9339
 1115SOL    HW214808   0.710   4.149   2.043 -0.3357 -2.2070 -1.1173
 1116SOL     OW14809   1.005   0.878  12.068  0.0782 -0.4044 -0.2578
 1116SOL    HW114810   0.983   0.843  12.155  0.6189  0.5639  0.2776
 1116SOL    HW214811   0.921   0.862  12.027  0.0400 -1.5538  0.2611
 1117SOL     OW14812   4.665   2.542   9.700  0.0246 -0.4701 -0.5013
 1117SOL    HW114813   4.585   2.594   9.694  0.7519  0.8860  1.4707
 1117SOL    HW214814   4.665   2.520   9.793 -0.8155 -0.2705 -0.4529
 1118SOL     OW14815   1.283   3.290   5.052  0.9422  0.2213 -0.0805
 1118SOL    HW114816   1.265   3.283   5.146 -1.2329  1.2958 -0.4253
 1118SOL    HW214817   1.378   3.284   5.055  1.0311  1.7444  0.0022
 1119SOL     OW14818   0.402   2.167   8.372  0.5055 -0.3798  0.1699
 1119SOL    HW114819   0.314   2.197   8.351  0.1872 -1.2648  0.2660
 1119SOL    HW214820   0.398   2.079   8.336  0.2147 -0.8132  1.2567
 1120SOL     OW14821   2.622   2.768   7.085 -0.2545 -0.0025 -0.7964
 1120SOL    HW114822   2.529   2.792   7.080 -0.8297 -2.1150 -0.0677
 1120SOL    HW214823   2.669   2.851   7.081  1.4561 -0.9847 -1.0427
 1121SOL     OW14824   1.098   3.973  11.052  0.6215 -0.2961 -0.0297
 1121SOL    HW114825   1.143   4.057  11.062 -1.6734  0.7753  1.4610
 1121SOL    HW214826   1.145   3.922  10.986 -2.0634 -3.4282  0.4836
 1122SOL     OW14827   0.870   4.552   7.393 -0.1336 -0.3523  0.1748
 1122SOL    HW114828   0.884   4.569   7.486  1.7346 -1.9399  0.1732
 1122SOL    HW214829   0.937   4.489   7.366 -1.2965 -0.9808 -1.2297
 1123SOL     OW14830   2.782   2.905   5.325  0.0266  0.5194  0.5953
 1123SOL    HW114831   2.851   2.971   5.334  1.8745 -1.3728  0.2128
 1123SOL    HW214832   2.769   2.919   5.231  0.3812 -0.9971  0.3169
 1124SOL     OW14833   2.404   1.753   2.319  0.4381  0.1634  0.1777
 1124SOL    HW114834   2.377   1.666   2.347  1.2268  0.2409  1.1763
 1124SOL    HW214835   2.389   1.753   2.224 -1.9298  1.1180  0.5605
 1125SOL     OW14836   0.357   4.515  16.240  0.3812 -0.4542  0.1043
 1125SOL    HW114837   0.430   4.454  16.228 -0.1487 -1.2629  0.9748
 1125SOL    HW214838   0.302   4.502  16.163  0.0917  1.5726 -0.0304
 1126SOL     OW14839   2.765   2.407   1.840 -0.0365  0.4448 -0.7225
 1126SOL    HW114840   2.859   2.424   1.826 -0.0292  0.4605 -0.6529
 1126SOL    HW214841   2.760   2.312   1.831  0.1279  0.3089  0.6001
 1127SOL     OW14842   0.820   2.690   1.749 -0.5886  0.3309  1.1513
 1127SOL    HW114843   0.725   2.683   1.742 -0.2401 -2.3477 -0.8194
 1127SOL    HW214844   0.826   2.697   1.844 -2.3599  0.8011  1.2333
 1128SOL     OW14845   2.724   4.228   9.844 -0.2314  0.1413  0.6473
 1128SOL    HW114846   2.721   4.162   9.775  0.3370  1.3314 -0.5237
 1128SOL    HW214847   2.780   4.180   9.905 -2.1179 -0.9557  1.5173
 1129SOL     OW14848   0.112   4.680   8.717 -0.2567  0.1605 -0.4814
 1129SOL    HW114849   0.033   4.662   8.768 -0.8926  1.4761 -1.0092
 1129SOL    HW214850   0.076   0.007   8.644  0.9637  2.0727  0.2330
 1130SOL     OW14851   3.598   2.995   7.909  0.2226  0.2220 -0.5601
 1130SOL    HW114852   3.601   2.994   8.005  0.3239 -0.3811 -0.5682
 1130SOL    HW214853   3.503   3.000   7.900  0.2070  0.7051 -0.1574
 1131SOL     OW14854   0.580   0.498   6.665  1.0664  0.0256  0.5201
 1131SOL    HW114855   0.567   0.528   6.754 -2.2370 -2.3188  0.8093
 1131SOL    HW214856   0.493   0.516   6.630  1.7825 -3.5335 -3.2704
 1132SOL     OW14857   4.531   3.881   6.279 -0.1448  0.4507  0.3066
 1132SOL    HW114858   4.597   3.864   6.346  1.7559 -0.8590 -1.8994
 1132SOL    HW214859   4.557   3.821   6.210  2.8302  0.3535  1.5307
 1133SOL     OW14860   3.454   0.945  10.901  0.6155  0.5081  0.0174
 1133SOL    HW114861   3.370   0.980  10.930 -0.0376 -0.3088 -0.8924
 1133SOL    HW214862   3.511   1.021  10.907  2.1900 -0.8237  2.1576
 1134SOL     OW14863   0.291   3.721   7.567  0.4666 -1.0389 -0.0371
 1134SOL    HW114864   0.352   3.748   7.499 -2.0129  2.4509 -0.8539
 1134SOL    HW214865   0.349   3.744   7.640 -2.4675  3.3122  0.9252
 1135SOL     OW14866   2.918   4.067   7.154  0.3293  0.4938  0.1367
 1135SOL    HW114867   2.869   4.144   7.123 -0.0697  0.4793  0.7507
 1135SOL    HW214868   2.849   4.002   7.167  0.1660  0.3440 -1.3944
 1136SOL     OW14869   1.777   0.220   5.266 -0.0976 -0.0725  0.0546
 1136SOL    HW114870   1.782   0.132   5.302  2.7463  0.5786  1.2951
 1136SOL    HW214871   1.830   0.259   5.336 -1.4599  1.7801  0.0503
 1137SOL     OW14872   2.425   1.468  15.762  0.1637 -0.2185 -0.8879
 1137SOL    HW114873   2.436   1.553  15.804 -2.9513 -0.2710  0.0223
 1137SOL    HW214874   2.415   1.497  15.671 -0.9871 -2.9108 -1.5858
 1138SOL     OW14875   1.460   1.493   4.580 -0.5374  0.2730  0.5599
 1138SOL    HW114876   1.532   1.553   4.561  0.7273 -1.0895  1.0302
 1138SOL    HW214877   1.429   1.460   4.495  0.6586  1.0154 -0.1677
 1139SOL     OW14878   2.506   3.688   4.141  0.2602  0.3043 -0.0965
 1139SOL    HW114879   2.486   3.607   4.095  2.0269 -0.0011 -0.3251
 1139SOL    HW214880   2.588   3.720   4.101  0.3555 -0.1830 -0.2893
 1140SOL     OW14881   2.255   0.688  12.090  0.0262 -0.2260 -0.2825
 1140SOL    HW114882   2.185   0.747  12.119  0.3468 -0.5630  1.1736
 1140SOL    HW214883   2.312   0.753  12.049  0.0213 -0.9866 -1.4818
 1141SOL     OW14884   0.700   2.809   3.701 -0.2417  0.0563 -0.1263
 1141SOL    HW114885   0.652   2.749   3.645  1.2910 -1.2827 -0.0034
 1141SOL    HW214886   0.773   2.754   3.730  0.7612  1.5258  0.1629
 1142SOL     OW14887   3.863   3.398  16.363 -0.2813 -0.6155  0.2057
 1142SOL    HW114888   3.912   3.352  16.431  0.3446  1.7413  1.3318
 1142SOL    HW214889   3.913   3.478  16.349 -2.0520  0.2118 -1.3553
 1143SOL     OW14890   0.615   3.190   8.046 -0.0431  0.5474  0.0287
 1143SOL    HW114891   0.681   3.241   7.998 -0.7976  0.4369 -1.1404
 1143SOL    HW214892   0.662   3.107   8.059  1.1252  1.4061  1.2347
 1144SOL     OW14893   3.051   4.651   2.886 -0.0051  0.1070  0.0498
 1144SOL    HW114894   3.094   4.660   2.801 -0.5070  2.0983  0.0018
 1144SOL    HW214895   3.123   4.654   2.949  0.7169 -1.0105 -0.7130
 1145SOL     OW14896   3.910   3.668  11.908 -0.0661  0.1941  0.0122
 1145SOL    HW114897   3.966   3.740  11.878  1.2439  0.6190  3.4638
 1145SOL    HW214898   3.922   3.604  11.837 -1.6114  1.0152 -0.9849
 1146SOL     OW14899   3.807   1.438   9.627 -0.4279 -0.5364 -0.6883
 1146SOL    HW114900   3.745   1.366   9.625  0.0531 -0.9183 -1.9836
 1146SOL    HW214901   3.884   1.394   9.663 -0.8062  1.2518  2.3411
 1147SOL     OW14902   1.027   1.936   5.794  0.0466 -0.0213 -0.0844
 1147SOL    HW114903   1.109   1.985   5.788 -0.5659  0.8613 -1.2983
 1147SOL    HW214904   1.058   1.865   5.850 -0.8093 -0.2048  0.1567
 1148SOL     OW14905   1.307   2.508  13.785 -0.4089  1.0317  0.5083
 1148SOL    HW114906   1.381   2.552  13.743  0.0175  0.4742  0.6645
 1148SOL    HW214907   1.327   2.504  13.879  0.1061  4.3673  0.5281
 1149SOL     OW14908   0.382   1.877   4.381  0.1988  0.0296  0.6510
 1149SOL    HW114909   0.420   1.927   4.452  0.9609  0.0591  0.2270
 1149SOL    HW214910   0.380   1.943   4.312  0.9326 -1.4553 -0.7934
 1150SOL     OW14911   2.304   0.535   7.297  0.2536 -0.1731  0.2038
 1150SOL    HW114912   2.335   0.508   7.383 -0.9904 -2.1988  0.0245
 1150SOL    HW214913   2.350   0.616   7.275  0.3539  0.1950  1.7900
 1151SOL     OW14914   4.611   2.215   7.956  0.1492  0.3027 -0.3302
 1151SOL    HW114915   4.587   2.204   7.864 -0.4366  1.7681 -0.3497
 1151SOL    HW214916   4.528   2.254   7.983 -0.3052 -0.4232 -0.6635
 1152SOL     OW14917   0.385   4.040   9.666 -0.6010 -0.7513  0.5532
 1152SOL    HW114918   0.474   4.067   9.640 -0.1439 -3.6869 -0.9278
 1152SOL    HW214919   0.413   3.973   9.728 -0.0050  0.2036  1.3195
 1153SOL     OW14920   1.329   1.204   4.584  0.3348 -0.1050 -0.3359
 1153SOL    HW114921   1.351   1.289   4.622 -2.0744  0.7814 -0.9168
 1153SOL    HW214922   1.400   1.149   4.617  0.4584 -0.1038 -0.5991
 1154SOL     OW14923   2.497   1.371   3.979  0.1883  0.1195 -0.1773
 1154SOL    HW114924   2.522   1.432   3.909 -0.6641  1.0759  0.3500
 1154SOL    HW214925   2.564   1.388   4.045  2.2185  0.0486 -2.2142
 1155SOL     OW14926   4.624   2.211  14.218 -0.4594 -0.7786  0.2678
 1155SOL    HW114927   4.568   2.252  14.152 -0.1353 -0.5268  0.1439
 1155SOL    HW214928   4.577   2.131  14.239 -2.2932 -0.1878 -1.6452
 1156SOL     OW14929   3.282   4.531  14.942  0.2554 -0.3035  0.1747
 1156SOL    HW114930   3.214   4.465  14.954  0.2736 -0.4570 -0.5771
 1156SOL    HW214931   3.320   4.511  15.028  0.7043 -0.0203  0.0407
 1157SOL     OW14932   1.907   1.242  15.479  0.0994  0.1891 -0.1343
 1157SOL    HW114933   1.846   1.222  15.550 -0.6885 -1.2777 -1.2354
 1157SOL    HW214934   1.979   1.264  15.538 -0.2947  0.9104  0.0905
 1158SOL     OW14935   3.391   0.248  17.440  0.4644  0.8935 -0.2674
 1158SOL    HW114936   3.386   0.319  17.504 -0.9403  0.6527 -0.0985
 1158SOL    HW214937   3.462   0.194  17.475  0.6725  1.3437  0.0063
 1159SOL     OW14938   3.884   3.009   8.102  0.7679 -0.5580  1.0913
 1159SOL    HW114939   3.886   3.097   8.141 -1.1549  0.0587 -0.2287
 1159SOL    HW214940   3.793   2.996   8.077  1.3577 -1.5962 -0.5084
 1160SOL     OW14941   2.282   3.107   8.643  0.2063  0.5373  0.1332
 1160SOL    HW114942   2.326   3.065   8.716  1.2068 -0.4219 -1.0223
 1160SOL    HW214943   2.340   3.181   8.632  1.4706 -0.7071 -1.5520
 1161SOL     OW14944   0.283   3.239  17.650  0.0612 -0.3371 -0.7872
 1161SOL    HW114945   0.260   3.235   0.048 -0.1689  1.6165 -0.7481
 1161SOL    HW214946   0.214   3.299  17.623  2.0467  1.6515 -1.4463
 1162SOL     OW14947   0.034   2.536  11.338  0.0811  0.3682  0.1304
 1162SOL    HW114948   0.064   2.446  11.349 -0.9494  0.1909  1.4741
 1162SOL    HW214949   4.664   2.517  11.341  0.0788  0.3347 -0.1869
 1163SOL     OW14950   2.983   0.517   7.899  0.0257 -0.4974 -0.2806
 1163SOL    HW114951   3.034   0.568   7.963  0.9954  0.2918 -1.6729
 1163SOL    HW214952   2.949   0.440   7.944 -0.3845  0.4661  1.0887
 1164SOL     OW14953   0.609   1.979   5.143 -0.2730  0.6614 -0.5444
 1164SOL    HW114954   0.614   1.951   5.234  2.4951  0.3729 -0.7744
 1164SOL    HW214955   0.526   1.946   5.109 -1.3018  1.0265  1.6016
 1165SOL     OW14956   3.034   2.917   4.653  0.0530 -0.6117 -0.1465
 1165SOL    HW114957   3.105   2.932   4.715  2.8024 -1.3207 -3.1238
 1165SOL    HW214958   3.054   2.825   4.638  3.1527 -0.3697  2.5509
 1166SOL     OW14959   1.992   0.587   4.090 -0.0744  0.3648 -0.4005
 1166SOL    HW114960   1.993   0.683   4.089 -0.5979  0.3754  0.3519
 1166SOL    HW214961   2.013   0.580   3.997 -2.1637  0.4759 -0.8958
 1167SOL     OW14962   4.596   3.837   4.489  0.3807 -0.8241  0.3228
 1167SOL    HW114963   4.539   3.779   4.439 -0.2202 -0.2557  0.3521
 1167SOL    HW214964   4.627   3.784   4.563  0.1782 -0.5785  0.5827
 1168SOL     OW14965   2.437   0.581   0.685 -0.1100 -0.5575 -0.2163
 1168SOL    HW114966   2.401   0.665   0.714  0.6853 -0.6595  1.0882
 1168SOL    HW214967   2.388   0.563   0.604  1.7953  2.1890 -1.9746
 1169SOL     OW14968   0.801   2.176   6.041 -0.0081  0.1657  0.1751
 1169SOL    HW114969   0.818   2.270   6.045 -0.3999  0.0998  3.0364
 1169SOL    HW214970   0.814   2.162   5.947  1.2258 -0.3460  0.4272
 1170SOL     OW14971   3.699   3.480   4.427 -0.2839 -0.7264 -0.3974
 1170SOL    HW114972   3.639   3.515   4.361 -0.4705 -1.0318 -0.3911
 1170SOL    HW214973   3.694   3.562   4.477  0.9087 -1.4248  0.8746
 1171SOL     OW14974   1.376   1.362  10.301 -0.1751  0.0179 -0.1634
 1171SOL    HW114975   1.396   1.341  10.210 -1.0430  0.6210 -0.5029
 1171SOL    HW214976   1.395   1.456  10.292  1.2075 -0.1955  0.6540
 1172SOL     OW14977   0.571   0.968   4.516 -0.2669 -0.4286 -0.2590
 1172SOL    HW114978   0.543   0.986   4.426 -1.5881  0.1095  0.2495
 1172SOL    HW214979   0.485   0.994   4.550  0.6229  0.5877  1.2274
 1173SOL     OW14980   0.289   0.762   8.564 -0.3271 -0.1413  1.0371
 1173SOL    HW114981   0.202   0.722   8.564 -0.0144 -0.7887 -1.3292
 1173SOL    HW214982   0.341   0.694   8.607 -0.3259 -0.7865  0.0042
 1174SOL     OW14983   2.094   1.198   5.953  0.2310  0.4551 -0.0020
 1174SOL    HW114984   2.123   1.237   6.036 -2.2350  0.8885  0.6608
 1174SOL    HW214985   2.175   1.197   5.902  1.4651  1.0440  1.9074
 1175SOL     OW14986   4.591   2.867   4.420 -0.0265  0.1319  0.0058
 1175SOL    HW114987   4.677   2.835   4.395  0.0686  0.8665 -0.6385
 1175SOL    HW214988   4.579   2.942   4.361 -0.6227  0.2916  0.3250
 1176SOL     OW14989   1.939   2.781   2.424 -0.6951 -0.5534  0.4800
 1176SOL    HW114990   2.016   2.792   2.479 -1.5241  0.7052  1.3711
 1176SOL    HW214991   1.943   2.859   2.368 -0.5885 -0.6403  0.3645
 1177SOL     OW14992   0.856   0.826   8.563  0.0154  0.1588  0.3111
 1177SOL    HW114993   0.820   0.790   8.482 -0.4970 -1.1645  1.1302
 1177SOL    HW214994   0.811   0.767   8.624  0.6662 -1.6085 -0.9313
 1178SOL     OW14995   4.710   1.385   4.016  0.3528 -0.1203 -0.3802
 1178SOL    HW114996   0.038   1.466   4.017 -0.7769  0.5903 -1.5507
 1178SOL    HW214997   0.031   1.323   4.075 -0.7543  1.1475  1.7970
 1179SOL     OW14998   2.115   0.158   7.282  0.6303 -0.0818  0.5962
 1179SOL    HW114999   2.168   0.224   7.238  2.7030 -1.1919  1.4074
 1179SOL    HW215000   2.124   0.081   7.226 -0.2014 -0.2770  0.7220
 1180SOL     OW15001   4.073   1.292  15.150  0.1374  0.3561 -0.3907
 1180SOL    HW115002   3.984   1.300  15.115 -0.2625 -2.5821 -0.0870
 1180SOL    HW215003   4.083   1.198  15.168 -1.1682  0.5149  1.2446
 1181SOL     OW15004   3.595   3.391  11.809 -0.6745 -0.3084  0.1367
 1181SOL    HW115005   3.657   3.341  11.757 -1.3073 -0.2951 -0.6233
 1181SOL    HW215006   3.627   3.375  11.898  0.5924 -0.6357 -0.3700
 1182SOL     OW15007   3.964   4.634   1.387 -0.0972  0.7717  0.0490
 1182SOL    HW115008   4.058   4.652   1.386 -0.1639  1.0105 -1.0987
 1182SOL    HW215009   3.937   4.626   1.296 -1.0282  0.6597  0.3346
 1183SOL     OW15010   2.594   2.196   3.605  0.2013 -0.3302 -0.2474
 1183SOL    HW115011   2.587   2.219   3.513 -2.2825 -0.1740 -0.0346
 1183SOL    HW215012   2.591   2.100   3.606 -1.1370 -0.3018 -3.6406
 1184SOL     OW15013   3.997   2.874   3.213  0.0397 -0.2271 -0.5997
 1184SOL    HW115014   4.026   2.956   3.253  0.1658  0.7282 -2.6846
 1184SOL    HW215015   3.971   2.836   3.297  2.0760 -2.2626 -0.8733
 1185SOL     OW15016   2.361   0.346   3.444 -0.4646  0.2559  0.2772
 1185SOL    HW115017   2.314   0.263   3.451 -0.6534  0.2706 -0.7399
 1185SOL    HW215018   2.285   0.402   3.460 -2.0764 -2.1332  0.9545
 1186SOL     OW15019   4.409   2.232   5.579  0.6171  0.4070 -0.4641
 1186SOL    HW115020   4.337   2.251   5.519  1.5749  1.6060 -1.2234
 1186SOL    HW215021   4.373   2.163   5.635 -0.2474  0.1868 -1.2990
 1187SOL     OW15022   2.299   1.211   9.021 -0.3324 -0.4705  0.2109
 1187SOL    HW115023   2.360   1.223   8.949 -1.9784  2.2661 -0.7326
 1187SOL    HW215024   2.328   1.129   9.060 -0.0919 -0.5767 -0.1889
 1188SOL     OW15025   2.707   1.526  15.568 -0.0145 -0.3188 -0.8238
 1188SOL    HW115026   2.705   1.462  15.639  0.5200  2.5926  1.8045
 1188SOL    HW215027   2.637   1.495  15.510  1.3568  0.1543 -2.7308
 1189SOL     OW15028   2.766   0.436   1.146 -0.2437 -0.2260 -0.1133
 1189SOL    HW115029   2.781   0.341   1.155 -0.5909 -0.0997  1.7095
 1189SOL    HW215030   2.809   0.466   1.226 -1.9172  1.0423  0.2909
 1190SOL     OW15031   1.631   0.447   5.226  0.5352  0.0804  0.5005
 1190SOL    HW115032   1.578   0.417   5.152  2.0735 -0.4028 -0.4085
 1190SOL    HW215033   1.694   0.375   5.228 -0.8720 -1.0916  2.3957
 1191SOL     OW15034   2.160   3.628   3.205  0.0472 -0.1504  0.0799
 1191SOL    HW115035   2.231   3.692   3.192 -0.8577  0.7163 -0.5762
 1191SOL    HW215036   2.206   3.544   3.208 -0.7512 -0.5539  1.0211
 1192SOL     OW15037   3.535   0.265   6.249  0.3321  0.3270  0.1987
 1192SOL    HW115038   3.462   0.240   6.305  0.1090 -1.2589 -0.7920
 1192SOL    HW215039   3.503   0.228   6.166  0.4460 -2.8202  1.5509
 1193SOL     OW15040   0.782   2.506  13.701  0.3378  0.1045  0.0816
 1193SOL    HW115041   0.741   2.424  13.729 -1.8114  2.0729  2.7058
 1193SOL    HW215042   0.867   2.474  13.672  1.4840  2.8804  0.4203
 1194SOL     OW15043   4.657   4.161   9.891  0.8557 -0.2901  0.9150
 1194SOL    HW115044   4.688   4.073   9.916  1.9659  0.2738  1.5422
 1194SOL    HW215045   4.691   4.177   9.804  0.1985  0.3656  0.7845
 1195SOL     OW15046   1.751   0.323  17.599 -0.4273  0.3589 -0.2972
 1195SOL    HW115047   1.734   0.321  17.693 -1.2153  0.0037 -0.4483
 1195SOL    HW215048   1.709   0.408  17.586 -1.1700 -0.2950 -2.1825
 1196SOL     OW15049   4.158   4.185   4.222  0.4270 -0.1466 -0.5028
 1196SOL    HW115050   4.093   4.254   4.207 -0.2850 -0.5919  0.5415
 1196SOL    HW215051   4.166   4.187   4.318  2.7164 -0.4820 -0.6816
 1197SOL     OW15052   3.916   2.146  11.658 -0.9019  0.6253 -0.0753
 1197SOL    HW115053   3.918   2.081  11.588  0.9636  1.3062 -0.6565
 1197SOL    HW215054   3.887   2.090  11.730 -0.4540  0.5857  0.0742
 1198SOL     OW15055   2.241   4.282  10.331 -0.2978  0.1039 -0.0300
 1198SOL    HW115056   2.220   4.369  10.366  0.2962  0.5394 -0.7697
 1198SOL    HW215057   2.171   4.230  10.371  0.3415 -0.6398  0.1212
 1199SOL     OW15058   4.505   1.453  11.885  0.0801 -0.1500 -0.6985
 1199SOL    HW115059   4.584   1.408  11.855  0.6550 -0.2978  1.0311
 1199SOL    HW215060   4.441   1.383  11.868 -1.9080  2.1513 -2.8100
 1200SOL     OW15061   2.758   1.598   3.138  0.3191 -0.3901 -0.0776
 1200SOL    HW115062   2.693   1.585   3.069 -0.2402 -3.8402  1.1005
 1200SOL    HW215063   2.838   1.593   3.086  1.6086  0.0923  1.8478
 1201SOL     OW15064   4.705   1.577   7.242  0.0997  0.8289 -0.1081
 1201SOL    HW115065   0.051   1.643   7.240  2.1060 -1.2466  1.7837
 1201SOL    HW215066   0.017   1.506   7.295  1.3570  0.3900 -1.5300
 1202SOL     OW15067   0.149   4.520   5.176 -0.2162 -0.0509 -0.1220
 1202SOL    HW115068   0.067   4.473   5.190 -1.6902  1.7753 -2.6402
 1202SOL    HW215069   0.169   4.540   5.267  1.1636 -0.3568 -0.3567
 1203SOL     OW15070   2.898   3.305   7.544  0.1294 -0.2862  0.0003
 1203SOL    HW115071   2.958   3.258   7.603  0.7461 -0.7818 -1.0277
 1203SOL    HW215072   2.820   3.323   7.597  0.6872 -0.8001  1.0136
 1204SOL     OW15073   1.869   2.281   9.830  0.2299 -0.0632  0.5452
 1204SOL    HW115074   1.808   2.354   9.827  0.6362  0.4151  4.3311
 1204SOL    HW215075   1.947   2.317   9.788 -0.0905 -1.3191 -1.1358
 1205SOL     OW15076   2.825   2.830   4.174 -0.3887 -0.8959  0.1349
 1205SOL    HW115077   2.860   2.882   4.246 -0.1474  0.4176 -0.9227
 1205SOL    HW215078   2.868   2.745   4.184  2.0473  0.2091 -0.8053
 1206SOL     OW15079   4.018   4.587   5.848  0.0004  0.4276 -0.3722
 1206SOL    HW115080   3.996   4.641   5.924 -0.6238 -1.2189  0.6101
 1206SOL    HW215081   3.934   4.587   5.802 -0.4153  0.9715  0.3757
 1207SOL     OW15082   2.736   0.822   2.135 -0.4787 -0.1672 -0.1223
 1207SOL    HW115083   2.820   0.809   2.179  0.0019  2.4231 -0.3148
 1207SOL    HW215084   2.689   0.853   2.212 -1.2163  1.3529 -1.1982
 1208SOL     OW15085   1.336   0.348  16.853  0.4161  0.1952 -0.2872
 1208SOL    HW115086   1.336   0.444  16.843 -1.0962  0.0619 -1.7430
 1208SOL    HW215087   1.411   0.323  16.907  0.4451  0.9119  0.0054
 1209SOL     OW15088   3.319   0.217  12.247  1.1996  0.4169  0.1403
 1209SOL    HW115089   3.252   0.272  12.288 -0.3230 -1.3775  0.0316
 1209SOL    HW215090   3.342   0.279  12.178 -0.1732  1.6524  0.8012
 1210SOL     OW15091   4.353   3.778  16.027  0.4051  0.6266 -0.2709
 1210SOL    HW115092   4.396   3.817  15.951 -0.3994  0.1469 -0.9698
 1210SOL    HW215093   4.271   3.771  15.978  0.6021  1.0258 -0.6534
 1211SOL     OW15094   2.492   3.410   0.579  0.4493  0.2704  0.5923
 1211SOL    HW115095   2.560   3.422   0.513  1.1560  0.8725  1.4421
 1211SOL    HW215096   2.511   3.321   0.608  2.4708 -0.3299 -2.5733
 1212SOL     OW15097   0.756   0.522   7.109  0.2235  0.1374 -0.1989
 1212SOL    HW115098   0.705   0.452   7.150 -2.3991  2.1588 -0.0274
 1212SOL    HW215099   0.718   0.601   7.148  1.3192  0.6920 -0.2606
 1213SOL     OW15100   4.556   1.572   9.385 -0.1341  0.1607 -0.9574
 1213SOL    HW115101   4.515   1.546   9.303 -1.9025 -0.5861  0.1790
 1213SOL    HW215102   4.490   1.536   9.444  0.0539 -0.7576 -1.3145
 1214SOL     OW15103   1.241   4.063   7.422  0.4168  0.4639  0.3290
 1214SOL    HW115104   1.160   4.104   7.452 -0.8152  0.8607 -3.5558
 1214SOL    HW215105   1.284   4.069   7.507 -2.2098  0.8527  1.6615
 1215SOL     OW15106   0.882   3.427   5.906 -0.3248 -0.0774  0.2197
 1215SOL    HW115107   0.831   3.346   5.912 -1.2349  0.3971 -0.9294
 1215SOL    HW215108   0.947   3.401   5.841  0.7823  2.6198  0.2680
 1216SOL     OW15109   0.573   0.625   9.814 -0.6640  0.2800  0.3097
 1216SOL    HW115110   0.485   0.626   9.853 -0.7499  0.5118  0.1109
 1216SOL    HW215111   0.619   0.682   9.877  0.5094  0.4660 -0.7333
 1217SOL     OW15112   2.617   4.154   0.679 -0.0495  0.2522  0.2964
 1217SOL    HW115113   2.689   4.133   0.621  2.5416  1.7688  2.9409
 1217SOL    HW215114   2.563   4.209   0.621  1.7517  1.7232  0.0178
 1218SOL     OW15115   0.101   1.670   3.988  0.6831 -0.8150 -0.6617
 1218SOL    HW115116   0.186   1.641   4.024  0.3586 -0.0989  0.6645
 1218SOL    HW215117   0.083   1.744   4.045 -2.7480 -0.9374 -1.5877
 1219SOL     OW15118   0.257   2.456   2.258  0.0123 -0.5803  0.3539
 1219SOL    HW115119   0.251   2.550   2.240 -0.5211 -0.4483  1.2055
 1219SOL    HW215120   0.207   2.420   2.185  0.8677 -1.0770  0.0223
 1220SOL     OW15121   3.943   3.370  15.150 -0.4062 -0.2368 -0.2234
 1220SOL    HW115122   3.898   3.340  15.071  0.9542 -3.6824  0.3093
 1220SOL    HW215123   3.902   3.454  15.172 -0.8884 -0.3142 -0.8438
 1221SOL     OW15124   2.621   1.816  11.112  0.5122  0.0951 -0.1880
 1221SOL    HW115125   2.640   1.910  11.110  0.9213  0.0324  0.8122
 1221SOL    HW215126   2.546   1.812  11.172 -0.0478  2.5806 -0.7078
 1222SOL     OW15127   0.464   2.116   4.882  0.3544  0.1014 -0.2004
 1222SOL    HW115128   0.480   2.207   4.856  0.1416  0.4223  0.7724
 1222SOL    HW215129   0.404   2.134   4.955  1.3632  1.9443  0.1814
 1223SOL     OW15130   1.101   4.498   0.928 -0.5755  0.3504 -0.1096
 1223SOL    HW115131   1.091   4.592   0.942  0.8431  0.4244  0.4054
 1223SOL    HW215132   1.014   4.475   0.895 -0.7342  1.0015 -0.1437
 1224SOL     OW15133   2.633   2.885   8.952  0.1846  0.2279  0.2949
 1224SOL    HW115134   2.588   2.843   9.026  0.3429  1.6436  1.1985
 1224SOL    HW215135   2.644   2.978   8.971 -3.1789  0.9385 -1.1501
 1225SOL     OW15136   1.696   0.762   6.903 -0.3146  0.4400  0.8965
 1225SOL    HW115137   1.644   0.821   6.957 -1.8514 -0.0684 -0.0402
 1225SOL    HW215138   1.698   0.680   6.953  1.6480 -1.7994 -2.8888
 1226SOL     OW15139   1.167   4.367   3.832  0.3721 -0.3431  0.3780
 1226SOL    HW115140   1.210   4.330   3.754 -4.0490 -3.3300 -0.6351
 1226SOL    HW215141   1.124   4.449   3.808  1.7437  0.7455  1.6158
 1227SOL     OW15142   2.471   1.353   9.393 -0.0441 -0.2932 -0.4392
 1227SOL    HW115143   2.562   1.348   9.364 -0.5394 -2.6772 -1.6550
 1227SOL    HW215144   2.420   1.376   9.315  0.0207 -0.5530 -0.5581
 1228SOL     OW15145   3.538   0.054  17.575 -0.0259  0.0146  0.2381
 1228SOL    HW115146   3.502   4.692  17.598 -1.9950  0.7978  0.0946
 1228SOL    HW215147   3.631   0.039  17.560  0.1660  0.5627  0.8565
 1229SOL     OW15148   3.762   3.797  10.226  0.7290 -0.3257 -1.2419
 1229SOL    HW115149   3.777   3.888  10.200 -0.4751  0.4522  0.8181
 1229SOL    HW215150   3.806   3.798  10.311  0.3322 -1.3411 -1.0223
 1230SOL     OW15151   4.449   3.176  17.218  0.1384 -0.3843  0.3254
 1230SOL    HW115152   4.392   3.108  17.252  1.5058 -1.2998  0.7750
 1230SOL    HW215153   4.387   3.239  17.180  0.0109 -1.0398 -0.5600
 1231SOL     OW15154   0.781   3.720   2.932 -0.2531  0.3823 -0.6489
 1231SOL    HW115155   0.786   3.690   2.841 -0.5130  1.7908 -1.1331
 1231SOL    HW215156   0.841   3.795   2.932  1.1223 -0.7048  1.3409
 1232SOL     OW15157   3.781   3.461   3.707 -0.2002  0.5176  0.0020
 1232SOL    HW115158   3.719   3.401   3.749  0.9857 -1.6101 -1.2722
 1232SOL    HW215159   3.727   3.524   3.660  0.6378  0.8590 -0.5108
 1233SOL     OW15160   4.656   4.123   4.773  0.0875  0.1905  0.5524
 1233SOL    HW115161   4.661   4.215   4.799  1.1699 -0.1846  1.6307
 1233SOL    HW215162   4.674   4.080   4.856  3.0024 -1.0252 -0.7350
 1234SOL     OW15163   2.783   3.646  10.463  0.1749  0.2732  0.4149
 1234SOL    HW115164   2.785   3.742  10.453  0.1150  0.0900 -1.3554
 1234SOL    HW215165   2.878   3.634  10.469  0.4285  1.1526 -1.8198
 1235SOL     OW15166   1.628   4.639  13.801 -0.2541  0.6219 -0.5403
 1235SOL    HW115167   1.623   4.550  13.766 -0.8146  1.7641 -3.3237
 1235SOL    HW215168   1.654   4.690  13.724 -0.6302 -0.3604 -1.3196
 1236SOL     OW15169   0.130   2.795  15.554  0.1813 -0.5868 -0.2170
 1236SOL    HW115170   0.138   2.881  15.514 -3.0009  0.6524  1.8460
 1236SOL    HW215171   0.035   2.795  15.563  0.0154  0.5331 -1.9968
 1237SOL     OW15172   2.935   1.269   6.740 -0.3601 -0.1297  0.2151
 1237SOL    HW115173   2.948   1.358   6.774  1.8069  0.4980 -2.2605
 1237SOL    HW215174   2.851   1.240   6.774 -0.1898 -0.9556 -0.0902
 1238SOL     OW15175   4.408   2.109   2.800  0.4762 -0.3380 -0.4661
 1238SOL    HW115176   4.353   2.179   2.766  0.7708 -0.2665 -0.7921
 1238SOL    HW215177   4.439   2.063   2.721  0.2703 -1.0209 -0.1506
 1239SOL     OW15178   1.117   2.221  11.465  0.1720 -0.2415  0.4228
 1239SOL    HW115179   1.037   2.258  11.427 -0.1373 -1.8240 -0.4959
 1239SOL    HW215180   1.099   2.212  11.558 -1.4634  0.4575  0.1706
 1240SOL     OW15181   4.052   4.156   1.903  0.8555 -0.2284 -0.6962
 1240SOL    HW115182   4.018   4.143   1.992  1.8419 -0.7070 -0.3874
 1240SOL    HW215183   3.971   4.151   1.854  0.7487  0.3919 -0.5845
 1241SOL     OW15184   2.482   2.832   5.977 -0.1271  0.0656  0.2956
 1241SOL    HW115185   2.566   2.786   5.982 -1.3199 -2.0255  0.9254
 1241SOL    HW215186   2.424   2.770   6.021  1.5592 -0.8536  1.2371
 1242SOL     OW15187   1.977   2.767   9.584  0.3393  0.3824  0.8346
 1242SOL    HW115188   2.052   2.712   9.562 -1.3255 -1.5075 -0.2064
 1242SOL    HW215189   2.011   2.856   9.577  2.9108 -0.7029 -0.4595
 1243SOL     OW15190   2.771   2.979   7.087  0.1095 -0.3436  0.6229
 1243SOL    HW115191   2.803   3.042   7.023 -2.8183 -0.2760 -0.7500
 1243SOL    HW215192   2.813   3.006   7.169 -2.3433  0.0879  1.7477
 1244SOL     OW15193   4.323   0.477  13.486  0.0424  0.0018 -0.4759
 1244SOL    HW115194   4.297   0.385  13.484 -1.0189  0.3513 -2.6405
 1244SOL    HW215195   4.240   0.520  13.504  0.3426  1.5115 -2.6828
 1245SOL     OW15196   0.983   3.772   5.670  0.2327 -0.1410  0.3548
 1245SOL    HW115197   0.932   3.717   5.610  1.2500 -0.6220 -0.0720
 1245SOL    HW215198   0.930   3.756   5.747  0.8346 -1.5809  0.4738
 1246SOL     OW15199   1.504   2.462   7.434 -0.1191  0.6402  0.1227
 1246SOL    HW115200   1.574   2.503   7.484  1.1492 -1.2038 -0.1701
 1246SOL    HW215201   1.437   2.452   7.502  0.0471  0.3907  0.2471
 1247SOL     OW15202   3.420   1.201  15.814  0.1434  0.2523 -0.2100
 1247SOL    HW115203   3.440   1.115  15.776 -1.8308 -0.9886  1.5889
 1247SOL    HW215204   3.504   1.242  15.794  0.8779 -1.8527 -1.5053
 1248SOL     OW15205   3.307   0.031  11.723  0.3318  0.2712 -0.1478
 1248SOL    HW115206   3.311   0.093  11.650  0.5478  3.0762  2.2240
 1248SOL    HW215207   3.289   4.676  11.671 -2.1327 -0.1606  1.3024
 1249SOL     OW15208   4.002   1.821   6.535  0.1375 -0.2222 -0.2256
 1249SOL    HW115209   4.073   1.865   6.581 -0.2619 -0.3274  0.4867
 1249SOL    HW215210   4.019   1.838   6.442 -1.8349 -1.6163 -0.8450
 1250SOL     OW15211   1.633   4.591   4.243 -0.0587 -0.1571 -0.6855
 1250SOL    HW115212   1.556   4.586   4.186  0.3043  0.4022 -1.2162
 1250SOL    HW215213   1.609   4.540   4.321 -0.4911  0.7043 -0.2504
 1251SOL     OW15214   0.666   1.748   7.216  0.8501  0.4768  0.4008
 1251SOL    HW115215   0.733   1.719   7.279 -0.2779 -0.2036  1.2845
 1251SOL    HW215216   0.660   1.682   7.148  1.4401  0.7221  0.1116
 1252SOL     OW15217   3.868   1.772   2.423 -0.0619 -0.3307 -0.1629
 1252SOL    HW115218   3.898   1.855   2.460  0.2778  0.2006 -1.6333
 1252SOL    HW215219   3.840   1.720   2.498 -0.6220  0.1401 -0.0473
 1253SOL     OW15220   2.594   4.595   4.990  0.3766  0.3913  0.1348
 1253SOL    HW115221   2.522   4.550   5.033  0.0109 -0.4369 -1.3790
 1253SOL    HW215222   2.556   4.682   5.001  0.0330  0.0199  1.8757
 1254SOL     OW15223   0.642   3.225   3.479 -0.3149  0.5992  0.3221
 1254SOL    HW115224   0.649   3.276   3.398  1.4796 -1.3895 -0.7686
 1254SOL    HW215225   0.548   3.229   3.498 -0.1288  1.6607  1.0064
 1255SOL     OW15226   4.578   0.073   5.074 -0.6492  0.2324  0.3346
 1255SOL    HW115227   4.506   0.045   5.131 -1.0187  1.9186  0.7020
 1255SOL    HW215228   4.549   0.162   5.053 -0.0885  1.1096  3.3043
 1256SOL     OW15229   4.472   1.562   8.663  0.2216 -0.1692  0.4504
 1256SOL    HW115230   4.462   1.469   8.682 -0.9818 -0.0900  0.2633
 1256SOL    HW215231   4.537   1.585   8.730 -0.3261 -0.4643  1.0890
 1257SOL     OW15232   3.077   0.035   2.222 -0.9644  0.4147  0.1432
 1257SOL    HW115233   3.142   0.026   2.152 -0.1320  3.5314  0.4993
 1257SOL    HW215234   3.056   4.665   2.225  0.9379  0.0209  1.0762
 1258SOL     OW15235   0.720   4.333   4.805 -0.1177  0.4649  0.1040
 1258SOL    HW115236   0.653   4.382   4.756 -2.4366 -1.4643  1.3347
 1258SOL    HW215237   0.749   4.401   4.866 -2.4220  0.6466  1.0031
 1259SOL     OW15238   2.861   4.251   8.608 -0.3818  0.4679 -0.1014
 1259SOL    HW115239   2.788   4.276   8.552 -1.2155 -1.5892  0.0335
 1259SOL    HW215240   2.899   4.337   8.626 -0.4104  0.3810  0.3731
 1260SOL     OW15241   2.961   0.479   8.317  0.6079  0.1973 -0.1201
 1260SOL    HW115242   2.950   0.467   8.411 -3.2809  1.3075 -0.4274
 1260SOL    HW215243   2.891   0.540   8.294 -0.3678 -0.4787  1.0525
 1261SOL     OW15244   0.116   2.637   4.720  0.4653 -0.0077  0.3445
 1261SOL    HW115245   0.153   2.724   4.735  0.7195 -0.2614  1.2190
 1261SOL    HW215246   0.077   2.620   4.806  0.6807 -0.5232  0.3436
 1262SOL     OW15247   4.125   2.526   2.830  0.5605 -1.1903  0.0486
 1262SOL    HW115248   4.054   2.530   2.894 -0.3079 -3.0404 -0.7903
 1262SOL    HW215249   4.117   2.441   2.785 -1.2201  0.6006 -3.0548
 1263SOL     OW15250   1.261   1.249  10.505  0.5472  0.0198  0.2072
 1263SOL    HW115251   1.335   1.202  10.543 -0.3714 -0.3460  1.5368
 1263SOL    HW215252   1.305   1.278  10.425 -0.0782  2.3825  0.6933
 1264SOL     OW15253   0.075   4.431   2.233 -0.1169 -0.0752 -0.0479
 1264SOL    HW115254   0.040   4.485   2.162 -1.9005 -0.4782  0.5457
 1264SOL    HW215255   0.001   4.409   2.290  1.6998  1.8960  3.0173
 1265SOL     OW15256   1.654   2.323   9.057 -0.2567  0.0401 -0.1199
 1265SOL    HW115257   1.695   2.403   9.028 -0.8264  0.6780  0.8070
 1265SOL    HW215258   1.570   2.357   9.090 -2.1388 -2.5840 -2.1716
 1266SOL     OW15259   0.536   0.915   3.799 -0.1378 -0.0369  0.5379
 1266SOL    HW115260   0.484   0.852   3.749  0.2854  1.2060 -1.5246
 1266SOL    HW215261   0.590   0.851   3.844  0.2522 -1.2619 -1.6638
 1267SOL     OW15262   4.373   0.578   4.866 -0.2746 -0.2693  0.0740
 1267SOL    HW115263   4.294   0.631   4.875 -0.1549 -0.3671  1.6382
 1267SOL    HW215264   4.436   0.640   4.903  1.8274 -2.3392  0.0285
 1268SOL     OW15265   1.741   0.229   4.799  0.0408  0.1828  0.1876
 1268SOL    HW115266   1.804   0.158   4.785 -0.5270 -0.1482 -0.6692
 1268SOL    HW215267   1.700   0.245   4.714  1.5510 -0.3629 -0.6393
 1269SOL     OW15268   0.626   2.961   1.916 -0.1813 -0.0118  1.0853
 1269SOL    HW115269   0.639   2.874   1.953  1.4633 -0.9212 -1.5799
 1269SOL    HW215270   0.559   2.990   1.976  0.7673  2.4292  0.9605
 1270SOL     OW15271   4.558   4.038  13.892 -0.1845 -0.3405  0.0876
 1270SOL    HW115272   4.601   3.993  13.965  1.1316  0.5843 -0.1119
 1270SOL    HW215273   4.632   4.084  13.852 -1.1355  0.8634 -0.2805
 1271SOL     OW15274   3.492   2.983  16.838 -0.2452  0.3753  0.0204
 1271SOL    HW115275   3.484   2.936  16.756 -1.4922 -2.7103  1.8953
 1271SOL    HW215276   3.586   2.967  16.850  0.0345  1.2597 -0.9595
 1272SOL     OW15277   1.034   3.785   9.442  0.3172 -0.2212  0.3679
 1272SOL    HW115278   1.051   3.713   9.503  1.3920 -0.3480 -0.0879
 1272SOL    HW215279   1.119   3.828   9.443 -0.6676  1.8162 -3.6772
 1273SOL     OW15280   3.662   2.169   2.695  0.2806 -0.3760 -0.0808
 1273SOL    HW115281   3.634   2.077   2.686 -1.6129 -0.1009  3.1873
 1273SOL    HW215282   3.646   2.191   2.786 -0.6198  0.2752 -0.3920
 1274SOL     OW15283   0.071   2.458   7.396 -0.3407  0.3290  0.1285
 1274SOL    HW115284   0.116   2.518   7.456 -2.4562  0.3488  1.6918
 1274SOL    HW215285   4.717   2.447   7.452  1.9413 -2.5797  2.7258
 1275SOL     OW15286   2.278   3.278  12.488 -0.2151 -0.2927 -0.1490
 1275SOL    HW115287   2.248   3.264  12.398  0.3943  0.4339 -0.4660
 1275SOL    HW215288   2.295   3.373  12.489 -0.8680 -0.2006  1.4280
 1276SOL     OW15289   3.778   0.543  12.563  0.4141 -0.3984  0.5108
 1276SOL    HW115290   3.714   0.495  12.615  0.2627 -0.6054  0.1364
 1276SOL    HW215291   3.723   0.616  12.537  1.1035  0.1546  0.6115
 1277SOL     OW15292   2.565   2.548   4.489 -0.0331  0.1263  0.6980
 1277SOL    HW115293   2.599   2.633   4.517  0.5075  0.4833 -1.0390
 1277SOL    HW215294   2.543   2.554   4.396  2.3796 -1.6754  0.0126
 1278SOL     OW15295   0.654   1.028   4.885 -0.0576  0.0767  0.7709
 1278SOL    HW115296   0.595   1.104   4.887  1.3866  1.1820  1.5703
 1278SOL    HW215297   0.589   0.961   4.864  0.6517 -0.4230  0.1628
 1279SOL     OW15298   4.006   2.213  14.063  0.8736 -0.8536  0.0888
 1279SOL    HW115299   3.999   2.274  13.990 -2.6135 -0.5488  0.6519
 1279SOL    HW215300   4.100   2.220  14.081  1.2872 -2.3324 -1.4999
 1280SOL     OW15301   0.600   2.389   6.357 -0.6757 -0.0489  0.0331
 1280SOL    HW115302   0.552   2.319   6.401  0.8475 -1.4743 -0.5835
 1280SOL    HW215303   0.575   2.382   6.265 -1.6368  0.1834  0.2762
 1281SOL     OW15304   0.595   2.868  13.830 -0.5902  0.2929 -0.2851
 1281SOL    HW115305   0.555   2.792  13.872 -0.1275 -0.9820 -2.1792
 1281SOL    HW215306   0.664   2.901  13.888 -2.6885  1.1129  1.7378
 1282SOL     OW15307   4.212   0.416  12.210 -0.4207 -0.4934 -0.7500
 1282SOL    HW115308   4.225   0.323  12.229 -1.3108 -0.4407  0.1275
 1282SOL    HW215309   4.167   0.440  12.291 -0.5674 -0.6742 -0.7779
 1283SOL     OW15310   0.157   4.318   9.413 -0.5512  0.2005 -0.6747
 1283SOL    HW115311   0.170   4.412   9.425 -1.7134  0.3004 -0.2060
 1283SOL    HW215312   0.219   4.294   9.343  1.1725  0.5808  0.7329
 1284SOL     OW15313   4.101   4.409  13.734 -0.0104 -0.4585  0.2550
 1284SOL    HW115314   4.174   4.412  13.796  0.2178 -0.5300 -0.0102
 1284SOL    HW215315   4.049   4.484  13.765  1.0629  0.4550 -0.1794
 1285SOL     OW15316   3.462   4.359   3.325  0.0622 -0.2450 -0.3262
 1285SOL    HW115317   3.471   4.297   3.252  0.5499 -0.9831  0.3626
 1285SOL    HW215318   3.391   4.417   3.299 -0.6558 -1.3567 -0.8536
 1286SOL     OW15319   2.798   3.177  14.437 -0.4650  0.1995 -0.0990
 1286SOL    HW115320   2.709   3.210  14.452 -0.7852 -0.3348 -0.7840
 1286SOL    HW215321   2.810   3.130  14.519 -0.0538  0.4362 -0.0247
 1287SOL     OW15322   3.894   1.913   1.523 -0.0143 -0.2179 -0.3273
 1287SOL    HW115323   3.963   1.846   1.528 -1.6443 -2.0433 -1.9239
 1287SOL    HW215324   3.861   1.896   1.434 -0.5513 -1.8529  0.1727
 1288SOL     OW15325   3.708   1.931   6.361  0.6398 -0.3386 -0.7563
 1288SOL    HW115326   3.680   1.911   6.272  0.6987 -0.4763 -0.7438
 1288SOL    HW215327   3.716   1.844   6.399  0.7270  0.2372  0.5676
 1289SOL     OW15328   4.383   3.922   0.761  0.7465 -0.0073  0.4454
 1289SOL    HW115329   4.431   3.936   0.679 -0.1512 -0.4675 -0.1710
 1289SOL    HW215330   4.441   3.858   0.802  0.3938 -1.5315 -1.4136
 1290SOL     OW15331   2.184   4.230  12.599  0.3261 -0.0202  0.2134
 1290SOL    HW115332   2.248   4.267  12.539  0.0566  1.4964  0.8653
 1290SOL    HW215333   2.179   4.141  12.563  0.9061  0.7858 -1.8220
 1291SOL     OW15334   3.381   1.427   5.250  0.1763  0.3683  0.2280
 1291SOL    HW115335   3.322   1.480   5.304  0.9071  0.2362  1.1693
 1291SOL    HW215336   3.439   1.500   5.229  2.0985 -1.4585 -0.8762
 1292SOL     OW15337   3.972   1.911  10.742 -0.2301  0.2663 -0.5400
 1292SOL    HW115338   3.916   1.833  10.741  0.3994 -0.1687 -0.9760
 1292SOL    HW215339   4.022   1.909  10.661  0.4767 -4.2265  0.0393
 1293SOL     OW15340   2.567   3.830   5.447  0.1258 -0.2494 -0.4943
 1293SOL    HW115341   2.659   3.858   5.441  0.2231 -0.5251 -0.2533
 1293SOL    HW215342   2.545   3.856   5.357 -2.0612  1.2150  0.4603
 1294SOL     OW15343   2.188   2.967  13.116  0.5451  0.0888  0.0100
 1294SOL    HW115344   2.206   2.968  13.022 -0.3272  3.3428 -0.1377
 1294SOL    HW215345   2.256   2.911  13.153  1.9990  1.6102 -0.3268
 1295SOL     OW15346   4.147   3.230   7.307  0.1355 -0.0041  0.4548
 1295SOL    HW115347   4.227   3.280   7.289  0.9542 -1.0139  1.2788
 1295SOL    HW215348   4.090   3.268   7.240 -1.1741 -0.8193  1.1216
 1296SOL     OW15349   4.608   3.714   1.763  0.3530 -0.3534  0.0565
 1296SOL    HW115350   4.569   3.759   1.688 -1.9871  0.5368  1.7921
 1296SOL    HW215351   4.620   3.631   1.718 -1.5683  0.2857 -1.6332
 1297SOL     OW15352   3.041   0.608   3.667 -0.1071  0.0844 -0.8430
 1297SOL    HW115353   3.102   0.608   3.593 -1.1296 -0.9421 -1.6928
 1297SOL    HW215354   3.006   0.519   3.657 -0.9895  0.2311  0.9744
 1298SOL     OW15355   4.688   3.403   4.118  0.4769  0.3728 -0.5052
 1298SOL    HW115356   4.647   3.391   4.204 -2.3947 -2.9472 -2.3324
 1298SOL    HW215357   4.615   3.431   4.063 -0.1820  1.3592  0.8935
 1299SOL     OW15358   0.972   1.877   4.462  0.0769  0.3601  0.2648
 1299SOL    HW115359   1.053   1.834   4.433 -0.2009  1.1058 -1.6189
 1299SOL    HW215360   1.004   1.926   4.537  0.0404  2.4635 -1.1057
 1300SOL     OW15361   3.772   4.161   4.706  0.4254 -0.0697 -0.1251
 1300SOL    HW115362   3.868   4.159   4.706  0.4452  0.9990 -0.6083
 1300SOL    HW215363   3.761   4.251   4.675  0.6428 -0.0138 -0.0409
 1301SOL     OW15364   2.194   0.776  14.436 -0.1394 -0.3177  0.0643
 1301SOL    HW115365   2.237   0.860  14.453 -0.4615  0.1221 -1.2683
 1301SOL    HW215366   2.216   0.765  14.343  1.8612 -2.4503  0.7934
 1302SOL     OW15367   4.452   2.111   6.698  0.1367 -0.0034  0.0502
 1302SOL    HW115368   4.387   2.126   6.765 -1.5729  1.0396 -1.8423
 1302SOL    HW215369   4.482   2.202   6.692  0.5113 -0.2264 -1.6265
 1303SOL     OW15370   0.503   3.214   3.977 -0.2155  0.3081 -0.3221
 1303SOL    HW115371   0.521   3.304   3.949  0.1482  0.5378  0.6570
 1303SOL    HW215372   0.490   3.164   3.896 -0.7149  2.0871 -1.3420
 1304SOL     OW15373   0.623   0.394   9.483 -0.1365  0.1870 -0.5293
 1304SOL    HW115374   0.705   0.347   9.470 -1.1100 -1.5511 -0.5177
 1304SOL    HW215375   0.562   0.320   9.474 -1.3846  0.8856  2.1642
 1305SOL     OW15376   3.960   0.134   2.322  0.1443  0.3390  0.1015
 1305SOL    HW115377   3.919   0.123   2.236 -1.0177  1.2357  0.5397
 1305SOL    HW215378   3.918   0.214   2.354 -1.0633 -0.3948  0.3467
 1306SOL     OW15379   3.146   3.102  15.133  0.1350  0.3223  0.2270
 1306SOL    HW115380   3.220   3.044  15.113 -1.4254 -1.7169  0.4618
 1306SOL    HW215381   3.181   3.191  15.138  1.1705 -0.1167  0.8325
 1307SOL     OW15382   0.889   3.582   7.506 -0.2712  0.4904 -0.5295
 1307SOL    HW115383   0.895   3.659   7.563 -0.8417 -0.1813  0.4414
 1307SOL    HW215384   0.798   3.585   7.478 -0.3607  2.6116  0.0184
 1308SOL     OW15385   3.538   2.432   8.281  0.3554  0.4128  0.3390
 1308SOL    HW115386   3.501   2.349   8.250 -1.1754  0.1231  3.0094
 1308SOL    HW215387   3.594   2.394   8.349  0.4870  2.7174  1.5196
 1309SOL     OW15388   2.306   3.466  11.052  0.3503  0.3503  0.5034
 1309SOL    HW115389   2.368   3.531  11.019 -1.3377  0.8886 -1.5957
 1309SOL    HW215390   2.346   3.380  11.038 -1.6407 -0.5113  0.0547
 1310SOL     OW15391   3.545   2.736   8.675 -0.1828 -0.1551 -0.0117
 1310SOL    HW115392   3.485   2.689   8.617 -2.7784  0.9368  1.7760
 1310SOL    HW215393   3.482   2.779   8.732 -1.6476 -1.4797 -0.6363
 1311SOL     OW15394   4.225   2.036   6.098  0.3802  0.2152  0.1952
 1311SOL    HW115395   4.171   2.094   6.043  0.9800 -0.7490 -1.4105
 1311SOL    HW215396   4.313   2.068   6.078  0.4968 -0.9107 -1.1115
 1312SOL     OW15397   0.816   2.742   3.069 -0.2905 -0.0068  0.4864
 1312SOL    HW115398   0.827   2.740   3.164 -0.5178 -1.5537  0.4802
 1312SOL    HW215399   0.731   2.784   3.068 -0.0258  0.5289  0.4793
 1313SOL     OW15400   1.568   2.392   8.162 -0.2585  0.1000 -0.0418
 1313SOL    HW115401   1.487   2.429   8.196 -0.3388  1.0522 -1.2649
 1313SOL    HW215402   1.625   2.467   8.182 -1.3094  0.6361  0.8747
 1314SOL     OW15403   1.790   2.372   8.409  0.2580 -0.2645 -0.3177
 1314SOL    HW115404   1.762   2.460   8.383  1.3182  0.0825 -0.2524
 1314SOL    HW215405   1.730   2.355   8.482 -0.9478 -0.7544 -1.4200
 1315SOL     OW15406   4.257   0.374   7.658 -0.1242  0.5829 -0.0442
 1315SOL    HW115407   4.250   0.431   7.734  0.8501  0.1758  0.3504
 1315SOL    HW215408   4.246   0.441   7.591  1.1323 -0.6590 -1.4841
 1316SOL     OW15409   0.651   2.966   2.736  0.1599  0.3040 -0.2349
 1316SOL    HW115410   0.679   2.906   2.668  1.0443 -0.7428  1.0585
 1316SOL    HW215411   0.651   2.919   2.820  2.1368  0.6073 -0.0708
 1317SOL     OW15412   3.824   2.697  13.452  0.4603 -0.1973 -0.3223
 1317SOL    HW115413   3.846   2.788  13.436  1.4724 -0.1514  1.3777
 1317SOL    HW215414   3.746   2.681  13.399  1.3347 -1.1168 -1.3494
 1318SOL     OW15415   2.087   2.387   9.722 -0.2419  0.1255 -0.0751
 1318SOL    HW115416   2.165   2.333   9.733  1.4398  2.5315 -0.0201
 1318SOL    HW215417   2.104   2.428   9.637 -0.3348 -1.8006 -1.0042
 1319SOL     OW15418   3.528   1.084   2.068 -0.0530 -0.4121  0.0195
 1319SOL    HW115419   3.437   1.067   2.090  0.6270 -3.1683  0.6626
 1319SOL    HW215420   3.545   1.130   2.151  2.9609 -0.1771 -0.7102
 1320SOL     OW15421   1.952   0.894  10.240 -0.1644 -0.0312  0.4239
 1320SOL    HW115422   1.992   0.978  10.217 -1.2378  0.2795 -0.2982
 1320SOL    HW215423   2.000   0.840  10.177 -3.1439 -3.2127  0.8886
 1321SOL     OW15424   2.747   1.385   2.178 -1.1575  0.1415 -0.4658
 1321SOL    HW115425   2.725   1.413   2.267  1.8155 -3.1366  1.3259
 1321SOL    HW215426   2.741   1.290   2.188  0.6285 -0.2799 -3.3887
 1322SOL     OW15427   1.261   0.304  10.411 -0.3655 -0.1323 -0.3255
 1322SOL    HW115428   1.264   0.212  10.437  3.4510 -0.5052 -2.0351
 1322SOL    HW215429   1.354   0.328  10.415  0.7122 -3.9589 -2.0564
 1323SOL     OW15430   2.232   1.784   0.259 -0.3650 -0.5099  0.6420
 1323SOL    HW115431   2.232   1.813   0.168  0.7567 -1.0487  0.4804
 1323SOL    HW215432   2.172   1.709   0.254  1.7191 -2.0546 -0.9969
 1324SOL     OW15433   4.296   2.975  17.297  0.1828 -0.0971 -0.1885
 1324SOL    HW115434   4.262   2.987  17.385 -1.7458  1.0819 -1.0892
 1324SOL    HW215435   4.327   2.884  17.296 -0.6766 -0.3722 -3.6085
 1325SOL     OW15436   2.560   2.363   2.417 -0.0552 -0.8165 -0.0780
 1325SOL    HW115437   2.479   2.317   2.391 -0.6303 -0.3167  0.8270
 1325SOL    HW215438   2.528   2.450   2.393  0.2061 -0.2757  1.4939
 1326SOL     OW15439   2.756   2.619   5.973  0.5268 -0.0887 -0.0323
 1326SOL    HW115440   2.843   2.658   5.974  0.9971 -1.1619  0.4208
 1326SOL    HW215441   2.776   2.551   6.037 -1.4623  0.7111  1.4426
 1327SOL     OW15442   4.560   1.812   4.241 -0.2426  0.3140  0.2068
 1327SOL    HW115443   4.534   1.883   4.299  0.2512  2.5540 -2.3202
 1327SOL    HW215444   4.539   1.858   4.160 -1.7069  0.7317  0.8351
 1328SOL     OW15445   2.836   1.627   0.499  0.1282  0.0579 -0.6815
 1328SOL    HW115446   2.845   1.695   0.565  0.0670  0.2356 -0.8564
 1328SOL    HW215447   2.833   1.554   0.561 -2.3760  0.1786 -0.6581
 1329SOL     OW15448   2.961   3.236   3.230  0.0282 -0.6654  0.4374
 1329SOL    HW115449   2.987   3.156   3.184 -2.4126 -0.1385 -1.7882
 1329SOL    HW215450   2.882   3.203   3.271  0.6032 -2.8936 -0.2712
 1330SOL     OW15451   0.330   2.539   4.439 -0.6064  0.3384 -0.2207
 1330SOL    HW115452   0.310   2.547   4.346  1.5001  1.1623 -0.5862
 1330SOL    HW215453   0.396   2.606   4.456  0.6019 -0.7036 -0.8604
 1331SOL     OW15454   2.649   4.463   7.480 -0.9469 -0.2413 -0.2301
 1331SOL    HW115455   2.711   4.536   7.478  1.1742 -2.1817 -2.6425
 1331SOL    HW215456   2.644   4.450   7.575  1.5742  1.0609  0.0849
 1332SOL     OW15457   0.431   3.237   5.959  0.1033 -0.6901  0.3402
 1332SOL    HW115458   0.370   3.240   6.032 -0.2761  1.9807 -0.0618
 1332SOL    HW215459   0.387   3.272   5.881  3.4239 -0.5928 -1.5131
 1333SOL     OW15460   4.137   2.968  11.666 -0.2045 -0.2605  0.2056
 1333SOL    HW115461   4.117   2.903  11.599  3.7071 -2.7956  1.5216
 1333SOL    HW215462   4.199   2.906  11.705 -1.6056 -1.6456  0.2321
 1334SOL     OW15463   0.825   1.838   3.856 -0.6342  0.2992 -0.4670
 1334SOL    HW115464   0.730   1.843   3.850 -0.5393  1.3495 -1.1365
 1334SOL    HW215465   0.844   1.750   3.889  0.8484  1.2275  1.1720
 1335SOL     OW15466   4.066   3.833  13.596  0.6102 -0.0782  0.4861
 1335SOL    HW115467   4.069   3.755  13.541  0.1090  0.6767 -0.5924
 1335SOL    HW215468   4.056   3.791  13.682 -2.6161  0.8665  0.5684
 1336SOL     OW15469   1.232   2.625   6.702 -0.5283 -0.2217 -0.3098
 1336SOL    HW115470   1.273   2.539   6.700 -1.2846 -0.6105  0.8887
 1336SOL    HW215471   1.229   2.632   6.798  1.4578 -1.2327 -0.1946
 1337SOL     OW15472   0.311   4.588  14.624 -0.9411  0.2108 -0.2185
 1337SOL    HW115473   0.324   4.672  14.669 -0.4664  0.6987 -1.2831
 1337SOL    HW215474   0.336   4.529  14.696 -1.5969  0.9874  0.6477
 1338SOL     OW15475   0.483   4.149   7.319 -0.7531 -0.1626 -0.4709
 1338SOL    HW115476   0.401   4.100   7.323 -1.4477  1.0508 -0.0248
 1338SOL    HW215477   0.486   4.167   7.225 -1.6162 -1.6220 -0.7861
 1339SOL     OW15478   1.708   2.373  11.051 -0.3169  0.2188 -0.3036
 1339SOL    HW115479   1.707   2.461  11.014 -0.5920 -0.1115 -1.0787
 1339SOL    HW215480   1.751   2.328  10.978  1.0911 -0.0631  0.6863
 1340SOL     OW15481   3.746   0.961   2.435 -0.5818 -0.0545 -0.0808
 1340SOL    HW115482   3.710   0.911   2.361 -1.4186  1.1373 -0.4733
 1340SOL    HW215483   3.703   1.044   2.418 -0.7526 -0.1186  0.0381
 1341SOL     OW15484   1.009   1.527   7.250 -0.5420  0.1106  0.8893
 1341SOL    HW115485   1.067   1.486   7.314 -0.2468  2.1275  1.9092
 1341SOL    HW215486   1.070   1.596   7.224  1.1590 -1.4118  0.8397
 1342SOL     OW15487   4.535   3.528   6.215  0.4080 -0.1195  0.0418
 1342SOL    HW115488   4.572   3.588   6.150 -0.4821  1.9440  1.4291
 1342SOL    HW215489   4.454   3.512   6.167  1.7325 -1.3489 -1.8076
 1343SOL     OW15490   0.321   0.330   4.734  0.6793 -0.6254  0.1697
 1343SOL    HW115491   0.383   0.299   4.799  0.0517 -1.9914  0.1058
 1343SOL    HW215492   0.375   0.303   4.660 -1.0106  3.3191 -2.5373
 1344SOL     OW15493   4.434   1.015   3.923 -0.2627 -0.3748  0.4168
 1344SOL    HW115494   4.451   1.105   3.953  1.1831 -0.5848  0.2644
 1344SOL    HW215495   4.360   1.043   3.868 -0.6119 -0.2549  0.9544
 1345SOL     OW15496   0.352   2.504   6.385  0.0417 -0.5375  0.1746
 1345SOL    HW115497   0.447   2.499   6.376 -0.2532 -0.1159 -3.1054
 1345SOL    HW215498   0.346   2.521   6.479 -2.1013  0.0893 -0.0652
 1346SOL     OW15499   3.420   3.387   4.971  0.1599 -0.3223 -0.0704
 1346SOL    HW115500   3.371   3.465   4.943 -0.0615 -0.7649 -0.9302
 1346SOL    HW215501   3.494   3.389   4.911  1.6912 -1.7693  1.7886
 1347SOL     OW15502   2.877   2.263  12.524 -0.1763  0.1046  0.2141
 1347SOL    HW115503   2.799   2.238  12.476 -0.3128  0.3991  0.2878
 1347SOL    HW215504   2.831   2.265  12.608 -2.1682 -1.1639 -0.8482
 1348SOL     OW15505   0.332   2.488   5.072  0.1015  0.0949  0.2254
 1348SOL    HW115506   0.241   2.481   5.041 -0.2653 -0.0835  1.3330
 1348SOL    HW215507   0.353   2.396   5.089 -0.8914 -0.6399 -2.5772
 1349SOL     OW15508   3.730   3.550   8.911 -0.1413  0.6979  0.6768
 1349SOL    HW115509   3.743   3.565   8.818 -1.9786 -1.9391 -0.0321
 1349SOL    HW215510   3.817   3.517   8.932  0.5613  2.0169 -0.1882
 1350SOL     OW15511   1.425   2.496   9.081  0.0778  0.5925  0.2324
 1350SOL    HW115512   1.462   2.580   9.055  0.5070  0.5269  0.6425
 1350SOL    HW215513   1.382   2.518   9.163 -2.5586 -0.1602 -0.9538
 1351SOL     OW15514   3.940   4.467   3.661  0.2683  0.4159 -0.7639
 1351SOL    HW115515   3.909   4.529   3.596 -1.0690  1.3983  0.8000
 1351SOL    HW215516   3.887   4.387   3.657 -0.0471  0.6218 -0.6942
 1352SOL     OW15517   2.658   2.058  13.221  0.5764 -0.4738 -1.1073
 1352SOL    HW115518   2.624   1.972  13.247 -0.2540 -0.7910 -3.1735
 1352SOL    HW215519   2.649   2.118  13.295  1.8650 -1.3339 -0.2633
 1353SOL     OW15520   1.953   2.976   6.361 -0.1982  0.3564 -0.1676
 1353SOL    HW115521   1.978   2.970   6.268  0.8972  2.3582 -0.0003
 1353SOL    HW215522   1.859   2.993   6.359 -0.6922 -2.3947 -1.8287
 1354SOL     OW15523   3.420   2.277   7.046 -0.2075  0.5954  0.2852
 1354SOL    HW115524   3.396   2.352   6.992  0.3836  0.7091  0.1831
 1354SOL    HW215525   3.498   2.311   7.089 -0.1016  2.7184 -1.6477
 1355SOL     OW15526   0.368   1.695   9.663  0.0381  0.0607  0.0375
 1355SOL    HW115527   0.310   1.739   9.602  0.6156  2.0719  0.9141
 1355SOL    HW215528   0.451   1.741   9.650  0.1806  0.6128  2.7444
 1356SOL     OW15529   3.577   3.969   6.774 -0.1194 -0.0853  0.0739
 1356SOL    HW115530   3.498   3.976   6.828 -0.2338 -0.4934 -0.0374
 1356SOL    HW215531   3.623   4.053   6.783  0.0577 -0.1908  0.1494
 1357SOL     OW15532   0.369   1.589  12.585 -1.1459 -0.1864 -0.1402
 1357SOL    HW115533   0.354   1.673  12.540 -0.7664  0.0025  0.0906
 1357SOL    HW215534   0.353   1.535  12.507 -2.4228 -1.5746  1.1057
 1358SOL     OW15535   4.548   0.128  15.191  0.2401 -0.4807 -0.1061
 1358SOL    HW115536   4.454   0.132  15.176 -0.1054 -2.8550  1.3488
 1358SOL    HW215537   4.567   0.035  15.178  3.2016  0.2104 -0.6081
 1359SOL     OW15538   2.320   1.532   3.097 -0.0492  0.2331  0.7327
 1359SOL    HW115539   2.365   1.612   3.123 -0.3141  0.9010 -0.8884
 1359SOL    HW215540   2.231   1.566   3.089 -0.1358 -0.1005  0.2739
 1360SOL     OW15541   3.840   2.733   4.733  0.2982 -0.4946 -0.3617
 1360SOL    HW115542   3.912   2.670   4.737  3.1440  2.6017 -2.3272
 1360SOL    HW215543   3.886   2.804   4.778 -1.7021  0.3402  0.3290
 1361SOL     OW15544   3.425   1.800   5.922  0.1545 -0.1605  0.1717
 1361SOL    HW115545   3.398   1.844   6.003  0.4638  1.8496 -0.8213
 1361SOL    HW215546   3.499   1.854   5.897  0.1511  0.7176  2.0576
 1362SOL     OW15547   0.228   2.205   0.648  0.5776  0.7136 -0.1466
 1362SOL    HW115548   0.242   2.300   0.656  0.0144  0.7407  0.4980
 1362SOL    HW215549   0.283   2.196   0.570  3.2255 -1.6243  1.9813
 1363SOL     OW15550   0.490   1.084  11.339 -0.4193 -0.0734 -0.4016
 1363SOL    HW115551   0.512   1.028  11.413 -0.6690 -0.5416 -0.6795
 1363SOL    HW215552   0.485   1.020  11.268 -4.0373 -0.3885  0.1136
 1364SOL     OW15553   1.327   1.588   6.192 -0.1140 -0.2038 -0.3003
 1364SOL    HW115554   1.382   1.511   6.177 -0.3961 -0.5427  0.3805
 1364SOL    HW215555   1.399   1.645   6.220 -0.8546  0.3040  0.5792
 1365SOL     OW15556   4.248   3.139  12.096 -0.1317  0.6186  0.4946
 1365SOL    HW115557   4.311   3.111  12.162 -1.9562  1.9435  2.7737
 1365SOL    HW215558   4.302   3.109  12.023  0.4811  1.4631  0.6021
 1366SOL     OW15559   1.703   2.116   2.282  0.0640  0.4357  0.0209
 1366SOL    HW115560   1.652   2.182   2.329 -0.0709 -0.0162  0.5084
 1366SOL    HW215561   1.761   2.081   2.350  0.7664 -0.1622 -0.8842
 1367SOL     OW15562   1.201   0.945  11.728 -0.2074 -0.6623 -0.1429
 1367SOL    HW115563   1.259   0.870  11.743 -0.2201 -0.9302 -1.4274
 1367SOL    HW215564   1.127   0.903  11.683 -0.5459 -0.4827  0.2460
 1368SOL     OW15565   4.707   2.334   2.605 -0.1080  0.3114  0.0413
 1368SOL    HW115566   0.078   2.343   2.592 -0.5491  1.7508 -2.1091
 1368SOL    HW215567   4.710   2.353   2.699  1.6979  2.2654 -0.4342
 1369SOL     OW15568   1.462   3.951  15.007  0.0690 -0.0877  0.6356
 1369SOL    HW115569   1.379   3.912  14.979 -0.5861  1.4483  0.4229
 1369SOL    HW215570   1.507   3.954  14.923 -1.2731 -0.0544 -0.0911
 1370SOL     OW15571   0.642   2.131  10.042 -0.1584  0.1759 -0.3098
 1370SOL    HW115572   0.633   2.038  10.023 -1.4758  0.5665 -1.6319
 1370SOL    HW215573   0.713   2.129  10.106 -0.4214 -2.0832 -0.1054
 1371SOL     OW15574   4.629   4.108   9.111 -0.5132 -0.4962  0.5440
 1371SOL    HW115575   4.564   4.091   9.179 -0.5574  2.2593  1.1783
 1371SOL    HW215576   4.616   4.202   9.102 -0.4711 -0.4718  0.7280
 1372SOL     OW15577   1.708   1.951   7.030 -0.1409  0.3736  0.4431
 1372SOL    HW115578   1.678   2.020   6.971 -0.6523  1.8494  2.4223
 1372SOL    HW215579   1.778   1.912   6.977 -0.2050 -1.6939  1.8806
 1373SOL     OW15580   0.463   0.074   5.793 -0.7460  0.6810 -0.5464
 1373SOL    HW115581   0.465   4.713   5.839 -1.0985  1.1879  0.4171
 1373SOL    HW215582   0.451   0.046   5.702 -0.4555 -0.5352 -0.2066
 1374SOL     OW15583   0.897   3.653   3.498 -0.1920 -0.3047  0.3673
 1374SOL    HW115584   0.835   3.724   3.514  2.0001  1.1345  2.4509
 1374SOL    HW215585   0.974   3.695   3.459 -0.8340  2.1476  1.7780
 1375SOL     OW15586   4.448   0.863   0.083 -0.1106 -0.7484  0.0032
 1375SOL    HW115587   4.465   0.769   0.081  2.4500 -0.2585 -1.1126
 1375SOL    HW215588   4.393   0.870   0.006  0.4608  0.9989 -0.2432
 1376SOL     OW15589   0.917   3.086  15.470  0.4735 -0.6197  0.2624
 1376SOL    HW115590   0.921   3.179  15.445  2.1039 -0.7075  0.2295
 1376SOL    HW215591   0.948   3.087  15.561  1.1262 -0.4431  0.0369
 1377SOL     OW15592   2.874   0.234   4.551 -0.0086  0.1008 -0.0069
 1377SOL    HW115593   2.889   0.309   4.609  0.7850 -0.2291  0.2088
 1377SOL    HW215594   2.790   0.257   4.511 -0.1419  0.0377  0.2369
 1378SOL     OW15595   4.649   1.229   9.594  0.1858 -0.0221 -0.0350
 1378SOL    HW115596   4.710   1.294   9.627 -0.7541  0.9714 -0.2509
 1378SOL    HW215597   4.651   1.244   9.499  3.4903  1.7081  0.3407
 1379SOL     OW15598   3.027   4.249   5.538  0.0789 -0.0839  0.1240
 1379SOL    HW115599   2.948   4.202   5.565 -0.0180 -0.4610 -0.8068
 1379SOL    HW215600   2.987   4.294   5.464  1.4855  1.3520  0.2228
 1380SOL     OW15601   1.554   3.592   5.603 -0.0515  0.2062 -0.8655
 1380SOL    HW115602   1.549   3.600   5.699  2.9687 -2.2807 -0.5203
 1380SOL    HW215603   1.522   3.677   5.572 -0.7938  0.6051  0.9388
 1381SOL     OW15604   1.796   2.125   5.031 -0.4816  0.1285  0.5084
 1381SOL    HW115605   1.713   2.150   4.990  0.0610  0.3521 -0.4233
 1381SOL    HW215606   1.870   2.151   4.977  0.3724 -0.0971  1.5612
 1382SOL     OW15607   0.032   2.379  14.389  0.2632 -0.0501  0.2052
 1382SOL    HW115608   4.721   2.299  14.351  0.7690  0.8798 -2.2379
 1382SOL    HW215609   4.674   2.418  14.421  0.1041 -0.6097  0.4797
 1383SOL     OW15610   3.353   1.981  14.306  0.1043 -0.0060 -0.4108
 1383SOL    HW115611   3.386   1.958  14.392  0.0415 -1.5257 -0.7948
 1383SOL    HW215612   3.278   1.922  14.296 -1.0117  1.5330 -1.2909
 1384SOL     OW15613   3.865   4.319  15.121  0.1078 -0.3293  0.6543
 1384SOL    HW115614   3.906   4.358  15.199 -0.7233  0.2978  0.7721
 1384SOL    HW215615   3.932   4.300  15.056 -0.3570  0.8221 -0.1640
 1385SOL     OW15616   1.225   1.165   9.517  0.5663  0.3247  0.5663
 1385SOL    HW115617   1.300   1.207   9.476 -1.8722  2.7156 -1.4733
 1385SOL    HW215618   1.163   1.237   9.503  0.2196 -0.2118 -0.6610
 1386SOL     OW15619   1.265   3.961   2.701  0.3780  0.6226 -0.0946
 1386SOL    HW115620   1.326   3.950   2.628 -0.2716 -1.1217 -0.3864
 1386SOL    HW215621   1.186   3.914   2.672 -0.6892  0.3990  3.1674
 1387SOL     OW15622   2.406   4.432  12.133  0.1770  0.3285 -0.7407
 1387SOL    HW115623   2.490   4.389  12.145 -0.5237 -0.3602  1.8481
 1387SOL    HW215624   2.437   4.523  12.130 -0.5526  0.5678 -1.2641
 1388SOL     OW15625   3.036   2.893   7.779  0.3319 -0.1086 -0.0623
 1388SOL    HW115626   2.978   2.821   7.753 -0.5846  0.3252  0.7803
 1388SOL    HW215627   3.016   2.907   7.871  2.6065  0.2047  0.3790
 1389SOL     OW15628   2.341   1.229  14.129 -0.3723  0.1620 -0.5180
 1389SOL    HW115629   2.293   1.239  14.046  0.7413 -1.2162 -1.3305
 1389SOL    HW215630   2.430   1.216  14.096 -0.2644 -3.4695  1.2117
 1390SOL     OW15631   2.672   2.559  10.789 -0.0269 -0.8074 -0.6829
 1390SOL    HW115632   2.586   2.588  10.821  0.9368 -0.4566  1.6416
 1390SOL    HW215633   2.638   2.520  10.708  1.8723 -0.0672 -1.8300
 1391SOL     OW15634   0.666   4.167   3.801 -0.1018 -0.2665  0.2254
 1391SOL    HW115635   0.706   4.249   3.771  0.2820  0.0750  1.6464
 1391SOL    HW215636   0.744   4.112   3.802 -0.3488 -0.6341 -1.5610
 1392SOL     OW15637   3.438   3.506   8.208 -0.1565 -0.6271  0.4358
 1392SOL    HW115638   3.347   3.514   8.236  0.2907  2.3120  0.9992
 1392SOL    HW215639   3.486   3.559   8.271  0.6530 -0.9208  0.0665
 1393SOL     OW15640   2.242   3.425   2.656 -0.5135  0.1971 -0.3491
 1393SOL    HW115641   2.235   3.499   2.717  0.5815 -0.6618  0.8294
 1393SOL    HW215642   2.312   3.464   2.604 -2.1173  3.8518  0.1863
 1394SOL     OW15643   2.085   4.234  16.858 -0.0463  0.5686  0.3690
 1394SOL    HW115644   2.029   4.165  16.821 -2.2913  3.4543 -1.5464
 1394SOL    HW215645   2.011   4.290  16.883  0.1392  0.7250  0.5621
 1395SOL     OW15646   2.547   3.243   8.331  0.1632  0.2500  0.5766
 1395SOL    HW115647   2.506   3.328   8.348 -0.5579  0.1097 -0.4952
 1395SOL    HW215648   2.511   3.178   8.391 -0.7444  2.4070  2.3882
 1396SOL     OW15649   4.581   2.004  11.026  0.2899  0.6969  0.1932
 1396SOL    HW115650   4.499   1.974  11.066 -0.8940  1.2914 -1.7826
 1396SOL    HW215651   4.578   2.099  11.024  2.0631  0.7123 -1.3724
 1397SOL     OW15652   3.063   2.812  13.210  0.1308  0.2607  0.0005
 1397SOL    HW115653   2.983   2.850  13.247 -0.9512 -0.7921 -1.2434
 1397SOL    HW215654   3.131   2.874  13.237  2.5947 -0.8133 -3.7667
 1398SOL     OW15655   2.372   3.639   2.466  0.0441 -0.3963  0.3025
 1398SOL    HW115656   2.354   3.729   2.495 -0.4552  0.2648 -2.0737
 1398SOL    HW215657   2.449   3.609   2.513  0.5597  0.2174 -0.1589
 1399SOL     OW15658   2.396   2.205  15.876 -0.0851  0.4657  0.4921
 1399SOL    HW115659   2.465   2.234  15.935  0.3417 -1.7551  1.0731
 1399SOL    HW215660   2.323   2.183  15.934 -0.9861 -1.8877 -1.4959
 1400SOL     OW15661   2.044   1.134   3.344  0.3630 -0.6838  0.1630
 1400SOL    HW115662   2.047   1.151   3.250  0.4449 -1.5922  0.0056
 1400SOL    HW215663   2.131   1.144   3.382  0.7448  2.8686 -1.6265
 1401SOL     OW15664   0.015   1.998   7.598 -0.3501  0.2267  0.0594
 1401SOL    HW115665   0.048   1.922   7.646 -1.3066  0.1087  0.5326
 1401SOL    HW215666   0.056   2.062   7.656 -1.2377 -0.3627  1.3277
 1402SOL     OW15667   1.931   1.908   6.590 -0.2276 -0.2401  0.1835
 1402SOL    HW115668   1.909   1.985   6.538 -3.4574 -2.7126 -2.1025
 1402SOL    HW215669   1.851   1.862   6.565 -0.6363 -0.4934  1.9233
 1403SOL     OW15670   1.775   0.331   3.411  0.1656 -0.4876  0.1944
 1403SOL    HW115671   1.777   0.417   3.453  0.1030  0.7280 -2.2703
 1403SOL    HW215672   1.689   0.341   3.370  0.9777  3.5258 -0.5032
 1404SOL     OW15673   3.621   4.610  17.317  0.1586 -0.0723  0.2037
 1404SOL    HW115674   3.657   4.676  17.257  2.3409 -1.4025  0.0612
 1404SOL    HW215675   3.533   4.610  17.279  0.4633  1.6592 -0.5207
 1405SOL     OW15676   1.376   2.255   6.631 -0.8006  0.4529 -0.6803
 1405SOL    HW115677   1.280   2.255   6.636 -0.8239  4.7472 -0.4365
 1405SOL    HW215678   1.399   2.266   6.724  1.8651 -3.0991 -0.9548
 1406SOL     OW15679   2.373   0.879  11.005  0.5652  0.5925  0.3649
 1406SOL    HW115680   2.463   0.866  10.975 -0.1214  0.9681 -1.9208
 1406SOL    HW215681   2.368   0.975  11.013 -1.4250  0.5711 -0.4866
 1407SOL     OW15682   1.762   0.991  10.867  0.4576  0.2189 -0.0749
 1407SOL    HW115683   1.688   0.954  10.818  1.5441 -0.6894 -1.0303
 1407SOL    HW215684   1.800   0.910  10.900 -2.4703 -1.1068  0.0333
 1408SOL     OW15685   0.820   4.091  16.936  0.0691 -0.2384 -0.2968
 1408SOL    HW115686   0.908   4.068  16.908  0.7775 -0.3785  2.0727
 1408SOL    HW215687   0.803   4.160  16.872  1.5079  0.2399 -0.1682
 1409SOL     OW15688   2.639   0.342   0.602  0.1198  0.8417 -0.7333
 1409SOL    HW115689   2.586   0.421   0.599 -0.9092  0.1997  0.5108
 1409SOL    HW215690   2.725   0.383   0.593  0.7806 -1.0484 -3.1612
 1410SOL     OW15691   0.913   1.362   5.301  0.3241  0.2895 -0.3743
 1410SOL    HW115692   0.994   1.412   5.300 -0.0899  0.9754  0.2674
 1410SOL    HW215693   0.870   1.403   5.376  2.0171  0.5515  0.4386
 1411SOL     OW15694   4.289   0.669   8.006  0.4713  0.4810  0.1161
 1411SOL    HW115695   4.234   0.722   7.947 -0.7648 -1.1724 -0.2132
 1411SOL    HW215696   4.240   0.658   8.088  0.9717 -1.3656  0.1524
 1412SOL     OW15697   1.912   2.222  13.849  0.0640  0.7998  0.8197
 1412SOL    HW115698   1.935   2.130  13.860  1.0046  0.8152 -0.9344
 1412SOL    HW215699   1.840   2.228  13.912 -0.0410  0.2392  0.7567
 1413SOL     OW15700   1.590   2.876   4.956  0.6298 -0.0506 -0.2716
 1413SOL    HW115701   1.592   2.866   4.861  2.6536 -0.6269 -0.1552
 1413SOL    HW215702   1.522   2.812   4.980  1.7568 -1.0682  0.1776
 1414SOL     OW15703   0.972   3.842  10.075 -0.6659  0.3469 -0.5189
 1414SOL    HW115704   1.011   3.756  10.088 -0.5128  0.3105 -1.2347
 1414SOL    HW215705   0.881   3.815  10.079 -1.0871  1.5863 -1.7151
 1415SOL     OW15706   1.877   1.027   7.211 -0.2060  0.0645 -0.0607
 1415SOL    HW115707   1.907   1.020   7.120  3.0441  0.5027  0.9583
 1415SOL    HW215708   1.821   1.104   7.201  0.6351  0.3714 -2.4475
 1416SOL     OW15709   3.847   2.337  12.831 -0.3141 -0.0351  0.4387
 1416SOL    HW115710   3.896   2.407  12.873 -0.2854  0.6024 -0.6707
 1416SOL    HW215711   3.770   2.332  12.888 -0.3227 -0.1337  0.4182
 1417SOL     OW15712   0.180   4.357  11.603 -0.5550  0.2862  0.2125
 1417SOL    HW115713   0.115   4.390  11.541 -0.4408  0.5129  0.2159
 1417SOL    HW215714   0.133   4.323  11.679 -1.6498  0.5122 -0.3589
 1418SOL     OW15715   2.219   1.988   2.835  0.0839 -0.3513 -0.2748
 1418SOL    HW115716   2.302   1.992   2.883 -0.7417  0.0135  1.1224
 1418SOL    HW215717   2.166   1.961   2.910  0.2133  0.0807 -0.0261
 1419SOL     OW15718   0.091   1.918   4.113  0.3497  0.1480 -0.1885
 1419SOL    HW115719   0.074   2.000   4.067  0.7518  0.3236 -0.0281
 1419SOL    HW215720   0.003   1.909   4.150  0.3508  0.1134 -0.1944
 1420SOL     OW15721   3.248   3.927   8.699 -0.4576 -0.4673 -0.1964
 1420SOL    HW115722   3.278   4.010   8.735 -2.6785  0.7260 -1.0410
 1420SOL    HW215723   3.154   3.945   8.693 -0.4981 -1.7307 -3.5635
 1421SOL     OW15724   2.203   0.825  12.721  0.4628  0.5245  0.7371
 1421SOL    HW115725   2.208   0.850  12.813  1.9027 -0.2140  0.8651
 1421SOL    HW215726   2.120   0.777  12.721  0.9512 -0.3222  0.1896
 1422SOL     OW15727   2.963   1.220   9.083 -0.2786  0.1469  0.5890
 1422SOL    HW115728   2.909   1.142   9.088 -1.4766  0.7656 -2.7139
 1422SOL    HW215729   3.050   1.189   9.107 -0.5355  0.4658  1.9813
 1423SOL     OW15730   1.292   3.023   4.155  0.3277  0.5012 -0.1981
 1423SOL    HW115731   1.228   2.954   4.138  2.5962 -2.3125  2.6383
 1423SOL    HW215732   1.230   3.096   4.159 -0.1315  0.0904  0.2023
 1424SOL     OW15733   2.615   0.148   8.682 -0.4021 -0.4943 -0.0165
 1424SOL    HW115734   2.612   0.063   8.638  0.9254  0.4406 -1.8833
 1424SOL    HW215735   2.528   0.154   8.722 -0.4630  0.4340 -0.2932
 1425SOL     OW15736   2.921   4.431   9.651  0.9135  0.3385  0.0914
 1425SOL    HW115737   2.835   4.407   9.685  1.0863  0.3173  0.5109
 1425SOL    HW215738   2.914   4.526   9.659 -0.6305  0.2026  0.2790
 1426SOL     OW15739   2.875   3.865   2.801 -0.1119  0.0187 -0.0734
 1426SOL    HW115740   2.836   3.928   2.740 -2.0055  1.0103  2.1668
 1426SOL    HW215741   2.887   3.932   2.868  1.6235  1.5156 -1.8845
 1427SOL     OW15742   3.274   3.520   3.012  0.0271 -0.6090  0.2048
 1427SOL    HW115743   3.191   3.478   2.989 -0.6693 -0.6571  2.7342
 1427SOL    HW215744   3.290   3.582   2.942  1.3285 -1.4756 -0.2665
 1428SOL     OW15745   3.563   0.593  15.720  0.1133 -0.0095 -0.0837
 1428SOL    HW115746   3.586   0.676  15.763  1.4390  1.7796 -4.2644
 1428SOL    HW215747   3.483   0.611  15.671 -0.9765 -3.1492  0.5782
 1429SOL     OW15748   3.904   2.456   2.986 -0.3424 -0.5415 -0.2761
 1429SOL    HW115749   3.828   2.458   3.044  0.5142  1.2551  0.7960
 1429SOL    HW215750   3.944   2.371   3.003 -0.7052 -0.5966  0.3105
 1430SOL     OW15751   3.449   1.706  16.368  0.4371  0.0158 -0.6489
 1430SOL    HW115752   3.373   1.760  16.392  2.4850  3.0083 -0.8503
 1430SOL    HW215753   3.440   1.690  16.274  0.8691  0.1600 -0.7135
 1431SOL     OW15754   1.591   0.886  10.689  0.2556  0.0279  0.0786
 1431SOL    HW115755   1.595   0.792  10.707  1.6168  0.1127  0.2084
 1431SOL    HW215756   1.650   0.887  10.614 -0.6062  1.1447 -0.5844
 1432SOL     OW15757   4.612   2.183   2.985 -0.1648 -0.0820 -0.0556
 1432SOL    HW115758   4.548   2.139   2.929 -0.0930 -1.7147  1.1404
 1432SOL    HW215759   4.640   2.112   3.043 -2.1155  0.3918  1.4564
 1433SOL     OW15760   0.984   1.115  11.878  0.2978 -0.0726  0.1552
 1433SOL    HW115761   0.988   1.063  11.958  1.1627  0.7704  0.6534
 1433SOL    HW215762   1.076   1.125  11.856 -0.0084  4.1266  0.8842
 1434SOL     OW15763   0.359   2.508  14.791  0.8528  0.4298  0.3300
 1434SOL    HW115764   0.366   2.413  14.786  0.4942  0.4665 -1.0807
 1434SOL    HW215765   0.265   2.528  14.797  0.2735 -3.0305  2.6562
 1435SOL     OW15766   0.833   3.825  17.172 -0.1373  0.8011 -0.2300
 1435SOL    HW115767   0.777   3.819  17.094 -1.8729  0.5507  1.0350
 1435SOL    HW215768   0.842   3.730  17.179  0.2823  0.5198 -4.3990
 1436SOL     OW15769   1.706   2.498  17.177 -0.2293 -0.0386  0.4245
 1436SOL    HW115770   1.726   2.569  17.115  1.4582 -1.0530 -0.1935
 1436SOL    HW215771   1.716   2.429  17.112 -2.5575 -0.7330  0.8130
 1437SOL     OW15772   3.761   0.260   3.598  0.1982  0.0705  0.4973
 1437SOL    HW115773   3.741   0.262   3.504  0.9250  2.4069  0.3955
 1437SOL    HW215774   3.800   0.346   3.613  0.6136  0.1182 -0.8157
 1438SOL     OW15775   1.064   2.795   3.749  0.2845  0.0307 -0.0171
 1438SOL    HW115776   0.983   2.803   3.798  0.8782  2.9351  0.4484
 1438SOL    HW215777   1.038   2.739   3.676  0.8877 -0.6919  0.3204
 1439SOL     OW15778   3.590   4.488   7.328 -0.0706 -0.2515  0.0826
 1439SOL    HW115779   3.642   4.471   7.249  0.0786  0.2430  0.0766
 1439SOL    HW215780   3.590   4.403   7.373  0.2835 -0.9301 -1.1845
 1440SOL     OW15781   0.744   0.412   6.247  0.5023 -0.3418 -0.6003
 1440SOL    HW115782   0.756   0.461   6.329 -0.1961 -1.3718  0.1215
 1440SOL    HW215783   0.654   0.439   6.225  0.2869 -1.3128 -0.8819
 1441SOL     OW15784   0.568   4.682   8.522 -0.1596 -0.2326  0.2050
 1441SOL    HW115785   0.506   0.030   8.528  0.9618  0.6816  0.9087
 1441SOL    HW215786   0.623   4.695   8.599 -1.7444 -1.7553  1.6096
 1442SOL     OW15787   3.021   0.826   0.651 -0.3407  0.0038 -0.1929
 1442SOL    HW115788   2.940   0.801   0.697  0.2748  1.7771  1.8348
 1442SOL    HW215789   2.989   0.895   0.593  0.8611  1.1667  0.5299
 1443SOL     OW15790   2.171   0.264   6.874 -0.5830 -0.4487 -0.0594
 1443SOL    HW115791   2.207   0.290   6.959  0.8919  1.7840 -1.3531
 1443SOL    HW215792   2.250   0.255   6.820  1.4029  1.8924  2.4328
 1444SOL     OW15793   1.963   2.691   2.737 -0.1813  0.4504  0.1065
 1444SOL    HW115794   1.927   2.779   2.726  1.6924  0.8033 -3.0668
 1444SOL    HW215795   2.042   2.691   2.683  0.1960 -1.0336  0.6618
 1445SOL     OW15796   4.155   3.623   2.572  0.2641  0.2185  0.0554
 1445SOL    HW115797   4.126   3.554   2.631  0.3474 -0.3855 -0.6144
 1445SOL    HW215798   4.158   3.697   2.633 -3.9416 -0.6640  1.3268
 1446SOL     OW15799   2.840   1.433   4.490 -0.1332  0.4692 -0.0500
 1446SOL    HW115800   2.795   1.349   4.499 -1.0024  0.9200 -0.2102
 1446SOL    HW215801   2.924   1.419   4.533  0.0937  1.3651 -0.2047
 1447SOL     OW15802   3.569   2.987   1.707  0.1009 -0.6109 -0.1210
 1447SOL    HW115803   3.580   2.912   1.766  0.2407 -1.4904 -1.2603
 1447SOL    HW215804   3.609   3.054   1.762 -3.5538  1.9498 -0.5961
 1448SOL     OW15805   4.035   3.627   7.779 -0.3943  0.2109  0.6632
 1448SOL    HW115806   4.050   3.561   7.847 -0.0816  0.2563  0.6418
 1448SOL    HW215807   4.129   3.644   7.765 -0.4847 -0.7062 -1.1084
 1449SOL     OW15808   4.330   0.391   8.926  0.3084 -0.0989 -0.0019
 1449SOL    HW115809   4.336   0.298   8.946 -2.1071  0.2063  2.1182
 1449SOL    HW215810   4.414   0.426   8.956  0.8122 -2.2182  1.0575
 1450SOL     OW15811   4.607   3.719   6.051  0.2196 -0.2713  0.0643
 1450SOL    HW115812   4.549   3.774   5.999  0.9771 -0.3665 -0.8687
 1450SOL    HW215813   4.681   3.779   6.066  0.3155 -0.3449 -0.1088
 1451SOL     OW15814   0.614   2.664   5.159 -0.3483 -0.0416  0.1051
 1451SOL    HW115815   0.672   2.671   5.235 -0.5974 -1.7081  0.4403
 1451SOL    HW215816   0.562   2.590   5.191 -0.2344  0.3047  1.0903
 1452SOL     OW15817   2.538   2.581   1.492 -0.2856  0.1155 -0.5810
 1452SOL    HW115818   2.562   2.649   1.428 -2.0980  3.0516  1.8829
 1452SOL    HW215819   2.455   2.553   1.453  0.3840 -2.0688 -0.4044
 1453SOL     OW15820   1.082   2.637  16.715 -0.6501 -0.0401 -0.4146
 1453SOL    HW115821   1.152   2.608  16.656  1.5919  0.1497  2.1374
 1453SOL    HW215822   1.053   2.717  16.672 -0.0352 -1.0791 -2.7359
 1454SOL     OW15823   4.219   4.513   9.497 -0.0843  0.3115  0.3275
 1454SOL    HW115824   4.141   4.457   9.501  0.4240 -0.3999  0.2344
 1454SOL    HW215825   4.275   4.479   9.566 -0.6378  0.4031  0.8270
 1455SOL     OW15826   0.705   0.865   3.499 -0.0794  1.0832  0.6010
 1455SOL    HW115827   0.650   0.862   3.420  0.7947  0.1628  0.0311
 1455SOL    HW215828   0.679   0.950   3.533  2.7955  1.4714  1.7677
 1456SOL     OW15829   2.502   4.334   0.520 -0.0048  0.3350  0.4654
 1456SOL    HW115830   2.470   4.419   0.551 -1.4803  1.2889 -3.5650
 1456SOL    HW215831   2.549   4.368   0.444  0.7437 -0.1260  0.7279
 1457SOL     OW15832   3.261   1.869  16.462  0.3221 -0.2901 -0.0466
 1457SOL    HW115833   3.200   1.815  16.512  1.1793 -3.8641 -2.8619
 1457SOL    HW215834   3.204   1.939  16.431 -0.3409 -0.0053  1.8147
 1458SOL     OW15835   3.272   1.577  14.901  0.5453 -0.6240 -0.4124
 1458SOL    HW115836   3.184   1.566  14.865 -0.8409  0.9972  2.4034
 1458SOL    HW215837   3.258   1.579  14.996 -0.0708  1.5896 -0.5457
 1459SOL     OW15838   3.680   0.048  13.005  0.2427  0.1952 -0.1139
 1459SOL    HW115839   3.607   0.044  12.944 -0.9443 -2.2820  1.4224
 1459SOL    HW215840   3.643   0.031  13.092  1.1826 -0.4194  0.1751
 1460SOL     OW15841   2.452   0.150  17.369  0.5768 -0.2267  0.2576
 1460SOL    HW115842   2.531   0.199  17.345  0.4808 -0.2395 -0.0819
 1460SOL    HW215843   2.488   0.069  17.403 -0.6665 -0.8712  0.0447
 1461SOL     OW15844   2.525   2.430   8.936 -0.1480 -0.2622  0.3009
 1461SOL    HW115845   2.558   2.369   8.869 -1.6737 -2.4457  1.5418
 1461SOL    HW215846   2.560   2.381   9.010  0.3849 -0.9145 -0.3804
 1462SOL     OW15847   1.132   0.529  10.350 -0.6837 -0.1298  0.5087
 1462SOL    HW115848   1.107   0.591  10.418  1.0951 -0.3900  1.3941
 1462SOL    HW215849   1.167   0.452  10.395 -1.6013 -0.2694  0.9709
 1463SOL     OW15850   2.047   3.373   3.463  0.0975 -0.6303 -0.5175
 1463SOL    HW115851   2.011   3.331   3.385 -2.7979  0.0642  0.4404
 1463SOL    HW215852   2.036   3.298   3.522 -1.2528  1.0224  1.3412
 1464SOL     OW15853   3.691   4.020   5.920 -0.2172 -0.0149  0.3646
 1464SOL    HW115854   3.638   3.945   5.947 -0.5834 -0.6134 -2.0226
 1464SOL    HW215855   3.670   4.090   5.982 -1.9456 -2.8256  2.9592
 1465SOL     OW15856   3.440   1.903   3.123 -0.1836 -0.1315  0.4472
 1465SOL    HW115857   3.390   1.856   3.056  1.7934 -0.3950 -0.8551
 1465SOL    HW215858   3.380   1.977   3.125  1.5394  1.2636 -0.0554
 1466SOL     OW15859   0.169   0.819   7.046 -0.3145  0.4654  0.3786
 1466SOL    HW115860   0.110   0.805   7.121 -2.3046  0.1925 -1.2230
 1466SOL    HW215861   0.178   0.914   7.055  0.9164  0.4446 -0.6748
 1467SOL     OW15862   4.051   2.425   2.027 -0.2426  0.0512 -0.6362
 1467SOL    HW115863   3.997   2.385   2.095  1.8550 -1.8401 -0.1005
 1467SOL    HW215864   4.016   2.374   1.954  1.0006 -0.7240 -0.6835
 1468SOL     OW15865   2.477   3.725   3.402 -0.2827 -0.2186  0.0121
 1468SOL    HW115866   2.407   3.660   3.409  0.3329 -0.5136  3.3328
 1468SOL    HW215867   2.554   3.675   3.431 -0.7482 -0.8708  0.1155
 1469SOL     OW15868   0.647   3.385   9.646 -0.4701  0.2643 -0.2600
 1469SOL    HW115869   0.601   3.310   9.685 -0.9891  0.8094  0.1716
 1469SOL    HW215870   0.574   3.406   9.587  0.8316  0.7160 -1.7132
 1470SOL     OW15871   1.106   4.044   7.092 -0.5046 -0.1039  0.7293
 1470SOL    HW115872   1.099   4.085   7.178  1.4137 -2.1221  1.8626
 1470SOL    HW215873   1.143   3.958   7.113 -0.7627 -0.4772 -0.3645
 1471SOL     OW15874   3.292   1.988   3.354 -0.0162  0.2548 -0.1067
 1471SOL    HW115875   3.311   1.976   3.447 -2.3809  0.1290  0.3763
 1471SOL    HW215876   3.318   1.899   3.331  0.7966  0.8014 -1.2703
 1472SOL     OW15877   1.631   0.263  13.140  0.1517 -0.1856  0.1826
 1472SOL    HW115878   1.651   0.312  13.220  0.4479  1.1391 -0.7064
 1472SOL    HW215879   1.683   0.319  13.082  0.1376  1.9073  2.1824
 1473SOL     OW15880   1.230   3.544   4.354 -0.0509  0.4676 -0.1671
 1473SOL    HW115881   1.305   3.603   4.354  0.1881  0.1689 -1.4760
 1473SOL    HW215882   1.269   3.457   4.362  0.1303  0.6284  0.6713
 1474SOL     OW15883   1.861   2.528   6.180  0.0040  0.0496 -0.3496
 1474SOL    HW115884   1.941   2.476   6.182 -0.3031 -0.4350 -0.7224
 1474SOL    HW215885   1.798   2.456   6.177 -1.4876  1.3521 -0.5679
 1475SOL     OW15886   3.301   4.165   5.361  0.0774 -0.5961  0.1683
 1475SOL    HW115887   3.356   4.224   5.411  0.6982  1.0078 -2.3978
 1475SOL    HW215888   3.296   4.209   5.276  1.1761  0.4211  0.6394
 1476SOL     OW15889   0.703   1.847   4.581 -0.0348  0.2523  0.3717
 1476SOL    HW115890   0.720   1.834   4.675  1.0892  0.0773  0.1519
 1476SOL    HW215891   0.793   1.852   4.549  0.0689  3.8137  1.2882
 1477SOL     OW15892   3.155   0.978   5.370 -0.4748  0.0050 -0.0574
 1477SOL    HW115893   3.109   1.009   5.447 -1.4466 -0.9974 -0.2405
 1477SOL    HW215894   3.126   1.046   5.309 -0.9129  0.0896  0.2505
 1478SOL     OW15895   1.006   1.623   5.431  0.0241 -0.4641  0.3406
 1478SOL    HW115896   1.025   1.717   5.430  0.4874 -0.5625 -0.0883
 1478SOL    HW215897   1.087   1.573   5.421  0.7398  0.2722  2.3407
 1479SOL     OW15898   0.553   0.506  14.707 -0.7853  0.0622 -0.5984
 1479SOL    HW115899   0.553   0.592  14.664 -0.4256 -0.2672 -1.2542
 1479SOL    HW215900   0.558   0.443  14.635 -0.6497 -1.0155  0.3720
 1480SOL     OW15901   0.556   0.882   8.433  0.6467 -0.5283  0.1206
 1480SOL    HW115902   0.603   0.799   8.433 -1.8932 -1.9476 -0.4499
 1480SOL    HW215903   0.471   0.861   8.471 -0.3900  3.8972  0.2796
 1481SOL     OW15904   1.610   0.619   3.752  0.2645 -0.3552  0.3573
 1481SOL    HW115905   1.669   0.549   3.781 -0.0654 -0.4263  0.8697
 1481SOL    HW215906   1.673   0.690   3.764 -0.3346  0.3975 -0.9718
 1482SOL     OW15907   0.773   3.339   5.370  1.0831  0.3596 -0.2805
 1482SOL    HW115908   0.796   3.383   5.288 -1.1648 -1.6276 -1.9714
 1482SOL    HW215909   0.844   3.274   5.370 -1.3202 -2.2418  0.4870
 1483SOL     OW15910   3.077   4.149   7.759  0.0802 -0.0019  0.0463
 1483SOL    HW115911   3.043   4.202   7.687  1.0942  0.9723  0.2890
 1483SOL    HW215912   3.151   4.205   7.780  0.9557 -1.1043 -0.1186
 1484SOL     OW15913   3.650   4.555  11.274  0.1678  0.1055 -0.3383
 1484SOL    HW115914   3.607   4.602  11.346  3.1868 -0.0222  1.5452
 1484SOL    HW215915   3.643   4.463  11.297  0.3960  0.6474  1.9040
 1485SOL     OW15916   0.544   4.372   9.837  0.2294 -0.4990  0.1381
 1485SOL    HW115917   0.503   4.440   9.890  2.9993 -0.0636  1.6896
 1485SOL    HW215918   0.486   4.295   9.844 -2.3979  1.3623 -0.9452
 1486SOL     OW15919   0.545   0.121   5.272  0.3691 -0.2447 -0.0513
 1486SOL    HW115920   0.554   0.054   5.204  0.5204 -0.2285 -0.0478
 1486SOL    HW215921   0.620   0.095   5.325 -0.1937  0.6182  1.1576
 1487SOL     OW15922   3.788   2.058  12.121 -0.2082 -0.5082 -0.2363
 1487SOL    HW115923   3.800   2.130  12.182 -2.2932  0.4379 -0.9103
 1487SOL    HW215924   3.880   2.043  12.101 -0.7630 -1.2243 -2.3684
 1488SOL     OW15925   4.419   3.760   4.815 -0.4733  0.0009  0.4122
 1488SOL    HW115926   4.368   3.714   4.748 -0.9528 -1.4795  1.8144
 1488SOL    HW215927   4.498   3.721   4.777 -0.2303  0.4848  0.4144
 1489SOL     OW15928   3.970   4.396   4.130 -0.3530  0.3639 -0.0928
 1489SOL    HW115929   3.874   4.392   4.128 -0.3086 -1.6955  2.1150
 1489SOL    HW215930   3.986   4.444   4.048  1.3598  2.3817  1.4352
 1490SOL     OW15931   3.440   2.716   5.022 -0.6203  0.2414  0.2351
 1490SOL    HW115932   3.478   2.700   4.935  4.4850  0.9852  2.3852
 1490SOL    HW215933   3.347   2.694   5.013 -1.0556  2.2781 -0.2253
 1491SOL     OW15934   3.685   2.669   4.489  0.1220 -0.2993 -0.1027
 1491SOL    HW115935   3.733   2.603   4.438 -3.1449 -2.9847  0.3141
 1491SOL    HW215936   3.749   2.684   4.558 -1.4820 -1.8413  1.7028
 1492SOL     OW15937   4.192   3.898   5.988  0.1641 -0.2111 -0.0197
 1492SOL    HW115938   4.149   3.966   5.937  1.4339  0.3771 -0.3264
 1492SOL    HW215939   4.113   3.848   6.009  0.3152 -1.0247 -1.3899
 1493SOL     OW15940   3.041   2.322   6.531 -0.2343 -0.0431  0.0649
 1493SOL    HW115941   3.121   2.277   6.502 -2.3810 -1.5494 -3.5610
 1493SOL    HW215942   2.991   2.307   6.451  1.7372  1.2488 -1.3965
 1494SOL     OW15943   2.668   0.660   6.083 -0.2164 -0.1628 -0.4888
 1494SOL    HW115944   2.713   0.601   6.023  0.7672  2.2816 -2.1574
 1494SOL    HW215945   2.595   0.606   6.114 -0.4365  0.9902  1.0431
 1495SOL     OW15946   2.357   2.427   7.591 -0.4956  0.2943  1.1097
 1495SOL    HW115947   2.360   2.423   7.495 -2.1793  0.1173  1.0751
 1495SOL    HW215948   2.264   2.432   7.613 -0.8942 -0.7675 -0.2911
 1496SOL     OW15949   4.454   3.793   9.541  0.1901 -0.3327  0.0185
 1496SOL    HW115950   4.510   3.779   9.465  1.8179  0.2286  1.1135
 1496SOL    HW215951   4.368   3.768   9.507 -1.1168 -0.3507  3.2595
 1497SOL     OW15952   1.954   3.296   6.694 -0.1189  0.0131 -0.2307
 1497SOL    HW115953   1.969   3.220   6.638 -1.8986 -0.5035  0.0095
 1497SOL    HW215954   1.862   3.288   6.718  0.0490  0.3834  0.5322
 1498SOL     OW15955   4.317   4.254   9.030 -0.6344 -0.4332 -0.3963
 1498SOL    HW115956   4.388   4.277   8.970  1.1194 -0.8076  1.5143
 1498SOL    HW215957   4.246   4.212   8.982  1.5780 -2.0169 -2.2892
 1499SOL     OW15958   0.390   3.542   3.575 -0.6659 -0.1976 -0.2093
 1499SOL    HW115959   0.358   3.580   3.493 -1.0387 -0.1310 -0.0311
 1499SOL    HW215960   0.481   3.570   3.563  0.1733 -1.8347  2.3534
 1500SOL     OW15961   3.464   4.646   5.807 -0.4834 -0.4401 -0.2495
 1500SOL    HW115962   3.451   4.695   5.726 -1.1594  0.2736  0.3034
 1500SOL    HW215963   3.423   4.699   5.874 -1.4514 -1.9236  0.3252
 1501SOL     OW15964   1.050   3.542   4.146  0.0077 -0.4822  0.3628
 1501SOL    HW115965   1.084   3.558   4.234 -0.5101  2.1860  0.0929
 1501SOL    HW215966   0.955   3.534   4.156 -0.2703  0.9164 -1.2591
 1502SOL     OW15967   0.582   4.190   1.528 -0.4642 -0.4134 -0.3312
 1502SOL    HW115968   0.649   4.238   1.481  1.5795 -2.1211  0.8491
 1502SOL    HW215969   0.626   4.130   1.588  3.1553  1.2852 -1.3067
 1503SOL     OW15970   3.195   1.465   1.656 -0.8023 -0.2231 -0.4628
 1503SOL    HW115971   3.123   1.479   1.718 -1.8855 -0.1272 -1.7359
 1503SOL    HW215972   3.265   1.427   1.709 -1.8569  0.1557  1.2023
 1504SOL     OW15973   2.697   0.636   0.396  0.1152 -0.2293 -0.1431
 1504SOL    HW115974   2.732   0.688   0.323 -0.3960  0.8582  0.3886
 1504SOL    HW215975   2.612   0.609   0.362  1.1387 -2.9964 -0.5680
 1505SOL     OW15976   2.252   0.404  14.982 -0.0432 -0.4740  0.4777
 1505SOL    HW115977   2.314   0.377  14.914 -0.2507  1.4112 -0.4739
 1505SOL    HW215978   2.283   0.355  15.057 -0.7675 -1.4675  0.1214
 1506SOL     OW15979   0.387   0.682   2.382 -0.1482  0.0008  0.4238
 1506SOL    HW115980   0.359   0.745   2.316  0.8652  1.2227  1.1630
 1506SOL    HW215981   0.452   0.734   2.429 -2.5720  2.4276  1.0354
 1507SOL     OW15982   2.118   3.024   5.406  0.2860  0.2613 -0.0547
 1507SOL    HW115983   2.067   3.037   5.486 -0.1617  1.9563 -0.6180
 1507SOL    HW215984   2.060   3.015   5.330  0.4115  2.2980 -0.3762
 1508SOL     OW15985   2.351   4.187   6.701 -0.1095  0.1174  0.4275
 1508SOL    HW115986   2.338   4.207   6.794 -1.9942  1.2595 -0.0552
 1508SOL    HW215987   2.330   4.094   6.698 -1.9008  0.4740  1.3429
 1509SOL     OW15988   4.051   0.270  10.783 -0.3869 -0.2589 -0.1863
 1509SOL    HW115989   4.098   0.352  10.799 -1.2810  0.7445 -2.7806
 1509SOL    HW215990   3.961   0.302  10.780 -1.0649 -2.0754  0.4690
 1510SOL     OW15991   2.115   1.973   9.284 -0.1162  0.0806 -0.2584
 1510SOL    HW115992   2.028   1.977   9.325 -0.5440 -1.5345 -1.0130
 1510SOL    HW215993   2.117   1.888   9.240  1.0040 -0.1430  0.2538
 1511SOL     OW15994   1.703   3.266   4.303  1.3128  0.1422 -0.0989
 1511SOL    HW115995   1.763   3.305   4.239  0.2194  1.9928  0.0148
 1511SOL    HW215996   1.773   3.213   4.343  0.3382 -0.4726  0.7670
 1512SOL     OW15997   0.530   4.490   4.689 -0.2044  0.1540 -0.2726
 1512SOL    HW115998   0.474   4.526   4.620  2.0617  2.6892 -0.7983
 1512SOL    HW215999   0.467   4.485   4.761  0.5095  1.9190  0.4794
 1513SOL     OW16000   1.731   2.976   4.436  0.1394  0.1227 -0.8453
 1513SOL    HW116001   1.642   3.013   4.432  0.7455  1.3587 -2.7440
 1513SOL    HW216002   1.746   2.959   4.343  0.0131  0.7361 -0.9753
 1514SOL     OW16003   2.023   4.426   5.253 -0.2751 -0.1246  0.0401
 1514SOL    HW116004   2.012   4.334   5.276  1.0050 -0.6009 -1.2747
 1514SOL    HW216005   1.945   4.431   5.198  0.8116 -0.0008 -1.4766
 1515SOL     OW16006   0.984   4.590   8.482  0.1072 -0.3265 -0.1639
 1515SOL    HW116007   1.029   4.595   8.398  0.7030 -0.7589  0.1338
 1515SOL    HW216008   1.058   4.617   8.536 -0.5927 -1.0537  1.1678
 1516SOL     OW16009   0.156   3.758   5.787 -0.0234  0.0443 -0.0512
 1516SOL    HW116010   0.069   3.722   5.766  0.3908 -1.3862  0.6748
 1516SOL    HW216011   0.140   3.852   5.786 -1.4799 -0.2201 -2.8309
 1517SOL     OW16012   2.670   3.538   1.120  0.0575 -0.4858  0.0838
 1517SOL    HW116013   2.672   3.630   1.148  1.4832 -0.4657 -0.0796
 1517SOL    HW216014   2.761   3.509   1.118 -0.0814 -0.9056 -0.0879
 1518SOL     OW16015   2.634   4.466  11.775 -0.3234  0.3405 -0.3638
 1518SOL    HW116016   2.558   4.418  11.743  0.8679  0.1476 -2.8445
 1518SOL    HW216017   2.646   4.420  11.858 -0.8335  1.6846  0.4622
 1519SOL     OW16018   0.018   1.117   7.632  0.3758  0.4980 -0.0060
 1519SOL    HW116019   0.083   1.048   7.640 -1.5162 -1.1852  0.8150
 1519SOL    HW216020   4.672   1.054   7.651 -0.1841  0.4812 -2.1067
 1520SOL     OW16021   0.761   3.386  16.134  0.3102 -0.4010  0.0768
 1520SOL    HW116022   0.802   3.402  16.219  0.1529  2.3237 -0.3518
 1520SOL    HW216023   0.708   3.466  16.129 -3.3306 -2.7104  2.0554
 1521SOL     OW16024   3.380   3.189   7.335  0.2798 -0.5653  0.6624
 1521SOL    HW116025   3.357   3.178   7.243 -0.8483 -0.3066  0.9093
 1521SOL    HW216026   3.305   3.143   7.374  0.8146  0.1491  2.5554
 1522SOL     OW16027   2.406   4.264   8.975  0.1196  0.4394  0.0565
 1522SOL    HW116028   2.347   4.189   8.981  0.0478  0.7370  3.5106
 1522SOL    HW216029   2.358   4.321   9.036 -2.5645 -1.9236  0.1284
 1523SOL     OW16030   4.689   0.577   9.644 -0.3705  0.1704 -0.5071
 1523SOL    HW116031   0.033   0.590   9.711  0.0264 -2.9174 -0.2781
 1523SOL    HW216032   4.604   0.574   9.687 -0.2729  0.2325 -0.3109
 1524SOL     OW16033   0.707   3.761   5.293  0.0025 -0.1032  0.7223
 1524SOL    HW116034   0.736   3.689   5.238  1.1103  2.5556 -2.1893
 1524SOL    HW216035   0.615   3.778   5.272  0.1346 -0.4050 -0.0904
 1525SOL     OW16036   4.416   3.336  13.367 -0.0502  0.0037  0.4869
 1525SOL    HW116037   4.366   3.396  13.313 -0.9044 -2.0502 -0.9994
 1525SOL    HW216038   4.345   3.273  13.374  1.0516 -1.3667 -0.6741
 1526SOL     OW16039   1.128   0.744   5.409  0.2922  0.5943  0.2293
 1526SOL    HW116040   1.191   0.675   5.387 -0.9914 -0.5531  0.1653
 1526SOL    HW216041   1.064   0.734   5.339 -0.9935  0.0296  1.4918
 1527SOL     OW16042   1.515   1.593   8.651  0.4430  0.8741  0.3865
 1527SOL    HW116043   1.606   1.585   8.677  1.2095  1.9639 -2.0049
 1527SOL    HW216044   1.488   1.501   8.642 -0.2568  0.9590  1.5892
 1528SOL     OW16045   0.548   1.641   1.374 -0.3187 -0.1268  0.5806
 1528SOL    HW116046   0.610   1.713   1.388  0.8855 -1.4967  2.3999
 1528SOL    HW216047   0.551   1.633   1.279  2.9080 -1.3647  0.7772
 1529SOL     OW16048   0.801   1.686  17.114 -0.8847 -0.0307  0.4145
 1529SOL    HW116049   0.818   1.745  17.041  0.3895 -0.2244  0.5555
 1529SOL    HW216050   0.749   1.743  17.171  0.2041 -0.5272  1.9120
 1530SOL     OW16051   4.046   4.546   2.119  0.4399  0.4106  0.0862
 1530SOL    HW116052   4.032   4.590   2.035 -2.7098 -1.0899 -0.1611
 1530SOL    HW216053   4.126   4.497   2.097 -1.4281 -1.4124 -2.6496
 1531SOL     OW16054   3.705   0.260   3.335  0.2351 -0.1638 -0.2241
 1531SOL    HW116055   3.699   0.165   3.326 -2.7933  0.2208 -2.4310
 1531SOL    HW216056   3.778   0.277   3.276  0.1825 -0.1261 -0.2780
 1532SOL     OW16057   4.445   2.423   3.760 -0.0889  0.2380  0.5870
 1532SOL    HW116058   4.354   2.418   3.729  0.1508 -1.6958  0.1845
 1532SOL    HW216059   4.492   2.473   3.693 -1.5378 -0.0530 -0.6428
 1533SOL     OW16060   4.445   1.004  15.374  0.3662 -0.1274  0.3323
 1533SOL    HW116061   4.485   1.086  15.345 -0.7061 -0.4089 -1.9434
 1533SOL    HW216062   4.354   1.031  15.389 -0.0327 -0.9902 -0.5699
 1534SOL     OW16063   3.858   3.522   0.394  0.0720 -0.1447  0.6270
 1534SOL    HW116064   3.928   3.553   0.451 -0.2951  1.4944  0.1844
 1534SOL    HW216065   3.889   3.432   0.384  0.3822 -0.1540  1.6836
 1535SOL     OW16066   2.477   1.444  11.969 -0.3978  0.6844  0.1566
 1535SOL    HW116067   2.571   1.431  11.977 -0.2620  2.0717  0.7401
 1535SOL    HW216068   2.435   1.365  12.002 -0.2527 -0.2873 -1.9948
 1536SOL     OW16069   1.511   3.550   8.207  0.0656 -0.0977 -0.3298
 1536SOL    HW116070   1.461   3.485   8.256 -1.2126  0.4666 -0.8781
 1536SOL    HW216071   1.502   3.520   8.117 -0.0459 -0.6854 -0.1240
 1537SOL     OW16072   3.742   1.214   0.019 -0.3851  0.4223 -0.0546
 1537SOL    HW116073   3.774   1.304   0.031 -0.5503  0.5223 -0.3564
 1537SOL    HW216074   3.812   1.173   0.070 -0.7821  0.3626  0.4373
 1538SOL     OW16075   0.225   2.695   3.477  0.4320 -0.1218 -0.0313
 1538SOL    HW116076   0.191   2.688   3.388  0.7646  1.7295 -0.2907
 1538SOL    HW216077   0.168   2.632   3.521  1.4617 -0.8562  0.2278
 1539SOL     OW16078   1.553   4.505  10.662 -0.1093 -0.0562 -0.3204
 1539SOL    HW116079   1.594   4.420  10.679 -0.7822 -0.1288  0.9269
 1539SOL    HW216080   1.506   4.483  10.582  1.3135 -2.1249 -0.5806
 1540SOL     OW16081   4.303   2.227   7.966  0.3682 -0.6919 -0.1642
 1540SOL    HW116082   4.240   2.157   7.982 -1.8386  1.6361  1.2828
 1540SOL    HW216083   4.245   2.287   7.919 -0.1777 -1.6638 -0.7226
 1541SOL     OW16084   1.328   3.144   0.956  0.1400 -0.0181  0.1158
 1541SOL    HW116085   1.346   3.237   0.968 -1.2222  0.2178  0.3138
 1541SOL    HW216086   1.257   3.137   0.892  0.0420  3.1489 -0.1378
 1542SOL     OW16087   4.592   3.050   1.046  0.0002 -0.2582  0.2661
 1542SOL    HW116088   4.669   3.100   1.020 -0.9295  0.5928 -0.8630
 1542SOL    HW216089   4.619   2.960   1.025 -2.4047 -0.6675 -1.1128
 1543SOL     OW16090   0.185   2.771   5.627 -0.4809  0.1732 -0.4683
 1543SOL    HW116091   0.212   2.758   5.536 -0.2404  0.9786 -0.5055
 1543SOL    HW216092   0.094   2.741   5.621 -1.0456  1.7092  0.3030
 1544SOL     OW16093   4.565   1.831   9.247 -0.2206  0.2308  0.1146
 1544SOL    HW116094   4.634   1.888   9.281  1.0435 -2.4599  2.0575
 1544SOL    HW216095   4.529   1.805   9.332 -1.2837 -1.1854 -0.7717
 1545SOL     OW16096   3.778   1.368   5.872 -0.1913 -0.0083  0.5532
 1545SOL    HW116097   3.809   1.296   5.927 -0.0531 -0.2584  0.1513
 1545SOL    HW216098   3.777   1.316   5.792 -1.5191  0.6070  0.1696
 1546SOL     OW16099   2.696   0.908   5.939 -0.5810 -0.2343 -0.2366
 1546SOL    HW116100   2.701   0.823   5.983  0.8745  0.5957  1.1722
 1546SOL    HW216101   2.627   0.887   5.875 -1.2603  1.0573  0.0863
 1547SOL     OW16102   3.014   4.343  12.609  0.1699  0.6823  0.2826
 1547SOL    HW116103   3.029   4.356  12.703  0.6160  0.6544  0.2148
 1547SOL    HW216104   3.095   4.375  12.569 -0.1504 -2.3004 -2.6742
 1548SOL     OW16105   0.549   2.673  10.698  0.3154 -0.3779 -0.1491
 1548SOL    HW116106   0.478   2.612  10.714  0.7408 -1.3503 -2.0259
 1548SOL    HW216107   0.504   2.756  10.710  2.6837  0.7480  1.0158
 1549SOL     OW16108   1.175   2.791   2.235  0.1300  0.3620 -0.2556
 1549SOL    HW116109   1.240   2.765   2.300 -1.3789  1.4080  1.6690
 1549SOL    HW216110   1.091   2.768   2.275  1.4076 -0.1546  2.1237
 1550SOL     OW16111   2.746   2.260   6.588 -0.0614  0.2375 -0.3776
 1550SOL    HW116112   2.753   2.307   6.671 -1.4000 -0.3795  0.0895
 1550SOL    HW216113   2.666   2.216   6.615  0.2110 -0.9815 -1.5511
 1551SOL     OW16114   1.878   3.710   3.662 -0.2752  0.1125  0.6759
 1551SOL    HW116115   1.933   3.709   3.583 -0.7115  0.3122  0.3686
 1551SOL    HW216116   1.905   3.789   3.708  1.1507  0.0192  0.0043
 1552SOL     OW16117   0.198   4.059   9.459 -0.1073  0.2578 -0.1305
 1552SOL    HW116118   0.263   4.070   9.529  0.6512  0.3113 -0.8521
 1552SOL    HW216119   0.169   4.150   9.456  1.3194  0.7730  1.5548
 1553SOL     OW16120   0.221   3.151   2.927  0.3951  0.3615  0.0165
 1553SOL    HW116121   0.242   3.058   2.935 -1.6290  0.0374  1.7454
 1553SOL    HW216122   0.278   3.181   2.857 -0.1173 -1.6110 -1.2431
 1554SOL     OW16123   4.163   2.755   8.897 -0.3032  0.4371  0.1107
 1554SOL    HW116124   4.252   2.776   8.925 -0.2404 -1.2010  1.1094
 1554SOL    HW216125   4.172   2.732   8.804  2.3743 -0.9419  0.7041
 1555SOL     OW16126   4.630   1.227  15.142 -0.0437  0.2588  0.5573
 1555SOL    HW116127   4.600   1.256  15.227  0.8121 -1.6984  1.5404
 1555SOL    HW216128   4.710   1.277  15.127  0.4878 -0.5316  0.7111
 1556SOL     OW16129   2.476   0.296   2.680 -0.2189 -0.2958 -0.3301
 1556SOL    HW116130   2.547   0.270   2.739  1.3480  0.6894 -1.8026
 1556SOL    HW216131   2.459   0.214   2.633 -0.2502 -0.3929 -0.1508
 1557SOL     OW16132   4.136   3.807   5.522  0.5335  0.5690 -0.3192
 1557SOL    HW116133   4.152   3.816   5.616  1.9964  0.7827 -0.5825
 1557SOL    HW216134   4.132   3.901   5.509 -1.7754  0.1587 -2.5416
 1558SOL     OW16135   1.367   4.027   1.932  0.8508  0.1598  0.1193
 1558SOL    HW116136   1.412   3.995   1.854  0.9007  1.8404 -0.5363
 1558SOL    HW216137   1.297   4.078   1.892 -1.4458 -1.7064  1.7408
 1559SOL     OW16138   2.831   1.646  12.162  0.2453  0.6489 -0.2925
 1559SOL    HW116139   2.833   1.717  12.226 -0.2120 -0.3906  0.8774
 1559SOL    HW216140   2.806   1.684  12.078  0.2018 -1.1694 -1.0998
 1560SOL     OW16141   2.885   0.793   6.209  0.4549  0.4293 -0.2242
 1560SOL    HW116142   2.809   0.754   6.165 -0.0696 -0.1151  1.1894
 1560SOL    HW216143   2.944   0.820   6.138  0.5389  1.8747  0.4060
 1561SOL     OW16144   0.484   0.422   3.838 -0.0407  0.6419  0.3352
 1561SOL    HW116145   0.411   0.368   3.808  0.0602  0.0543  1.1337
 1561SOL    HW216146   0.440   0.501   3.869  0.7316  1.1325  0.1684
 1562SOL     OW16147   1.784   0.463   3.848 -0.1435 -0.0406  0.1599
 1562SOL    HW116148   1.759   0.404   3.777  0.2542  1.1988 -1.0134
 1562SOL    HW216149   1.869   0.498   3.821 -0.4204  1.0902  0.7728
 1563SOL     OW16150   0.865   4.280  15.528 -0.3793 -0.2869 -0.5182
 1563SOL    HW116151   0.785   4.267  15.578 -0.1463  1.2471  0.2587
 1563SOL    HW216152   0.900   4.191  15.522  0.3616 -0.0318 -0.0445
 1564SOL     OW16153   1.678   2.789   2.489 -0.5492  0.3448 -0.3267
 1564SOL    HW116154   1.663   2.831   2.574 -1.5845 -0.0893 -0.3029
 1564SOL    HW216155   1.771   2.809   2.478 -0.7070  0.5712 -1.2232
 1565SOL     OW16156   0.537   1.271   4.829 -0.2215 -0.0545 -0.3625
 1565SOL    HW116157   0.607   1.319   4.784 -1.6604  1.8917 -0.5150
 1565SOL    HW216158   0.533   1.305   4.918 -0.0347  1.0696 -0.7896
 1566SOL     OW16159   3.797   2.678   4.065 -0.1414 -0.0982 -0.1137
 1566SOL    HW116160   3.819   2.770   4.083 -0.5805 -0.2236  1.0257
 1566SOL    HW216161   3.702   2.683   4.058 -0.0757  0.8690 -0.3822
 1567SOL     OW16162   0.997   1.305   1.053 -0.6458  0.4405  0.5899
 1567SOL    HW116163   0.975   1.258   0.973  1.9317  1.1719 -0.5464
 1567SOL    HW216164   0.942   1.256   1.114  1.5563 -1.7914  0.7888
 1568SOL     OW16165   0.763   0.589   6.494  0.3789  0.0164  0.4017
 1568SOL    HW116166   0.695   0.549   6.549 -1.1140  4.2991  1.6922
 1568SOL    HW216167   0.802   0.659   6.547  0.6675  0.0908  0.0911
 1569SOL     OW16168   4.630   2.946   9.140 -0.1878  0.3393 -0.2364
 1569SOL    HW116169   4.635   2.851   9.141  1.5460  0.4177 -0.7494
 1569SOL    HW216170   4.593   2.959   9.228 -0.4867 -0.2363 -0.2774
 1570SOL     OW16171   4.178   3.414  15.250  0.3051 -0.2463  0.1516
 1570SOL    HW116172   4.095   3.397  15.205  0.2264 -0.1991  0.2775
 1570SOL    HW216173   4.173   3.508  15.235  1.7493 -0.2232 -0.1201
 1571SOL     OW16174   2.029   3.363   9.362  0.4304  0.0497 -0.9768
 1571SOL    HW116175   2.009   3.451   9.331  0.6750 -0.2279 -1.9025
 1571SOL    HW216176   1.996   3.363   9.452  0.8888 -1.3910 -0.7946
 1572SOL     OW16177   1.759   3.000   3.437 -0.2471 -0.1460 -0.4532
 1572SOL    HW116178   1.729   3.003   3.528 -1.0203  1.5291 -0.7564
 1572SOL    HW216179   1.719   3.076   3.395 -0.4529 -0.3595 -0.6361
 1573SOL     OW16180   1.315   3.306   8.181 -0.0024 -0.8011 -0.5029
 1573SOL    HW116181   1.266   3.270   8.108 -0.3378  0.1347 -0.7447
 1573SOL    HW216182   1.242   3.351   8.224 -0.0871 -1.6144  0.1985
 1574SOL     OW16183   4.168   0.731  12.070 -0.5346 -0.2168  0.1187
 1574SOL    HW116184   4.233   0.800  12.059 -1.8081  0.8136 -0.8616
 1574SOL    HW216185   4.210   0.662  12.123 -1.9942 -1.9738 -1.0218
 1575SOL     OW16186   0.115   1.237  13.852  0.4224 -0.3799  0.2789
 1575SOL    HW116187   0.179   1.257  13.784  2.7698  0.5682  2.7421
 1575SOL    HW216188   0.160   1.183  13.917  0.7364 -0.1060  0.2882
 1576SOL     OW16189   0.408   4.094   1.318  1.0070  0.4549  0.3971
 1576SOL    HW116190   0.460   4.133   1.388  0.9389  0.5157  0.4136
 1576SOL    HW216191   0.349   4.169   1.322  0.0750 -0.1793 -1.3582
 1577SOL     OW16192   1.199   0.994   5.919 -0.2451 -0.3421  0.1725
 1577SOL    HW116193   1.183   1.050   5.843 -2.7294 -1.7102 -0.3094
 1577SOL    HW216194   1.249   0.924   5.877 -0.3147 -1.0919  1.3455
 1578SOL     OW16195   2.060   0.189   7.556  0.4020 -0.0188 -0.0572
 1578SOL    HW116196   2.085   0.098   7.568 -0.1340 -0.0017  1.2139
 1578SOL    HW216197   2.055   0.203   7.461  0.9648 -0.5011 -0.1511
 1579SOL     OW16198   0.216   1.770  14.919  0.1482  0.0087  0.5673
 1579SOL    HW116199   0.129   1.801  14.894 -0.0096 -1.9402 -1.2839
 1579SOL    HW216200   0.244   1.702  14.857 -2.9521 -0.9339  0.2226
 1580SOL     OW16201   1.210   3.874   4.259 -0.2411 -0.7086  0.5546
 1580SOL    HW116202   1.192   3.964   4.231  0.8705 -0.5528  0.3637
 1580SOL    HW216203   1.241   3.837   4.176  1.5478 -2.1963  1.9121
 1581SOL     OW16204   1.282   0.795  16.474  0.0769 -0.4689 -0.3825
 1581SOL    HW116205   1.347   0.746  16.423 -0.8178 -2.4993  0.4427
 1581SOL    HW216206   1.267   0.742  16.552  4.4219 -0.0680  0.7454
 1582SOL     OW16207   4.672   2.840   8.183 -0.4168 -0.5200 -0.0860
 1582SOL    HW116208   4.666   2.928   8.222  1.0255  0.0197 -1.0833
 1582SOL    HW216209   4.626   2.796   8.255  0.3015  0.2378  0.8390
 1583SOL     OW16210   0.475   3.358   8.311  0.3339 -0.4367 -0.1598
 1583SOL    HW116211   0.498   3.387   8.399  0.0307  0.6308 -0.4311
 1583SOL    HW216212   0.542   3.395   8.253  1.9261  2.1531  3.3732
 1584SOL     OW16213   2.484   0.061   3.470  0.4488 -0.3141 -0.3941
 1584SOL    HW116214   2.399   0.086   3.435  0.2347  0.2749  0.5470
 1584SOL    HW216215   2.499   4.698   3.432  1.3364 -0.9201  1.3523
 1585SOL     OW16216   1.895   3.625   4.926  0.3408  0.6840  0.7189
 1585SOL    HW116217   1.911   3.719   4.923  3.7356  0.1285  1.9301
 1585SOL    HW216218   1.896   3.602   4.833  0.5249  0.0833  0.8697
 1586SOL     OW16219   0.095   2.046   7.930  0.4807 -0.4855 -0.0158
 1586SOL    HW116220   0.006   2.071   7.953  0.8939  0.2312  0.8068
 1586SOL    HW216221   0.113   1.970   7.986  1.6691 -0.7474 -0.7488
 1587SOL     OW16222   4.460   3.736  16.711 -0.4848  0.2594 -0.1635
 1587SOL    HW116223   4.553   3.731  16.733 -0.3882 -0.0473 -0.6391
 1587SOL    HW216224   4.423   3.770  16.792 -0.8011  0.0184 -0.2048
 1588SOL     OW16225   2.034   0.028  16.349 -0.1936  0.8283 -0.4781
 1588SOL    HW116226   1.984   4.678  16.383  0.7374  0.8108  0.8427
 1588SOL    HW216227   1.969   0.095  16.370 -1.4650 -0.2861 -0.9021
 1589SOL     OW16228   4.478   3.047  16.055 -0.7312 -0.4262  0.3358
 1589SOL    HW116229   4.444   2.961  16.080 -1.6700 -0.0772  0.2843
 1589SOL    HW216230   4.471   3.094  16.138  0.6083 -0.1991  0.3165
 1590SOL     OW16231   1.336   3.220   2.633  0.4663  0.2287  0.7520
 1590SOL    HW116232   1.290   3.181   2.559  0.5102 -0.3202  1.0142
 1590SOL    HW216233   1.354   3.140   2.683  1.2393  0.7273  1.2614
 1591SOL     OW16234   0.074   3.416   3.272 -0.0024 -0.0947  0.0403
 1591SOL    HW116235   0.047   3.374   3.191  0.8799 -1.0653  0.2544
 1591SOL    HW216236   0.006   3.379   3.327  0.3210 -0.9349 -0.1248
 1592SOL     OW16237   2.978   0.515  14.960 -0.4622 -0.0702 -0.0500
 1592SOL    HW116238   2.920   0.553  14.894  0.2833 -1.4165 -1.4822
 1592SOL    HW216239   2.931   0.435  14.983  0.9190 -1.1275 -0.8954
 1593SOL     OW16240   0.609   2.157   3.480 -0.0992 -0.2253  0.1956
 1593SOL    HW116241   0.607   2.151   3.384 -0.6339  4.3418 -0.0787
 1593SOL    HW216242   0.694   2.195   3.500 -1.5031  2.1298  1.6061
 1594SOL     OW16243   1.592   2.960   6.153 -0.1534 -0.2274  0.8232
 1594SOL    HW116244   1.656   2.947   6.083 -2.3880  1.6931 -1.5792
 1594SOL    HW216245   1.537   3.028   6.114  1.5261 -0.4753 -1.9416
 1595SOL     OW16246   0.216   4.709   7.106  0.1736  0.7996 -0.1761
 1595SOL    HW116247   0.175   4.704   7.020  0.1935  0.1122 -0.1456
 1595SOL    HW216248   0.230   0.078   7.125  0.4926  0.3724  1.6679
 1596SOL     OW16249   0.745   0.769   4.242 -0.2468 -0.5334  0.5285
 1596SOL    HW116250   0.767   0.706   4.310  0.9306 -1.3486 -0.5954
 1596SOL    HW216251   0.799   0.845   4.265  1.6405 -2.0515  1.1698
 1597SOL     OW16252   3.943   3.329   1.851  0.0650  0.2172  0.4012
 1597SOL    HW116253   3.876   3.332   1.783  0.5113 -1.7525 -0.1344
 1597SOL    HW216254   3.997   3.255   1.822 -1.9028 -0.2967 -1.8907
 1598SOL     OW16255   4.631   0.318  16.706  0.1743 -0.6162 -0.1432
 1598SOL    HW116256   4.630   0.324  16.611  0.7702 -1.0653 -0.1799
 1598SOL    HW216257   4.651   0.408  16.731 -0.5012  0.2046 -2.5602
 1599SOL     OW16258   2.917   3.746   7.420 -0.6524 -0.3057  0.3478
 1599SOL    HW116259   3.002   3.747   7.464 -0.6359  1.5487  0.2920
 1599SOL    HW216260   2.888   3.833   7.446 -2.5119 -0.4175 -1.3517
 1600SOL     OW16261   4.392   4.161   1.936  0.4668  0.0686 -0.0549
 1600SOL    HW116262   4.335   4.084   1.940  0.1304  0.3092 -0.2595
 1600SOL    HW216263   4.452   4.132   2.005 -0.4851  0.5979  0.9843
 1601SOL     OW16264   1.231   2.227   9.184 -0.3864  0.1369  0.5477
 1601SOL    HW116265   1.317   2.225   9.142  0.7992  0.9856  2.9205
 1601SOL    HW216266   1.177   2.226   9.105  0.4335 -0.1117 -0.0052
 1602SOL     OW16267   2.757   1.526   6.874 -0.1578 -0.6503  0.5853
 1602SOL    HW116268   2.681   1.527   6.815 -1.0713 -0.7593  1.7637
 1602SOL    HW216269   2.805   1.606   6.850  0.3040 -1.1968 -0.3260
 1603SOL     OW16270   1.481   1.099   8.719  0.1523  0.2409  0.5739
 1603SOL    HW116271   1.394   1.124   8.689  0.8486  2.8191  0.6318
 1603SOL    HW216272   1.539   1.154   8.666 -0.0695  0.6011  0.7060
 1604SOL     OW16273   2.510   1.286   8.303 -0.2429  0.0074 -0.1475
 1604SOL    HW116274   2.467   1.217   8.354 -1.8385  0.8779 -0.3263
 1604SOL    HW216275   2.458   1.366   8.309 -0.6977 -0.4016  1.4871
 1605SOL     OW16276   1.081   2.338   6.786 -0.3783  0.3225  0.4589
 1605SOL    HW116277   1.068   2.244   6.797 -0.9295  0.4568  0.9573
 1605SOL    HW216278   1.154   2.339   6.847 -0.8185 -1.5270  1.0244
 1606SOL     OW16279   1.013   4.629   5.370  0.4415 -0.1523 -0.0261
 1606SOL    HW116280   1.067   4.687   5.316 -0.4778  1.4219  0.7331
 1606SOL    HW216281   1.046   4.549   5.329 -1.5257 -1.4330  0.8885
 1607SOL     OW16282   0.577   0.020  14.526 -0.3638 -0.1603  0.3968
 1607SOL    HW116283   0.672   0.012  14.530 -0.1710  1.0246 -1.9515
 1607SOL    HW216284   0.551   4.676  14.463  0.4538  0.6679 -0.8317
 1608SOL     OW16285   2.629   3.492  16.035  0.6958  0.4459 -0.3771
 1608SOL    HW116286   2.578   3.516  15.957 -0.0389  0.1295  0.0004
 1608SOL    HW216287   2.627   3.396  16.039  0.7280  0.4320 -0.6544
 1609SOL     OW16288   1.132   2.092   4.053  0.1518  0.1771 -0.3948
 1609SOL    HW116289   1.093   2.099   3.966  0.7352  1.5203 -0.5337
 1609SOL    HW216290   1.052   2.091   4.105 -0.0203 -1.1122 -0.6819
 1610SOL     OW16291   2.731   4.106   3.506  0.4314 -0.4021 -0.1129
 1610SOL    HW116292   2.683   4.163   3.445  3.0527  3.2212  1.1715
 1610SOL    HW216293   2.796   4.170   3.536  1.8978 -1.9719  0.0361
 1611SOL     OW16294   1.683   2.529  13.814  0.3778  0.0637  0.2105
 1611SOL    HW116295   1.663   2.493  13.901  0.7235  0.2222  0.3566
 1611SOL    HW216296   1.721   2.613  13.840 -1.0886  0.8853 -0.3261
 1612SOL     OW16297   3.654   3.098   4.903  0.2171  0.1655 -0.8169
 1612SOL    HW116298   3.640   3.022   4.959 -1.6635  1.1114  0.0055
 1612SOL    HW216299   3.620   3.065   4.819 -1.1328 -1.3112  0.2986
 1613SOL     OW16300   3.214   4.251   8.472  0.0569  0.2676  0.1183
 1613SOL    HW116301   3.140   4.308   8.452  0.7073  0.7983 -0.7444
 1613SOL    HW216302   3.187   4.161   8.455  1.1042  0.2121 -1.2252
 1614SOL     OW16303   3.919   1.718   8.696 -0.7669 -0.2330 -0.2059
 1614SOL    HW116304   3.892   1.628   8.681  0.4715 -0.4891 -0.8771
 1614SOL    HW216305   3.942   1.718   8.789  0.6819 -0.4906 -0.5640
 1615SOL     OW16306   1.378   1.173   2.286  0.7028 -0.3517 -0.0685
 1615SOL    HW116307   1.310   1.237   2.262 -0.7429 -2.1022 -0.6368
 1615SOL    HW216308   1.432   1.172   2.208  0.9352 -1.5892  0.1134
 1616SOL     OW16309   0.707   0.856   6.970  0.3937  0.2210 -0.1510
 1616SOL    HW116310   0.614   0.836   6.980  0.9837 -1.7410  1.4084
 1616SOL    HW216311   0.730   0.892   7.056  2.2151 -0.3449 -0.3985
 1617SOL     OW16312   4.379   3.388   3.508 -0.0528 -0.0400 -0.1593
 1617SOL    HW116313   4.286   3.367   3.498 -0.3396  0.3230  1.8009
 1617SOL    HW216314   4.386   3.468   3.457  2.4915 -0.7253 -0.9215
 1618SOL     OW16315   0.097   2.954   4.692 -0.3048 -0.5181  0.4362
 1618SOL    HW116316   0.124   3.010   4.619  0.9043  0.2976  1.5025
 1618SOL    HW216317   0.010   2.927   4.664 -0.3758  1.1646 -0.9602
 1619SOL     OW16318   3.833   2.888   7.130  0.0765  1.2003  0.1774
 1619SOL    HW116319   3.831   2.927   7.217  0.0468  2.6113 -0.4482
 1619SOL    HW216320   3.922   2.919   7.109  0.4144 -0.7161 -1.2407
 1620SOL     OW16321   4.091   2.254   2.754  0.4618  0.4211 -0.1564
 1620SOL    HW116322   4.132   2.180   2.710  0.5106  1.0109 -1.0934
 1620SOL    HW216323   4.062   2.218   2.839 -0.8067 -0.1675 -0.8376
 1621SOL     OW16324   0.356   1.100   3.750 -0.8873  0.0127  0.6083
 1621SOL    HW116325   0.436   1.057   3.780 -0.6061  0.0490 -0.0871
 1621SOL    HW216326   0.348   1.068   3.660 -0.4536  0.1502  0.5189
 1622SOL     OW16327   4.084   0.814   7.690  0.0927 -0.2951 -0.5384
 1622SOL    HW116328   4.094   0.860   7.607  1.1976 -1.3575 -0.9887
 1622SOL    HW216329   4.159   0.851   7.736 -0.6342  2.7326 -1.7909
 1623SOL     OW16330   0.736   1.200   7.374  0.6439 -0.1893 -0.2052
 1623SOL    HW116331   0.813   1.255   7.387  0.1163  0.2759  0.9153
 1623SOL    HW216332   0.677   1.275   7.368 -0.2032 -0.7137  1.7068
 1624SOL     OW16333   4.087   3.422   9.459  0.7304 -0.5328  0.4073
 1624SOL    HW116334   3.998   3.413   9.494  0.1510  1.5468 -0.4772
 1624SOL    HW216335   4.083   3.369   9.379  1.4468 -2.4705  1.6817
 1625SOL     OW16336   4.039   2.088   7.037  0.2131 -0.6929  0.2097
 1625SOL    HW116337   3.979   2.040   7.094 -1.0765 -2.1801 -2.4214
 1625SOL    HW216338   4.017   2.181   7.051 -0.2438 -0.6037 -1.0685
 1626SOL     OW16339   4.008   4.076  11.679 -0.4373 -0.0754 -0.5361
 1626SOL    HW116340   4.013   4.090  11.584  0.7609  0.4843 -0.3951
 1626SOL    HW216341   3.931   4.130  11.698 -1.9612 -2.3408 -0.2585
 1627SOL     OW16342   4.439   4.346   4.526 -0.5178  0.3320 -0.3592
 1627SOL    HW116343   4.359   4.338   4.475  0.2657 -0.4297 -1.4469
 1627SOL    HW216344   4.445   4.261   4.569 -2.4880 -0.0685 -0.8649
 1628SOL     OW16345   2.794   0.137   5.829  0.0524 -0.2025 -0.8478
 1628SOL    HW116346   2.700   0.151   5.841  0.5241 -0.1697  2.8578
 1628SOL    HW216347   2.825   0.118   5.918  2.1798 -0.4361 -1.6343
 1629SOL     OW16348   0.898   0.641   0.145 -0.3082 -0.4352  0.1949
 1629SOL    HW116349   0.845   0.563   0.162 -1.1725  0.1058 -0.0509
 1629SOL    HW216350   0.956   0.640   0.221 -0.0020 -1.2395 -0.0482
 1630SOL     OW16351   2.379   1.095  13.859  0.1334  0.5254  0.6036
 1630SOL    HW116352   2.298   1.089  13.909  1.5102  1.3951  2.9333
 1630SOL    HW216353   2.348   1.139  13.780  1.0703 -2.4465 -1.4213
 1631SOL     OW16354   4.340   2.222   8.683  0.1737 -0.4825  0.4239
 1631SOL    HW116355   4.252   2.228   8.720 -0.2765 -0.2678 -0.7026
 1631SOL    HW216356   4.381   2.306   8.701 -1.0142  0.3926 -1.0118
 1632SOL     OW16357   3.183   0.220   4.935  0.8534  0.3857  0.1909
 1632SOL    HW116358   3.154   0.165   4.862  1.8920  0.0943 -0.0053
 1632SOL    HW216359   3.261   0.172   4.965 -0.9147 -3.1384 -0.7989
 1633SOL     OW16360   2.580   0.045   6.858  0.5830  0.4169  0.2566
 1633SOL    HW116361   2.654   0.017   6.805  1.5459  1.0417  1.2866
 1633SOL    HW216362   2.629   0.102   6.917  1.7242  0.5901 -0.8554
 1634SOL     OW16363   0.318   2.922   0.760  0.1501  0.2968 -0.2483
 1634SOL    HW116364   0.372   2.970   0.822 -0.5939 -0.5952  1.0782
 1634SOL    HW216365   0.259   2.991   0.731 -0.6275 -1.3069 -2.5424
 1635SOL     OW16366   3.260   0.999   1.199 -0.4453 -0.1462  0.6512
 1635SOL    HW116367   3.166   0.981   1.196 -0.1199 -1.3812 -2.1688
 1635SOL    HW216368   3.312   0.919   1.211  1.8546  1.4612  1.3423
 1636SOL     OW16369   1.534   3.075   7.743 -0.2159 -0.3616 -0.8972
 1636SOL    HW116370   1.614   3.022   7.747 -0.5113 -0.5083  2.8275
 1636SOL    HW216371   1.520   3.076   7.648  0.2271 -1.9286 -0.9900
 1637SOL     OW16372   2.114   2.608   8.667  0.4582  0.3372 -0.2640
 1637SOL    HW116373   2.052   2.645   8.730  2.3527  3.3697 -0.2225
 1637SOL    HW216374   2.130   2.524   8.709 -0.7392 -0.2187 -0.9023
 1638SOL     OW16375   0.830   4.482   6.349 -0.1242  0.5715 -0.4177
 1638SOL    HW116376   0.918   4.504   6.381 -1.1084  1.3596  1.7688
 1638SOL    HW216377   0.808   4.566   6.309  2.7777  0.8873 -1.3980
 1639SOL     OW16378   2.572   3.661  10.622 -0.1099 -0.1220 -0.4759
 1639SOL    HW116379   2.619   3.591  10.667  0.9572  0.5036 -0.6241
 1639SOL    HW216380   2.622   3.655  10.540  3.5608  1.6004  1.6366
 1640SOL     OW16381   1.113   0.213   8.298  0.1322  0.3586  0.1425
 1640SOL    HW116382   1.154   0.136   8.256  0.6224 -0.4353  2.0850
 1640SOL    HW216383   1.176   0.242   8.364 -0.0074  3.3455 -1.0564
 1641SOL     OW16384   3.345   1.713   6.518 -0.0359 -0.1239  0.7062
 1641SOL    HW116385   3.290   1.651   6.471 -0.8442  0.4265  0.9291
 1641SOL    HW216386   3.317   1.697   6.608 -0.1446 -2.1052  0.3181
 1642SOL     OW16387   1.314   1.560   3.331 -0.1995  0.1234 -0.7726
 1642SOL    HW116388   1.250   1.586   3.264 -2.0783  0.9571  1.3559
 1642SOL    HW216389   1.365   1.495   3.283 -0.2567 -0.4872 -0.0082
 1643SOL     OW16390   1.562   4.314   5.899 -0.1398 -0.1015 -0.3856
 1643SOL    HW116391   1.586   4.237   5.847 -0.7586 -1.4077  1.2614
 1643SOL    HW216392   1.467   4.303   5.900  0.1165 -2.0271  1.7409
 1644SOL     OW16393   4.354   0.807   2.408 -0.1132 -0.0035 -0.3120
 1644SOL    HW116394   4.376   0.729   2.357 -2.1650 -0.3024 -0.7622
 1644SOL    HW216395   4.258   0.809   2.408 -0.1122  0.0272 -1.0950
 1645SOL     OW16396   3.193   4.415   8.102  0.1239  0.0259  0.1387
 1645SOL    HW116397   3.263   4.365   8.145 -0.0784  0.3444  0.8343
 1645SOL    HW216398   3.184   4.484   8.168 -2.4214  0.4893 -0.7152
 1646SOL     OW16399   2.793   2.000   4.770  0.7861 -0.3713  0.0742
 1646SOL    HW116400   2.781   1.905   4.769  0.8931 -0.3874  0.8051
 1646SOL    HW216401   2.778   2.013   4.676  0.1036 -0.9867  0.0926
 1647SOL     OW16402   0.636   2.816  12.725 -0.8539 -0.3753 -0.0453
 1647SOL    HW116403   0.660   2.771  12.807  3.7972  0.1653 -1.1146
 1647SOL    HW216404   0.613   2.903  12.756  2.6402  1.0364 -1.4869
 1648SOL     OW16405   2.799   2.147   1.817  0.6961 -0.2813  0.0735
 1648SOL    HW116406   2.868   2.092   1.854  0.3525  0.0116  1.1439
 1648SOL    HW216407   2.815   2.123   1.725 -0.4313 -1.5153  0.1832
 1649SOL     OW16408   2.750   0.282   5.381 -0.2392 -0.7630 -0.0788
 1649SOL    HW116409   2.823   0.222   5.368  0.1710 -0.0880 -0.8673
 1649SOL    HW216410   2.732   0.326   5.298  0.6554  1.8092  1.1199
 1650SOL     OW16411   4.469   1.858   5.732 -0.5721 -0.5516  0.4549
 1650SOL    HW116412   4.553   1.846   5.687 -1.3430 -1.3752 -0.7460
 1650SOL    HW216413   4.509   1.863   5.819 -2.3713  1.4632  1.1740
 1651SOL     OW16414   4.301   4.296   6.197  0.2460  0.0598  0.5068
 1651SOL    HW116415   4.347   4.231   6.144  1.6465  2.6402 -1.5042
 1651SOL    HW216416   4.312   4.254   6.282 -1.9245 -1.4153  0.0308
 1652SOL     OW16417   3.962   3.644   3.197  0.0079 -0.2000 -0.9983
 1652SOL    HW116418   3.908   3.591   3.137  1.0882 -0.9061 -1.3560
 1652SOL    HW216419   4.003   3.697   3.129 -1.3260  0.1022 -1.5772
 1653SOL     OW16420   2.784   4.711  12.100  0.0640  0.5617  0.5970
 1653SOL    HW116421   2.840   0.062  12.079 -0.8516  0.6423 -1.5183
 1653SOL    HW216422   2.819   4.638  12.049 -0.1158  0.8310  0.0920
 1654SOL     OW16423   2.550   1.406   7.372  0.5203  0.4439  0.1061
 1654SOL    HW116424   2.606   1.445   7.439  0.0584 -1.6541  1.7101
 1654SOL    HW216425   2.471   1.376   7.418  0.5376  1.0166  0.5045
 1655SOL     OW16426   0.725   1.551  10.786  0.1151  0.1770  0.3813
 1655SOL    HW116427   0.786   1.619  10.818 -0.8904  1.0176  0.5238
 1655SOL    HW216428   0.662   1.551  10.859 -0.4761  0.6146 -0.1308
 1656SOL     OW16429   4.451   2.833   8.938  0.0306 -0.5100  0.8955
 1656SOL    HW116430   4.478   2.830   8.846  1.8115 -0.0083  1.4069
 1656SOL    HW216431   4.483   2.917   8.971 -1.5135 -0.0306  1.1629
 1657SOL     OW16432   1.555   4.334  10.977  0.0278  0.3779 -0.2240
 1657SOL    HW116433   1.566   4.248  11.018  0.9506  0.5841 -0.0332
 1657SOL    HW216434   1.632   4.332  10.919 -0.1254  0.2115 -0.4227
 1658SOL     OW16435   4.371   0.993  14.312 -0.9276 -0.4444 -0.1733
 1658SOL    HW116436   4.299   0.930  14.322 -0.8299 -0.4593  0.4033
 1658SOL    HW216437   4.329   1.067  14.268  0.7329 -0.9146 -2.5343
 1659SOL     OW16438   4.119   0.169   8.521  0.1454 -0.6067  0.5934
 1659SOL    HW116439   4.029   0.151   8.493  0.0249  2.2664 -0.8599
 1659SOL    HW216440   4.139   0.252   8.478  0.2967 -1.5032 -1.0774
 1660SOL     OW16441   2.686   2.316   7.801 -0.1904  0.4080  0.0701
 1660SOL    HW116442   2.650   2.341   7.886 -1.7951 -0.8095 -0.2306
 1660SOL    HW216443   2.772   2.354   7.814  0.7850 -1.0264 -2.1563
 1661SOL     OW16444   0.800   0.635   5.056 -0.4274 -0.1631  1.2083
 1661SOL    HW116445   0.751   0.606   4.980 -2.9243  1.2275  2.2553
 1661SOL    HW216446   0.835   0.550   5.082  1.2807 -0.7000 -2.9548
 1662SOL     OW16447   2.786   1.777   3.840  0.5398 -0.4032 -0.5451
 1662SOL    HW116448   2.830   1.826   3.909 -0.4605 -1.1337  0.6150
 1662SOL    HW216449   2.818   1.689   3.859 -2.5183 -1.4795 -0.4120
 1663SOL     OW16450   3.903   1.545   6.952 -0.4871  0.3390  0.0130
 1663SOL    HW116451   3.996   1.530   6.969 -0.9115 -3.5567 -1.3141
 1663SOL    HW216452   3.905   1.564   6.858 -0.5852 -0.1534 -0.0892
 1664SOL     OW16453   0.710   2.216  11.236  0.1740 -0.1477  0.0237
 1664SOL    HW116454   0.639   2.224  11.299 -0.9270  0.7400 -1.3337
 1664SOL    HW216455   0.786   2.258  11.277 -0.3166  0.8098 -0.0543
 1665SOL     OW16456   3.862   0.624   8.353  0.2657  0.3025 -0.2712
 1665SOL    HW116457   3.920   0.671   8.413  1.0947 -2.2472  0.8946
 1665SOL    HW216458   3.784   0.679   8.357  0.1190  0.0541  0.2766
 1666SOL     OW16459   4.000   0.984   9.752  0.1712 -0.1325  0.3741
 1666SOL    HW116460   4.030   0.913   9.696  1.1845 -0.0022  0.7347
 1666SOL    HW216461   3.914   0.954   9.780 -0.1186  1.5571  1.2887
 1667SOL     OW16462   0.657   2.647   5.919  0.6655  0.1795  0.2225
 1667SOL    HW116463   0.701   2.587   5.857 -0.7420 -0.4940 -0.1226
 1667SOL    HW216464   0.635   2.720   5.861 -0.8964 -0.9839 -0.6746
 1668SOL     OW16465   1.341   0.393   8.713  0.4703  0.5124 -0.4316
 1668SOL    HW116466   1.269   0.400   8.775  1.1861 -0.2095  0.4736
 1668SOL    HW216467   1.357   0.485   8.695  0.0272  0.5741 -0.5121
 1669SOL     OW16468   2.029   1.455  16.578  0.3413  0.1808 -0.0575
 1669SOL    HW116469   2.047   1.456  16.672 -2.4630 -0.6531  0.5030
 1669SOL    HW216470   1.962   1.387  16.567  1.7991 -1.6649  2.2319
 1670SOL     OW16471   1.646   0.840   4.761 -0.1549 -0.4128  0.3817
 1670SOL    HW116472   1.580   0.771   4.750 -0.5915 -0.2224  1.7901
 1670SOL    HW216473   1.707   0.788   4.813 -1.1094 -2.4529 -0.5429
 1671SOL     OW16474   2.534   1.623   6.717  0.6905 -0.3931  0.4189
 1671SOL    HW116475   2.441   1.631   6.696  0.7652  0.2579  0.3351
 1671SOL    HW216476   2.567   1.658   6.635 -2.0186 -0.8739 -0.8742
 1672SOL     OW16477   3.922   3.762  11.231  0.8060 -0.2457 -0.1195
 1672SOL    HW116478   3.989   3.695  11.245  2.9154  1.7847 -0.4885
 1672SOL    HW216479   3.838   3.716  11.225 -0.1308  1.7408 -2.5464
 1673SOL     OW16480   3.604   2.058   9.403 -0.1194 -0.1586  0.1852
 1673SOL    HW116481   3.635   2.033   9.490 -2.8008 -0.5190  1.0355
 1673SOL    HW216482   3.568   2.145   9.418 -0.5905 -0.2994 -0.1164
 1674SOL     OW16483   0.089   1.194   3.831  0.1973  0.1289 -0.0988
 1674SOL    HW116484   0.183   1.195   3.814 -0.3581  0.1936 -3.1122
 1674SOL    HW216485   0.082   1.260   3.900 -1.8946 -0.4228  0.2448
 1675SOL     OW16486   1.316   1.087   6.895 -0.5460  0.1671  0.6313
 1675SOL    HW116487   1.253   1.070   6.965  1.9094 -1.1020  2.5276
 1675SOL    HW216488   1.379   1.024   6.931  0.9639  0.3213 -1.7861
 1676SOL     OW16489   1.562   3.273   2.385  0.6224  0.0938  0.0517
 1676SOL    HW116490   1.546   3.367   2.398  1.0345  0.6229 -3.2097
 1676SOL    HW216491   1.550   3.233   2.471  1.4055 -0.5689 -0.1535
 1677SOL     OW16492   1.619   2.426  15.941 -0.4963  0.3454 -0.1131
 1677SOL    HW116493   1.558   2.493  15.970 -0.0231  0.3832  0.7928
 1677SOL    HW216494   1.610   2.429  15.846  0.4628 -0.8063 -0.2383
 1678SOL     OW16495   1.524   3.931   3.410  0.0351 -0.0350 -0.0299
 1678SOL    HW116496   1.563   3.932   3.323  0.5737 -2.9257  0.1589
 1678SOL    HW216497   1.537   3.836   3.420 -2.0360 -0.1647  1.4958
 1679SOL     OW16498   0.199   1.246   6.777  0.0417 -0.2817  0.1149
 1679SOL    HW116499   0.274   1.216   6.725 -0.2604 -0.8885  0.0221
 1679SOL    HW216500   0.161   1.160   6.798 -0.7511  0.0682  0.0944
 1680SOL     OW16501   4.511   4.060   9.541 -1.0296 -0.1749  0.2331
 1680SOL    HW116502   4.462   4.070   9.460  2.0107 -1.6101 -1.7917
 1680SOL    HW216503   4.503   3.966   9.553 -1.1150 -0.3526 -1.2216
 1681SOL     OW16504   3.110   3.541   6.856 -0.2668 -0.2933 -0.1737
 1681SOL    HW116505   3.120   3.516   6.948 -0.6956  1.7926  0.4502
 1681SOL    HW216506   3.036   3.601   6.863  0.3873  0.1951  2.3485
 1682SOL     OW16507   0.073   1.040  16.148 -0.7738  0.5074 -0.4053
 1682SOL    HW116508   0.007   0.977  16.176  1.6349 -2.3026 -0.9644
 1682SOL    HW216509   0.148   0.983  16.164 -1.5912 -0.6721 -0.7515
 1683SOL     OW16510   2.491   3.651   4.411 -0.3681 -0.1872 -0.1623
 1683SOL    HW116511   2.489   3.655   4.316 -0.3863 -1.4456 -0.2218
 1683SOL    HW216512   2.524   3.563   4.430 -0.5990 -0.8455 -2.8167
 1684SOL     OW16513   4.376   0.115   2.950  0.9061 -0.4809  0.1114
 1684SOL    HW116514   4.283   0.128   2.934  0.9391  1.5760  1.6276
 1684SOL    HW216515   4.388   0.032   2.904  0.9740 -1.1436  1.3253
 1685SOL     OW16516   0.624   3.464   6.061  0.1670 -0.4034  0.1070
 1685SOL    HW116517   0.595   3.555   6.062  0.5501 -0.2693 -1.0812
 1685SOL    HW216518   0.586   3.435   5.978 -0.9136  0.1162  0.4186
 1686SOL     OW16519   4.002   4.584   0.541  0.2398 -0.0056 -0.3134
 1686SOL    HW116520   4.051   4.591   0.459 -1.1478 -0.3462 -1.1510
 1686SOL    HW216521   3.921   4.625   0.511  0.3955  0.5274  0.0001
 1687SOL     OW16522   1.516   0.895   6.706  0.2829  0.1434 -0.1220
 1687SOL    HW116523   1.556   0.876   6.790  0.0398 -2.4375 -0.6027
 1687SOL    HW216524   1.426   0.862   6.716  0.5092 -0.2727  0.5238
 1688SOL     OW16525   0.507   1.335   6.762  0.1487 -0.4781 -0.4483
 1688SOL    HW116526   0.600   1.343   6.741 -0.1072  0.8009 -1.0797
 1688SOL    HW216527   0.468   1.387   6.691  1.5995  0.8252 -0.2994
 1689SOL     OW16528   4.609   2.472   7.595  0.2220  0.3380  0.0111
 1689SOL    HW116529   4.578   2.389   7.631 -1.2973  0.4175 -1.0939
 1689SOL    HW216530   4.665   2.503   7.666 -0.1940 -2.0131  1.3433
 1690SOL     OW16531   2.712   0.188   2.143  0.0372  0.2589 -0.3269
 1690SOL    HW116532   2.761   0.175   2.224 -0.4952 -1.1418 -0.2241
 1690SOL    HW216533   2.636   0.233   2.181 -1.5526 -1.2697 -1.7455
 1691SOL     OW16534   3.789   3.529   9.640  0.0936 -0.0139 -0.0124
 1691SOL    HW116535   3.859   3.468   9.664 -0.3550 -0.9540 -1.0681
 1691SOL    HW216536   3.721   3.503   9.701 -0.6167 -0.2614 -0.9156
 1692SOL     OW16537   2.480   0.061   2.552  0.0878  0.1325  0.1478
 1692SOL    HW116538   2.446   4.714   2.606 -0.6600  0.4600  0.1006
 1692SOL    HW216539   2.545   0.011   2.502 -0.8214  0.8072 -1.7272
 1693SOL     OW16540   0.777   2.417   2.656  0.4026  0.6566  0.1724
 1693SOL    HW116541   0.866   2.383   2.649 -1.6251 -4.5725 -0.4160
 1693SOL    HW216542   0.734   2.334   2.678 -1.0336  1.6325  1.0358
 1694SOL     OW16543   1.288   1.175  10.880 -0.0615  0.2655  0.1057
 1694SOL    HW116544   1.298   1.089  10.840  2.0675  1.0307 -0.9835
 1694SOL    HW216545   1.367   1.224  10.859  0.7332 -0.9126  0.3831
 1695SOL     OW16546   3.890   2.531   4.914  0.3049 -0.0981  0.3424
 1695SOL    HW116547   3.813   2.585   4.895  1.5242  1.2380 -0.7082
 1695SOL    HW216548   3.931   2.567   4.993 -2.8770  0.8251  1.5712
 1696SOL     OW16549   3.567   0.765   3.266 -0.0903  0.4308  0.4902
 1696SOL    HW116550   3.643   0.712   3.290  0.8743  1.4904 -0.1473
 1696SOL    HW216551   3.613   0.825   3.207  0.2974 -0.8917 -0.5593
 1697SOL     OW16552   0.548   0.174   8.743 -0.8079 -0.3661  0.5293
 1697SOL    HW116553   0.599   0.251   8.719 -0.7217 -1.2650 -2.1330
 1697SOL    HW216554   0.616   0.114   8.770 -0.7482 -0.6935 -0.3507
 1698SOL     OW16555   2.892   4.416   3.224 -0.0863  0.2198 -0.2260
 1698SOL    HW116556   2.887   4.330   3.184  1.6236  0.0045 -0.0018
 1698SOL    HW216557   2.986   4.431   3.234 -0.1494  1.0416 -0.9409
 1699SOL     OW16558   2.121   1.983  12.813  0.3687  0.3259  0.7409
 1699SOL    HW116559   2.134   2.046  12.742 -2.7774  0.9025  0.6908
 1699SOL    HW216560   2.034   2.009  12.841 -0.1805  1.1610 -1.8319
 1700SOL     OW16561   3.281   0.398   7.876  0.0456 -0.2305  0.1502
 1700SOL    HW116562   3.263   0.492   7.875  0.5273 -0.1157  2.2537
 1700SOL    HW216563   3.347   0.391   7.945 -0.5872 -0.7903  0.6813
 1701SOL     OW16564   3.576   4.430  10.770  0.0612 -0.3941  0.2155
 1701SOL    HW116565   3.634   4.495  10.730  0.2184 -2.0872 -2.2981
 1701SOL    HW216566   3.488   4.467  10.769 -0.9304 -2.6113  4.0707
 1702SOL     OW16567   2.371   1.461  15.157 -0.0237  0.2765  0.4845
 1702SOL    HW116568   2.328   1.443  15.073 -0.5646  0.1675  0.7863
 1702SOL    HW216569   2.410   1.374  15.167 -1.5507 -0.5832 -1.0244
 1703SOL     OW16570   2.656   0.584   6.432 -0.1178  0.6669 -0.5926
 1703SOL    HW116571   2.570   0.551   6.406 -1.1345  1.2850  1.9746
 1703SOL    HW216572   2.640   0.677   6.447 -0.7701  0.7859 -2.0580
 1704SOL     OW16573   3.725   1.991   7.419 -0.0897 -0.1616 -0.2816
 1704SOL    HW116574   3.732   2.034   7.333 -3.0600 -1.3298 -1.1245
 1704SOL    HW216575   3.795   2.025   7.473  1.1675 -2.1594 -0.6553
 1705SOL     OW16576   1.185   3.243   4.081 -0.5361 -0.3213 -0.3228
 1705SOL    HW116577   1.239   3.254   4.002  0.8269  1.0500  0.8079
 1705SOL    HW216578   1.149   3.328   4.105 -0.9429 -1.3292  2.5772
 1706SOL     OW16579   1.959   3.397   8.149  0.1702  0.1964 -0.5173
 1706SOL    HW116580   1.890   3.461   8.133  0.2308  0.0358 -1.4225
 1706SOL    HW216581   1.909   3.337   8.204  0.3372  0.2981 -0.2525
 1707SOL     OW16582   4.239   2.420   2.410 -0.1585 -0.6146 -0.6521
 1707SOL    HW116583   4.245   2.411   2.315  0.5113 -0.5570 -0.6167
 1707SOL    HW216584   4.232   2.515   2.423  0.5335 -0.5801 -0.5195
 1708SOL     OW16585   3.796   1.220   7.822 -0.0414 -0.0615 -0.3683
 1708SOL    HW116586   3.830   1.303   7.855  2.1582 -1.0048 -0.2324
 1708SOL    HW216587   3.865   1.161   7.854  1.5283  0.8414 -2.0783
 1709SOL     OW16588   0.580   4.273   5.136 -0.0158 -0.0704  0.3236
 1709SOL    HW116589   0.627   4.297   5.056  0.4677  0.6428  0.8168
 1709SOL    HW216590   0.560   4.361   5.169 -1.9485 -0.5312  0.3874
 1710SOL     OW16591   3.209   2.258   4.526  0.4271 -0.9079 -0.3257
 1710SOL    HW116592   3.261   2.338   4.536 -0.8990  0.2338 -2.4731
 1710SOL    HW216593   3.125   2.290   4.559  0.4172 -2.3437  1.0023
 1711SOL     OW16594   4.573   0.509   9.326  0.8070  0.1777 -0.3692
 1711SOL    HW116595   4.507   0.447   9.357 -0.8761  1.6906 -0.9082
 1711SOL    HW216596   4.530   0.590   9.352  0.5003 -0.0108 -0.2845
 1712SOL     OW16597   2.263   4.079   4.742  0.0924 -0.2586  0.1713
 1712SOL    HW116598   2.253   4.173   4.724  0.8278 -0.2152 -0.0519
 1712SOL    HW216599   2.344   4.055   4.696 -1.1128 -1.5840 -1.2591
 1713SOL     OW16600   3.970   3.788   6.081 -0.2870  0.0696  0.1719
 1713SOL    HW116601   3.877   3.811   6.086 -0.4907 -0.2141 -2.3033
 1713SOL    HW216602   3.973   3.742   6.164  1.2041 -1.7060 -0.8534
 1714SOL     OW16603   2.276   2.278   3.673 -0.1054 -0.0013 -0.4456
 1714SOL    HW116604   2.208   2.326   3.625 -1.3587  0.7275  2.0645
 1714SOL    HW216605   2.282   2.195   3.627  0.1234  0.0542 -0.5151
 1715SOL     OW16606   4.089   1.907   0.633 -0.0126 -0.0363 -0.5986
 1715SOL    HW116607   4.143   1.867   0.565  0.4683  0.1039 -0.2920
 1715SOL    HW216608   4.037   1.946   0.562 -0.9981 -1.4485 -0.6718
 1716SOL     OW16609   3.187   1.816   0.775 -0.5038  0.0549 -0.3470
 1716SOL    HW116610   3.148   1.858   0.699  1.6142 -0.1287 -1.5322
 1716SOL    HW216611   3.280   1.815   0.752  0.1979 -1.1864  2.4988
 1717SOL     OW16612   3.945   1.850   7.757 -0.4016 -0.0047  0.4961
 1717SOL    HW116613   3.858   1.871   7.791 -1.0245  1.2777 -1.8946
 1717SOL    HW216614   3.905   1.805   7.682  1.3356 -2.6186  1.1200
 1718SOL     OW16615   2.797   4.204  12.838  0.2861  0.5689  0.3538
 1718SOL    HW116616   2.843   4.284  12.811 -0.8049  1.7328  1.8954
 1718SOL    HW216617   2.869   4.176  12.895  0.5269 -0.5484 -0.5089
 1719SOL     OW16618   1.684   1.608   2.378 -0.3366 -0.4941 -0.4307
 1719SOL    HW116619   1.742   1.627   2.304 -0.3017 -0.9667 -0.5215
 1719SOL    HW216620   1.652   1.520   2.361  1.5003 -0.6472 -3.1422
 1720SOL     OW16621   3.926   2.360   6.610 -0.1751  0.0694 -0.4144
 1720SOL    HW116622   3.887   2.346   6.697  0.1710 -2.8584 -0.7276
 1720SOL    HW216623   3.876   2.309   6.547  1.5811  0.6624 -2.2628
 1721SOL     OW16624   0.064   2.512   7.785 -0.3988 -0.3758 -0.9919
 1721SOL    HW116625   0.139   2.561   7.751  0.4057 -1.0823 -0.2011
 1721SOL    HW216626   0.036   2.581   7.844 -0.6871  0.0756 -1.6489
 1722SOL     OW16627   0.053   0.178   2.241  0.7154 -0.3745 -0.3967
 1722SOL    HW116628   0.003   0.097   2.251  0.1477 -0.0237 -0.4260
 1722SOL    HW216629   0.043   0.185   2.146  0.7318  0.7105 -0.3083
 1723SOL     OW16630   3.782   2.563   6.289  0.3099 -0.1480 -0.2079
 1723SOL    HW116631   3.728   2.499   6.335  0.3731  3.0793  4.3118
 1723SOL    HW216632   3.868   2.566   6.330  0.3417  0.4022 -0.3122
 1724SOL     OW16633   0.768   1.528  17.381  0.2281 -0.2664  0.2786
 1724SOL    HW116634   0.858   1.502  17.359  1.2029  1.3496  2.3707
 1724SOL    HW216635   0.790   1.604  17.435  0.7285  0.0296 -0.3327
 1725SOL     OW16636   3.990   0.743   1.420 -0.4882 -0.2035 -0.2763
 1725SOL    HW116637   4.072   0.793   1.421 -0.9437  0.5525 -0.6634
 1725SOL    HW216638   3.980   0.727   1.327  0.4642  0.8268 -0.5714
 1726SOL     OW16639   1.776   3.931   4.635  0.5641  0.1500 -0.1284
 1726SOL    HW116640   1.780   4.026   4.637  2.3859  0.0712 -0.1548
 1726SOL    HW216641   1.789   3.909   4.543 -1.1818 -0.8337 -0.1471
 1727SOL     OW16642   2.446   1.013   5.451 -0.8323 -0.0048  0.2147
 1727SOL    HW116643   2.417   1.103   5.465 -0.1203  0.4942 -1.6030
 1727SOL    HW216644   2.364   0.963   5.445 -1.0168  0.5680 -2.1595
 1728SOL     OW16645   4.231   3.456   6.478 -0.4817 -0.3292 -0.3048
 1728SOL    HW116646   4.141   3.487   6.485 -0.5092 -0.2371 -1.0858
 1728SOL    HW216647   4.265   3.534   6.433 -2.4786 -0.8273 -2.6269
 1729SOL     OW16648   3.271   1.722   3.775  0.4727  0.7363  0.3685
 1729SOL    HW116649   3.366   1.710   3.780  0.7644  0.7703 -4.8246
 1729SOL    HW216650   3.271   1.800   3.719 -1.6670 -1.0283 -2.0515
 1730SOL     OW16651   1.247   0.831  14.291 -0.2686  0.6236  0.4287
 1730SOL    HW116652   1.202   0.900  14.243 -1.7723 -1.0920 -0.6281
 1730SOL    HW216653   1.191   0.821  14.368  0.5074 -1.6893  0.7006
 1731SOL     OW16654   3.313   1.695   7.694  1.1907 -0.2011 -0.3248
 1731SOL    HW116655   3.268   1.658   7.619  1.1474  2.8655 -1.7947
 1731SOL    HW216656   3.404   1.671   7.679  1.3400  0.6626 -0.7883
 1732SOL     OW16657   4.473   2.738   8.682  0.1543 -0.4975 -0.1366
 1732SOL    HW116658   4.399   2.679   8.670 -0.5210  0.6503 -1.4974
 1732SOL    HW216659   4.535   2.697   8.622  0.6148 -0.9658  0.6456
 1733SOL     OW16660   3.973   1.178   3.503 -0.6203 -0.0514 -0.0584
 1733SOL    HW116661   3.893   1.210   3.545 -0.6790 -0.8286  0.4184
 1733SOL    HW216662   3.974   1.203   3.411 -0.7738 -0.7772 -0.2570
 1734SOL     OW16663   3.207   2.113   7.902 -0.5388 -0.0105 -0.0499
 1734SOL    HW116664   3.118   2.102   7.867 -1.2721  1.8685  1.2538
 1734SOL    HW216665   3.218   2.207   7.914  0.4875  0.1454 -2.1293
 1735SOL     OW16666   1.767   3.242   9.280  0.0782 -0.1929 -0.0002
 1735SOL    HW116667   1.793   3.153   9.300  1.3295  0.4275  1.1160
 1735SOL    HW216668   1.852   3.287   9.281  0.0654 -0.1758  0.3532
 1736SOL     OW16669   3.751   1.789  12.198  0.8962 -0.1221  0.4045
 1736SOL    HW116670   3.729   1.881  12.188  0.8896 -0.3320 -1.6039
 1736SOL    HW216671   3.845   1.795  12.182  1.2195 -0.0093  2.3474
 1737SOL     OW16672   2.405   2.821   4.099 -0.1623 -0.2277  0.0053
 1737SOL    HW116673   2.429   2.914   4.108 -2.1656  0.3502 -0.7297
 1737SOL    HW216674   2.418   2.815   4.005  2.1197 -1.6263  0.3994
 1738SOL     OW16675   1.443   2.579   1.805  0.1525  0.0852 -0.8053
 1738SOL    HW116676   1.473   2.489   1.817 -0.8019 -0.0315  0.8694
 1738SOL    HW216677   1.512   2.629   1.763  0.0861  0.7904 -0.0737
 1739SOL     OW16678   2.957   0.445   8.597 -0.3683  0.0586 -0.4521
 1739SOL    HW116679   2.882   0.504   8.583  0.1895  0.7058 -0.6931
 1739SOL    HW216680   2.990   0.474   8.682  2.1456  0.5033 -1.6007
 1740SOL     OW16681   4.601   0.736   3.345  0.2853  0.0283  0.0094
 1740SOL    HW116682   4.619   0.772   3.432  0.9146 -0.3505  0.0300
 1740SOL    HW216683   4.687   0.698   3.330  0.5364  0.9143 -0.7877
 1741SOL     OW16684   4.682   1.570   8.046  0.1558  0.1877  0.0593
 1741SOL    HW116685   0.051   1.576   8.071 -0.1674  0.9647  1.0635
 1741SOL    HW216686   4.669   1.641   7.983 -0.3196 -0.1936 -0.2705
 1742SOL     OW16687   4.582   3.346   2.811 -0.0860 -0.4628 -0.2414
 1742SOL    HW116688   4.630   3.342   2.729  3.0432  2.7332  1.4004
 1742SOL    HW216689   4.507   3.290   2.792  0.3618 -0.3524 -2.3182
 1743SOL     OW16690   3.073   3.150   6.209  0.4390  0.3885 -0.3088
 1743SOL    HW116691   3.101   3.098   6.134  0.7218  0.9070 -0.5622
 1743SOL    HW216692   3.064   3.239   6.175  1.3540  0.5730 -0.0702
 1744SOL     OW16693   2.242   3.836   5.502  0.9967  0.5408 -0.6415
 1744SOL    HW116694   2.183   3.801   5.436 -0.3943  2.8022 -0.5879
 1744SOL    HW216695   2.329   3.803   5.478  0.3677 -0.9551 -0.8587
 1745SOL     OW16696   4.377   4.117   9.752  0.0143  0.9081  0.4617
 1745SOL    HW116697   4.414   4.102   9.665  1.3085  0.5518  1.0805
 1745SOL    HW216698   4.455   4.139   9.803  1.1418  0.3826 -1.0276
 1746SOL     OW16699   2.067   2.923   4.430  0.0029 -0.7923 -0.7468
 1746SOL    HW116700   2.034   3.001   4.385  1.4045  1.1786  1.6370
 1746SOL    HW216701   2.032   2.946   4.516  1.0980 -2.3463  0.0969
 1747SOL     OW16702   4.000   0.194   5.122  0.1707  0.2185 -0.1988
 1747SOL    HW116703   4.070   0.144   5.163  0.8765  0.7332 -0.7717
 1747SOL    HW216704   3.922   0.165   5.169  0.2459  0.8651  0.3337
 1748SOL     OW16705   3.547   2.919   4.713 -0.8634  0.0839  0.0950
 1748SOL    HW116706   3.544   2.832   4.752 -1.1165  0.2460  0.4408
 1748SOL    HW216707   3.559   2.904   4.619  2.0744 -1.1488  0.6608
 1749SOL     OW16708   4.185   1.499   6.985 -0.2074 -0.2519  0.2178
 1749SOL    HW116709   4.162   1.440   7.056  1.0901 -1.4970 -0.3866
 1749SOL    HW216710   4.262   1.538   7.027 -0.3827  0.2134  0.1064
 1750SOL     OW16711   3.498   1.166  12.024  0.2599  0.4034 -0.0908
 1750SOL    HW116712   3.506   1.140  11.933  0.7316 -3.3240  1.0109
 1750SOL    HW216713   3.589   1.187  12.044  0.7067  0.2981 -2.0001
 1751SOL     OW16714   2.921   4.058   8.369 -0.5793  0.6994 -0.0341
 1751SOL    HW116715   3.003   4.033   8.326 -0.2418  0.1053  0.9345
 1751SOL    HW216716   2.931   4.017   8.455  0.7434 -2.2014 -1.5551
 1752SOL     OW16717   0.347   1.021   5.535 -0.2301  0.4761  0.5319
 1752SOL    HW116718   0.365   0.928   5.528 -1.7258  0.1994  0.4826
 1752SOL    HW216719   0.433   1.059   5.515 -0.3660 -0.3301 -1.5469
 1753SOL     OW16720   4.406   4.066   6.081  0.0024  0.1138  0.1872
 1753SOL    HW116721   4.431   4.033   6.168  1.1947  0.5298  0.0023
 1753SOL    HW216722   4.339   4.000   6.062 -0.0142 -0.1658  1.2143
 1754SOL     OW16723   3.257   0.947   4.930  0.4967  0.5439 -0.0593
 1754SOL    HW116724   3.274   0.939   5.024 -3.5139 -2.1627  0.4498
 1754SOL    HW216725   3.167   0.916   4.925  0.7870 -0.4899  1.3285
 1755SOL     OW16726   3.704   0.728   3.660 -0.0262 -0.5254 -0.0110
 1755SOL    HW116727   3.616   0.707   3.628 -0.0238  0.2487 -0.5417
 1755SOL    HW216728   3.679   0.786   3.732 -1.8640 -0.8871 -0.3682
 1756SOL     OW16729   3.744   0.582   0.188 -0.0821  0.0950 -0.2564
 1756SOL    HW116730   3.760   0.674   0.168  1.2350 -0.1011 -0.1022
 1756SOL    HW216731   3.732   0.578   0.283  1.2111  1.4273 -0.0454
 1757SOL     OW16732   3.957   2.564  10.683 -0.5856  0.3405 -0.0845
 1757SOL    HW116733   3.995   2.494  10.736 -0.4869 -0.2130 -0.8851
 1757SOL    HW216734   3.923   2.508  10.612 -1.8018  1.2918 -0.2417
 1758SOL     OW16735   1.415   0.134   9.691  0.0389 -0.1208  0.5190
 1758SOL    HW116736   1.497   0.179   9.712  0.6865 -1.0168 -0.0804
 1758SOL    HW216737   1.363   0.158   9.767 -1.8034 -2.5661  0.0203
 1759SOL     OW16738   2.242   3.656   2.021  0.1502 -0.2000 -0.0607
 1759SOL    HW116739   2.303   3.583   2.013  0.5499  0.3103 -1.6594
 1759SOL    HW216740   2.265   3.689   2.108  0.8895  0.9519 -0.6862
 1760SOL     OW16741   0.277   4.382   8.661 -0.0645  0.3316 -0.7026
 1760SOL    HW116742   0.270   4.343   8.748  1.0759  1.3790 -0.1226
 1760SOL    HW216743   0.197   4.434   8.651 -1.0344 -0.4569  3.1590
 1761SOL     OW16744   0.078   3.172   1.960  0.2230  0.1138 -0.4496
 1761SOL    HW116745   4.711   3.204   1.966  1.5578  4.1028 -1.6408
 1761SOL    HW216746   0.120   3.253   1.989  0.6664  0.2101 -1.3650
 1762SOL     OW16747   1.007   0.962   6.855  0.2327 -0.7989 -0.2241
 1762SOL    HW116748   0.916   0.987   6.842  0.3335  0.2370  1.0552
 1762SOL    HW216749   1.049   1.011   6.785 -0.0509 -0.0191  0.1534
 1763SOL     OW16750   0.460   0.906  13.132 -0.0192 -0.3251 -0.1610
 1763SOL    HW116751   0.371   0.883  13.160 -0.5204  0.1844 -1.2971
 1763SOL    HW216752   0.441   0.966  13.059  1.1553  0.0031 -0.1889
 1764SOL     OW16753   3.428   2.898   7.228  0.0108 -0.2527 -0.0063
 1764SOL    HW116754   3.401   2.988   7.209  0.1692 -0.0781  0.6128
 1764SOL    HW216755   3.511   2.896   7.180  0.1781 -1.2278  0.3128
 1765SOL     OW16756   3.869   0.789   6.824  0.1945 -0.1474 -0.5316
 1765SOL    HW116757   3.802   0.774   6.758  0.4735 -1.6228 -0.4779
 1765SOL    HW216758   3.840   0.878   6.845  2.6777  0.8242 -1.1459
 1766SOL     OW16759   4.157   0.894   0.903 -0.4321  0.1194 -0.2186
 1766SOL    HW116760   4.145   0.939   0.987  2.3167 -1.1857  0.8959
 1766SOL    HW216761   4.077   0.920   0.858  0.0180 -0.8204 -1.5543
 1767SOL     OW16762   1.222   2.033  16.854  0.3776  0.9158  0.5476
 1767SOL    HW116763   1.203   1.943  16.826  1.5046  0.4957  1.1261
 1767SOL    HW216764   1.180   2.089  16.789 -0.6822 -2.0135 -1.2950
 1768SOL     OW16765   2.135   2.607   7.296 -0.3392 -0.4668  0.1728
 1768SOL    HW116766   2.185   2.529   7.318 -0.1252 -0.9309 -1.9752
 1768SOL    HW216767   2.050   2.578   7.261 -0.2553 -0.4853 -0.0140
 1769SOL     OW16768   1.413   2.745   2.890 -0.0233  0.3706  0.1037
 1769SOL    HW116769   1.328   2.744   2.934 -1.2476 -0.0868 -2.2268
 1769SOL    HW216770   1.404   2.666   2.835  0.5863  0.6426 -0.3865
 1770SOL     OW16771   0.168   2.562   3.091  0.2502  0.3605  0.1039
 1770SOL    HW116772   0.106   2.612   3.145  0.6134  1.3509 -0.4033
 1770SOL    HW216773   0.214   2.506   3.153  1.3241  1.6700  0.4837
 1771SOL     OW16774   1.787   3.983   6.573  0.3349 -0.1962  0.2971
 1771SOL    HW116775   1.791   3.935   6.490  2.5775  1.1590 -0.3897
 1771SOL    HW216776   1.714   4.040   6.552 -0.1742  0.2148  3.1573
 1772SOL     OW16777   2.756   1.944   8.338 -0.7442  0.0244 -0.2528
 1772SOL    HW116778   2.762   1.853   8.308  0.3196 -0.0609  0.2294
 1772SOL    HW216779   2.845   1.962   8.368  0.2155 -1.1940 -2.4204
 1773SOL     OW16780   1.286   4.267  17.633 -0.0985 -0.4962  0.1888
 1773SOL    HW116781   1.317   4.334  17.694  0.3280 -0.3388 -0.1960
 1773SOL    HW216782   1.193   4.269  17.654 -0.3157  1.7475 -0.9313
 1774SOL     OW16783   4.086   1.904   3.091  0.4966  0.3784  0.7459
 1774SOL    HW116784   4.070   1.834   3.154 -0.4919  1.1404  1.3251
 1774SOL    HW216785   4.165   1.872   3.046  1.8082  1.1496  2.5002
 1775SOL     OW16786   3.860   1.366   6.327 -0.0344  0.4587  0.2470
 1775SOL    HW116787   3.912   1.445   6.315 -0.1129  0.4262 -0.3040
 1775SOL    HW216788   3.776   1.404   6.352  0.3209  1.2322  0.2607
 1776SOL     OW16789   3.006   1.794   4.602 -0.4770  0.3220 -0.0967
 1776SOL    HW116790   2.920   1.757   4.622 -0.3838 -0.0748 -0.4364
 1776SOL    HW216791   2.974   1.831   4.519  2.5693 -1.3929 -2.0617
 1777SOL     OW16792   1.576   0.920   2.180  0.2894 -0.4247 -0.7053
 1777SOL    HW116793   1.574   0.993   2.242  1.0287 -0.6216 -0.4552
 1777SOL    HW216794   1.602   0.845   2.232 -0.9561  0.3278  1.0035
 1778SOL     OW16795   2.962   3.127   4.027  0.5536 -0.8859 -0.0748
 1778SOL    HW116796   2.903   3.093   3.960 -1.6625  0.6181  1.1121
 1778SOL    HW216797   3.006   3.196   3.976 -1.4673 -0.5486 -1.3502
 1779SOL     OW16798   0.199   2.966  14.532 -0.3433 -0.4416  0.7178
 1779SOL    HW116799   0.282   2.920  14.539 -0.4224 -0.5083  1.2736
 1779SOL    HW216800   0.226   3.057  14.519  0.0979 -0.5843  0.6321
 1780SOL     OW16801   3.546   3.328   8.889 -0.3233 -0.4168 -0.4481
 1780SOL    HW116802   3.545   3.287   8.975  0.7242 -0.8096 -0.6140
 1780SOL    HW216803   3.570   3.418   8.913  2.2875 -1.3194  0.3931
 1781SOL     OW16804   3.042   1.567   1.296 -0.2002  0.9376  0.5688
 1781SOL    HW116805   3.083   1.593   1.213 -2.0925 -0.6525 -0.8459
 1781SOL    HW216806   3.122   1.567   1.348  1.1984 -2.0530 -1.5976
 1782SOL     OW16807   1.567   3.938  15.528 -0.3869 -0.2284 -0.1196
 1782SOL    HW116808   1.576   3.951  15.434 -0.4699 -1.7842 -0.3449
 1782SOL    HW216809   1.647   3.887  15.544 -0.1097 -0.3673 -1.9464
 1783SOL     OW16810   1.232   2.221  12.795 -0.0465  0.5574  0.8414
 1783SOL    HW116811   1.156   2.171  12.825  2.7965 -2.6956  2.6907
 1783SOL    HW216812   1.286   2.149  12.762 -2.4840 -0.3162 -1.2490
 1784SOL     OW16813   2.700   1.469  11.669  0.6229 -0.5973  0.3743
 1784SOL    HW116814   2.714   1.503  11.581 -0.3313  2.4149  1.4109
 1784SOL    HW216815   2.766   1.515  11.720  0.9774  0.2637 -0.8788
 1785SOL     OW16816   2.881   3.433   4.514 -0.6125  0.5625  0.6027
 1785SOL    HW116817   2.796   3.418   4.474 -1.4543  0.7492  2.3205
 1785SOL    HW216818   2.844   3.438   4.602  2.2227 -3.8119  2.0100
 1786SOL     OW16819   1.091   4.496   9.352 -0.2955  0.0039 -0.0626
 1786SOL    HW116820   1.010   4.544   9.335 -0.5889 -0.6928 -0.6616
 1786SOL    HW216821   1.052   4.418   9.391  0.6303 -0.0675  0.7274
 1787SOL     OW16822   0.106   0.974  13.473 -0.7935 -0.3015  0.1828
 1787SOL    HW116823   0.176   0.978  13.538  1.7417 -0.0947 -2.5378
 1787SOL    HW216824   0.040   1.030  13.513 -1.5862  1.2234 -3.2493
 1788SOL     OW16825   1.146   0.294   3.635 -0.8293  0.0363 -0.0766
 1788SOL    HW116826   1.219   0.255   3.587 -2.4842 -0.4676 -2.1639
 1788SOL    HW216827   1.087   0.308   3.561 -0.3946 -0.0485 -0.4440
 1789SOL     OW16828   1.973   1.054  14.496  0.0690  0.2845 -0.0312
 1789SOL    HW116829   1.915   1.045  14.420  0.4210  0.3581 -0.3096
 1789SOL    HW216830   2.044   1.103  14.453  1.3790 -2.0858 -0.5524
 1790SOL     OW16831   4.599   3.336  13.046 -0.3319  0.2478 -0.3806
 1790SOL    HW116832   4.661   3.337  12.973 -0.0696 -1.6149 -0.1945
 1790SOL    HW216833   4.650   3.353  13.126  0.4033 -0.6064 -0.6621
 1791SOL     OW16834   0.734   2.028  16.243  0.0654 -0.6414  0.8080
 1791SOL    HW116835   0.644   2.062  16.250  0.7823  1.2991  0.7486
 1791SOL    HW216836   0.727   1.941  16.203  1.0877  0.9220 -2.8038
 1792SOL     OW16837   3.003   4.021  16.838  0.3123 -0.0300 -0.3996
 1792SOL    HW116838   2.994   4.051  16.929  1.2410 -0.2599 -0.2329
 1792SOL    HW216839   2.929   3.961  16.834  1.3140 -1.3162  0.5458
 1793SOL     OW16840   1.156   0.477   4.761  0.5071  0.0130 -0.1612
 1793SOL    HW116841   1.174   0.470   4.855 -0.2181 -0.9611 -0.0909
 1793SOL    HW216842   1.107   0.558   4.755 -1.4704 -1.1591  0.2795
 1794SOL     OW16843   0.553   3.066   6.793  0.5278 -0.3264 -0.3166
 1794SOL    HW116844   0.548   2.993   6.731 -2.3576 -1.2723  1.0241
 1794SOL    HW216845   0.600   3.133   6.743  1.3749  0.3458  1.3704
 1795SOL     OW16846   0.701   4.031   6.177  0.4275 -0.1297  0.3675
 1795SOL    HW116847   0.729   4.080   6.254 -1.6471 -3.0509  3.0053
 1795SOL    HW216848   0.626   4.085   6.152 -0.8832 -1.2912  1.7513
 1796SOL     OW16849   3.292   3.714   3.232 -0.5410 -0.1951  0.5459
 1796SOL    HW116850   3.270   3.645   3.169 -2.2284  1.3588 -0.5740
 1796SOL    HW216851   3.293   3.789   3.172 -1.3390 -1.3965 -0.9757
 1797SOL     OW16852   3.414   4.581  16.098 -0.2207  0.3927 -0.1671
 1797SOL    HW116853   3.435   4.670  16.069  0.3761  0.0179 -0.8898
 1797SOL    HW216854   3.382   4.540  16.017 -0.8134  0.1922  0.1693
 1798SOL     OW16855   1.812   2.263  10.761 -0.2033 -0.0928  0.3721
 1798SOL    HW116856   1.788   2.175  10.732 -0.3848  0.2889 -0.6198
 1798SOL    HW216857   1.749   2.312  10.709  0.2939  0.4042  0.2446
 1799SOL     OW16858   2.639   0.372   5.137  0.0736 -0.1286 -0.8656
 1799SOL    HW116859   2.714   0.340   5.088  1.5657 -0.7309  1.8138
 1799SOL    HW216860   2.608   0.434   5.070 -0.4119  2.9159  2.1613
 1800SOL     OW16861   3.384   2.502   0.476 -0.2339  0.0628  0.5151
 1800SOL    HW116862   3.432   2.564   0.421 -0.1537  0.4877  1.0704
 1800SOL    HW216863   3.307   2.482   0.423  0.9745  2.8730 -2.3107
 1801SOL     OW16864   3.525   0.649  16.313 -0.2037 -0.8246  0.1982
 1801SOL    HW116865   3.435   0.642  16.343 -0.2542 -0.4184  0.1441
 1801SOL    HW216866   3.585   0.672  16.384  1.2909  2.2446 -2.0189
 1802SOL     OW16867   3.293   3.257  11.107  0.0798  0.2893 -0.0892
 1802SOL    HW116868   3.266   3.263  11.016 -1.2356  1.1342  0.3486
 1802SOL    HW216869   3.388   3.251  11.100 -0.0463 -2.6259  0.6998
 1803SOL     OW16870   0.221   1.574   8.140  0.4132 -1.0573  0.1269
 1803SOL    HW116871   0.271   1.622   8.205 -1.3011  0.2506  0.4581
 1803SOL    HW216872   0.294   1.523   8.105 -1.3731 -1.6886 -2.7264
 1804SOL     OW16873   0.651   1.587   8.287  0.2040 -0.2676  0.8185
 1804SOL    HW116874   0.595   1.660   8.314 -0.6360 -0.7601  0.3931
 1804SOL    HW216875   0.618   1.510   8.333  0.8019 -0.4647  0.9102
 1805SOL     OW16876   0.434   2.338   9.192  0.2586  0.7890 -0.3057
 1805SOL    HW116877   0.365   2.374   9.136 -1.6061  1.1998  2.2585
 1805SOL    HW216878   0.385   2.286   9.256  1.1903  0.6571  0.3054
 1806SOL     OW16879   1.578   4.241   7.244  0.7707  0.1626  0.5148
 1806SOL    HW116880   1.649   4.195   7.288  1.2701  0.2584 -0.1859
 1806SOL    HW216881   1.606   4.332   7.254 -0.2936  0.5927 -0.4753
 1807SOL     OW16882   1.302   2.978   1.189  0.5573  0.0498 -0.0934
 1807SOL    HW116883   1.313   3.032   1.111  1.1194 -1.7591 -1.2815
 1807SOL    HW216884   1.209   2.955   1.186  0.9482 -1.5453 -0.3361
 1808SOL     OW16885   4.641   0.036   9.565 -0.1425 -0.2871  0.0570
 1808SOL    HW116886   4.554   0.069   9.588  0.1175  1.0290 -0.8268
 1808SOL    HW216887   4.653   4.682   9.620  0.0852  0.7689  1.4793
 1809SOL     OW16888   2.119   3.751   6.657  0.4145  0.5237  0.8388
 1809SOL    HW116889   2.106   3.660   6.683 -2.3801  0.4951 -0.5840
 1809SOL    HW216890   2.091   3.743   6.566 -0.3074  0.5357  1.0557
 1810SOL     OW16891   3.659   2.255   2.952 -0.0587 -0.4933 -0.5006
 1810SOL    HW116892   3.602   2.315   3.000  0.0591  0.2732 -1.3149
 1810SOL    HW216893   3.669   2.185   3.016  0.4926  0.2721  0.2647
 1811SOL     OW16894   1.607   0.402   6.037 -0.3683 -0.0306  0.7334
 1811SOL    HW116895   1.583   0.349   5.961  2.7986  0.4494 -0.6067
 1811SOL    HW216896   1.577   0.488   6.009 -1.5021 -1.0264 -1.0865
 1812SOL     OW16897   4.556   1.453   8.955  0.1125  0.2342  0.4556
 1812SOL    HW116898   4.504   1.444   9.034  1.5831  0.1908  1.4221
 1812SOL    HW216899   4.592   1.365   8.939 -2.5136 -1.5711  4.5384
 1813SOL     OW16900   2.386   2.979  15.977 -0.3923 -0.1586  0.4304
 1813SOL    HW116901   2.340   2.901  15.946 -1.7610  0.7425  0.1870
 1813SOL    HW216902   2.459   2.947  16.029  0.0155  2.6936  1.5889
 1814SOL     OW16903   3.237   1.634   4.544  0.2856 -0.3232 -0.0003
 1814SOL    HW116904   3.216   1.689   4.620 -2.9451  1.5482 -2.2688
 1814SOL    HW216905   3.222   1.705   4.482  2.4949  0.4622  0.3798
 1815SOL     OW16906   1.528   1.040  15.284  0.3070  0.0836 -0.0805
 1815SOL    HW116907   1.616   1.069  15.308  1.0390 -2.1082 -0.1217
 1815SOL    HW216908   1.488   1.123  15.310 -2.2092 -0.9168 -0.8080
 1816SOL     OW16909   1.558   2.494   2.192  0.0191 -0.2026  0.1272
 1816SOL    HW116910   1.633   2.460   2.144 -0.9235 -1.4173 -0.4723
 1816SOL    HW216911   1.548   2.584   2.162  0.5973 -0.6485 -1.4170
 1817SOL     OW16912   3.541   3.777   8.875 -0.1772 -0.0299  0.2927
 1817SOL    HW116913   3.573   3.855   8.920 -1.6231  0.6576  0.1108
 1817SOL    HW216914   3.590   3.700   8.903  0.0572  0.9510  2.5762
 1818SOL     OW16915   3.939   2.296   5.058 -0.2872  0.1734 -0.1564
 1818SOL    HW116916   3.930   2.378   5.010 -0.0113 -0.0959 -0.6638
 1818SOL    HW216917   3.849   2.264   5.055  0.7239 -2.5835 -0.8901
 1819SOL     OW16918   2.139   0.744   4.711  0.3321  0.4868 -0.1841
 1819SOL    HW116919   2.077   0.701   4.651 -0.7572  0.0164  1.2853
 1819SOL    HW216920   2.128   0.702   4.796  0.1002 -2.9953 -1.9143
 1820SOL     OW16921   1.596   3.940  13.002  0.4278  0.5928 -0.5929
 1820SOL    HW116922   1.623   4.010  12.943 -0.1478  1.5611  0.2893
 1820SOL    HW216923   1.598   3.970  13.094  0.5346 -1.0577 -0.0616
 1821SOL     OW16924   1.500   1.845   3.896 -0.0693 -0.4396 -0.4043
 1821SOL    HW116925   1.513   1.885   3.810 -2.9693  0.2466 -0.5207
 1821SOL    HW216926   1.413   1.807   3.884 -0.1573 -0.9559  1.8365
 1822SOL     OW16927   2.192   1.075   8.690  0.0244  0.5949 -0.5987
 1822SOL    HW116928   2.148   1.096   8.608  1.2169 -0.9460 -1.6218
 1822SOL    HW216929   2.138   1.089   8.768  1.8392  3.1179  0.2258
 1823SOL     OW16930   4.099   0.488  11.709 -0.0741 -0.1638  0.6912
 1823SOL    HW116931   4.124   0.455  11.796  1.4383  1.6708  0.9420
 1823SOL    HW216932   4.182   0.524  11.678 -0.6596  0.3211 -0.3366
 1824SOL     OW16933   3.537   4.571   0.671  0.0475  0.8031 -0.2517
 1824SOL    HW116934   3.617   4.593   0.624  1.5810  1.0882  2.4640
 1824SOL    HW216935   3.525   4.477   0.660 -1.5318  0.7964  1.5127
 1825SOL     OW16936   2.320   1.810   6.440  0.0109 -0.0547 -0.5914
 1825SOL    HW116937   2.273   1.887   6.408  0.4347  0.5585  0.2480
 1825SOL    HW216938   2.399   1.801   6.387  0.4223 -0.2122  0.0531
 1826SOL     OW16939   0.364   1.550  11.382 -0.5007 -0.1077 -0.3823
 1826SOL    HW116940   0.371   1.456  11.363 -2.0487 -0.0941 -1.0224
 1826SOL    HW216941   0.456   1.572  11.390  0.1268 -1.6299 -3.3014
 1827SOL     OW16942   2.690   1.213   7.233  0.3230 -0.7614  0.3569
 1827SOL    HW116943   2.643   1.285   7.274  1.6489  0.3365 -0.0545
 1827SOL    HW216944   2.771   1.220   7.284 -0.1532  3.5364  0.4773
 1828SOL     OW16945   2.940   4.707   0.150 -0.1973  0.0473  0.1357
 1828SOL    HW116946   2.924   4.673   0.238 -0.8618 -1.2208 -0.4900
 1828SOL    HW216947   2.882   0.059   0.163 -1.7543 -1.1021 -0.1751
 1829SOL     OW16948   3.480   1.952  14.536  0.1970 -0.4040  0.0848
 1829SOL    HW116949   3.458   2.037  14.573  1.2092  0.4963 -1.3723
 1829SOL    HW216950   3.575   1.961  14.526 -0.2070  0.9033 -2.5426
 1830SOL     OW16951   4.011   4.518   5.417 -0.2330 -0.3061  0.0601
 1830SOL    HW116952   3.926   4.524   5.462 -0.2246  0.4893 -0.0320
 1830SOL    HW216953   4.066   4.555   5.487 -0.2430 -1.1976  0.5339
 1831SOL     OW16954   1.687   2.293   3.485 -1.0198 -0.3147 -0.8762
 1831SOL    HW116955   1.753   2.240   3.530 -0.3457  0.7307 -0.6227
 1831SOL    HW216956   1.697   2.368   3.544 -2.4136 -0.1964 -0.7934
 1832SOL     OW16957   0.818   2.628   4.331 -0.0438  0.2989 -0.1884
 1832SOL    HW116958   0.833   2.618   4.425  1.0045  0.0374 -0.3921
 1832SOL    HW216959   0.806   2.540   4.297  1.7265  1.4666 -3.8253
 1833SOL     OW16960   4.077   3.023   6.570 -0.0282  0.1469  0.7891
 1833SOL    HW116961   4.097   3.073   6.649  0.9793  0.3386  0.4064
 1833SOL    HW216962   4.113   3.084   6.506  0.5187  0.6605  1.5809
 1834SOL     OW16963   4.456   2.783  11.533  0.1742 -0.1860 -0.4140
 1834SOL    HW116964   4.525   2.728  11.495  0.9460  0.9807 -0.7051
 1834SOL    HW216965   4.385   2.754  11.475  0.0077 -0.3859 -0.1070
 1835SOL     OW16966   3.576   3.422  12.095  0.2784 -0.1675  0.2716
 1835SOL    HW116967   3.506   3.488  12.095 -0.0405 -0.4880 -1.8287
 1835SOL    HW216968   3.654   3.476  12.105 -0.3910  0.4126  2.3440
 1836SOL     OW16969   0.673   3.383   3.252  0.1234 -0.5417  0.5204
 1836SOL    HW116970   0.726   3.452   3.210  0.2532 -0.6811  0.4527
 1836SOL    HW216971   0.594   3.436   3.258 -0.8876 -2.3542  2.7992
 1837SOL     OW16972   3.083   4.247   2.857 -0.0066  0.8175 -0.2198
 1837SOL    HW116973   3.003   4.297   2.840 -0.4681  0.8273  1.9124
 1837SOL    HW216974   3.068   4.182   2.789  0.1014  1.6324 -1.0234
 1838SOL     OW16975   0.824   1.715   4.275 -0.0588 -0.1708  0.8974
 1838SOL    HW116976   0.881   1.682   4.206 -4.1941 -0.8182 -2.2280
 1838SOL    HW216977   0.882   1.776   4.320 -0.2549  0.2126  0.6344
 1839SOL     OW16978   4.189   3.614   4.105 -0.6324 -0.0227  0.2901
 1839SOL    HW116979   4.136   3.634   4.182 -1.5023  0.5198 -0.4518
 1839SOL    HW216980   4.157   3.528   4.077  0.7826  0.5233 -3.0344
 1840SOL     OW16981   3.544   0.601   2.063 -0.2986 -0.3204 -0.1964
 1840SOL    HW116982   3.562   0.514   2.098 -1.7332 -0.3563  0.4408
 1840SOL    HW216983   3.456   0.588   2.029 -0.1894  1.1231 -1.0582
 1841SOL     OW16984   3.251   1.025   2.231 -0.4139 -0.2645 -0.2947
 1841SOL    HW116985   3.306   1.100   2.256 -1.8332  1.0701 -1.1787
 1841SOL    HW216986   3.235   0.988   2.318 -2.5530  0.4938 -0.3705
 1842SOL     OW16987   0.935   0.769   2.570  0.1453  0.3104 -0.5464
 1842SOL    HW116988   0.985   0.799   2.646  1.0011  1.8603 -1.7104
 1842SOL    HW216989   0.873   0.841   2.564  1.8974  1.9272  0.5532
 1843SOL     OW16990   3.655   3.568  10.784  0.2007 -0.5321 -0.3941
 1843SOL    HW116991   3.579   3.529  10.828  0.0083  0.8581  0.4740
 1843SOL    HW216992   3.707   3.487  10.783  0.1423 -0.5638 -1.2998
 1844SOL     OW16993   1.721   4.003  13.304 -0.5532 -0.0467 -0.4449
 1844SOL    HW116994   1.757   3.915  13.289 -1.5774 -0.5482  0.0186
 1844SOL    HW216995   1.640   3.969  13.342 -0.0007  1.1996  1.8128
 1845SOL     OW16996   3.898   2.323  15.687 -0.4462 -0.6586  0.2327
 1845SOL    HW116997   3.976   2.283  15.646  1.1807  1.0302  1.6933
 1845SOL    HW216998   3.837   2.330  15.614  0.4908 -1.9396 -0.7031
 1846SOL     OW16999   2.052   1.474  11.109 -0.0063  0.4985 -0.2061
 1846SOL    HW117000   2.059   1.471  11.204  1.3952 -1.3251 -0.3680
 1846SOL    HW217001   2.107   1.402  11.078  1.9412  1.9803 -0.2344
 1847SOL     OW17002   2.219   0.118   4.296 -0.2850 -0.3255  0.6220
 1847SOL    HW117003   2.153   0.169   4.344  1.2836  1.6052  0.7531
 1847SOL    HW217004   2.277   0.187   4.263  1.1396 -0.4288  2.8773
 1848SOL     OW17005   4.232   0.304   7.002 -0.1631  0.6323  0.4044
 1848SOL    HW117006   4.292   0.249   7.052 -2.1742 -2.1238 -0.2404
 1848SOL    HW217007   4.226   0.382   7.056  0.7890 -0.2280  1.7475
 1849SOL     OW17008   0.509   2.103   2.511 -0.4560 -0.4216 -0.5080
 1849SOL    HW117009   0.444   2.044   2.548 -0.4640 -0.6226 -0.8401
 1849SOL    HW217010   0.552   2.133   2.591 -1.4258 -1.9006  0.5596
 1850SOL     OW17011   1.387   3.548  10.625 -0.4273  0.6128  0.3498
 1850SOL    HW117012   1.356   3.457  10.630 -2.3636  1.1532 -2.0697
 1850SOL    HW217013   1.381   3.567  10.532 -0.1746  0.5091  0.3137
 1851SOL     OW17014   1.152   2.132  16.606  0.6289 -0.0982  0.0894
 1851SOL    HW117015   1.141   2.223  16.576 -0.1467 -0.2506 -0.1044
 1851SOL    HW217016   1.076   2.098  16.557  0.2238  1.3147 -0.2959
 1852SOL     OW17017   0.170   1.373  16.531  0.7338  0.1353  0.3836
 1852SOL    HW117018   0.230   1.352  16.603 -0.0516 -2.4282  0.3000
 1852SOL    HW217019   0.088   1.337  16.565 -0.0319  1.6081  0.0890
 1853SOL     OW17020   4.265   2.800   3.413  0.2529 -0.0967  0.3611
 1853SOL    HW117021   4.333   2.866   3.426 -0.4492  1.1409 -2.1596
 1853SOL    HW217022   4.251   2.815   3.319 -0.3891  0.6705  0.5795
 1854SOL     OW17023   0.096   0.763  12.428 -0.6500 -0.1536  0.2617
 1854SOL    HW117024   0.018   0.734  12.380 -0.2562  2.1374 -1.7825
 1854SOL    HW217025   0.161   0.693  12.420 -1.4723 -1.0725  1.6035
 1855SOL     OW17026   2.372   1.303   7.541 -0.1961  0.2254 -0.0148
 1855SOL    HW117027   2.393   1.364   7.611 -0.2977 -1.2688  1.3184
 1855SOL    HW217028   2.373   1.226   7.598 -1.9190  1.9627  2.3427
 1856SOL     OW17029   1.454   3.550  15.526  0.3310  0.4623 -0.4903
 1856SOL    HW117030   1.415   3.466  15.500 -0.2213  0.2140  1.0908
 1856SOL    HW217031   1.421   3.605  15.456 -2.1100  0.3787  0.5876
 1857SOL     OW17032   1.464   0.266   4.217 -0.1779 -0.0638 -0.2586
 1857SOL    HW117033   1.384   0.233   4.178 -1.2832  1.1160  1.0100
 1857SOL    HW217034   1.518   0.228   4.147  0.4030 -0.1360  0.2242
 1858SOL     OW17035   4.424   1.191   6.133  0.6356  0.2740 -0.0969
 1858SOL    HW117036   4.333   1.185   6.162  0.2634 -0.8259 -1.4974
 1858SOL    HW217037   4.403   1.217   6.043 -2.7890 -2.9815 -0.2522
 1859SOL     OW17038   3.675   0.931   5.878 -0.4255  0.6295  0.1065
 1859SOL    HW117039   3.607   0.979   5.830 -1.5996  0.5435  1.6512
 1859SOL    HW217040   3.732   1.002   5.906 -0.4680  1.1858 -1.2045
 1860SOL     OW17041   0.145   1.654  13.793 -0.3183  0.0340 -0.5311
 1860SOL    HW117042   0.183   1.740  13.778  0.6135 -0.6801 -2.3109
 1860SOL    HW217043   0.161   1.621  13.704 -3.1321 -1.0202 -0.6808
 1861SOL     OW17044   3.257   0.043  16.368  0.0577 -0.0819  0.7382
 1861SOL    HW117045   3.200   4.715  16.426  0.5709 -0.7746  0.6232
 1861SOL    HW217046   3.195   0.110  16.340 -0.1554  0.1891  1.8457
 1862SOL     OW17047   0.653   1.494  12.527 -0.3362 -0.0952 -0.1959
 1862SOL    HW117048   0.657   1.435  12.603  0.8823  0.5961  0.2640
 1862SOL    HW217049   0.603   1.572  12.551 -1.9130 -0.5982 -1.8666
 1863SOL     OW17050   3.303   2.880   1.219  0.3020  0.3385 -0.1951
 1863SOL    HW117051   3.321   2.806   1.161  2.2038  1.3346 -0.8571
 1863SOL    HW217052   3.356   2.849   1.293  0.4642 -1.3964 -1.0319
 1864SOL     OW17053   1.361   2.510   2.409  0.6102  0.3084 -0.4890
 1864SOL    HW117054   1.419   2.440   2.382 -2.1125 -1.8669 -0.7182
 1864SOL    HW217055   1.372   2.569   2.335  0.1896  1.2802  0.2144
 1865SOL     OW17056   0.587   4.533   7.402  0.5896 -0.7805  0.2673
 1865SOL    HW117057   0.572   4.461   7.463  0.7315 -0.4627  0.6709
 1865SOL    HW217058   0.683   4.538   7.408  0.4817  0.1068  1.0560
 1866SOL     OW17059   2.468   0.497   2.922  0.2719 -0.2060 -0.6888
 1866SOL    HW117060   2.432   0.529   2.839 -0.1350 -0.2953 -0.5481
 1866SOL    HW217061   2.392   0.481   2.978 -0.5686  2.6224 -1.0001
 1867SOL     OW17062   4.434   3.100   1.250  0.3929 -0.4330  0.6070
 1867SOL    HW117063   4.524   3.079   1.227  0.6232  1.0739  0.1482
 1867SOL    HW217064   4.382   3.086   1.171  0.9858 -2.3872  0.5558
 1868SOL     OW17065   1.571   3.543  17.065  0.2866 -0.0449 -0.4249
 1868SOL    HW117066   1.570   3.638  17.071 -1.0970  0.0006 -1.3730
 1868SOL    HW217067   1.479   3.518  17.055 -0.0731  1.3289 -0.5540
 1869SOL     OW17068   2.188   0.968   4.477 -0.1979 -0.0648  0.4066
 1869SOL    HW117069   2.102   0.930   4.489 -0.0804 -0.5862 -0.3992
 1869SOL    HW217070   2.169   1.024   4.402 -2.0048 -1.3535 -0.0910
 1870SOL     OW17071   2.679   2.954   3.967  0.6601 -0.5357  0.0969
 1870SOL    HW117072   2.722   2.894   4.028 -1.2267 -0.4167  1.5316
 1870SOL    HW217073   2.754   2.973   3.910  0.4510 -1.5141 -0.5063
 1871SOL     OW17074   4.560   1.841  10.523 -0.0611  0.1538  0.1287
 1871SOL    HW117075   4.589   1.775  10.586 -0.7864 -1.0071 -0.7263
 1871SOL    HW217076   4.526   1.913  10.576 -0.1879 -0.0310  0.2996
 1872SOL     OW17077   1.931   4.464  13.454  0.1518 -0.4270  0.3119
 1872SOL    HW117078   1.946   4.374  13.422 -0.3219 -0.1491 -0.6963
 1872SOL    HW217079   1.838   4.470  13.433 -0.4252 -3.1141  2.0240
 1873SOL     OW17080   0.538   0.332   5.830  0.6982 -0.5223 -0.4537
 1873SOL    HW117081   0.587   0.256   5.798 -2.0676 -1.7010 -1.8209
 1873SOL    HW217082   0.496   0.281   5.899  0.9925  1.7818  1.4229
 1874SOL     OW17083   1.623   0.052   5.803 -0.2073  0.1889  0.0520
 1874SOL    HW117084   1.653   0.068   5.892 -2.2945  0.0001  0.7972
 1874SOL    HW217085   1.703   0.014   5.767 -1.0034  0.0606 -1.6140
 1875SOL     OW17086   2.372   0.857   3.668  0.2623  0.1375 -0.6201
 1875SOL    HW117087   2.293   0.902   3.700  0.0770 -0.6759  0.0699
 1875SOL    HW217088   2.429   0.866   3.745 -3.2337  0.7372  1.9195
 1876SOL     OW17089   3.238   4.270   4.915 -0.3732  0.3124 -0.0399
 1876SOL    HW117090   3.292   4.207   4.868 -0.7294 -0.9868  1.3205
 1876SOL    HW217091   3.172   4.285   4.848 -2.2701 -0.7060  1.6146
 1877SOL     OW17092   4.006   2.106   5.588 -0.3362  0.0926 -0.0988
 1877SOL    HW117093   4.099   2.105   5.612 -0.1914 -0.6010 -0.6583
 1877SOL    HW217094   4.015   2.172   5.519  0.8868  1.4591  1.3650
 1878SOL     OW17095   3.696   0.422  11.646  0.1016 -0.1514 -0.1393
 1878SOL    HW117096   3.767   0.398  11.586  0.1279 -4.8841  1.7195
 1878SOL    HW217097   3.648   0.339  11.648 -2.4896  1.3637  0.5909
 1879SOL     OW17098   3.066   3.894   5.730  0.7918 -0.4051  0.2158
 1879SOL    HW117099   2.996   3.960   5.728  1.0600 -0.1081  0.7034
 1879SOL    HW217100   3.143   3.950   5.720 -1.3411  2.3591 -0.8898
 1880SOL     OW17101   0.468   3.173   9.211  0.2994 -0.0610  0.1183
 1880SOL    HW117102   0.468   3.132   9.298  0.1521  2.6213  1.4032
 1880SOL    HW217103   0.553   3.153   9.174 -0.7552 -0.6259 -1.9907
 1881SOL     OW17104   2.555   2.924  10.811  0.5216 -0.2502 -0.3896
 1881SOL    HW117105   2.512   2.846  10.846  0.1478  0.2309  0.2241
 1881SOL    HW217106   2.626   2.934  10.874  0.1145 -1.7577  0.2983
 1882SOL     OW17107   0.760   0.662   8.388 -0.1119 -0.2124 -0.3269
 1882SOL    HW117108   0.735   0.571   8.403 -2.0611  0.3954  0.0415
 1882SOL    HW217109   0.798   0.675   8.301  0.8423  2.2925  0.4684
 1883SOL     OW17110   2.760   3.446   3.697  0.1531 -0.1919 -0.2815
 1883SOL    HW117111   2.735   3.471   3.608  1.6276 -1.6178 -1.0843
 1883SOL    HW217112   2.855   3.446   3.686  0.2173  0.1946  0.2540
 1884SOL     OW17113   1.456   0.409   6.668 -0.1948  0.2916 -0.7805
 1884SOL    HW117114   1.495   0.456   6.742 -1.5179 -0.0326  0.1275
 1884SOL    HW217115   1.460   0.471   6.595  0.9480  0.9947 -0.1229
 1885SOL     OW17116   1.170   2.898  16.381 -0.1059  0.2843  0.0702
 1885SOL    HW117117   1.223   2.976  16.395  0.4142 -0.2169  0.8371
 1885SOL    HW217118   1.100   2.897  16.445 -1.0951  0.1959 -1.0096
 1886SOL     OW17119   1.903   2.917   6.045 -0.7664 -0.0983  0.3071
 1886SOL    HW117120   1.924   2.927   5.951 -0.6685  2.5709  0.6004
 1886SOL    HW217121   1.941   3.002   6.067 -1.2554 -0.0297  0.8848
 1887SOL     OW17122   2.123   0.473   0.586 -0.4924 -0.2505  0.5501
 1887SOL    HW117123   2.181   0.459   0.510  0.2911  0.3919  1.0346
 1887SOL    HW217124   2.069   0.535   0.538 -0.7236  0.2915  1.5418
 1888SOL     OW17125   2.537   4.353  12.617 -0.2034 -0.2681  0.4054
 1888SOL    HW117126   2.531   4.417  12.688 -0.2630 -0.8334  0.8992
 1888SOL    HW217127   2.485   4.394  12.548  1.9184  0.6401 -0.6764
 1889SOL     OW17128   3.633   1.504   4.008 -0.3053  0.3674  0.1816
 1889SOL    HW117129   3.669   1.494   4.096  1.7873  0.8099 -0.6155
 1889SOL    HW217130   3.653   1.415   3.979 -1.2479  0.5916 -1.1588
 1890SOL     OW17131   1.312   2.436   0.368  0.0945 -0.3757  0.4548
 1890SOL    HW117132   1.259   2.356   0.361 -2.0985  1.3523 -2.5652
 1890SOL    HW217133   1.388   2.413   0.314  1.0428  3.2269  0.2479
 1891SOL     OW17134   2.427   1.315   5.046  0.8676 -0.4148 -0.0214
 1891SOL    HW117135   2.442   1.401   5.085  0.7119 -1.6533  2.7799
 1891SOL    HW217136   2.335   1.319   5.021  0.7701  1.2878  0.6169
 1892SOL     OW17137   0.052   4.583   0.297  0.3778  0.3641 -0.2651
 1892SOL    HW117138   0.096   4.639   0.361 -1.8703  0.2954  1.3734
 1892SOL    HW217139   4.687   4.618   0.313  0.7241  1.3291 -0.4303
 1893SOL     OW17140   3.944   4.142  13.697 -0.2088  0.1233  0.2586
 1893SOL    HW117141   3.990   4.076  13.646  0.0156  0.3493  0.1671
 1893SOL    HW217142   3.973   4.226  13.662 -0.6632 -0.0980 -0.6339
 1894SOL     OW17143   0.920   1.118   6.050 -0.3002  0.4754 -0.5284
 1894SOL    HW117144   0.939   1.140   6.142 -3.7884  1.2896  0.0179
 1894SOL    HW217145   0.980   1.045   6.038 -0.6475  0.1169 -0.0790
 1895SOL     OW17146   1.391   2.536   8.298 -0.5820  0.0318 -0.3530
 1895SOL    HW117147   1.366   2.620   8.337 -0.7688  0.2940 -1.0330
 1895SOL    HW217148   1.312   2.496   8.260 -0.4387 -1.0130  0.4662
 1896SOL     OW17149   2.041   2.595   7.933  0.1068 -0.4752 -0.0291
 1896SOL    HW117150   2.020   2.606   8.026  2.5145 -0.9229  0.5890
 1896SOL    HW217151   2.108   2.663   7.928 -0.0321 -0.2265  1.4222
 1897SOL     OW17152   3.291   4.561   6.909  0.4109 -0.0565  0.1637
 1897SOL    HW117153   3.223   4.496   6.925  0.5235  0.0592  1.0984
 1897SOL    HW217154   3.253   4.626   6.968 -1.5745  0.5790 -1.8079
 1898SOL     OW17155   0.784   3.077   9.547  0.4482  0.7438 -0.3447
 1898SOL    HW117156   0.747   3.147   9.601  1.0670  1.2011 -0.5115
 1898SOL    HW217157   0.781   3.001   9.605  1.1025  2.0683  1.4046
 1899SOL     OW17158   0.454   3.194   4.648 -0.1477 -0.1176  0.1059
 1899SOL    HW117159   0.383   3.134   4.626 -0.5017  0.2756  0.1627
 1899SOL    HW217160   0.415   3.251   4.715 -2.3241 -2.5283  0.9021
 1900SOL     OW17161   1.876   2.116   1.760 -0.1494 -0.0193  0.4559
 1900SOL    HW117162   1.861   2.125   1.665 -0.2221  1.2276  0.5879
 1900SOL    HW217163   1.786   2.106   1.790 -0.5848  0.8148 -0.5515
 1901SOL     OW17164   2.681   1.209  11.814  0.3464 -0.1704 -0.3593
 1901SOL    HW117165   2.752   1.244  11.868 -1.0653 -1.2367  2.1897
 1901SOL    HW217166   2.692   1.260  11.734 -0.8509  2.5753  1.2649
 1902SOL     OW17167   3.799   2.993   5.722 -0.3182  0.6411 -0.1344
 1902SOL    HW117168   3.780   2.946   5.803  0.3264 -1.4725 -1.2084
 1902SOL    HW217169   3.862   3.055   5.757  0.9498 -1.5966  1.5357
 1903SOL     OW17170   2.171   3.574   3.942 -0.0211  0.3863  0.5294
 1903SOL    HW117171   2.152   3.589   3.849  0.0366  0.6082  0.5546
 1903SOL    HW217172   2.169   3.660   3.983 -2.1925  1.1259 -1.1452
 1904SOL     OW17173   2.406   4.188   5.585 -0.6808 -0.5335  0.5643
 1904SOL    HW117174   2.462   4.211   5.658 -1.9511  0.6672  1.1481
 1904SOL    HW217175   2.353   4.130   5.640  0.5931 -3.0469 -0.8229
 1905SOL     OW17176   2.728   1.305   8.447  0.0216 -0.0452 -0.4400
 1905SOL    HW117177   2.762   1.233   8.394  1.1273  1.2650 -1.5181
 1905SOL    HW217178   2.652   1.321   8.392 -0.1668  1.6325  0.3148
 1906SOL     OW17179   1.925   4.083   4.263 -0.1334 -0.5939  0.6734
 1906SOL    HW117180   1.999   4.131   4.300 -1.1144  0.7812  0.8742
 1906SOL    HW217181   1.875   4.159   4.234 -1.4491 -0.6290  2.8973
 1907SOL     OW17182   1.877   1.574  13.541 -0.0494 -0.0248  0.0477
 1907SOL    HW117183   1.956   1.568  13.487  0.3579 -0.1264  0.6548
 1907SOL    HW217184   1.858   1.482  13.556 -1.2908  0.2308 -0.0005
 1908SOL     OW17185   1.600   0.706   2.375 -0.3804  0.4585  0.6834
 1908SOL    HW117186   1.676   0.751   2.412  0.0475 -0.2958  0.7264
 1908SOL    HW217187   1.586   0.649   2.451 -0.7167 -0.4005 -0.0217
 1909SOL     OW17188   1.785   1.204   3.434  0.3243  0.4769  0.3149
 1909SOL    HW117189   1.872   1.169   3.418 -0.3282 -1.8450  1.8254
 1909SOL    HW217190   1.733   1.139   3.387  0.0393  1.8283 -1.2674
 1910SOL     OW17191   4.052   0.417   6.193  0.5603  0.1740  0.2674
 1910SOL    HW117192   3.958   0.430   6.203  0.6869  0.4072  1.1361
 1910SOL    HW217193   4.077   0.358   6.264  2.2337 -0.8581 -1.1611
 1911SOL     OW17194   0.910   0.817   6.157  0.2496  0.3716  0.0994
 1911SOL    HW117195   0.832   0.807   6.212 -1.4702 -0.1087 -2.4049
 1911SOL    HW217196   0.966   0.741   6.173 -3.3342 -2.2706  0.1119
 1912SOL     OW17197   0.344   4.627   7.734  0.0937 -0.3475 -0.4175
 1912SOL    HW117198   0.381   4.638   7.822  2.2244  0.0804 -1.3623
 1912SOL    HW217199   0.319   4.536   7.747  1.3999 -1.3082 -4.4678
 1913SOL     OW17200   1.918   2.686   9.252 -0.0802 -0.2280 -0.2816
 1913SOL    HW117201   1.897   2.776   9.224  0.0130 -0.1661 -0.1506
 1913SOL    HW217202   1.948   2.705   9.341 -2.2877  0.0869  0.4194
 1914SOL     OW17203   1.125   0.145  16.348  0.7003  0.6537 -0.1915
 1914SOL    HW117204   1.071   0.072  16.379 -0.1141  1.2996 -0.0879
 1914SOL    HW217205   1.124   0.130  16.253  2.3287 -2.8666  0.3412
 1915SOL     OW17206   4.034   2.797   9.268  0.7466  0.3809  0.0777
 1915SOL    HW117207   3.964   2.817   9.330 -0.9347  0.5477 -1.8655
 1915SOL    HW217208   4.033   2.865   9.200  0.4457  0.4885  0.1908
 1916SOL     OW17209   4.578   2.590   2.873  0.1064  0.1503  0.0700
 1916SOL    HW117210   4.538   2.607   2.787 -3.8986  1.5999  2.1884
 1916SOL    HW217211   4.646   2.526   2.858 -1.8174 -1.9469  0.2711
 1917SOL     OW17212   2.376   3.381   3.881 -0.0578  0.2772 -0.2921
 1917SOL    HW117213   2.398   3.448   3.816 -0.4413  2.7678  2.2061
 1917SOL    HW217214   2.324   3.431   3.943 -0.0208 -0.0722  0.0184
 1918SOL     OW17215   3.950   0.157   6.349 -0.0134  0.1625  1.3814
 1918SOL    HW117216   3.984   0.210   6.421 -1.0718  1.2546  1.0688
 1918SOL    HW217217   3.866   0.199   6.331 -0.4342 -0.9987  0.5574
 1919SOL     OW17218   2.385   0.207   5.331  0.5292 -0.4756  0.6114
 1919SOL    HW117219   2.370   0.295   5.366  1.9389 -0.0504  0.1544
 1919SOL    HW217220   2.309   0.208   5.273  0.5161  1.9362  0.6543
 1920SOL     OW17221   1.660   2.020   5.532  0.1716 -0.0875 -0.2029
 1920SOL    HW117222   1.732   2.083   5.538  2.0255 -2.2789  0.1930
 1920SOL    HW217223   1.669   1.969   5.612 -1.6740 -0.1832 -0.0524
 1921SOL     OW17224   3.228   1.572  12.486 -0.4344 -0.1340 -0.0848
 1921SOL    HW117225   3.153   1.577  12.428  0.3474  1.5735 -0.9531
 1921SOL    HW217226   3.289   1.547  12.417 -0.8707  0.9124 -0.8391
 1922SOL     OW17227   1.573   4.128   6.538  0.5892 -0.4159  0.9259
 1922SOL    HW117228   1.530   4.107   6.455  0.7175 -1.2917  1.0787
 1922SOL    HW217229   1.607   4.215   6.519 -1.5325  0.2858  0.3044
 1923SOL     OW17230   2.139   2.893   7.000  0.0342 -0.1039  0.1695
 1923SOL    HW117231   2.170   2.803   7.005  2.0197  0.5428 -0.1434
 1923SOL    HW217232   2.104   2.898   7.089 -0.2723  0.8624 -0.0075
 1924SOL     OW17233   2.831   0.043   6.066  0.0586 -0.3277  0.0883
 1924SOL    HW117234   2.805   4.704   6.134 -1.9747  1.3334  0.8157
 1924SOL    HW217235   2.887   4.703   6.020  1.6691 -0.7804  2.6174
 1925SOL     OW17236   0.343   2.508  10.751  0.0993 -0.1553 -0.1065
 1925SOL    HW117237   0.285   2.487  10.824  0.0535 -0.3643 -0.2037
 1925SOL    HW217238   0.372   2.419  10.729 -0.1825 -0.2029 -0.2980
 1926SOL     OW17239   3.617   4.085   5.661 -0.3922 -0.0451 -0.2798
 1926SOL    HW117240   3.540   4.141   5.661 -0.7885 -0.5884  0.3642
 1926SOL    HW217241   3.625   4.052   5.750 -2.8062  0.4246  0.0954
 1927SOL     OW17242   2.365   3.932   5.174  0.2925 -0.3134  0.7233
 1927SOL    HW117243   2.336   4.000   5.114 -0.7911  0.0703  1.6843
 1927SOL    HW217244   2.284   3.893   5.206  0.1760 -1.7877 -1.3947
 1928SOL     OW17245   0.980   0.025  15.185 -0.3911 -0.1065  0.6954
 1928SOL    HW117246   0.905   4.691  15.171 -0.3378 -0.0551  0.1759
 1928SOL    HW217247   1.042   4.718  15.119 -3.2323 -2.5261 -0.8529
 1929SOL     OW17248   3.219   1.335  11.493 -0.4260 -0.4820  0.0378
 1929SOL    HW117249   3.184   1.250  11.468  1.6005 -1.7944  1.7729
 1929SOL    HW217250   3.141   1.361  11.542 -0.6699 -0.7832 -0.1886
 1930SOL     OW17251   2.817   3.381   2.785  0.3393 -0.4645 -0.2398
 1930SOL    HW117252   2.748   3.344   2.730  0.3098 -0.2986 -0.3142
 1930SOL    HW217253   2.765   3.449   2.828  0.5377  0.0948 -0.8889
 1931SOL     OW17254   0.229   3.366   2.282 -0.3828 -0.0867 -0.5371
 1931SOL    HW117255   0.215   3.432   2.350 -0.0268  0.7070 -1.2218
 1931SOL    HW217256   0.258   3.424   2.211 -2.1116  0.5191 -0.7525
 1932SOL     OW17257   1.487   3.928   6.689 -0.0802  0.4257  0.0566
 1932SOL    HW117258   1.572   3.914   6.731 -0.4463  1.2126  1.0667
 1932SOL    HW217259   1.514   4.009   6.646  1.9296 -0.4701 -0.3743
 1933SOL     OW17260   1.540   0.735   7.203  0.1582  0.2047  0.0925
 1933SOL    HW117261   1.617   0.683   7.181  0.4889  0.8835 -0.3482
 1933SOL    HW217262   1.575   0.790   7.272  0.4328  0.1966 -0.0385
 1934SOL     OW17263   1.324   1.547   2.480 -0.1262  0.1535  0.3312
 1934SOL    HW117264   1.258   1.523   2.415  2.0115 -0.5564 -1.5760
 1934SOL    HW217265   1.310   1.642   2.481 -0.3676  0.1011  1.4047
 1935SOL     OW17266   2.978   1.981   1.980 -0.1813 -0.3501 -0.0022
 1935SOL    HW117267   2.988   1.923   2.056 -0.1904  1.0086  1.0443
 1935SOL    HW217268   3.034   1.933   1.919 -0.5169  0.9825 -1.3273
 1936SOL     OW17269   3.814   2.632  14.043 -0.8029  0.6200  0.0554
 1936SOL    HW117270   3.832   2.719  14.007 -1.4725  0.5698 -0.4038
 1936SOL    HW217271   3.849   2.568  13.981  0.8407  1.4295  0.1382
 1937SOL     OW17272   4.153   3.804   2.762  0.2450 -0.0484 -0.3252
 1937SOL    HW117273   4.225   3.866   2.776 -1.5403  1.8761  0.2798
 1937SOL    HW217274   4.078   3.861   2.778  0.7126  0.3155  0.5641
 1938SOL     OW17275   1.532   4.607   1.842  0.1329  0.2832 -0.4463
 1938SOL    HW117276   1.470   4.544   1.806 -2.1014  2.0086  0.3568
 1938SOL    HW217277   1.476   4.683   1.856 -0.9747 -0.1636 -2.5399
 1939SOL     OW17278   2.479   3.755   9.171  0.6873  0.5565 -0.3178
 1939SOL    HW117279   2.423   3.689   9.131  0.9697 -0.4163  0.8527
 1939SOL    HW217280   2.424   3.833   9.173  1.4190  1.0810 -0.8174
 1940SOL     OW17281   0.240   0.076   4.136  0.2581 -0.2559  0.4200
 1940SOL    HW117282   0.150   0.042   4.136  0.8673 -1.8641 -2.6263
 1940SOL    HW217283   0.241   0.114   4.224  0.1590  1.0985 -0.1709
 1941SOL     OW17284   1.445   4.152   2.450  0.5302  0.8941  0.5032
 1941SOL    HW117285   1.525   4.155   2.503  1.0087  3.2630 -0.3486
 1941SOL    HW217286   1.434   4.058   2.438  0.0490  1.0984 -0.6453
 1942SOL     OW17287   0.499   2.168  16.806 -0.2325 -0.0845  0.2168
 1942SOL    HW117288   0.453   2.108  16.865  0.7827 -2.1436 -1.0805
 1942SOL    HW217289   0.447   2.246  16.827 -0.2367  0.1999 -0.8458
 1943SOL     OW17290   2.624   0.960  11.425 -0.2794 -1.1806 -0.8483
 1943SOL    HW117291   2.545   0.936  11.472 -1.5026  1.9658 -1.3037
 1943SOL    HW217292   2.590   0.987  11.340 -1.1220 -1.0432 -0.4617
 1944SOL     OW17293   0.826   0.238   9.432  0.2077  0.3574  0.3921
 1944SOL    HW117294   0.794   0.222   9.343  0.9531 -1.2230  0.4004
 1944SOL    HW217295   0.899   0.176   9.428  0.0616  0.0568  2.3587
 1945SOL     OW17296   0.273   0.783  15.648 -0.1134 -0.3646 -0.7624
 1945SOL    HW117297   0.186   0.820  15.635  0.1012  0.4735  0.2105
 1945SOL    HW217298   0.306   0.839  15.719 -1.3806  0.3185 -0.7178
 1946SOL     OW17299   1.880   1.340   6.991  0.0742 -0.2979  0.0971
 1946SOL    HW117300   1.825   1.262   6.991 -0.1670 -0.1327  1.9853
 1946SOL    HW217301   1.960   1.299   6.958  0.7741 -0.2960  1.7580
 1947SOL     OW17302   0.600   3.733   3.821  0.5778 -0.0701  0.5907
 1947SOL    HW117303   0.641   3.792   3.758 -0.3082  1.0128  1.0297
 1947SOL    HW217304   0.601   3.786   3.900  0.8998 -1.2276  1.3588
 1948SOL     OW17305   0.092   2.603  14.810 -0.2541 -0.1071  0.2089
 1948SOL    HW117306   0.036   2.559  14.874 -1.6424 -0.0378 -0.9670
 1948SOL    HW217307   0.063   2.694  14.809  1.3416  0.4242  1.7158
 1949SOL     OW17308   1.511   1.419  10.620 -0.0537 -0.0457  0.2085
 1949SOL    HW117309   1.469   1.386  10.541 -0.6691 -0.7615  0.8258
 1949SOL    HW217310   1.465   1.502  10.635 -1.5065 -0.7018 -0.6102
 1950SOL     OW17311   2.199   3.055  16.712 -0.5224  0.1917 -0.2913
 1950SOL    HW117312   2.223   3.094  16.796  0.2364 -3.3598  1.1673
 1950SOL    HW217313   2.131   2.992  16.736 -0.9507  0.2153 -1.4347
 1951SOL     OW17314   1.259   3.932   8.237 -0.2111  0.2967 -0.3091
 1951SOL    HW117315   1.327   3.936   8.169  1.2161 -0.0110  1.0858
 1951SOL    HW217316   1.302   3.961   8.318  0.7290  0.7772 -0.9683
 1952SOL     OW17317   2.037   4.520   4.832 -0.3730 -0.0649  0.2648
 1952SOL    HW117318   2.083   4.522   4.748  0.5988  0.6444  0.8070
 1952SOL    HW217319   2.077   4.595   4.878  0.5816 -0.5719  0.2630
 1953SOL     OW17320   0.502   2.221  10.550 -0.3420  0.7009  0.1386
 1953SOL    HW117321   0.420   2.173  10.540 -0.8422  1.3303  1.2380
 1953SOL    HW217322   0.501   2.250  10.641  1.0043 -1.6187  0.8900
 1954SOL     OW17323   3.679   3.964   1.211 -0.4084  0.2286  0.1215
 1954SOL    HW117324   3.764   4.002   1.232  0.0864  0.7343 -2.8180
 1954SOL    HW217325   3.637   3.972   1.297 -4.1844  0.7587 -1.7492
 1955SOL     OW17326   4.259   1.646  12.600  0.3346  0.1772  0.3985
 1955SOL    HW117327   4.319   1.642  12.674 -0.4657  2.7490  1.1784
 1955SOL    HW217328   4.178   1.651  12.651 -1.3664 -0.3453 -2.2453
 1956SOL     OW17329   0.652   3.298  13.609  0.3789  0.2830  0.2112
 1956SOL    HW117330   0.707   3.221  13.620  2.4907  1.6486 -0.7531
 1956SOL    HW217331   0.698   3.359  13.550 -0.5960  0.8866  0.0741
 1957SOL     OW17332   2.517   3.355   6.921  0.0699  0.6740  0.5843
 1957SOL    HW117333   2.503   3.315   6.835  1.5477  0.4324  0.4628
 1957SOL    HW217334   2.610   3.371   6.906 -0.5529  2.6075 -1.2270
 1958SOL     OW17335   2.350   3.877   2.611 -0.3379  0.1405  0.5895
 1958SOL    HW117336   2.398   3.938   2.555 -0.8413  0.1192  0.1366
 1958SOL    HW217337   2.266   3.918   2.632 -0.2522  0.7548 -0.2817
 1959SOL     OW17338   4.656   4.095   7.233  0.4113  0.0963  0.5402
 1959SOL    HW117339   4.569   4.092   7.193  0.8640  0.0537 -0.4466
 1959SOL    HW217340   4.675   4.187   7.216  1.8361 -0.5665 -1.4198
 1960SOL     OW17341   0.916   1.365   8.284 -0.1232 -0.0433 -0.5355
 1960SOL    HW117342   1.001   1.381   8.324 -0.3553 -0.9510  0.3059
 1960SOL    HW217343   0.877   1.448   8.311 -0.7114 -0.3782 -0.3691
 1961SOL     OW17344   3.457   4.680  12.401  0.0369 -0.2499  0.1193
 1961SOL    HW117345   3.403   4.601  12.405  1.4402 -1.0520  3.8412
 1961SOL    HW217346   3.515   4.653  12.330  0.3032 -1.0024  0.6267
 1962SOL     OW17347   3.939   0.159  14.970 -0.1613 -0.0489 -0.6334
 1962SOL    HW117348   3.983   0.208  14.900  1.5514 -1.6615 -0.6933
 1962SOL    HW217349   3.990   0.194  15.043 -0.7786 -0.3661 -0.0554
 1963SOL     OW17350   3.118   0.383  13.646 -0.1986 -0.6325  0.3950
 1963SOL    HW117351   3.138   0.366  13.738 -1.5641  0.9336  0.9817
 1963SOL    HW217352   3.055   0.454  13.656 -0.8692 -0.9852 -1.3378
 1964SOL     OW17353   4.622   2.719  12.689  0.4031 -0.2710 -0.3640
 1964SOL    HW117354   4.616   2.707  12.594 -0.1424  0.7996 -0.4651
 1964SOL    HW217355   4.586   2.807  12.697  0.8600 -0.1761  0.5481
 1965SOL     OW17356   1.874   0.884  11.801  0.3728  0.3455  0.4343
 1965SOL    HW117357   1.882   0.819  11.871 -1.6824 -2.1939 -1.7028
 1965SOL    HW217358   1.810   0.850  11.738  1.4583  0.5614 -0.7848
 1966SOL     OW17359   4.587   3.543   6.506 -0.4711 -0.4078  0.0794
 1966SOL    HW117360   4.546   3.520   6.423 -1.7381 -1.4470  0.9912
 1966SOL    HW217361   4.525   3.601   6.552 -2.4615 -1.1552 -1.6455
 1967SOL     OW17362   0.989   4.433   4.858 -0.0177 -0.2055  0.2972
 1967SOL    HW117363   1.053   4.431   4.787  0.0023  0.7145  0.2904
 1967SOL    HW217364   1.016   4.350   4.898 -0.0336  0.6553  2.0778
 1968SOL     OW17365   1.322   3.630   9.381  0.8793 -0.5350 -0.2557
 1968SOL    HW117366   1.353   3.690   9.313 -2.9282  2.9319  1.0410
 1968SOL    HW217367   1.235   3.607   9.348  0.8254 -1.2314  0.3851
 1969SOL     OW17368   1.698   1.823  13.432  0.0878  0.2241  0.5289
 1969SOL    HW117369   1.730   1.890  13.493  0.3174  0.9285 -0.3746
 1969SOL    HW217370   1.726   1.743  13.477 -0.3921  0.6222  1.5373
 1970SOL     OW17371   2.136   4.250   8.172 -0.4777  0.4164  0.3110
 1970SOL    HW117372   2.129   4.189   8.245  0.5551 -1.1534 -0.8980
 1970SOL    HW217373   2.187   4.185   8.123  1.4652  3.1078 -1.2174
 1971SOL     OW17374   0.546   2.642   1.918  0.3840  0.6596  0.4263
 1971SOL    HW117375   0.524   2.550   1.909  0.3762  0.7709 -0.7171
 1971SOL    HW217376   0.555   2.656   2.012  1.3752 -1.8021  0.6812
 1972SOL     OW17377   2.091   1.286   8.094 -0.3028  0.6197 -0.0352
 1972SOL    HW117378   2.150   1.225   8.138  0.5162  1.9312  0.7033
 1972SOL    HW217379   2.114   1.373   8.127 -0.3140  0.0405  1.5118
 1973SOL     OW17380   0.144   3.088   5.918  0.1195  0.4319 -0.7058
 1973SOL    HW117381   0.185   3.085   5.832  1.4863 -0.4998 -0.0131
 1973SOL    HW217382   0.064   3.138   5.902 -0.9735 -0.1903  2.6818
 1974SOL     OW17383   2.329   0.174   3.938 -0.5622  0.4280  0.6826
 1974SOL    HW117384   2.296   0.262   3.920 -1.7148 -0.6342 -2.3940
 1974SOL    HW217385   2.366   0.194   4.024  0.8515  0.2622  0.1150
 1975SOL     OW17386   1.523   1.620   5.442  0.2569  0.2264 -0.2401
 1975SOL    HW117387   1.609   1.642   5.406  0.5220 -1.1960 -0.4887
 1975SOL    HW217388   1.484   1.706   5.429  1.2171  0.4631 -1.6612
 1976SOL     OW17389   2.891   2.718   6.432 -0.5175 -0.6191 -0.3142
 1976SOL    HW117390   2.863   2.671   6.511 -2.1533 -1.4967 -1.4136
 1976SOL    HW217391   2.985   2.699   6.438 -0.2011  0.4326 -2.0646
 1977SOL     OW17392   2.379   2.296   6.480  0.3485 -0.1048 -0.3638
 1977SOL    HW117393   2.411   2.386   6.481 -0.4972  0.1882  0.7141
 1977SOL    HW217394   2.358   2.289   6.573 -0.5880 -0.8755 -0.6272
 1978SOL     OW17395   3.247   2.737   2.487 -0.1217  0.0230  0.0568
 1978SOL    HW117396   3.290   2.673   2.431  1.9532  0.2567  1.4044
 1978SOL    HW217397   3.156   2.706   2.489  0.1561 -0.7067  1.1898
 1979SOL     OW17398   0.487   1.096   7.642  0.3713  0.3909  0.1091
 1979SOL    HW117399   0.576   1.082   7.610  0.5276  0.6757  0.4150
 1979SOL    HW217400   0.495   1.073   7.734 -2.9335  0.0706  0.3164
 1980SOL     OW17401   0.178   0.519   2.392  0.1777  0.3134  0.3228
 1980SOL    HW117402   0.263   0.562   2.406  1.2908 -2.1451  1.1122
 1980SOL    HW217403   0.136   0.588   2.341  0.5608 -0.0631 -0.5052
 1981SOL     OW17404   1.291   3.314   9.188  0.2755 -0.3393  0.3600
 1981SOL    HW117405   1.383   3.304   9.167  0.2479  1.6564 -0.6468
 1981SOL    HW217406   1.273   3.226   9.222  1.1382 -1.0259 -0.9786
 1982SOL     OW17407   3.156   4.588  10.577  0.1896 -0.7985 -0.3970
 1982SOL    HW117408   3.157   4.672  10.531  0.7125 -0.8061 -0.4004
 1982SOL    HW217409   3.063   4.591  10.599  0.0111  3.3449 -1.8293
 1983SOL     OW17410   0.612   1.421   9.568 -0.2265 -0.5641 -0.0215
 1983SOL    HW117411   0.569   1.428   9.654  1.3115 -0.9743  0.7840
 1983SOL    HW217412   0.692   1.470   9.587 -0.9063 -0.2156  1.9689
 1984SOL     OW17413   3.860   3.848  15.186 -0.1588 -0.1696  0.1811
 1984SOL    HW117414   3.794   3.779  15.197  1.6245 -1.5481  2.4203
 1984SOL    HW217415   3.844   3.903  15.263 -1.6278 -0.1930 -0.1096
 1985SOL     OW17416   4.054   4.342  14.910  0.0619 -0.1392  0.1685
 1985SOL    HW117417   4.040   4.435  14.927  2.9096  0.2886  0.1392
 1985SOL    HW217418   4.119   4.339  14.840 -0.6591 -0.2494 -0.4898
 1986SOL     OW17419   2.932   1.679   1.623 -0.2451 -0.1563 -0.3144
 1986SOL    HW117420   2.952   1.592   1.658 -0.3454 -0.0165  0.0863
 1986SOL    HW217421   2.837   1.688   1.635  0.1016  1.8603  0.8553
 1987SOL     OW17422   4.224   4.252   6.476  0.1528  0.4654 -0.2543
 1987SOL    HW117423   4.273   4.301   6.542  0.1680  0.6947 -0.4345
 1987SOL    HW217424   4.287   4.194   6.433  1.9281  1.4822  0.9897
 1988SOL     OW17425   1.251   1.565   5.924  0.5750  0.0440 -0.2357
 1988SOL    HW117426   1.328   1.562   5.981  2.7059  1.8239 -3.0253
 1988SOL    HW217427   1.193   1.496   5.957  0.8341 -0.5342 -0.9896
 1989SOL     OW17428   4.683   1.626  13.042 -0.2688 -0.3485 -0.3214
 1989SOL    HW117429   0.036   1.570  13.032 -1.0067 -1.3580 -0.3198
 1989SOL    HW217430   4.719   1.704  12.998  0.0908  0.3056  1.1466
 1990SOL     OW17431   3.091   1.757   4.857 -0.1120 -0.1530 -0.1465
 1990SOL    HW117432   3.063   1.770   4.767 -1.2337 -1.8587 -0.0525
 1990SOL    HW217433   3.049   1.676   4.885  0.7474 -0.4480  0.2752
 1991SOL     OW17434   0.225   2.419   3.993  0.0876 -0.4671 -0.9859
 1991SOL    HW117435   0.143   2.434   3.946  0.6426 -0.7217 -2.0143
 1991SOL    HW217436   0.198   2.376   4.074 -0.8799  0.4928 -0.7879
 1992SOL     OW17437   4.242   1.713  17.484  0.5863 -0.2484 -0.0276
 1992SOL    HW117438   4.200   1.640  17.439 -1.0299  1.2801 -0.9937
 1992SOL    HW217439   4.161   1.759  17.508 -0.2303 -1.0324 -1.2825
 1993SOL     OW17440   2.309   3.093   7.590  0.3731 -0.2561  0.5508
 1993SOL    HW117441   2.310   3.034   7.515  2.0412 -0.2411  0.5575
 1993SOL    HW217442   2.270   3.032   7.653 -0.3461 -1.6460 -1.2465
 1994SOL     OW17443   2.000   1.351   5.754 -0.1724 -0.5112  0.6228
 1994SOL    HW117444   2.007   1.306   5.838  0.3014  0.8190  1.2991
 1994SOL    HW217445   2.040   1.436   5.775 -0.6248 -0.6200  1.9251
 1995SOL     OW17446   0.741   0.434   8.014 -0.6152 -0.2501  0.5541
 1995SOL    HW117447   0.759   0.528   8.022 -0.3848 -0.1995 -0.5532
 1995SOL    HW217448   0.822   0.401   8.052  0.3163 -1.1458 -2.2389
 1996SOL     OW17449   0.886   3.970   5.313 -0.0331 -0.2762  0.3189
 1996SOL    HW117450   0.927   3.895   5.270  0.4417  0.8197 -1.1231
 1996SOL    HW217451   0.802   3.930   5.335  1.0314 -3.4641 -1.4004
 1997SOL     OW17452   4.235   2.578   3.078  0.3314 -1.2407 -0.0295
 1997SOL    HW117453   4.163   2.563   3.140  0.7184 -1.4066  0.3854
 1997SOL    HW217454   4.195   2.570   2.992 -1.2847  0.0453  0.5903
 1998SOL     OW17455   1.098   3.844   9.179  0.3509 -0.0031  0.4737
 1998SOL    HW117456   1.066   3.770   9.231  0.4443  0.7708  1.6117
 1998SOL    HW217457   1.016   3.892   9.181 -0.0147 -0.5092 -1.8090
 1999SOL     OW17458   0.312   1.516   6.293  0.8751  0.3322  0.2291
 1999SOL    HW117459   0.225   1.555   6.281  0.6481 -0.9094 -2.3706
 1999SOL    HW217460   0.366   1.572   6.237  3.1010 -2.6865 -0.6368
 2000SOL     OW17461   2.453   0.590   8.595  0.1429 -0.1993  0.2171
 2000SOL    HW117462   2.381   0.539   8.557  1.3075  0.5206 -2.9332
 2000SOL    HW217463   2.451   0.672   8.546 -2.1486 -0.7235 -0.5615
 2001SOL     OW17464   1.740   3.899   9.299 -0.7165  0.5127  0.6264
 2001SOL    HW117465   1.747   3.896   9.204  1.9778  0.1116  0.8380
 2001SOL    HW217466   1.655   3.856   9.307 -1.2415  1.1246 -1.6790
 2002SOL     OW17467   4.402   3.867  16.936 -0.3574  0.3440 -1.0838
 2002SOL    HW117468   4.344   3.929  16.980 -0.5775 -0.7122  0.0962
 2002SOL    HW217469   4.480   3.922  16.934 -0.4493  0.6172  2.4960
 2003SOL     OW17470   3.355   1.252   1.205 -0.6784  0.2144  0.0722
 2003SOL    HW117471   3.313   1.295   1.280 -0.5391 -1.4464  1.1101
 2003SOL    HW217472   3.326   1.160   1.208  0.6615 -0.2376 -1.1425
 2004SOL     OW17473   3.804   4.132   0.397 -0.3485 -0.1354 -0.5459
 2004SOL    HW117474   3.744   4.166   0.331 -0.7431  0.1730 -0.0185
 2004SOL    HW217475   3.762   4.152   0.480  0.1434 -0.4137 -0.2325
 2005SOL     OW17476   1.856   4.630   4.398  0.0830 -0.4213 -0.3180
 2005SOL    HW117477   1.763   4.610   4.397 -0.2938  1.3871 -1.6770
 2005SOL    HW217478   1.852   0.000   4.378 -0.5961 -0.9651 -2.7038
 2006SOL     OW17479   4.112   0.645  17.685 -0.0943 -0.1483 -0.2902
 2006SOL    HW117480   4.203   0.628   0.014  0.8546  2.8596 -1.6747
 2006SOL    HW217481   4.085   0.701   0.063 -0.9566  3.7911 -3.5879
 2007SOL     OW17482   2.193   0.384   5.840  0.2534  0.3270 -0.3096
 2007SOL    HW117483   2.159   0.370   5.929  0.4418  1.2469 -0.0962
 2007SOL    HW217484   2.263   0.446   5.860 -1.1085 -0.1131  5.9682
 2008SOL     OW17485   3.413   2.757   8.270 -0.2556  0.1021 -0.0569
 2008SOL    HW117486   3.390   2.832   8.323  2.7744  1.0562 -0.0675
 2008SOL    HW217487   3.492   2.737   8.321 -0.7527 -2.8646 -0.4484
 2009SOL     OW17488   2.371   0.270   8.291 -0.0056  0.5750 -0.3379
 2009SOL    HW117489   2.435   0.330   8.329 -0.5076  0.6454  0.3931
 2009SOL    HW217490   2.423   0.192   8.273 -0.5237  0.3140 -0.6947
 2010SOL     OW17491   1.102   2.099   7.675 -0.2231  0.0125 -0.3560
 2010SOL    HW117492   1.111   2.043   7.597  3.3661 -1.8067  1.3897
 2010SOL    HW217493   1.054   2.041   7.734  1.4321  1.6626  2.6007
 2011SOL     OW17494   2.795   4.245   4.484  0.2632  0.5011 -0.5935
 2011SOL    HW117495   2.862   4.182   4.511  0.6396  1.8174  1.5453
 2011SOL    HW217496   2.842   4.296   4.418  0.0695  0.6148 -0.6442
 2012SOL     OW17497   2.441   2.019   2.409 -0.2779  0.2915  0.0441
 2012SOL    HW117498   2.484   2.002   2.493  0.6093  1.9558 -0.0867
 2012SOL    HW217499   2.441   1.929   2.375  0.4469 -0.2493  1.4501
 2013SOL     OW17500   3.519   1.604  13.459  0.4160  0.1721 -0.0484
 2013SOL    HW117501   3.482   1.677  13.409  0.4845  0.5696  0.4854
 2013SOL    HW217502   3.448   1.605  13.523 -1.4265  0.3686 -2.0951
 2014SOL     OW17503   0.182   3.516  10.075 -0.0642  0.2417  0.4277
 2014SOL    HW117504   0.252   3.569  10.035  0.5891  1.6526  3.4484
 2014SOL    HW217505   0.113   3.570  10.036  1.0697  0.6270 -1.0616
 2015SOL     OW17506   0.976   2.305  11.977 -0.3513  0.5214 -0.2543
 2015SOL    HW117507   0.890   2.277  12.009  0.9924 -2.3391  0.7780
 2015SOL    HW217508   1.028   2.318  12.056  0.9034  1.7322 -1.2778
 2016SOL     OW17509   0.227   1.774  10.615  0.1370  0.0118  0.2400
 2016SOL    HW117510   0.175   1.801  10.690  0.7095  0.2702  0.5411
 2016SOL    HW217511   0.311   1.773  10.660 -0.0847 -2.0190  0.6111
 2017SOL     OW17512   1.260   0.153   7.951 -0.3147 -0.1394 -0.5789
 2017SOL    HW117513   1.257   0.234   7.899  2.9368 -0.3851 -1.1149
 2017SOL    HW217514   1.343   0.156   7.999 -0.0412 -1.6478 -0.9797
 2018SOL     OW17515   4.635   3.523   5.065  0.0462 -0.7233  0.1740
 2018SOL    HW117516   4.583   3.516   4.985 -2.3324 -3.3884  1.9500
 2018SOL    HW217517   4.690   3.444   5.071 -0.6055 -1.1962 -0.1067
 2019SOL     OW17518   0.534   4.264   2.986 -0.0183 -0.1009  0.0047
 2019SOL    HW117519   0.612   4.239   2.937  2.0388  0.1511  3.1424
 2019SOL    HW217520   0.575   4.329   3.043 -0.7128 -1.4877  2.0958
 2020SOL     OW17521   2.069   3.648  10.717 -0.1881  0.4289  0.0579
 2020SOL    HW117522   2.116   3.572  10.683 -1.9872 -0.9058  0.5393
 2020SOL    HW217523   2.138   3.710  10.738  0.1794 -0.2915  0.9618
 2021SOL     OW17524   4.486   3.161  11.758  0.0936  0.4228 -0.3560
 2021SOL    HW117525   4.494   3.112  11.840  1.5431  1.3273  0.0393
 2021SOL    HW217526   4.444   3.244  11.782 -2.5158 -0.5517 -1.4781
 2022SOL     OW17527   4.086   0.321  14.782  0.6779 -0.3109 -0.3657
 2022SOL    HW117528   4.138   0.402  14.788  1.0247 -0.6214  0.7495
 2022SOL    HW217529   4.066   0.316  14.689  0.8595 -0.4544 -0.3985
 2023SOL     OW17530   1.914   2.467  11.956  0.0132  0.1292 -0.5048
 2023SOL    HW117531   1.826   2.473  11.920 -0.1376 -1.2816 -0.3805
 2023SOL    HW217532   1.909   2.391  12.014  1.6158 -1.8647 -2.9582
 2024SOL     OW17533   4.045   1.282   4.655 -0.4883  0.5796  0.2136
 2024SOL    HW117534   3.985   1.229   4.708 -2.3609  1.0870 -1.3725
 2024SOL    HW217535   4.128   1.268   4.699 -1.0320 -0.8017  0.7951
 2025SOL     OW17536   2.140   0.139   3.699 -0.2109 -0.7271 -0.6609
 2025SOL    HW117537   2.061   0.192   3.713 -1.7525 -2.8114 -1.5157
 2025SOL    HW217538   2.190   0.180   3.769 -0.7909  0.9882 -1.2375
 2026SOL     OW17539   0.461   0.816  12.700 -0.1364  0.1234 -0.0343
 2026SOL    HW117540   0.472   0.731  12.657  0.1956  0.0278  0.2464
 2026SOL    HW217541   0.524   0.814  12.772  1.0634 -0.5952 -1.1116
 2027SOL     OW17542   2.729   3.643  16.263  0.3609 -0.0450  0.1289
 2027SOL    HW117543   2.679   3.576  16.216  1.2952 -0.4152 -0.3341
 2027SOL    HW217544   2.659   3.691  16.307  0.2386  1.0175 -1.2359
 2028SOL     OW17545   4.027   4.039   0.554 -0.3217  0.1089 -0.6412
 2028SOL    HW117546   4.025   4.134   0.556 -2.1354  0.0861 -1.0708
 2028SOL    HW217547   4.028   4.002   0.642 -2.1235 -1.2664 -1.1960
 2029SOL     OW17548   2.082   3.402   5.497 -0.0663  0.3262 -0.1629
 2029SOL    HW117549   2.154   3.391   5.434  1.1117  2.6327  0.7781
 2029SOL    HW217550   2.037   3.477   5.457 -0.5646 -0.6873 -1.5030
 2030SOL     OW17551   3.345   0.540   0.719 -0.1903  0.0654 -0.1420
 2030SOL    HW117552   3.302   0.604   0.776  2.1670  1.9964 -0.5707
 2030SOL    HW217553   3.292   0.460   0.723  0.2142 -0.3107 -2.5126
 2031SOL     OW17554   2.472   0.967   7.524  0.7909  0.9663  0.4270
 2031SOL    HW117555   2.431   1.025   7.589  1.1717  1.0354  0.6027
 2031SOL    HW217556   2.564   0.981   7.547  0.9683 -0.6897  0.7221
 2032SOL     OW17557   2.068   4.162   7.174 -0.0181 -0.2732 -0.2975
 2032SOL    HW117558   2.004   4.099   7.208 -2.2253  2.2716  0.2703
 2032SOL    HW217559   2.149   4.128   7.211  1.3021 -0.2262 -3.1520
 2033SOL     OW17560   0.796   3.624   5.536 -0.0808  0.2342  0.2159
 2033SOL    HW117561   0.763   3.668   5.458  1.2056 -0.9228 -0.9936
 2033SOL    HW217562   0.738   3.548   5.535 -0.8443  0.8267 -0.5618
 2034SOL     OW17563   3.075   3.073   5.637 -0.0285  0.3252  0.2613
 2034SOL    HW117564   3.003   3.116   5.591  0.9158  0.2539 -1.2931
 2034SOL    HW217565   3.029   3.029   5.708 -0.6718  0.6091  0.0139
 2035SOL     OW17566   0.265   4.438   3.099  0.3995 -0.1670 -0.0997
 2035SOL    HW117567   0.307   4.355   3.077  1.9522  0.4201  0.6440
 2035SOL    HW217568   0.251   4.476   3.013  0.2998 -1.6340 -0.7185
 2036SOL     OW17569   3.892   0.912   2.888  0.3089 -0.4163 -0.3055
 2036SOL    HW117570   3.953   0.859   2.940  1.2748  0.2951 -0.6992
 2036SOL    HW217571   3.896   0.874   2.801 -1.4359 -2.9581  0.7473
 2037SOL     OW17572   0.868   4.352  17.204  0.4770 -0.3814  0.3142
 2037SOL    HW117573   0.839   4.359  17.113 -0.1925 -0.6816  0.5063
 2037SOL    HW217574   0.897   4.261  17.211  1.0434 -0.1970  0.4186
 2038SOL     OW17575   0.911   4.359   7.811  0.2582 -0.4540 -0.4638
 2038SOL    HW117576   0.964   4.285   7.782 -0.4344  0.1168 -3.1794
 2038SOL    HW217577   0.896   4.342   7.904 -1.0091 -0.1737 -0.6213
 2039SOL     OW17578   3.546   2.532  14.245 -0.3358 -0.1431 -0.0122
 2039SOL    HW117579   3.479   2.472  14.212 -0.0448  0.5619 -1.8897
 2039SOL    HW217580   3.520   2.565  14.331  0.8264  0.5034  0.0907
 2040SOL     OW17581   0.897   3.134   0.226  0.6958 -0.1573 -0.0337
 2040SOL    HW117582   0.870   3.224   0.244 -1.5160 -0.8168  0.0681
 2040SOL    HW217583   0.973   3.151   0.171 -1.0796 -1.9262 -3.0548
 2041SOL     OW17584   0.460   1.485   7.190  0.3891  0.4157 -0.2452
 2041SOL    HW117585   0.522   1.448   7.254 -0.4232 -0.8896 -0.2055
 2041SOL    HW217586   0.381   1.433   7.205  1.1250 -0.6436 -0.0338
 2042SOL     OW17587   2.025   0.630   3.836 -0.2074 -0.7731  0.2477
 2042SOL    HW117588   2.080   0.702   3.867 -1.0580 -0.6443  1.4669
 2042SOL    HW217589   2.025   0.643   3.741 -0.3273 -0.3916  0.2985
 2043SOL     OW17590   2.615   1.548   8.949 -0.0797 -0.4776  0.1048
 2043SOL    HW117591   2.590   1.487   9.019  0.7094  2.0838  2.5946
 2043SOL    HW217592   2.655   1.495   8.881 -1.5313  0.7122 -1.6612
 2044SOL     OW17593   2.119   1.268   2.474 -0.4006  0.1924  0.1438
 2044SOL    HW117594   2.123   1.227   2.388 -0.6794 -2.6985  1.5378
 2044SOL    HW217595   2.186   1.215   2.517  1.2230  0.8463 -1.5720
 2045SOL     OW17596   0.558   3.994  11.587  0.0075 -0.2261  0.3894
 2045SOL    HW117597   0.535   3.901  11.584 -0.4860 -0.0328 -2.3578
 2045SOL    HW217598   0.570   4.013  11.680  1.0874 -1.6209  0.5352
 2046SOL     OW17599   0.652   1.746   6.426 -0.2383  0.3898  0.3312
 2046SOL    HW117600   0.669   1.666   6.375  2.0386  0.2449  1.3300
 2046SOL    HW217601   0.737   1.789   6.435 -0.5861  1.1544 -0.0440
 2047SOL     OW17602   1.570   0.276   4.995  0.8045 -0.6580  0.1847
 2047SOL    HW117603   1.643   0.254   4.938  0.3253  2.9297 -1.7899
 2047SOL    HW217604   1.500   0.286   4.931  1.7179  1.0283 -0.5515
 2048SOL     OW17605   1.813   1.266  10.685  0.1117  0.2192  0.1666
 2048SOL    HW117606   1.866   1.330  10.733  1.6184 -0.4470 -0.5851
 2048SOL    HW217607   1.771   1.226  10.761  0.4761 -2.5490 -1.0726
 2049SOL     OW17608   0.021   3.026   6.602 -0.2340 -0.2452  0.4631
 2049SOL    HW117609   4.711   2.955   6.658 -3.0016  2.3174  2.1079
 2049SOL    HW217610   4.667   3.068   6.565  1.1134 -0.5704 -2.7279
 2050SOL     OW17611   2.022   0.686  13.021  0.1867  0.0317 -0.2964
 2050SOL    HW117612   1.928   0.703  13.024  0.0370 -0.7183 -0.8882
 2050SOL    HW217613   2.024   0.611  12.962  1.6250  0.0114 -0.2286
 2051SOL     OW17614   2.522   0.958   3.450  0.7169  0.4093  0.4567
 2051SOL    HW117615   2.511   1.015   3.527  0.2296  0.3311  0.4499
 2051SOL    HW217616   2.429   0.938   3.436  0.3672  1.8539  0.6810
 2052SOL     OW17617   4.390   3.084   8.106  0.2078  0.1451  0.5525
 2052SOL    HW117618   4.446   3.138   8.161 -1.2922  2.7528 -0.4905
 2052SOL    HW217619   4.333   3.053   8.176  1.9612  0.0064  1.9152
 2053SOL     OW17620   2.054   0.860  12.151 -0.1924 -0.5891 -0.2601
 2053SOL    HW117621   2.064   0.940  12.100  2.2653 -0.7056  0.0456
 2053SOL    HW217622   1.977   0.880  12.204 -0.2662  0.6276 -0.8336
 2054SOL     OW17623   3.781   1.569   2.620  0.4586 -0.0918  0.8036
 2054SOL    HW117624   3.759   1.479   2.647 -1.1397 -0.0339 -0.2800
 2054SOL    HW217625   3.768   1.622   2.698  0.9276 -1.3947  1.7718
 2055SOL     OW17626   1.549   1.306   4.761 -0.2473 -0.4462 -0.2337
 2055SOL    HW117627   1.575   1.362   4.688 -1.4379 -0.6430 -0.8088
 2055SOL    HW217628   1.630   1.256   4.767 -0.0604 -0.1364 -0.1864
 2056SOL     OW17629   1.990   3.725   8.849 -0.6570 -0.4007  0.5135
 2056SOL    HW117630   1.899   3.703   8.830 -1.1534  0.1546  2.2102
 2056SOL    HW217631   2.015   3.658   8.913 -1.3732 -0.0720  1.1503
 2057SOL     OW17632   0.335   1.060   8.657 -0.7471 -0.5512 -0.3000
 2057SOL    HW117633   0.258   1.010   8.683  0.8486 -2.4128  0.8054
 2057SOL    HW217634   0.356   1.117   8.731  0.1222  1.4761 -2.1021
 2058SOL     OW17635   0.547   2.463   2.984 -0.2260 -0.3625  0.0232
 2058SOL    HW117636   0.622   2.404   2.996  0.2820  0.3048  0.1250
 2058SOL    HW217637   0.577   2.534   3.040 -0.8344 -1.2013  1.3894
 2059SOL     OW17638   0.186   2.746  17.057 -0.3621 -0.0917  0.1025
 2059SOL    HW117639   0.172   2.839  17.074 -0.4783 -0.2840  1.0322
 2059SOL    HW217640   0.116   2.714  17.113  1.5777 -2.1290  1.3565
 2060SOL     OW17641   2.908   2.370   7.587  0.1191 -0.3858  0.0127
 2060SOL    HW117642   2.948   2.421   7.516  1.1623 -2.9306 -1.2423
 2060SOL    HW217643   2.951   2.405   7.665 -3.8225  0.3916  1.8485
 2061SOL     OW17644   0.677   3.381   4.548  0.4912  0.1534  0.7552
 2061SOL    HW117645   0.687   3.406   4.640  1.0307 -1.3800  1.1210
 2061SOL    HW217646   0.607   3.318   4.565  1.6688 -1.4015 -0.1806
 2062SOL     OW17647   3.303   2.371   5.818 -0.1638  0.0957  0.6619
 2062SOL    HW117648   3.237   2.405   5.879  0.9603 -1.5952  2.8486
 2062SOL    HW217649   3.382   2.420   5.838  0.0815 -0.0685  0.0662
 2063SOL     OW17650   2.705   1.473   2.444  0.0188 -0.2402 -0.4121
 2063SOL    HW117651   2.773   1.408   2.461  0.4896  0.7452  1.4074
 2063SOL    HW217652   2.758   1.551   2.429 -0.0580 -0.3626 -1.3780
 2064SOL     OW17653   3.368   4.104  11.921  0.2580 -0.8436 -0.0791
 2064SOL    HW117654   3.348   4.023  11.875 -0.4051  0.0633 -1.3955
 2064SOL    HW217655   3.457   4.126  11.892 -0.1341 -1.7320 -1.9632
 2065SOL     OW17656   0.095   0.738  17.466 -0.1264 -0.1021 -0.1218
 2065SOL    HW117657   0.175   0.724  17.415  0.8464  2.8858  0.6367
 2065SOL    HW217658   0.099   0.833  17.467 -0.6655 -0.0622 -1.4912
 2066SOL     OW17659   1.702   3.837  12.708  0.6982  0.0142 -0.0294
 2066SOL    HW117660   1.777   3.893  12.689  0.9700 -0.7756 -1.2841
 2066SOL    HW217661   1.634   3.897  12.738  1.4497  0.8271  0.0539
 2067SOL     OW17662   3.882   2.952  13.392  0.0771  0.0158 -0.3531
 2067SOL    HW117663   3.859   3.038  13.358 -4.5545 -0.9551  0.3844
 2067SOL    HW217664   3.943   2.929  13.322  0.5906 -0.3706  0.2154
 2068SOL     OW17665   0.067   3.364  13.306 -0.0318  0.4578 -0.1629
 2068SOL    HW117666   0.067   3.359  13.402  0.3669  3.2460  0.0003
 2068SOL    HW217667   0.125   3.438  13.286 -1.8915  0.9686 -3.5554
 2069SOL     OW17668   2.411   2.027   7.987 -0.8364 -0.5647  0.0233
 2069SOL    HW117669   2.460   2.016   7.905  2.9430 -2.6826  2.5997
 2069SOL    HW217670   2.357   2.105   7.973  0.4091  0.7639  2.8334
 2070SOL     OW17671   0.318   1.093   4.571  0.1619 -0.5624  0.3380
 2070SOL    HW117672   0.228   1.083   4.541  0.2493  1.4812 -0.5910
 2070SOL    HW217673   0.307   1.086   4.666 -1.4835  0.1234  0.1896
 2071SOL     OW17674   3.782   2.162  13.399 -0.3454 -0.8764  0.1681
 2071SOL    HW117675   3.770   2.067  13.402  0.2922 -0.9281  1.0566
 2071SOL    HW217676   3.694   2.184  13.430 -0.4404 -0.4155 -0.4416
 2072SOL     OW17677   2.073   2.542   3.107  0.1516 -0.0755  0.0944
 2072SOL    HW117678   2.141   2.501   3.053  2.9122  3.0618  1.1644
 2072SOL    HW217679   1.996   2.501   3.068  1.0733 -2.3691  0.6610
 2073SOL     OW17680   1.844   1.991   2.458 -0.0967  0.7167  0.1996
 2073SOL    HW117681   1.936   1.996   2.485 -0.2206 -0.1531  0.7863
 2073SOL    HW217682   1.830   1.897   2.473 -1.0938  0.9779  0.9044
 2074SOL     OW17683   1.819   3.634   2.574  0.5370 -0.5762 -0.6894
 2074SOL    HW117684   1.758   3.646   2.501  0.8362  1.5564 -0.5878
 2074SOL    HW217685   1.902   3.604   2.538  0.7601  0.2717 -0.8725
 2075SOL     OW17686   3.533   3.150   9.120  0.2043 -0.5116  0.6177
 2075SOL    HW117687   3.507   3.066   9.157  0.9276 -1.5723 -1.3117
 2075SOL    HW217688   3.472   3.205   9.170 -3.2116 -1.8471 -2.0271
 2076SOL     OW17689   3.059   1.042   6.217  0.1742  0.0420  0.2476
 2076SOL    HW117690   2.966   1.064   6.224  0.5555  2.3402 -2.0172
 2076SOL    HW217691   3.059   1.016   6.126  0.1866  0.8413  0.0162
 2077SOL     OW17692   2.610   0.693   4.732  0.4331 -0.2994  0.3674
 2077SOL    HW117693   2.578   0.656   4.814 -0.7834  3.5283  1.6142
 2077SOL    HW217694   2.530   0.713   4.683 -0.0551 -0.7492  0.9782
 2078SOL     OW17695   0.897   1.246   6.958  0.0393  0.6111 -0.3616
 2078SOL    HW117696   0.843   1.184   6.908  0.1266  0.9852 -0.9221
 2078SOL    HW217697   0.929   1.171   7.009 -0.4184 -1.1805 -2.6829
 2079SOL     OW17698   2.016   0.976   4.814  0.2535 -0.3653  0.5854
 2079SOL    HW117699   2.042   0.920   4.741  0.5196  1.0324 -0.3727
 2079SOL    HW217700   2.104   1.013   4.820 -0.0246  0.4812 -0.5898
 2080SOL     OW17701   1.097   2.093   0.612  0.5848  0.1142  0.1879
 2080SOL    HW117702   1.050   2.174   0.593  1.5582  0.7484  0.4864
 2080SOL    HW217703   1.183   2.134   0.603  0.8311 -0.6504 -0.9508
 2081SOL     OW17704   2.742   0.451   7.746 -0.1075 -0.4216  0.0082
 2081SOL    HW117705   2.819   0.505   7.729 -0.1745 -0.4199 -0.2811
 2081SOL    HW217706   2.678   0.522   7.753  0.1669 -0.4030  2.4577
 2082SOL     OW17707   0.329   1.928   2.347 -0.6795  0.7722 -0.2307
 2082SOL    HW117708   0.370   1.919   2.433 -0.7190 -1.2589 -0.4222
 2082SOL    HW217709   0.405   1.948   2.292  0.2265  2.1356  1.5263
 2083SOL     OW17710   4.521   1.117   3.403 -0.0114  0.3909  0.2822
 2083SOL    HW117711   4.523   1.139   3.496 -1.3989  2.1958 -0.1225
 2083SOL    HW217712   4.429   1.093   3.395  0.1495  0.5325 -2.0355
 2084SOL     OW17713   3.147   4.067   2.644 -0.4183 -0.2268 -0.5282
 2084SOL    HW117714   3.166   4.133   2.578  0.0933  0.2427  0.0891
 2084SOL    HW217715   3.101   4.000   2.594 -0.1856 -1.0520  0.3424
 2085SOL     OW17716   2.822   0.090  10.160  0.0351 -0.0638 -0.9455
 2085SOL    HW117717   2.796   0.061  10.073 -2.0116  0.0522 -0.3768
 2085SOL    HW217718   2.768   0.045  10.225  2.6683 -1.0021  0.5875
 2086SOL     OW17719   3.200   3.639  10.158  1.2921  0.0697 -0.2583
 2086SOL    HW117720   3.151   3.567  10.119  1.0707 -0.2100  0.5431
 2086SOL    HW217721   3.126   3.673  10.208  1.2610 -0.3322 -0.0301
 2087SOL     OW17722   4.244   2.469  15.823 -0.2595 -0.2810  0.1503
 2087SOL    HW117723   4.192   2.464  15.743 -1.6447 -1.4823  1.1220
 2087SOL    HW217724   4.295   2.550  15.814  2.3273 -2.1246 -1.7502
 2088SOL     OW17725   4.697   3.566   1.321 -0.1687 -0.2807 -0.0132
 2088SOL    HW117726   4.625   3.502   1.324 -0.4065  0.0277  0.6793
 2088SOL    HW217727   4.713   3.566   1.226 -0.1661 -0.4989 -0.0138
 2089SOL     OW17728   3.506   3.511  14.525  0.2348  0.3191  0.4192
 2089SOL    HW117729   3.562   3.496  14.449 -0.7217  1.4739 -0.5281
 2089SOL    HW217730   3.439   3.572  14.494 -1.2355 -1.6844 -0.3649
 2090SOL     OW17731   4.321   2.719   2.071  0.2355 -0.5972 -0.2112
 2090SOL    HW117732   4.228   2.706   2.087 -0.0335  0.0616 -1.2641
 2090SOL    HW217733   4.329   2.815   2.068  0.6647 -0.6212 -0.0025
 2091SOL     OW17734   3.975   2.275   4.249  0.2243  0.2859 -0.1038
 2091SOL    HW117735   4.059   2.287   4.293 -0.5255 -0.1446  1.4622
 2091SOL    HW217736   3.950   2.182   4.254  1.4911  0.0349  1.4505
 2092SOL     OW17737   3.689   1.857   6.071 -0.7628 -0.1395 -0.0088
 2092SOL    HW117738   3.647   1.859   5.985  0.2514 -0.1177 -0.5046
 2092SOL    HW217739   3.730   1.771   6.068  1.8041  1.1323 -1.2719
 2093SOL     OW17740   2.467   1.757   3.479 -0.0692 -0.6914 -0.3538
 2093SOL    HW117741   2.488   1.816   3.552 -2.6428  0.1405 -0.3026
 2093SOL    HW217742   2.555   1.745   3.443 -0.0322 -0.3981 -0.3623
 2094SOL     OW17743   1.067   4.362   5.267  0.3094 -0.4587 -0.0350
 2094SOL    HW117744   0.974   4.339   5.266  0.5753 -1.4831 -0.7832
 2094SOL    HW217745   1.100   4.291   5.322  1.4998 -0.9849 -1.4427
 2095SOL     OW17746   2.609   4.554   4.462 -0.1070  0.2906 -0.6136
 2095SOL    HW117747   2.583   4.527   4.550  1.5290 -0.7739 -0.4511
 2095SOL    HW217748   2.557   4.634   4.453  0.1929  0.8910  2.9700
 2096SOL     OW17749   3.959   3.541   4.248  0.3642 -0.7552 -0.7582
 2096SOL    HW117750   3.921   3.500   4.171  1.5710  1.1829 -2.4109
 2096SOL    HW217751   3.920   3.627   4.229  2.3106 -0.0967 -1.7953
 2097SOL     OW17752   2.959   1.451   8.456  0.2614 -0.1747  0.2365
 2097SOL    HW117753   2.983   1.465   8.364 -1.3581  3.9936  0.4514
 2097SOL    HW217754   2.878   1.402   8.463 -0.7479  1.2155 -1.7261
 2098SOL     OW17755   2.763   2.676   1.678 -0.2409  0.1371 -0.2063
 2098SOL    HW117756   2.678   2.639   1.655 -0.6303  1.7504 -1.3863
 2098SOL    HW217757   2.812   2.594   1.686 -1.2062 -0.3245  1.0376
 2099SOL     OW17758   4.416   0.912   4.446 -0.5610  0.0299  0.2610
 2099SOL    HW117759   4.424   0.937   4.538 -0.4380 -1.0228  0.5350
 2099SOL    HW217760   4.451   0.824   4.458 -2.5912 -1.1073 -2.0101
 2100SOL     OW17761   0.920   1.590   5.050  0.0805 -0.0461  0.0983
 2100SOL    HW117762   0.842   1.636   5.082 -0.1586 -0.3145 -0.1048
 2100SOL    HW217763   0.885   1.502   5.037 -0.0185  0.1395 -0.8630
 2101SOL     OW17764   3.059   4.235   9.201 -0.3909 -0.1384  0.4801
 2101SOL    HW117765   3.034   4.216   9.291 -0.3268 -0.8947  0.3387
 2101SOL    HW217766   3.070   4.330   9.193  0.6677 -0.3070 -0.0653
 2102SOL     OW17767   3.461   3.854   4.515  0.2337 -0.2912  0.1836
 2102SOL    HW117768   3.536   3.794   4.518  0.0460 -0.5466 -0.2391
 2102SOL    HW217769   3.494   3.923   4.573  0.7595 -0.6523  0.3108
 2103SOL     OW17770   1.063   2.859   8.680 -0.6654  0.1493  0.1342
 2103SOL    HW117771   1.069   2.942   8.633  2.1194 -0.0132  0.2189
 2103SOL    HW217772   1.066   2.802   8.603 -1.3735  1.1633 -0.6483
 2104SOL     OW17773   4.122   4.152   8.877 -0.3363 -0.0763 -0.0332
 2104SOL    HW117774   4.045   4.133   8.930 -0.2324 -0.9925 -0.2161
 2104SOL    HW217775   4.147   4.070   8.834 -0.3292 -0.3892  0.5641
 2105SOL     OW17776   3.559   0.167  12.650  0.0128  0.9850 -0.3875
 2105SOL    HW117777   3.486   0.145  12.707 -0.3327  0.2423 -1.1060
 2105SOL    HW217778   3.597   0.240  12.699  3.2050 -0.8375 -0.0943
 2106SOL     OW17779   4.325   1.575   4.397  0.0480 -0.0166  0.6220
 2106SOL    HW117780   4.383   1.617   4.460  0.2281  1.3046 -0.4363
 2106SOL    HW217781   4.391   1.559   4.330 -0.3630  1.2463 -0.0823
 2107SOL     OW17782   2.917   1.699   6.083  0.1432  0.3391  0.6085
 2107SOL    HW117783   2.899   1.622   6.136  0.5748  0.3685  0.7937
 2107SOL    HW217784   2.974   1.669   6.012 -0.9202  0.2739 -0.2249
 2108SOL     OW17785   4.583   1.265  15.413 -0.4142  0.4530  0.0517
 2108SOL    HW117786   4.679   1.272  15.416 -0.5071  1.7258 -0.1908
 2108SOL    HW217787   4.560   1.275  15.505  2.5142  1.5427  0.6619
 2109SOL     OW17788   1.284   1.751   7.580  0.0017 -0.8434 -0.0081
 2109SOL    HW117789   1.341   1.803   7.523  0.0863 -0.5427  0.3577
 2109SOL    HW217790   1.340   1.742   7.657 -2.0896 -0.9987  1.4699
 2110SOL     OW17791   1.899   3.492   7.573 -0.0667 -0.3687 -0.5193
 2110SOL    HW117792   1.962   3.421   7.564  1.6121  1.0179  0.2526
 2110SOL    HW217793   1.825   3.439   7.603  1.6654 -0.7826  3.1154
 2111SOL     OW17794   1.267   0.312   7.177 -0.1554 -0.0055 -0.4527
 2111SOL    HW117795   1.359   0.333   7.191 -1.3214  2.7691  3.1487
 2111SOL    HW217796   1.240   0.369   7.104 -0.1127  2.0635  1.1484
 2112SOL     OW17797   0.244   1.432  13.332  0.0849 -0.6125 -0.1851
 2112SOL    HW117798   0.259   1.439  13.238  0.9717 -1.2649 -0.0996
 2112SOL    HW217799   0.239   1.336  13.333  2.2369 -0.7249  0.8700
 2113SOL     OW17800   0.555   3.346   8.575 -0.5336 -0.1087 -0.6027
 2113SOL    HW117801   0.589   3.268   8.619 -2.0649 -0.9560 -0.9119
 2113SOL    HW217802   0.494   3.363   8.647  0.8637  0.0920  0.5444
 2114SOL     OW17803   4.593   2.241   9.882  0.5420  0.4715  0.5617
 2114SOL    HW117804   4.542   2.239   9.963 -1.2374 -0.0232 -0.5803
 2114SOL    HW217805   4.677   2.283   9.901  0.7077  0.3032  0.1971
 2115SOL     OW17806   4.105   3.674   8.760  0.3578  1.1147  0.3251
 2115SOL    HW117807   4.164   3.603   8.734 -0.5871  0.2291  0.5588
 2115SOL    HW217808   4.028   3.625   8.791 -0.8686  0.5290 -3.5964
 2116SOL     OW17809   1.391   1.106  11.144 -0.7336 -0.3904  0.3487
 2116SOL    HW117810   1.383   1.021  11.101 -1.5340 -0.4599  0.6317
 2116SOL    HW217811   1.366   1.172  11.080 -1.5014 -0.8160  0.2086
 2117SOL     OW17812   4.126   2.230  15.557 -0.4230 -0.6882 -0.4237
 2117SOL    HW117813   4.067   2.190  15.493 -1.3119  0.3914 -0.2679
 2117SOL    HW217814   4.203   2.251  15.504  1.3892 -0.5448  2.3048
 2118SOL     OW17815   3.635   3.217   1.134 -0.3685  0.0027 -0.1187
 2118SOL    HW117816   3.692   3.229   1.059 -0.7881  1.0261 -0.2702
 2118SOL    HW217817   3.658   3.127   1.157  1.9368  0.9561  1.1888
 2119SOL     OW17818   2.401   2.928  10.175  0.0944 -0.1759  0.6167
 2119SOL    HW117819   2.353   2.942  10.256 -0.7025 -0.4857  0.2037
 2119SOL    HW217820   2.441   2.843  10.191 -2.8789 -1.7261 -0.0421
 2120SOL     OW17821   2.867   2.193   5.865 -0.5628  0.1772  0.2461
 2120SOL    HW117822   2.918   2.120   5.900 -0.0976  0.4979  0.2319
 2120SOL    HW217823   2.774   2.169   5.858 -0.1880 -1.1355 -0.1658
 2121SOL     OW17824   3.051   2.447  16.728 -0.2601 -0.7123  0.4568
 2121SOL    HW117825   3.025   2.498  16.652  1.7444 -0.6336 -0.1893
 2121SOL    HW217826   2.987   2.377  16.714 -0.8815  0.2210 -1.2154
 2122SOL     OW17827   1.942   2.798   0.738  0.1097  0.3223 -0.6089
 2122SOL    HW117828   1.860   2.848   0.739  0.3849  0.7434  0.5954
 2122SOL    HW217829   1.921   2.716   0.692 -1.5771 -0.5206  1.6628
 2123SOL     OW17830   1.559   0.655   0.579 -0.0157  0.3619  0.4316
 2123SOL    HW117831   1.487   0.596   0.600 -0.4563  1.2456  1.3553
 2123SOL    HW217832   1.601   0.671   0.664  1.7865  2.2883 -0.8110
 2124SOL     OW17833   3.933   4.319  17.299 -0.5371 -0.2189 -0.4758
 2124SOL    HW117834   3.898   4.389  17.354  0.1259 -0.5430  0.3600
 2124SOL    HW217835   3.958   4.256  17.367 -0.9273  0.3685  0.2043
 2125SOL     OW17836   4.665   1.148  13.654 -0.2578  0.0829  0.2642
 2125SOL    HW117837   4.636   1.227  13.609  1.2548  0.0173 -0.8013
 2125SOL    HW217838   4.683   1.178  13.744  1.3371 -3.0319  0.9665
 2126SOL     OW17839   4.441   4.630   7.333  0.0299  0.3225  0.4697
 2126SOL    HW117840   4.495   4.616   7.255 -0.4402  2.6179 -0.2647
 2126SOL    HW217841   4.417   4.722   7.327 -1.0574  0.0865  1.2380
 2127SOL     OW17842   1.751   3.365  11.040  0.5553  0.5674  0.6483
 2127SOL    HW117843   1.773   3.446  10.993  1.0085  0.1901  0.2242
 2127SOL    HW217844   1.832   3.343  11.085  0.9333 -0.8904 -0.7666
 2128SOL     OW17845   2.698   2.518  16.263 -0.0048 -0.0082  0.0786
 2128SOL    HW117846   2.613   2.522  16.307 -0.0318  1.6350 -0.1124
 2128SOL    HW217847   2.756   2.503  16.338  0.7520  0.4053 -0.4247
 2129SOL     OW17848   3.235   3.490   1.348  0.2546 -0.3268 -0.1652
 2129SOL    HW117849   3.276   3.406   1.329  0.9739  0.2934 -1.3140
 2129SOL    HW217850   3.277   3.530   1.272  2.1956 -0.4696  0.8508
 2130SOL     OW17851   3.586   1.627   5.343 -0.1478  0.0314  0.1369
 2130SOL    HW117852   3.675   1.658   5.361 -0.6310  1.0709  0.7000
 2130SOL    HW217853   3.551   1.695   5.285  1.5952 -0.9245 -2.0551
 2131SOL     OW17854   4.395   1.576   0.272 -0.3080  0.4419  0.0110
 2131SOL    HW117855   4.366   1.554   0.360  1.4964  0.0524  0.4946
 2131SOL    HW217856   4.316   1.556   0.221 -1.3712  2.9653  0.6777
 2132SOL     OW17857   2.638   2.219  12.350  0.7211 -0.0953 -0.1624
 2132SOL    HW117858   2.550   2.192  12.328  0.7925 -1.4750  1.2795
 2132SOL    HW217859   2.647   2.304  12.307  0.5816  1.2672  2.4636
 2133SOL     OW17860   0.500   0.633  17.552  0.2712 -0.2343 -0.0200
 2133SOL    HW117861   0.533   0.639  17.462  3.6393  1.7412  1.3966
 2133SOL    HW217862   0.565   0.682  17.602  2.2058 -2.8475  0.0428
 2134SOL     OW17863   0.899   0.237   4.039  0.0915 -0.3414 -0.2734
 2134SOL    HW117864   0.969   0.172   4.034 -0.0283 -0.2984 -2.6005
 2134SOL    HW217865   0.862   0.244   3.951  0.3285 -1.6951 -0.4795
 2135SOL     OW17866   0.322   1.670   4.733 -0.0471 -0.9257  0.0901
 2135SOL    HW117867   0.378   1.745   4.714 -1.3313  0.0440  0.0973
 2135SOL    HW217868   0.276   1.669   4.649 -0.1680  0.2379  0.1368
 2136SOL     OW17869   4.054   2.893   7.932 -0.2805  0.0233 -0.1038
 2136SOL    HW117870   3.984   2.935   7.982 -1.8042 -1.9983 -0.5271
 2136SOL    HW217871   3.998   2.847   7.868 -0.1705  0.8938 -0.8175
 2137SOL     OW17872   3.645   1.229   3.908 -0.0615  0.0033 -0.6327
 2137SOL    HW117873   3.554   1.215   3.936  0.5756  0.4366  1.6509
 2137SOL    HW217874   3.682   1.144   3.931 -1.4313 -0.4934 -0.2138
 2138SOL     OW17875   0.130   4.257   5.550  0.0496 -0.3906  0.1382
 2138SOL    HW117876   0.079   4.176   5.552  0.5741 -0.7240  0.1062
 2138SOL    HW217877   0.221   4.228   5.540  0.3487 -0.1670  2.0686
 2139SOL     OW17878   0.914   2.221   4.227  0.2353  0.0894  0.1006
 2139SOL    HW117879   0.922   2.292   4.163 -1.6637 -0.0073 -0.2586
 2139SOL    HW217880   0.941   2.255   4.312 -1.1670  1.7729 -0.1227
 2140SOL     OW17881   4.358   3.353  11.929  0.0640 -0.5766  0.3463
 2140SOL    HW117882   4.417   3.318  11.996  0.4611 -0.1352  0.2280
 2140SOL    HW217883   4.294   3.398  11.984 -0.7074 -0.1922 -0.8645
 2141SOL     OW17884   0.661   2.766   7.918  0.0699 -0.4733  0.1600
 2141SOL    HW117885   0.647   2.672   7.906 -3.5705  0.0129  0.5347
 2141SOL    HW217886   0.633   2.809   7.837 -0.8232  0.7651  1.1163
 2142SOL     OW17887   3.354   0.923   5.191  0.1991 -0.8238 -0.2842
 2142SOL    HW117888   3.421   0.872   5.236  3.1782  3.3124 -0.0376
 2142SOL    HW217889   3.277   0.907   5.247 -0.5400  0.2147 -0.9919
 2143SOL     OW17890   1.710   1.571   6.721  0.5811  0.0003  0.6845
 2143SOL    HW117891   1.645   1.621   6.673  2.5498 -0.0270 -1.9840
 2143SOL    HW217892   1.669   1.576   6.808 -2.9686  1.6521 -1.0923
 2144SOL     OW17893   0.085   2.840   2.924  0.3562 -0.3225 -0.1783
 2144SOL    HW117894   0.035   2.790   2.988  1.0740  1.9487  2.1395
 2144SOL    HW217895   0.019   2.889   2.874  2.4872  2.8234  0.1109
 2145SOL     OW17896   4.058   3.581  12.975 -0.3014  0.5328 -0.2738
 2145SOL    HW117897   4.074   3.676  12.977  0.4493  0.3911  0.4927
 2145SOL    HW217898   3.963   3.584  12.963 -0.1726  0.4763 -1.3399
 2146SOL     OW17899   0.387   0.228   6.346  0.6274 -0.3751 -0.1385
 2146SOL    HW117900   0.300   0.221   6.308 -0.0171  2.6728  0.7894
 2146SOL    HW217901   0.370   0.310   6.393  0.4538 -0.9923  0.8623
 2147SOL     OW17902   3.566   0.854   4.229 -0.4845 -0.9641 -0.0569
 2147SOL    HW117903   3.545   0.814   4.313  1.0133 -4.1788 -1.2430
 2147SOL    HW217904   3.657   0.881   4.241  0.4456 -4.0470 -0.1419
 2148SOL     OW17905   2.181   2.874   2.934 -0.5111 -0.3907 -0.0134
 2148SOL    HW117906   2.161   2.879   2.841  2.6142  1.7421 -0.5659
 2148SOL    HW217907   2.235   2.796   2.948 -0.7031 -0.4266  0.5704
 2149SOL     OW17908   2.893   3.142   6.592 -0.1778  0.0785  0.3766
 2149SOL    HW117909   2.982   3.124   6.559 -0.7130 -1.0018 -0.4927
 2149SOL    HW217910   2.863   3.208   6.529  1.1325 -0.2746 -0.6257
 2150SOL     OW17911   1.726   1.212   2.824  0.5794 -0.4907  0.5170
 2150SOL    HW117912   1.659   1.145   2.809 -0.6723  0.1249  3.5623
 2150SOL    HW217913   1.805   1.160   2.805  0.2602  0.3008 -2.9909
 2151SOL     OW17914   2.178   2.116  17.160 -0.0279 -0.2468 -0.2395
 2151SOL    HW117915   2.245   2.171  17.201 -0.0131  0.0045 -0.6055
 2151SOL    HW217916   2.203   2.112  17.068  1.1487 -0.9146  0.1116
 2152SOL     OW17917   2.278   0.803   3.382 -0.2354 -0.0962  0.1828
 2152SOL    HW117918   2.185   0.794   3.361  0.0389 -1.0531 -0.6556
 2152SOL    HW217919   2.285   0.785   3.476  1.1433 -2.1999 -0.3094
 2153SOL     OW17920   1.184   1.632   8.797 -0.0720 -0.0649 -0.1276
 2153SOL    HW117921   1.169   1.679   8.715 -0.3686  2.8330  1.5652
 2153SOL    HW217922   1.206   1.541   8.777  1.2491  0.0547  0.8349
 2154SOL     OW17923   0.302   1.059  13.644 -0.2279  0.1686  0.1306
 2154SOL    HW117924   0.393   1.056  13.614 -1.0013  2.1914 -2.4339
 2154SOL    HW217925   0.287   1.153  13.654 -0.1594  0.3384 -1.3378
 2155SOL     OW17926   1.553   0.318   9.066 -0.3328  0.1040 -0.0810
 2155SOL    HW117927   1.579   0.227   9.077  0.7460  0.1384 -2.4403
 2155SOL    HW217928   1.462   0.320   9.098  0.5575 -2.1993  2.5605
 2156SOL     OW17929   1.629   0.763  15.880 -0.4733  0.3520 -0.2995
 2156SOL    HW117930   1.547   0.778  15.928 -0.2098 -0.5119  0.4171
 2156SOL    HW217931   1.612   0.730  15.791 -0.9500 -1.1053  0.3347
 2157SOL     OW17932   4.160   1.571   4.631 -0.1984  0.4526  0.0493
 2157SOL    HW117933   4.205   1.604   4.553 -1.6588  2.2435 -0.0156
 2157SOL    HW217934   4.196   1.482   4.639 -0.7796  0.2470  0.3927
 2158SOL     OW17935   0.073   0.932   3.812  0.1738 -0.3993 -0.4546
 2158SOL    HW117936   0.142   0.891   3.865  0.6777 -0.4640 -1.1645
 2158SOL    HW217937   0.085   1.026   3.825  2.3144 -0.6800 -0.4359
 2159SOL     OW17938   2.840   3.338   8.116  0.2658 -0.4479 -0.6022
 2159SOL    HW117939   2.855   3.271   8.182 -3.0167  0.2642  0.8351
 2159SOL    HW217940   2.837   3.280   8.040  1.3887 -0.7842 -0.3921
 2160SOL     OW17941   4.066   4.044   8.357  0.4168  0.0343  0.4032
 2160SOL    HW117942   4.006   4.108   8.397 -0.9847 -0.8023 -0.3825
 2160SOL    HW217943   4.024   3.959   8.360  1.4268 -0.4667  0.4225
 2161SOL     OW17944   3.397   0.692   2.426  0.2431 -0.1973  0.7569
 2161SOL    HW117945   3.458   0.743   2.479  0.7864  1.3925 -1.3884
 2161SOL    HW217946   3.317   0.743   2.438 -0.8863 -2.0704  1.2510
 2162SOL     OW17947   4.689   4.279   8.624 -0.2585  0.4535 -0.0537
 2162SOL    HW117948   4.649   4.206   8.578  0.8958 -0.5860  0.6004
 2162SOL    HW217949   4.678   4.347   8.557  1.4494  0.1647 -0.6299
 2163SOL     OW17950   4.094   3.356   0.465 -0.5451 -0.0375 -0.5094
 2163SOL    HW117951   4.140   3.436   0.489  0.1188 -0.4994 -0.2398
 2163SOL    HW217952   4.163   3.289   0.467 -0.1764  0.4172  2.4558
 2164SOL     OW17953   4.556   3.140   3.086  0.2581  0.0008  0.0132
 2164SOL    HW117954   4.631   3.182   3.044  0.1541  0.4360  0.2629
 2164SOL    HW217955   4.565   3.186   3.170  0.2066 -1.3095  0.7476
 2165SOL     OW17956   3.632   0.303  12.317 -0.4529  0.5308 -0.4030
 2165SOL    HW117957   3.685   0.249  12.259 -1.2719  0.1538 -0.8011
 2165SOL    HW217958   3.686   0.379  12.338  0.5142 -0.6842  1.5239
 2166SOL     OW17959   1.055   4.687   5.719 -0.6200  0.0662 -0.5387
 2166SOL    HW117960   1.047   0.039   5.662  0.0283 -1.1532 -2.2414
 2166SOL    HW217961   1.005   4.622   5.670 -0.8688  0.6225 -1.0165
 2167SOL     OW17962   0.254   2.034  12.379 -0.4230 -0.0040  0.1879
 2167SOL    HW117963   0.207   2.061  12.458  0.0439  0.6762  0.2306
 2167SOL    HW217964   0.196   2.075  12.315  1.5254 -1.0928 -2.2418
 2168SOL     OW17965   4.339   1.616   6.214  0.9068 -0.6218 -0.2714
 2168SOL    HW117966   4.319   1.536   6.263  1.9193 -1.9313 -2.0233
 2168SOL    HW217967   4.341   1.678   6.287 -2.0109  1.9291 -2.3315
 2169SOL     OW17968   0.545   2.602   7.503 -0.0873 -0.3366 -0.3201
 2169SOL    HW117969   0.529   2.552   7.423  2.0738  2.0908 -2.2445
 2169SOL    HW217970   0.509   2.688   7.483  1.3576  1.0781  3.2561
 2170SOL     OW17971   2.857   2.671   8.170 -0.4989  0.3429  0.2335
 2170SOL    HW117972   2.805   2.699   8.245  0.0863  1.2546  0.3005
 2170SOL    HW217973   2.877   2.581   8.195 -1.0217  0.8230  2.3673
 2171SOL     OW17974   2.726   3.973  16.782  0.5744 -0.2666  0.0904
 2171SOL    HW117975   2.676   3.892  16.784 -0.9481  0.6977  0.5557
 2171SOL    HW217976   2.719   4.003  16.873  2.0196  1.7077 -0.4512
 2172SOL     OW17977   3.688   1.463  10.745  0.7133  0.3422 -0.0977
 2172SOL    HW117978   3.645   1.495  10.824 -0.4512  0.3306 -0.7184
 2172SOL    HW217979   3.654   1.378  10.718 -0.0027  1.4179 -2.5770
 2173SOL     OW17980   1.517   4.059   3.654  0.3830  0.3936 -0.2312
 2173SOL    HW117981   1.548   3.989   3.712  1.2737 -0.0867 -1.2982
 2173SOL    HW217982   1.522   4.024   3.566 -3.9662  2.6296 -1.3684
 2174SOL     OW17983   3.318   0.076   5.102  0.3491 -0.2650  0.3456
 2174SOL    HW117984   3.364   0.117   5.176 -0.1863  1.7702 -0.4605
 2174SOL    HW217985   3.240   0.036   5.141  0.9649 -1.1975  0.6257
 2175SOL     OW17986   4.105   0.103   1.822 -0.2530 -0.1237 -1.1384
 2175SOL    HW117987   4.161   0.044   1.772  3.2970 -0.1644  2.8324
 2175SOL    HW217988   4.171   0.166   1.851 -2.5244  1.0908  1.4198
 2176SOL     OW17989   2.467   2.723   3.432 -0.3012  0.1802 -0.2266
 2176SOL    HW117990   2.487   2.656   3.367 -0.4137 -1.3768  1.3271
 2176SOL    HW217991   2.489   2.671   3.509 -0.5080 -1.6624 -1.4164
 2177SOL     OW17992   0.503   0.574   3.431  0.3782 -0.2776  0.1894
 2177SOL    HW117993   0.503   0.664   3.399 -2.4291 -0.2308  0.3205
 2177SOL    HW217994   0.543   0.536   3.353  1.4405 -1.4278  1.2811
 2178SOL     OW17995   3.196   4.084   7.485 -0.2110 -0.4357  0.2878
 2178SOL    HW117996   3.161   4.122   7.566  1.1218  0.8698  0.2627
 2178SOL    HW217997   3.277   4.051   7.525  1.3796  0.5199 -2.1813
 2179SOL     OW17998   1.620   2.414   8.729  0.3678 -0.2283  0.0763
 2179SOL    HW117999   1.552   2.365   8.775 -2.0627  1.3152 -1.8750
 2179SOL    HW218000   1.580   2.501   8.721  0.9016 -0.2302 -2.7897
 2180SOL     OW18001   3.172   4.059  13.250  0.0312  0.1343  0.1896
 2180SOL    HW118002   3.091   4.100  13.278 -0.6044 -0.1828 -1.1993
 2180SOL    HW218003   3.234   4.081  13.320 -0.4038  0.1861  0.5585
 2181SOL     OW18004   0.132   1.865   4.950  0.3117 -0.1100  0.1333
 2181SOL    HW118005   0.096   1.790   4.997 -0.8116  1.6204  2.0580
 2181SOL    HW218006   0.227   1.852   4.945  0.1068 -1.4135 -0.3720
 2182SOL     OW18007   0.810   4.321  11.561  0.4094  0.5612 -0.1701
 2182SOL    HW118008   0.800   4.270  11.641  1.2391  1.3210  0.4109
 2182SOL    HW218009   0.742   4.387  11.551  0.8603  1.3379  1.9098
 2183SOL     OW18010   2.763   1.932   7.555 -0.2438  0.1060  0.7471
 2183SOL    HW118011   2.687   1.936   7.498 -0.0376 -1.4085  0.3742
 2183SOL    HW218012   2.823   1.997   7.517 -0.6964  0.6834  1.0160
 2184SOL     OW18013   0.552   3.630   8.173  0.4932  0.0741  0.1931
 2184SOL    HW118014   0.643   3.660   8.178  1.3313 -2.2319 -0.8724
 2184SOL    HW218015   0.498   3.704   8.198  1.5024  0.8294  0.1162
 2185SOL     OW18016   2.432   4.464   3.674 -0.1471 -0.6461  0.1129
 2185SOL    HW118017   2.440   4.558   3.689 -1.4538 -0.5943  0.5207
 2185SOL    HW218018   2.508   4.458   3.616 -0.8225  1.4596 -0.9904
 2186SOL     OW18019   1.214   0.492  16.033  0.1110 -0.5127  0.3639
 2186SOL    HW118020   1.231   0.537  16.116 -0.4093  0.2179  0.0704
 2186SOL    HW218021   1.249   0.557  15.971 -1.0561  0.6947  0.9740
 2187SOL     OW18022   0.606   1.865   8.464  0.2449 -0.4358  0.0770
 2187SOL    HW118023   0.537   1.876   8.530  0.1872  2.7271 -0.5263
 2187SOL    HW218024   0.668   1.806   8.506  0.9621 -0.3303 -0.8358
 2188SOL     OW18025   3.080   1.743   7.454 -0.3208 -0.3149 -0.2359
 2188SOL    HW118026   3.134   1.664   7.459  1.1818  0.7318  0.2905
 2188SOL    HW218027   3.002   1.716   7.405  1.1767 -1.9330 -1.7276
 2189SOL     OW18028   0.267   3.226   6.196  0.1243  0.4774 -0.4309
 2189SOL    HW118029   0.216   3.152   6.163  1.7590 -0.3452 -1.1227
 2189SOL    HW218030   0.226   3.299   6.150 -0.8314 -0.5926 -1.2802
 2190SOL     OW18031   0.276   4.277   4.682 -0.4028 -0.1176 -0.8390
 2190SOL    HW118032   0.309   4.220   4.751 -1.1823 -0.0685 -0.4197
 2190SOL    HW218033   0.184   4.283   4.709  0.9401  3.3923  2.9302
 2191SOL     OW18034   2.515   3.432   1.724 -0.0126  0.3903  0.4955
 2191SOL    HW118035   2.573   3.507   1.715 -1.2830  1.4590  1.3194
 2191SOL    HW218036   2.545   3.384   1.647  0.4882 -0.8203  1.4249
 2192SOL     OW18037   1.737   0.584   3.482  0.1468 -0.1825  0.7621
 2192SOL    HW118038   1.686   0.626   3.551 -0.2796 -1.6890  1.3691
 2192SOL    HW218039   1.747   0.654   3.417  1.2810  0.4556  1.6303
 2193SOL     OW18040   0.673   4.550   1.381 -0.2890 -0.0559  0.0351
 2193SOL    HW118041   0.734   4.477   1.368  0.7422  1.1477 -1.8420
 2193SOL    HW218042   0.595   4.507   1.347 -0.8465  0.9560  0.0244
 2194SOL     OW18043   0.286   1.882   8.524  0.1724  0.5518  0.2671
 2194SOL    HW118044   0.222   1.949   8.549 -0.9678 -0.8704  1.1368
 2194SOL    HW218045   0.291   1.819   8.595  2.0911  1.0481  0.5894
 2195SOL     OW18046   3.128   0.583   0.343  0.6524  0.1295  0.3852
 2195SOL    HW118047   3.202   0.549   0.291 -0.9650 -1.3827 -0.9139
 2195SOL    HW218048   3.176   0.627   0.413 -1.7462  2.7408  0.3920
 2196SOL     OW18049   3.456   2.774  13.018 -0.2811  0.3925 -0.3964
 2196SOL    HW118050   3.403   2.852  13.036  0.8026  1.2948 -1.1554
 2196SOL    HW218051   3.440   2.759  12.925  3.0328 -0.5810 -0.7983
 2197SOL     OW18052   2.552   2.125   6.729 -0.2774 -1.3645 -0.2918
 2197SOL    HW118053   2.491   2.098   6.797 -0.2365  0.3401  0.4211
 2197SOL    HW218054   2.633   2.084   6.761  0.5378  1.8934  1.8037
 2198SOL     OW18055   0.762   3.421   8.277  0.1803 -0.2664 -0.2812
 2198SOL    HW118056   0.763   3.325   8.269 -1.8045 -0.4226  1.2874
 2198SOL    HW218057   0.769   3.448   8.186  0.4136  1.0237  0.1202
 2199SOL     OW18058   0.609   0.861   1.408  0.2515 -0.7438  0.4560
 2199SOL    HW118059   0.607   0.922   1.334  0.2978 -0.2151  0.8878
 2199SOL    HW218060   0.566   0.921   1.470 -1.7958  1.7070 -3.3154
 2200SOL     OW18061   3.784   2.607   7.116  0.5330  0.0444  1.0445
 2200SOL    HW118062   3.864   2.565   7.084 -0.2391 -0.3831 -0.3274
 2200SOL    HW218063   3.808   2.698   7.136 -0.5465  0.7126 -0.6508
 2201SOL     OW18064   2.154   4.087   2.664 -0.3193  0.6778  0.2636
 2201SOL    HW118065   2.136   4.156   2.728 -0.4107 -0.6326  1.6590
 2201SOL    HW218066   2.069   4.095   2.621  0.8277  0.6987 -1.9878
 2202SOL     OW18067   2.008   0.476  14.952 -0.6997 -0.3121 -0.2541
 2202SOL    HW118068   2.094   0.447  14.985 -0.6128  0.6198  0.3304
 2202SOL    HW218069   1.975   0.525  15.027  1.6814  0.8080  0.0736
 2203SOL     OW18070   0.467   3.903   2.498 -0.1677 -0.1638 -0.3701
 2203SOL    HW118071   0.541   3.923   2.441  0.7700  1.0319  1.2618
 2203SOL    HW218072   0.401   3.919   2.430 -0.7215  3.3401  1.0359
 2204SOL     OW18073   1.334   3.340   0.464  0.5612 -0.4343  0.4626
 2204SOL    HW118074   1.363   3.261   0.509 -2.0523 -0.9061  1.2867
 2204SOL    HW218075   1.275   3.373   0.531 -0.4878 -0.8485 -0.2593
 2205SOL     OW18076   2.522   1.268   2.501 -0.2075  0.3183 -0.3986
 2205SOL    HW118077   2.556   1.229   2.581  0.4070  0.0518 -0.7835
 2205SOL    HW218078   2.573   1.350   2.502  1.1929 -0.5831  1.6214
 2206SOL     OW18079   4.701   3.409  15.093  0.3217 -0.1693 -0.4720
 2206SOL    HW118080   4.701   3.358  15.012 -1.3578  0.5158 -0.8969
 2206SOL    HW218081   4.623   3.464  15.082  0.1945 -0.4138 -0.7997
 2207SOL     OW18082   2.894   1.949   2.539  0.3180  0.3301  0.0894
 2207SOL    HW118083   2.818   1.971   2.593  0.1740  2.7512 -1.0993
 2207SOL    HW218084   2.966   2.004   2.569 -0.9820  1.8065  0.5273
 2208SOL     OW18085   1.557   1.810   5.030 -0.9177  0.2189 -0.0470
 2208SOL    HW118086   1.495   1.785   4.960 -0.9877 -1.1835  0.5132
 2208SOL    HW218087   1.499   1.849   5.095 -2.1014 -3.0285  0.8418
 2209SOL     OW18088   2.531   0.074  14.401 -0.3930 -0.5201 -0.7993
 2209SOL    HW118089   2.538   0.007  14.469 -0.6966 -1.4657 -1.7026
 2209SOL    HW218090   2.508   0.151  14.454 -0.3370 -0.3421 -1.0351
 2210SOL     OW18091   1.095   3.412   5.447  0.2294 -0.4719 -0.3197
 2210SOL    HW118092   1.058   3.389   5.532  0.9601  0.3845  0.2194
 2210SOL    HW218093   1.133   3.496   5.473 -0.3011  0.7284 -3.4100
 2211SOL     OW18094   2.441   1.101   4.537 -0.0027  0.5549  0.0121
 2211SOL    HW118095   2.366   1.048   4.562 -0.2645 -0.5565 -3.0560
 2211SOL    HW218096   2.417   1.189   4.565 -0.7829  0.0075  1.0583
 2212SOL     OW18097   1.399   3.987   7.994 -0.0760 -0.0816 -0.1034
 2212SOL    HW118098   1.386   3.903   7.950  1.1141 -0.2239 -0.1831
 2212SOL    HW218099   1.335   4.035   7.942  1.7411  2.4508 -0.0040
 2213SOL     OW18100   3.906   4.252   5.661  0.1434 -0.6880  0.2596
 2213SOL    HW118101   3.818   4.285   5.645  0.4479  0.7417  1.5044
 2213SOL    HW218102   3.893   4.191   5.733 -1.5734 -0.2541  0.3028
 2214SOL     OW18103   3.091   3.848   4.549 -0.2106  0.3814 -0.4236
 2214SOL    HW118104   3.134   3.764   4.532  2.2260  1.7045 -0.7390
 2214SOL    HW218105   3.061   3.865   4.460  0.0153 -0.1806 -0.6090
 2215SOL     OW18106   0.883   0.043  15.429  0.2302  0.4792  0.4650
 2215SOL    HW118107   0.853   4.677  15.417 -0.9595  0.7427  1.5520
 2215SOL    HW218108   0.926   0.062  15.345 -0.6011 -1.2108 -0.3384
 2216SOL     OW18109   1.378   2.067   1.356  0.1042 -0.3224  0.9228
 2216SOL    HW118110   1.288   2.096   1.371  0.1509 -0.3221  1.2139
 2216SOL    HW218111   1.394   2.041   1.447 -0.3680 -3.1450  0.2078
 2217SOL     OW18112   1.434   4.475   3.899  0.6717  0.1251  0.4216
 2217SOL    HW118113   1.419   4.458   3.992 -1.0040  2.1818  0.5305
 2217SOL    HW218114   1.351   4.446   3.862  0.7500 -0.0852  0.4123
 2218SOL     OW18115   2.999   2.349   2.919  0.7616 -0.2317 -0.3570
 2218SOL    HW118116   3.092   2.330   2.924  0.8839  0.2554 -0.7519
 2218SOL    HW218117   2.960   2.264   2.940 -2.8725  1.5004  0.0234
 2219SOL     OW18118   2.848   4.577   4.738 -0.0302  0.0399 -0.0987
 2219SOL    HW118119   2.787   4.619   4.798  1.8312  1.6712  0.6710
 2219SOL    HW218120   2.816   4.487   4.739  3.7939 -1.3239  1.4040
 2220SOL     OW18121   1.138   3.137   7.227 -0.0031 -0.0524  0.2690
 2220SOL    HW118122   1.157   3.046   7.205  2.0123  0.7439 -1.3557
 2220SOL    HW218123   1.209   3.181   7.179  0.0063  0.6086  0.8911
 2221SOL     OW18124   0.693   3.155   2.474 -0.2334  0.6791  0.0569
 2221SOL    HW118125   0.688   3.115   2.561 -1.5558 -0.1069 -0.3846
 2221SOL    HW218126   0.599   3.170   2.464 -0.5260 -1.4804 -0.4719
 2222SOL     OW18127   2.069   1.196   8.485 -0.0520 -0.0641 -0.6072
 2222SOL    HW118128   1.997   1.201   8.423 -1.2554  1.8290  0.9604
 2222SOL    HW218129   2.060   1.270   8.545 -1.3496 -0.7361  0.0232
 2223SOL     OW18130   4.130   0.058   5.352 -0.3269  0.7077 -0.1550
 2223SOL    HW118131   4.039   0.039   5.372 -0.7881  4.8837  1.5478
 2223SOL    HW218132   4.184   0.029   5.425 -2.4820 -0.4311  0.9620
 2224SOL     OW18133   2.131   2.219   6.852 -0.4786  0.2175  0.5739
 2224SOL    HW118134   2.174   2.206   6.767 -2.9618  0.2851 -0.6795
 2224SOL    HW218135   2.110   2.129   6.878 -0.4534  0.2335  0.6494
 2225SOL     OW18136   0.117   3.794   3.747 -0.4424 -0.0515 -0.0113
 2225SOL    HW118137   0.146   3.825   3.662 -1.4685  0.2994 -0.2291
 2225SOL    HW218138   0.034   3.842   3.750 -0.3895 -0.0924  2.2574
 2226SOL     OW18139   0.901   0.425   5.448 -0.7566 -0.4843  0.2526
 2226SOL    HW118140   0.896   0.451   5.356  0.4651  0.3413  0.4184
 2226SOL    HW218141   0.907   0.508   5.495 -1.9591  1.1288 -2.4503
 2227SOL     OW18142   4.475   0.558  12.075  0.0673  0.2009  0.2893
 2227SOL    HW118143   4.445   0.555  11.984 -2.5710  2.7317  1.0965
 2227SOL    HW218144   4.439   0.486  12.125 -0.6372 -0.9876 -1.9171
 2228SOL     OW18145   3.154   1.034   4.617  0.4999 -0.2585  0.0806
 2228SOL    HW118146   3.150   0.939   4.603 -1.9976  0.0986 -1.4807
 2228SOL    HW218147   3.068   1.063   4.587 -1.1497 -3.3041  1.8961
 2229SOL     OW18148   3.834   0.472   0.980  0.7590  0.2740  0.5357
 2229SOL    HW118149   3.739   0.477   0.969  0.9795 -0.0534 -1.6050
 2229SOL    HW218150   3.863   0.502   0.894 -0.1746  1.6105  0.6708
 2230SOL     OW18151   3.585   3.933   2.587 -0.3675  0.4864 -0.6024
 2230SOL    HW118152   3.597   3.890   2.502  0.0493 -0.9727  0.1849
 2230SOL    HW218153   3.580   4.023   2.555 -1.2772  0.2105 -1.2228
 2231SOL     OW18154   1.953   1.486   1.859 -0.1219 -0.3382  0.4960
 2231SOL    HW118155   1.905   1.493   1.776  1.0550 -0.7761 -0.2212
 2231SOL    HW218156   1.966   1.580   1.866 -1.7473  0.1176 -2.4792
 2232SOL     OW18157   1.965   2.213   9.184 -0.2051 -0.3376  0.4092
 2232SOL    HW118158   2.058   2.196   9.164  0.0290 -0.3567  1.5063
 2232SOL    HW218159   1.976   2.262   9.265  1.0669 -1.2355  0.7932
 2233SOL     OW18160   1.906   0.753  10.971  0.1415 -0.7419  0.2851
 2233SOL    HW118161   1.875   0.711  11.052 -1.9410 -0.3597 -0.2984
 2233SOL    HW218162   1.978   0.801  11.012 -1.7683  2.2723  0.0988
 2234SOL     OW18163   0.010   4.406   7.730  0.3557 -0.1987  0.3548
 2234SOL    HW118164   4.701   4.483   7.777 -0.4339  0.2474 -0.9130
 2234SOL    HW218165   0.020   4.436   7.640  0.2430 -0.3970  0.2770
 2235SOL     OW18166   3.338   4.466  16.340  0.3500 -0.5388  0.6537
 2235SOL    HW118167   3.304   4.555  16.345  1.7742 -0.0800  2.4115
 2235SOL    HW218168   3.379   4.483  16.255 -1.7585  1.6483  0.1010
 2236SOL     OW18169   1.095   2.050   0.057  0.1094  0.0770 -0.6121
 2236SOL    HW118170   1.170   1.996   0.033 -0.4922  0.5363 -3.4965
 2236SOL    HW218171   1.131   2.137   0.073 -1.0505  0.9268 -2.6774
 2237SOL     OW18172   1.741   2.842   8.382 -0.1272 -0.9569 -0.3124
 2237SOL    HW118173   1.654   2.850   8.421  0.3481  1.3151  0.2708
 2237SOL    HW218174   1.791   2.919   8.410  1.4280 -1.2390 -2.2879
 2238SOL     OW18175   0.264   4.675  12.936  0.6023 -0.2977 -0.4118
 2238SOL    HW118176   0.284   4.625  13.015  1.2863  1.7992  0.7306
 2238SOL    HW218177   0.306   0.036  12.951  1.9048 -0.7090 -1.7190
 2239SOL     OW18178   0.670   0.782  12.456 -0.1422  0.7641 -0.0903
 2239SOL    HW118179   0.594   0.840  12.461  0.8136  1.7427  2.9755
 2239SOL    HW218180   0.621   0.708  12.490 -1.3208  1.0144 -1.2369
 2240SOL     OW18181   1.521   3.360   0.733 -0.0050  0.7765 -0.4746
 2240SOL    HW118182   1.438   3.324   0.764  1.6743 -2.1069  0.6143
 2240SOL    HW218183   1.542   3.426   0.798  1.4586  0.9212 -1.0884
 2241SOL     OW18184   2.691   4.162  14.720 -0.1914  0.3450  0.0627
 2241SOL    HW118185   2.671   4.097  14.787 -1.3823  0.8921  0.2485
 2241SOL    HW218186   2.644   4.237  14.757  0.9134  1.4259 -0.6964
 2242SOL     OW18187   1.094   2.694   4.326  0.0498  0.2221  0.0624
 2242SOL    HW118188   1.084   2.722   4.235 -0.7968 -0.5466 -0.0903
 2242SOL    HW218189   1.003   2.671   4.346 -0.1400 -0.9688 -2.1950
 2243SOL     OW18190   4.108   0.155   2.872 -0.3893  0.4919 -0.3580
 2243SOL    HW118191   4.030   0.105   2.895 -2.1625  2.5638 -1.8385
 2243SOL    HW218192   4.097   0.240   2.916  0.0481 -0.3009  1.2802
 2244SOL     OW18193   2.579   2.872  16.120 -0.3647  0.4672 -0.3520
 2244SOL    HW118194   2.670   2.844  16.112 -0.0981  1.6534 -1.4149
 2244SOL    HW218195   2.577   2.881  16.215  0.2967  0.6076 -0.3541
 2245SOL     OW18196   4.041   1.663   4.387  0.1703  1.0288  0.2435
 2245SOL    HW118197   4.051   1.580   4.434  2.5877  0.7613 -0.7147
 2245SOL    HW218198   3.968   1.643   4.330  1.3308  0.5361 -1.0664
 2246SOL     OW18199   1.863   4.697   5.690 -0.0720  0.6973 -0.5036
 2246SOL    HW118200   1.919   4.666   5.619  0.2744 -0.0206  0.0853
 2246SOL    HW218201   1.864   4.624   5.751  1.1277  0.1582 -1.1666
 2247SOL     OW18202   1.876   2.254   6.777  0.0886 -0.6028  0.6307
 2247SOL    HW118203   1.959   2.225   6.815  0.4727  0.1255  0.3380
 2247SOL    HW218204   1.906   2.325   6.722 -1.0071 -1.7730 -1.4828
 2248SOL     OW18205   2.552   4.640  12.207  0.2429 -0.1102  0.4773
 2248SOL    HW118206   2.612   4.673  12.140  0.7304 -2.8347 -0.4107
 2248SOL    HW218207   2.592   4.686  12.281  1.1535 -1.5220  0.8674
 2249SOL     OW18208   0.590   1.258  13.508  0.6875  0.1229 -0.2640
 2249SOL    HW118209   0.685   1.270  13.517  0.9861 -2.9916  0.8297
 2249SOL    HW218210   0.582   1.187  13.444  0.6373  1.1908 -1.4575
 2250SOL     OW18211   0.761   1.953   2.792 -0.3914  0.1329 -0.1322
 2250SOL    HW118212   0.715   1.870   2.781  1.8550 -1.2667  0.8824
 2250SOL    HW218213   0.690   2.014   2.773  0.0608  0.9734  0.8864
 2251SOL     OW18214   3.005   1.104   0.075 -0.3154 -0.1182  0.0236
 2251SOL    HW118215   3.055   1.087   0.155 -1.9052  0.3771  1.1235
 2251SOL    HW218216   3.036   1.033   0.018  0.1445 -0.9239  1.2604
 2252SOL     OW18217   2.796   2.536   8.672 -0.0055 -0.0893 -0.5918
 2252SOL    HW118218   2.800   2.563   8.764  2.8060 -1.0207 -0.4485
 2252SOL    HW218219   2.834   2.449   8.685  1.0871  0.5310  0.4071
 2253SOL     OW18220   0.400   4.154  12.710 -0.2383 -0.0617 -0.6517
 2253SOL    HW118221   0.393   4.104  12.629  0.8674 -0.1223 -0.7181
 2253SOL    HW218222   0.319   4.129  12.754 -0.0231  1.2818  0.5042
 2254SOL     OW18223   3.300   2.841   6.264 -0.3917 -0.4986 -0.5238
 2254SOL    HW118224   3.370   2.778   6.278  1.5869  0.8253 -4.5024
 2254SOL    HW218225   3.270   2.821   6.175 -2.7907  1.3873 -0.1574
 2255SOL     OW18226   4.237   3.703   0.541  0.0941  0.3323 -0.0286
 2255SOL    HW118227   4.240   3.776   0.480  0.6694 -0.8546 -1.4066
 2255SOL    HW218228   4.329   3.678   0.540 -0.1908 -0.6908 -0.6707
 2256SOL     OW18229   1.258   3.823  14.867 -0.0933  0.0929  0.6497
 2256SOL    HW118230   1.271   3.738  14.826 -0.6785  0.4583 -0.2977
 2256SOL    HW218231   1.238   3.884  14.796  1.3567  0.0815  0.2268
 2257SOL     OW18232   0.250   0.195  15.247  0.1168  0.4577 -0.4187
 2257SOL    HW118233   0.264   0.201  15.152 -0.0401  0.0453 -0.4647
 2257SOL    HW218234   0.243   0.100  15.255 -0.1234  0.4527 -0.6856
 2258SOL     OW18235   4.316   2.460  15.241  0.2494 -0.2325 -0.4523
 2258SOL    HW118236   4.279   2.459  15.329  0.8668 -1.9968 -0.2134
 2258SOL    HW218237   4.375   2.385  15.249 -0.6574 -0.8567  0.2974
 2259SOL     OW18238   2.620   2.360   3.001  0.1975 -0.2349 -0.5607
 2259SOL    HW118239   2.567   2.378   2.924 -1.7448  0.5878  0.9597
 2259SOL    HW218240   2.624   2.444   3.048  2.0933  0.9498 -2.8838
 2260SOL     OW18241   3.275   1.335   1.912  0.1762  0.3333 -0.4057
 2260SOL    HW118242   3.196   1.388   1.914  0.8805  1.3679 -0.3102
 2260SOL    HW218243   3.307   1.348   2.002  0.5600 -1.1675 -0.3255
 2261SOL     OW18244   0.423   1.818   1.019  0.0980  1.2266  0.3296
 2261SOL    HW118245   0.349   1.877   1.031  1.7501  3.7124 -1.7527
 2261SOL    HW218246   0.405   1.766   0.940 -2.3144 -0.2972  1.8770
 2262SOL     OW18247   2.933   4.526   8.629  0.1746 -0.2071  0.5708
 2262SOL    HW118248   2.859   4.573   8.591  0.9084 -0.8935 -1.6981
 2262SOL    HW218249   3.012   4.580   8.619 -2.3391  3.2902 -0.3380
 2263SOL     OW18250   3.223   0.580   4.000 -0.1257  1.0286 -0.0493
 2263SOL    HW118251   3.303   0.598   4.049 -0.2894  1.0817  0.1972
 2263SOL    HW218252   3.232   0.487   3.981 -0.2689  0.6611  1.6588
 2264SOL     OW18253   2.101   3.928  11.966  0.2387 -0.1246 -0.0692
 2264SOL    HW118254   2.083   3.980  12.044 -0.7883 -1.3207  0.4967
 2264SOL    HW218255   2.053   3.979  11.902 -1.4312  0.8210  1.9636
 2265SOL     OW18256   0.064   3.030   7.034  0.2000  0.3490  0.0008
 2265SOL    HW118257   0.001   3.087   6.991  0.1615 -0.5701 -1.1701
 2265SOL    HW218258   0.056   2.958   6.971  0.5952  0.3751 -0.0822
 2266SOL     OW18259   4.390   3.915  12.388 -0.1289  0.1932  0.2110
 2266SOL    HW118260   4.456   3.970  12.346 -0.5026  0.3475 -0.1713
 2266SOL    HW218261   4.414   3.935  12.479  0.7677 -0.1673  0.0544
 2267SOL     OW18262   1.384   0.381   3.422 -0.2356 -1.1081  0.2646
 2267SOL    HW118263   1.427   0.442   3.482 -1.0267  1.9037 -2.2295
 2267SOL    HW218264   1.303   0.429   3.409  0.4492  0.3570  1.4168
 2268SOL     OW18265   4.493   4.644   5.481  0.3036 -0.1742 -0.4817
 2268SOL    HW118266   4.580   4.608   5.499 -0.2101 -2.1172 -1.9189
 2268SOL    HW218267   4.457   4.664   5.568  1.6149  0.2081 -0.0193
 2269SOL     OW18268   2.613   0.273   9.176  0.3730  0.3070 -0.6259
 2269SOL    HW118269   2.644   0.253   9.264  2.8419  2.5486 -0.9943
 2269SOL    HW218270   2.690   0.316   9.138 -0.3942  0.3803 -2.0923
 2270SOL     OW18271   2.320   4.305   5.269  0.3340 -0.4841  0.1222
 2270SOL    HW118272   2.318   4.326   5.363  1.7151 -0.5530  0.1705
 2270SOL    HW218273   2.266   4.226   5.265  0.0639 -0.3170  0.4479
 2271SOL     OW18274   0.515   3.124   3.153 -0.0161 -0.2579  0.2667
 2271SOL    HW118275   0.454   3.193   3.181 -0.2582 -0.3830  0.0411
 2271SOL    HW218276   0.550   3.175   3.080 -0.1849  1.1447  1.1721
 2272SOL     OW18277   3.194   1.072  15.350  0.9039 -0.0123  0.2609
 2272SOL    HW118278   3.172   0.984  15.319 -2.0181  1.4792 -1.9242
 2272SOL    HW218279   3.153   1.127  15.282  0.1685 -0.5583  0.2622
 2273SOL     OW18280   0.780   3.792   7.932  0.5212 -0.4895 -0.1983
 2273SOL    HW118281   0.839   3.858   7.967  1.3428 -1.5331  0.3650
 2273SOL    HW218282   0.696   3.827   7.962  0.1866 -0.2344 -1.4388
 2274SOL     OW18283   3.408   0.195   3.064  0.1276 -0.3831 -0.1051
 2274SOL    HW118284   3.500   0.210   3.043  0.4783 -1.7678  0.4348
 2274SOL    HW218285   3.356   0.256   3.012 -0.9763 -2.0697 -0.9806
 2275SOL     OW18286   4.323   2.975  13.346 -0.0313  0.0281 -0.2402
 2275SOL    HW118287   4.278   3.052  13.312 -0.6642 -1.1431 -2.0765
 2275SOL    HW218288   4.324   2.917  13.270  0.9065 -1.7304  1.1095
 2276SOL     OW18289   3.963   3.327   3.275 -0.5166 -0.4879  0.0963
 2276SOL    HW118290   3.890   3.388   3.283  0.2646  0.4032  0.4755
 2276SOL    HW218291   4.019   3.380   3.331  0.6488 -0.0509 -1.4838
 2277SOL     OW18292   2.409   1.308  10.157  0.1940  0.3090 -0.3954
 2277SOL    HW118293   2.493   1.265  10.144 -1.0779 -1.9794 -1.1529
 2277SOL    HW218294   2.355   1.234  10.129 -0.4818  0.5229  0.3192
 2278SOL     OW18295   1.729   3.619   8.950 -0.5854  0.0812  0.6404
 2278SOL    HW118296   1.705   3.567   9.027 -0.6830 -0.0799  0.5033
 2278SOL    HW218297   1.691   3.566   8.880  1.6866 -1.2417  0.4159
 2279SOL     OW18298   2.734   1.628   7.975 -0.1502 -0.0905  0.5437
 2279SOL    HW118299   2.753   1.691   7.906  1.1748  1.2387  2.1181
 2279SOL    HW218300   2.804   1.568   7.948 -0.5575 -0.8918  1.2577
 2280SOL     OW18301   2.453   2.637   4.986 -0.1052  0.7966 -1.0931
 2280SOL    HW118302   2.409   2.703   5.040  2.0392 -0.9703  2.7962
 2280SOL    HW218303   2.389   2.627   4.916  0.3919  0.8361 -1.5478
 2281SOL     OW18304   0.758   4.648   4.526  0.0937 -0.3450  0.7810
 2281SOL    HW118305   0.716   4.586   4.585  0.4145 -2.5350 -1.2944
 2281SOL    HW218306   0.690   4.707   4.493 -2.3816 -4.0235 -0.7576
 2282SOL     OW18307   3.601   3.959   3.769 -0.2629  0.0519  0.0342
 2282SOL    HW118308   3.654   3.953   3.690 -1.6163 -1.9277 -0.7001
 2282SOL    HW218309   3.545   4.034   3.751  2.1905  2.0760  0.8253
 2283SOL     OW18310   1.363   2.567  10.740  0.1253 -0.5027 -0.0843
 2283SOL    HW118311   1.312   2.570  10.659 -0.6800 -0.5754  0.4272
 2283SOL    HW218312   1.372   2.660  10.761 -3.4702 -0.5851  1.6810
 2284SOL     OW18313   0.650   3.542  15.125 -0.4596 -0.1352  0.0233
 2284SOL    HW118314   0.562   3.505  15.129 -0.4647 -0.5615 -3.6563
 2284SOL    HW218315   0.645   3.611  15.191  2.3514  0.3276 -0.2330
 2285SOL     OW18316   2.603   4.642   5.712 -0.1710  0.4446 -0.1868
 2285SOL    HW118317   2.620   0.002   5.669  1.0080  0.7846  0.9585
 2285SOL    HW218318   2.527   4.666   5.765 -1.1417  1.4330 -2.0530
 2286SOL     OW18319   1.852   0.082   0.947 -0.1463  0.1011  0.4670
 2286SOL    HW118320   1.877   0.164   0.906 -0.1238  0.3082  0.9057
 2286SOL    HW218321   1.785   0.111   1.008  1.0191 -1.2159  2.3556
 2287SOL     OW18322   3.239   4.402   6.031  0.1871  0.5550 -0.1080
 2287SOL    HW118323   3.261   4.328   5.975  1.4955  0.5568  0.3951
 2287SOL    HW218324   3.330   4.428   6.048  0.3167  0.1786 -0.2184
 2288SOL     OW18325   2.668   0.389   8.209 -0.7400  0.1243 -0.3150
 2288SOL    HW118326   2.669   0.478   8.247  0.1003  1.0925 -2.6195
 2288SOL    HW218327   2.681   0.347   8.294 -1.2340  1.9929  0.7167
 2289SOL     OW18328   0.899   0.888  13.490  0.2128  0.1472  0.6675
 2289SOL    HW118329   0.833   0.885  13.559  2.2266  0.6592  2.6265
 2289SOL    HW218330   0.868   0.821  13.429 -1.1799  3.1916 -1.9696
 2290SOL     OW18331   2.301   2.802   5.137  0.0315 -0.5043 -0.3526
 2290SOL    HW118332   2.241   2.865   5.096 -0.8254 -1.3678 -0.4358
 2290SOL    HW218333   2.232   2.743   5.168 -1.5060 -0.9977 -4.5710
 2291SOL     OW18334   3.756   3.010  17.376 -0.1481  0.5130  0.2302
 2291SOL    HW118335   3.768   3.101  17.348  1.5653 -0.3989 -2.0235
 2291SOL    HW218336   3.663   2.999  17.360  0.3820 -0.7892 -2.0017
 2292SOL     OW18337   3.325   4.353   2.324 -0.4432 -0.4848 -0.7469
 2292SOL    HW118338   3.402   4.369   2.269 -0.3871  0.6037 -0.3475
 2292SOL    HW218339   3.264   4.427   2.318  2.1010  1.6955 -0.0541
 2293SOL     OW18340   4.277   2.896   5.442  0.4299  0.3364  0.0905
 2293SOL    HW118341   4.193   2.914   5.484  0.8768 -0.7108  1.4357
 2293SOL    HW218342   4.268   2.972   5.384 -0.2854  0.1102 -0.0903
 2294SOL     OW18343   2.351   2.803  13.273 -0.4877  0.1188 -0.6400
 2294SOL    HW118344   2.391   2.717  13.261  1.7485  0.9133  1.1316
 2294SOL    HW218345   2.401   2.832  13.350 -0.0854  0.3343 -0.9834
 2295SOL     OW18346   2.336   2.269   1.449  0.1463  0.4417 -0.3349
 2295SOL    HW118347   2.313   2.359   1.425  1.7241  0.1482 -2.9638
 2295SOL    HW218348   2.255   2.220   1.461  1.2019 -0.8341  1.5807
 2296SOL     OW18349   4.215   1.441   4.178 -0.3100 -0.0653  0.4053
 2296SOL    HW118350   4.219   1.508   4.247  1.0462  0.5017 -0.2343
 2296SOL    HW218351   4.252   1.365   4.222 -0.8535  0.5759  1.9530
 2297SOL     OW18352   1.027   2.983   1.210  0.1723 -0.6725  0.7693
 2297SOL    HW118353   0.979   3.001   1.129 -0.6064 -1.0995  1.1357
 2297SOL    HW218354   0.950   2.948   1.254 -1.3275  1.4017 -0.2065
 2298SOL     OW18355   1.302   0.425   2.521 -0.2251  0.4404 -0.1360
 2298SOL    HW118356   1.217   0.468   2.508 -1.3456 -1.9764 -0.8796
 2298SOL    HW218357   1.281   0.333   2.537 -0.4057  0.3984 -0.6062
 2299SOL     OW18358   1.409   1.806   2.740 -0.2921 -0.3748 -0.6526
 2299SOL    HW118359   1.455   1.724   2.722  0.8231  0.0268  0.3261
 2299SOL    HW218360   1.347   1.774   2.806  2.2895  0.9558  2.4395
 2300SOL     OW18361   3.408   3.293  10.307 -0.0299 -0.3786 -0.1511
 2300SOL    HW118362   3.375   3.271  10.394  1.4495  1.3598  0.8532
 2300SOL    HW218363   3.368   3.379  10.297 -0.5932 -0.7679 -1.2664
 2301SOL     OW18364   3.446   4.723   6.160 -0.4673 -0.0059  0.4198
 2301SOL    HW118365   3.369   4.701   6.213 -0.1496  0.8118  1.2092
 2301SOL    HW218366   3.461   4.648   6.102 -2.0116  0.6993 -0.8846
 2302SOL     OW18367   4.062   1.520   5.975 -0.0847  0.8264  0.4042
 2302SOL    HW118368   4.082   1.429   5.996  0.5396  0.6262 -1.0778
 2302SOL    HW218369   4.151   1.555   5.969  0.9550 -1.8251  0.1896
 2303SOL     OW18370   0.182   4.628   5.796  0.0282  0.8173  0.4540
 2303SOL    HW118371   0.254   4.566   5.809 -1.0671 -0.6187 -0.2787
 2303SOL    HW218372   0.113   4.572   5.761 -0.3997 -1.5433  5.1846
 2304SOL     OW18373   0.951   2.466   4.803 -0.3363 -0.1906 -0.0747
 2304SOL    HW118374   0.995   2.498   4.882 -0.3508  1.6928 -0.8262
 2304SOL    HW218375   0.873   2.425   4.842  0.0508 -1.1811 -0.3451
 2305SOL     OW18376   4.471   3.174   5.595 -0.1589  0.1338  0.2217
 2305SOL    HW118377   4.437   3.109   5.533  0.0326  0.2801 -0.0359
 2305SOL    HW218378   4.491   3.248   5.538 -0.7897  1.0050  1.1272
 2306SOL     OW18379   2.060   2.832   4.831  0.5086 -0.0031 -0.0985
 2306SOL    HW118380   1.988   2.880   4.791 -0.1869 -0.7480  0.2467
 2306SOL    HW218381   2.070   2.883   4.911  1.0935 -1.3751  0.7119
 2307SOL     OW18382   2.753   3.464   3.125  0.1627  0.0027 -0.7610
 2307SOL    HW118383   2.660   3.444   3.126 -0.3043  2.1474  1.4290
 2307SOL    HW218384   2.789   3.392   3.074 -0.7037 -0.2505 -1.0115
 2308SOL     OW18385   0.769   1.077   8.640  0.2323 -0.6828  0.4665
 2308SOL    HW118386   0.799   0.987   8.636  1.7307 -0.1174 -0.9532
 2308SOL    HW218387   0.675   1.077   8.655  0.1943 -0.1712  0.2442
 2309SOL     OW18388   4.050   0.470   5.234  0.5984 -0.0528  0.3220
 2309SOL    HW118389   4.068   0.381   5.205 -2.3326 -1.3757  2.5739
 2309SOL    HW218390   4.101   0.465   5.315  0.6414  0.4851  0.3302
 2310SOL     OW18391   3.845   3.122   6.228 -0.2259 -0.2493  0.0459
 2310SOL    HW118392   3.816   3.033   6.213 -2.3873  0.3996  0.4046
 2310SOL    HW218393   3.861   3.156   6.140  1.0280  1.0276  0.7416
 2311SOL     OW18394   2.292   4.045   2.010  0.0306 -0.0877  0.5102
 2311SOL    HW118395   2.346   3.966   2.018 -1.7249 -1.0774  2.5328
 2311SOL    HW218396   2.345   4.093   1.946 -2.0518  1.4768 -0.0272
 2312SOL     OW18397   2.129   3.902  12.518 -0.5599  0.5443 -0.1317
 2312SOL    HW118398   2.048   3.949  12.537 -0.9193 -1.4450  3.2907
 2312SOL    HW218399   2.119   3.824  12.573  2.3201 -0.0405 -0.4636
 2313SOL     OW18400   3.893   0.958   9.406 -0.1103  0.1313 -0.1278
 2313SOL    HW118401   3.862   0.889   9.464 -0.2002  1.3578  1.2867
 2313SOL    HW218402   3.988   0.944   9.403 -0.2693 -1.4565  2.6386
 2314SOL     OW18403   0.776   3.116   6.417 -0.1040 -0.4816  0.3694
 2314SOL    HW118404   0.779   3.175   6.342  0.0995  1.3512  1.8086
 2314SOL    HW218405   0.746   3.182   6.479  0.4764  0.1369 -0.0045
 2315SOL     OW18406   3.752   3.631  12.121  0.8213  0.3677 -0.0331
 2315SOL    HW118407   3.705   3.710  12.095 -2.0013 -0.3577  2.7872
 2315SOL    HW218408   3.801   3.621  12.040 -0.6498 -1.9696 -0.6496
 2316SOL     OW18409   0.418   2.415   7.146  0.4977  1.2635  0.3554
 2316SOL    HW118410   0.335   2.428   7.193  0.1353 -3.0772  1.0033
 2316SOL    HW218411   0.483   2.396   7.214 -1.4869 -0.4359  1.8012
 2317SOL     OW18412   1.168   0.992  12.554 -0.5537  0.0139 -0.3653
 2317SOL    HW118413   1.119   0.909  12.557  1.6075 -1.3117 -2.1116
 2317SOL    HW218414   1.198   0.983  12.463  2.1922  0.6190  0.5019
 2318SOL     OW18415   3.554   1.151  13.003 -0.9853 -0.0851 -0.6275
 2318SOL    HW118416   3.553   1.222  12.940 -1.6858  0.6114  0.1715
 2318SOL    HW218417   3.604   1.202  13.067  0.0104  1.6496 -2.8102
 2319SOL     OW18418   4.223   2.842   3.764  0.6872  0.2309 -0.1849
 2319SOL    HW118419   4.177   2.768   3.805 -1.5116 -0.2756 -3.4971
 2319SOL    HW218420   4.228   2.908   3.833 -0.6299 -0.4500  0.5660
 2320SOL     OW18421   1.473   2.881  12.263 -0.8839  0.4539 -0.7253
 2320SOL    HW118422   1.516   2.851  12.344 -0.0285 -0.7144 -1.6099
 2320SOL    HW218423   1.390   2.834  12.264 -0.7362  0.1909 -0.6261
 2321SOL     OW18424   4.073   2.247   8.768  0.2880  0.2970 -0.1714
 2321SOL    HW118425   4.068   2.194   8.847  2.1713 -0.8956 -0.8517
 2321SOL    HW218426   4.055   2.334   8.805  1.2953 -0.0198  1.0470
 2322SOL     OW18427   0.199   0.886   2.417 -0.0198  0.7097  0.1663
 2322SOL    HW118428   0.271   0.949   2.409  0.5011  0.2411  1.0594
 2322SOL    HW218429   0.203   0.853   2.327  1.3929  2.4567 -0.4131
 2323SOL     OW18430   2.783   1.573  10.455 -0.4608 -0.3610 -0.7504
 2323SOL    HW118431   2.727   1.507  10.414 -1.5529  1.6696 -2.4750
 2323SOL    HW218432   2.729   1.651  10.469  3.2930  2.0030  0.4410
 2324SOL     OW18433   0.885   4.323   3.955 -0.0153 -0.1625  0.7006
 2324SOL    HW118434   0.964   4.329   3.900 -1.0620 -1.3194 -0.9270
 2324SOL    HW218435   0.909   4.390   4.018  0.3747  0.3706 -0.0105
 2325SOL     OW18436   1.827   3.559   0.536  0.2382  0.1841 -0.3289
 2325SOL    HW118437   1.789   3.588   0.454  0.1816 -1.7838 -0.9903
 2325SOL    HW218438   1.910   3.607   0.539 -0.4503  1.3135  0.5743
 2326SOL     OW18439   3.774   1.594   4.961 -0.5611  0.5642 -1.0657
 2326SOL    HW118440   3.800   1.673   4.915  0.6706  0.5807 -0.3310
 2326SOL    HW218441   3.766   1.531   4.890 -0.6080  0.2331 -0.7695
 2327SOL     OW18442   4.568   2.245   4.172  0.0353 -0.4580 -0.6950
 2327SOL    HW118443   4.492   2.196   4.203 -0.7062  0.6886 -0.6842
 2327SOL    HW218444   4.557   2.230   4.078 -2.0999 -1.2251 -0.3312
 2328SOL     OW18445   0.093   0.965  15.879 -0.3067 -0.3869  0.4374
 2328SOL    HW118446   0.100   1.007  15.965 -0.8527  0.2982  0.1508
 2328SOL    HW218447   0.068   1.040  15.824 -0.6905 -0.8545 -0.0221
 2329SOL     OW18448   0.335   0.791  13.830 -0.2606  0.5300  0.7554
 2329SOL    HW118449   0.270   0.721  13.824  0.3615  0.1741 -1.5378
 2329SOL    HW218450   0.351   0.804  13.737  1.3305  0.6164  1.0446
 2330SOL     OW18451   1.857   4.074  11.825  0.2695  0.4855  0.0954
 2330SOL    HW118452   1.879   4.162  11.857  1.0239  1.5856 -3.4510
 2330SOL    HW218453   1.938   4.066  11.775 -0.0197 -0.2865 -0.2305
 2331SOL     OW18454   4.339   1.239   5.875  0.3967 -0.1774 -0.1916
 2331SOL    HW118455   4.409   1.287   5.831 -0.5912  0.7885 -0.7362
 2331SOL    HW218456   4.275   1.239   5.803 -0.5119 -1.8323  0.6127
 2332SOL     OW18457   0.657   1.811  17.279  0.1402  0.9279 -0.0892
 2332SOL    HW118458   0.573   1.778  17.311 -0.7525  1.0836 -2.2697
 2332SOL    HW218459   0.699   1.792  17.363  1.0792  1.4055 -0.4426
 2333SOL     OW18460   0.644   3.950   7.575  0.8352 -0.5632 -0.2851
 2333SOL    HW118461   0.555   3.945   7.611 -0.3197  0.7972 -2.9200
 2333SOL    HW218462   0.630   3.899   7.495 -1.8216 -1.5745  0.8173
 2334SOL     OW18463   1.195   0.395   7.850  0.0297 -0.0320  0.0846
 2334SOL    HW118464   1.185   0.402   7.755  3.8851 -0.1738 -0.3675
 2334SOL    HW218465   1.233   0.482   7.868 -0.4649 -0.0774  1.3003
 2335SOL     OW18466   4.640   1.339   3.297 -0.5023 -0.0823  0.3146
 2335SOL    HW118467   4.627   1.324   3.203 -0.9109 -1.1686  0.5526
 2335SOL    HW218468   4.577   1.271   3.321 -0.5446  0.7996  2.7512
 2336SOL     OW18469   3.366   1.844  12.410 -0.4800 -0.1116 -0.0949
 2336SOL    HW118470   3.346   1.753  12.390 -0.5634 -0.4061  1.3373
 2336SOL    HW218471   3.411   1.875  12.331  1.6465 -1.4569  0.6071
 2337SOL     OW18472   1.972   2.853   7.610  0.1460 -0.0914  0.1765
 2337SOL    HW118473   2.033   2.782   7.591 -1.1463 -1.0217 -0.4480
 2337SOL    HW218474   2.024   2.912   7.665 -0.6725 -1.7311  2.7020
 2338SOL     OW18475   0.035   4.163  16.787 -0.3684  0.3943  0.1599
 2338SOL    HW118476   0.122   4.204  16.784  0.1162 -0.4929  2.0803
 2338SOL    HW218477   0.003   4.216  16.860  1.3428 -1.1573  2.0238
 2339SOL     OW18478   4.659   2.532   4.275 -0.4454 -0.5572  0.0373
 2339SOL    HW118479   4.587   2.469   4.286 -1.8020  1.3246  1.8558
 2339SOL    HW218480   4.655   2.550   4.181  1.3531  0.6347  0.1957
 2340SOL     OW18481   3.570   3.411  15.847 -0.5039  0.4052  0.0837
 2340SOL    HW118482   3.574   3.335  15.905  1.7160 -0.0565 -0.6417
 2340SOL    HW218483   3.513   3.378  15.778 -0.2289 -0.0963  0.0955
 2341SOL     OW18484   3.655   3.259   7.849 -0.3083 -0.0263 -0.0108
 2341SOL    HW118485   3.682   3.168   7.845  0.0286  0.1057 -0.5949
 2341SOL    HW218486   3.662   3.280   7.943 -0.5409 -0.9674  0.2154
 2342SOL     OW18487   4.509   3.127   6.484 -0.0343 -0.3417 -0.2253
 2342SOL    HW118488   4.466   3.042   6.483 -0.4887 -0.1279  0.9299
 2342SOL    HW218489   4.440   3.186   6.515  0.6796  0.4199 -0.0728
 2343SOL     OW18490   3.640   0.405  16.838 -0.4146 -0.0027 -0.4739
 2343SOL    HW118491   3.612   0.345  16.908  1.9331 -1.2025 -0.5698
 2343SOL    HW218492   3.558   0.404  16.788 -1.0792  1.3938  0.5986
 2344SOL     OW18493   2.231   2.247  11.132 -0.4779 -0.1748 -0.0613
 2344SOL    HW118494   2.140   2.222  11.117 -0.0746  0.4724 -3.7765
 2344SOL    HW218495   2.251   2.309  11.061  1.4735  0.3453  0.9567
 2345SOL     OW18496   1.773   4.156   5.508  0.0704  0.6940 -0.4288
 2345SOL    HW118497   1.787   4.085   5.445  0.5254  0.0285  0.4164
 2345SOL    HW218498   1.729   4.221   5.453  1.4731  1.7526 -0.3081
 2346SOL     OW18499   3.115   3.220  16.402  0.2672 -0.2615 -0.2318
 2346SOL    HW118500   3.040   3.181  16.358  0.4449  1.8392 -2.3733
 2346SOL    HW218501   3.132   3.144  16.458 -2.8808 -0.3132  0.6647
 2347SOL     OW18502   1.834   2.625   2.171  0.2516 -0.1991  0.0850
 2347SOL    HW118503   1.848   2.645   2.263  0.3406 -0.2069  0.0731
 2347SOL    HW218504   1.882   2.698   2.130 -0.2155 -0.3612 -0.7602
 2348SOL     OW18505   1.726   2.322   5.575 -0.0270  0.0363 -0.1684
 2348SOL    HW118506   1.683   2.324   5.489 -0.5702  0.8446  0.1213
 2348SOL    HW218507   1.673   2.376   5.633 -0.8213 -2.1022  1.1018
 2349SOL     OW18508   3.472   4.346   5.457 -0.2674  0.0158 -0.0244
 2349SOL    HW118509   3.500   4.418   5.400  0.4032  0.8528  1.3852
 2349SOL    HW218510   3.543   4.349   5.521 -1.5986  0.0168  1.4506
 2350SOL     OW18511   4.461   4.615   9.138 -0.2908 -0.1982 -0.1560
 2350SOL    HW118512   4.539   4.590   9.188 -1.3340 -1.6423  0.7663
 2350SOL    HW218513   4.415   4.532   9.148 -2.0299  0.8303  0.3222
 2351SOL     OW18514   3.644   4.540   2.789  0.5964 -0.0957 -0.0975
 2351SOL    HW118515   3.598   4.480   2.731  0.1352  0.0159  0.1439
 2351SOL    HW218516   3.573   4.601   2.813  0.5840  0.3631 -1.2987
 2352SOL     OW18517   3.882   2.028   4.374  0.3282  0.2925 -0.3544
 2352SOL    HW118518   3.896   2.022   4.469  0.4761  4.1060 -0.1264
 2352SOL    HW218519   3.789   2.007   4.367  0.5763 -0.6182 -0.8765
 2353SOL     OW18520   1.620   2.115   6.359 -0.3541  0.0211  0.3104
 2353SOL    HW118521   1.616   2.054   6.286 -0.0625 -1.8867  1.8838
 2353SOL    HW218522   1.599   2.056   6.431 -0.4698 -0.2895  0.0202
 2354SOL     OW18523   3.785   4.562   3.030  0.1896 -0.3595 -0.1009
 2354SOL    HW118524   3.726   4.493   3.000  2.3201 -1.3497 -1.9882
 2354SOL    HW218525   3.861   4.508   3.052  0.7923  0.3890 -0.3559
 2355SOL     OW18526   3.129   2.125  16.425 -0.0329 -0.6778  0.1261
 2355SOL    HW118527   3.043   2.163  16.403  0.0202 -0.7890 -0.2850
 2355SOL    HW218528   3.187   2.193  16.393 -1.1796  0.4967  0.5239
 2356SOL     OW18529   0.336   2.172  15.566  0.0220 -0.0372 -0.2759
 2356SOL    HW118530   0.378   2.238  15.510 -1.4099  2.3477  1.4821
 2356SOL    HW218531   0.346   2.202  15.656  0.4225 -1.4999  0.1705
 2357SOL     OW18532   2.740   4.258   2.277  0.4594  0.0686 -0.2116
 2357SOL    HW118533   2.665   4.313   2.253  0.1775 -0.5623 -0.7707
 2357SOL    HW218534   2.772   4.226   2.193  1.0379  1.2601 -0.4478
 2358SOL     OW18535   1.217   1.474   4.335 -0.0195 -0.6005  0.1331
 2358SOL    HW118536   1.303   1.484   4.296 -0.7339  4.2936 -0.1440
 2358SOL    HW218537   1.194   1.567   4.333  0.4887 -0.4857 -0.2105
 2359SOL     OW18538   1.767   4.433   2.732 -0.0606  0.5915  0.8063
 2359SOL    HW118539   1.830   4.467   2.668  0.0543 -1.4276 -0.1482
 2359SOL    HW218540   1.750   4.513   2.782  1.5286  1.3653  0.1169
 2360SOL     OW18541   3.313   4.392   5.142 -0.4266  0.2345 -0.3023
 2360SOL    HW118542   3.399   4.428   5.118  0.0983  0.5558  2.0867
 2360SOL    HW218543   3.291   4.348   5.060 -0.5877 -3.4605  1.7425
 2361SOL     OW18544   3.164   4.399   5.702  0.1367 -0.2911  0.1132
 2361SOL    HW118545   3.130   4.330   5.645  0.2818  1.2904 -1.8507
 2361SOL    HW218546   3.158   4.352   5.786  1.5275  1.5444  1.2401
 2362SOL     OW18547   1.431   1.761   8.409  0.1567 -0.3912  0.4011
 2362SOL    HW118548   1.474   1.701   8.470  1.3555  0.4143  0.3403
 2362SOL    HW218549   1.501   1.820   8.383  0.5109 -0.2365  1.7003
 2363SOL     OW18550   0.638   1.617   3.941  0.1679  0.1250  0.2799
 2363SOL    HW118551   0.550   1.579   3.935 -0.0011  0.1520  2.5144
 2363SOL    HW218552   0.623   1.709   3.961 -0.7412 -0.2359  1.2353
 2364SOL     OW18553   4.499   2.945  12.717  0.4063 -0.0736 -0.1429
 2364SOL    HW118554   4.471   2.977  12.802 -0.9883 -0.0773 -0.5991
 2364SOL    HW218555   4.445   3.006  12.665 -0.4914 -1.0500 -0.3496
 2365SOL     OW18556   0.960   0.161   8.719 -0.0578 -0.6993  0.3861
 2365SOL    HW118557   1.037   0.127   8.673 -0.1820  1.5060 -1.4494
 2365SOL    HW218558   1.001   0.192   8.800  1.7434 -2.7513  0.2780
 2366SOL     OW18559   4.212   1.746   4.864  0.1643  0.0717 -0.1505
 2366SOL    HW118560   4.188   1.690   4.791  2.0721  0.3610 -0.9914
 2366SOL    HW218561   4.264   1.686   4.918  2.7604  0.6270 -2.0440
 2367SOL     OW18562   0.645   4.338   5.623 -0.8374 -0.6656 -0.4485
 2367SOL    HW118563   0.643   4.291   5.706 -3.9124  0.6360  0.2222
 2367SOL    HW218564   0.647   4.261   5.566 -0.8569 -0.9788 -0.0289
 2368SOL     OW18565   2.789   3.226  15.198 -0.3232 -0.4732 -0.2756
 2368SOL    HW118566   2.782   3.135  15.169  2.0977 -0.9082  0.4635
 2368SOL    HW218567   2.862   3.222  15.260  0.3431 -1.8910 -1.1405
 2369SOL     OW18568   1.614   3.800   3.735 -0.1283  0.4600  0.3907
 2369SOL    HW118569   1.539   3.740   3.733 -0.4856  1.0308 -2.2496
 2369SOL    HW218570   1.676   3.776   3.667 -1.4569 -1.6826 -0.0681
 2370SOL     OW18571   0.099   2.587  16.837  0.4238 -0.6536 -0.2607
 2370SOL    HW118572   0.130   2.662  16.785  2.8468 -0.9418  0.7729
 2370SOL    HW218573   0.105   2.631  16.921  2.4851  1.7552 -1.6639
 2371SOL     OW18574   0.507   3.407   5.092  0.1866  0.1861 -0.0298
 2371SOL    HW118575   0.496   3.466   5.167  0.5059 -0.8744  0.8587
 2371SOL    HW218576   0.457   3.334   5.130  0.6258 -0.9169 -1.5698
 2372SOL     OW18577   0.068   0.591   8.515  0.1776 -0.5441  0.6554
 2372SOL    HW118578   0.060   0.547   8.600 -0.8837  1.6387  1.6880
 2372SOL    HW218579   4.697   0.592   8.500  0.4125  3.1913 -0.7111
 2373SOL     OW18580   4.099   3.559   1.392  0.1460  0.1642 -0.6258
 2373SOL    HW118581   4.108   3.635   1.450 -0.6212 -0.1193 -0.1412
 2373SOL    HW218582   4.101   3.482   1.449  0.7592  1.1034  0.6167
 2374SOL     OW18583   4.509   3.482  15.378  0.0916  0.5467  0.2365
 2374SOL    HW118584   4.584   3.448  15.426 -0.0951  0.2268  0.2980
 2374SOL    HW218585   4.448   3.516  15.444  0.0313 -1.4000  1.1671
 2375SOL     OW18586   2.440   2.691   2.715  0.5725 -0.4485  0.1712
 2375SOL    HW118587   2.468   2.671   2.625 -0.3507 -1.9114  0.1949
 2375SOL    HW218588   2.487   2.772   2.729  2.2451 -1.3773 -0.0782
 2376SOL     OW18589   0.926   4.195   6.032  0.5874  0.2064  0.5220
 2376SOL    HW118590   0.837   4.215   6.059  0.1583 -1.6744  0.4921
 2376SOL    HW218591   0.976   4.208   6.113  3.6877  3.2151 -1.8355
 2377SOL     OW18592   1.635   3.487   4.986  0.0148  0.2797 -0.4255
 2377SOL    HW118593   1.563   3.549   4.978 -0.5573 -0.1705  1.1116
 2377SOL    HW218594   1.718   3.534   4.995 -0.6412  1.9915 -3.5210
 2378SOL     OW18595   1.597   0.430   6.945  0.0204  0.0906  0.8527
 2378SOL    HW118596   1.692   0.426   6.940 -0.2290 -1.7299 -2.6913
 2378SOL    HW218597   1.585   0.458   7.036 -1.5802  0.4967  0.5163
 2379SOL     OW18598   0.819   2.604  10.699 -0.0732 -0.1240 -0.5320
 2379SOL    HW118599   0.836   2.686  10.746  2.1320 -0.9742  0.1169
 2379SOL    HW218600   0.726   2.619  10.683  0.4380  1.6655 -1.8500
 2380SOL     OW18601   0.311   2.080   2.840  0.2968  0.5510 -0.4121
 2380SOL    HW118602   0.258   2.104   2.764 -0.2042 -0.0137 -0.2397
 2380SOL    HW218603   0.294   1.986   2.840 -0.1368  0.6306 -0.3890
 2381SOL     OW18604   0.167   0.205   2.796 -0.5169  0.4436 -0.3958
 2381SOL    HW118605   0.083   0.227   2.836 -0.2322  0.4765  0.1803
 2381SOL    HW218606   0.150   0.122   2.751 -0.1920 -0.1614  0.6008
 2382SOL     OW18607   4.354   2.426  16.953 -0.1518  0.0870  0.4075
 2382SOL    HW118608   4.432   2.448  16.902  0.5844  0.8899  1.8948
 2382SOL    HW218609   4.385   2.440  17.042  0.1921  0.3637  0.2421
 2383SOL     OW18610   3.658   3.783   1.008 -0.5991 -0.0098  0.2855
 2383SOL    HW118611   3.610   3.721   1.063  0.5036 -0.0348  1.2026
 2383SOL    HW218612   3.664   3.860   1.063 -0.0013  0.3734 -0.3201
 2384SOL     OW18613   4.382   4.525   6.847 -0.3001  0.8051  0.1365
 2384SOL    HW118614   4.397   4.617   6.827 -0.5922  0.7327 -0.4229
 2384SOL    HW218615   4.313   4.540   6.911 -0.4211  0.5219  0.0726
 2385SOL     OW18616   0.046   1.627   4.713 -0.0771 -0.5456 -0.4765
 2385SOL    HW118617   0.071   1.660   4.627  2.3170  1.8054  1.0983
 2385SOL    HW218618   0.131   1.653   4.749 -0.6495  0.1031  0.4106
 2386SOL     OW18619   3.151   0.227   0.759  0.3960 -0.0962 -0.4116
 2386SOL    HW118620   3.077   0.240   0.818  0.6545 -0.5792  0.0198
 2386SOL    HW218621   3.129   0.151   0.706  0.1458  0.9315 -1.7915
 2387SOL     OW18622   2.195   2.202   9.024  0.6473 -0.4976 -0.1049
 2387SOL    HW118623   2.278   2.202   9.072  0.8672  4.2887 -0.5120
 2387SOL    HW218624   2.202   2.128   8.964  0.4266  0.8052 -1.7366
 2388SOL     OW18625   1.032   1.982   8.316 -0.1463 -0.3686  0.1504
 2388SOL    HW118626   0.963   2.032   8.271 -0.1037 -0.8803 -0.4852
 2388SOL    HW218627   1.034   2.007   8.409 -0.2866 -1.9858  0.5823
 2389SOL     OW18628   3.935   3.335   9.712 -0.6388  0.0933 -0.0865
 2389SOL    HW118629   4.026   3.308   9.704 -0.8216 -0.4834 -0.1765
 2389SOL    HW218630   3.893   3.252   9.735  1.2379 -0.7247  0.3279
 2390SOL     OW18631   3.698   4.032  11.579 -0.0770  0.4889 -0.1194
 2390SOL    HW118632   3.763   4.028  11.508 -0.8848  1.3540 -0.9112
 2390SOL    HW218633   3.735   4.098  11.638 -0.1903 -0.0249  0.5259
 2391SOL     OW18634   1.345   4.195   5.547 -0.7738  0.3639  0.0864
 2391SOL    HW118635   1.259   4.155   5.532 -0.7303 -0.7388  2.8271
 2391SOL    HW218636   1.385   4.158   5.469 -1.1575 -0.2226  0.1627
 2392SOL     OW18637   3.814   1.930   8.973  0.2887 -0.3892  0.1935
 2392SOL    HW118638   3.815   1.996   9.043  0.5131  1.5018 -1.5886
 2392SOL    HW218639   3.720   1.923   8.961  0.5086 -0.0173 -1.7170
 2393SOL     OW18640   2.596   1.337   6.373 -0.2877  0.1869  0.0417
 2393SOL    HW118641   2.676   1.331   6.426 -0.4168 -1.3168  0.0610
 2393SOL    HW218642   2.626   1.403   6.310 -1.2025  0.1830 -0.3827
 2394SOL     OW18643   1.725   1.916  17.098  0.3217  0.3217  0.0546
 2394SOL    HW118644   1.646   1.957  17.061 -0.1955  1.9943  3.0066
 2394SOL    HW218645   1.799   1.956  17.053  1.0958 -0.4749  0.6230
 2395SOL     OW18646   2.988   1.286   3.884  0.2079 -0.5856 -0.0907
 2395SOL    HW118647   3.005   1.206   3.933 -1.3750 -0.6479  0.3454
 2395SOL    HW218648   3.057   1.278   3.818  0.6082 -1.3639  0.4348
 2396SOL     OW18649   2.016   0.979   6.961  0.3261  0.7568  0.4126
 2396SOL    HW118650   2.064   1.036   6.901  1.0150 -0.3759 -0.1149
 2396SOL    HW218651   1.987   0.924   6.888 -0.2800 -0.2627  1.4263
 2397SOL     OW18652   2.305   0.787  14.172 -0.0967 -0.6856 -0.7885
 2397SOL    HW118653   2.329   0.740  14.093 -1.0366  1.8409 -2.5752
 2397SOL    HW218654   2.217   0.817  14.148 -0.3856 -0.7194  0.2266
 2398SOL     OW18655   2.530   3.938   2.870 -0.0166  0.5617 -0.1150
 2398SOL    HW118656   2.610   3.920   2.822  0.3311 -0.6122  0.9159
 2398SOL    HW218657   2.475   3.861   2.858  2.0169 -0.6492 -1.5479
 2399SOL     OW18658   4.624   1.842   9.664 -0.6903 -0.7632  0.1596
 2399SOL    HW118659   4.594   1.757   9.696 -1.4062 -0.1552  1.0813
 2399SOL    HW218660   4.567   1.850   9.588  1.0575  0.6059 -1.0001
 2400SOL     OW18661   4.614   2.535  13.949  0.1610 -0.4611 -0.2774
 2400SOL    HW118662   4.657   2.569  14.028 -2.0086  5.5599 -1.6427
 2400SOL    HW218663   4.567   2.461  13.987 -0.5222  0.5483  0.8625
 2401SOL     OW18664   4.087   4.311   8.649 -0.5680 -0.1493  0.3641
 2401SOL    HW118665   4.166   4.364   8.655 -1.2654  0.9768 -0.4955
 2401SOL    HW218666   4.100   4.250   8.722 -1.1012  0.7224  1.1780
 2402SOL     OW18667   0.114   1.954  11.143 -0.0106  0.3827  0.5496
 2402SOL    HW118668   0.021   1.935  11.132 -0.6912  1.4053  4.6540
 2402SOL    HW218669   0.150   1.866  11.150 -1.6856 -0.3147  0.5008
 2403SOL     OW18670   4.329   3.053   2.605  0.3819 -0.1160 -0.4641
 2403SOL    HW118671   4.347   2.979   2.547 -0.1686 -0.0549 -0.7203
 2403SOL    HW218672   4.242   3.025   2.632  1.3232  0.0504  2.7066
 2404SOL     OW18673   4.693   3.444   9.219  0.2011  0.3607 -0.1333
 2404SOL    HW118674   4.661   3.506   9.285  2.4990  1.4969 -0.1099
 2404SOL    HW218675   0.031   3.490   9.162  1.2550 -1.2819 -0.3297
 2405SOL     OW18676   2.545   4.098   4.521 -0.0403 -0.2346  0.6284
 2405SOL    HW118677   2.625   4.151   4.519 -0.1391 -0.1047 -0.0856
 2405SOL    HW218678   2.552   4.039   4.446  0.1692 -0.3229  0.7168
 2406SOL     OW18679   4.478   3.798   7.022 -0.1934 -0.7566 -0.2951
 2406SOL    HW118680   4.561   3.751   7.016  1.7025  2.3897  1.0725
 2406SOL    HW218681   4.459   3.821   6.931 -0.0678  1.0337  0.1190
 2407SOL     OW18682   3.360   1.504   7.225  0.0121 -0.2657 -0.0869
 2407SOL    HW118683   3.345   1.580   7.168 -2.2970 -0.2673  0.5211
 2407SOL    HW218684   3.399   1.542   7.304  1.8423  1.5816 -1.8740
 2408SOL     OW18685   0.149   2.598  11.083 -0.1471 -0.4317  0.3347
 2408SOL    HW118686   0.126   2.583  11.175  3.3309  0.5866  1.3944
 2408SOL    HW218687   0.157   2.510  11.046  0.0116  0.5130 -1.8388
 2409SOL     OW18688   4.353   0.218  16.667  0.5577 -0.6385 -0.8324
 2409SOL    HW118689   4.340   0.135  16.620 -2.6812  0.6273 -2.1717
 2409SOL    HW218690   4.448   0.219  16.670  0.5057 -0.6160  0.7275
 2410SOL     OW18691   2.323   0.448   9.219 -0.5408 -0.1763  0.2934
 2410SOL    HW118692   2.411   0.411   9.227 -0.2548  0.4442  0.0170
 2410SOL    HW218693   2.273   0.378   9.177  2.0037 -1.9439  0.1949
 2411SOL     OW18694   3.493   2.592   5.848  0.0386  0.0554  0.2246
 2411SOL    HW118695   3.499   2.657   5.778  0.3940 -1.3850 -1.0702
 2411SOL    HW218696   3.568   2.610   5.905 -0.5729  1.8660  0.4765
 2412SOL     OW18697   2.209   4.570   4.314 -0.3791  0.7817 -0.5065
 2412SOL    HW118698   2.212   4.662   4.291  0.7560  0.6253 -1.0253
 2412SOL    HW218699   2.296   4.538   4.287 -2.0197 -2.4373 -1.9884
 2413SOL     OW18700   3.552   2.798  15.136 -0.4675 -0.1846  0.1512
 2413SOL    HW118701   3.591   2.882  15.111 -0.7075  0.5402  2.1541
 2413SOL    HW218702   3.491   2.829  15.203  0.2087 -1.2127  1.2405
 2414SOL     OW18703   2.756   0.706   1.150 -0.0082  0.2426  0.2251
 2414SOL    HW118704   2.802   0.661   1.221  0.7089  0.8072  0.1212
 2414SOL    HW218705   2.722   0.631   1.101 -0.5219  0.4297  0.2891
 2415SOL     OW18706   4.674   2.271  10.768 -0.1247  0.2149 -0.3751
 2415SOL    HW118707   4.665   2.327  10.691 -1.7690 -2.4287 -2.1009
 2415SOL    HW218708   4.718   2.196  10.729  0.9575  0.7140 -0.1137
 2416SOL     OW18709   0.438   1.844   3.168  0.0300  0.6254 -0.2205
 2416SOL    HW118710   0.491   1.772   3.135 -1.7722 -1.7404  2.0436
 2416SOL    HW218711   0.405   1.819   3.254  0.6772 -1.6530 -0.6433
 2417SOL     OW18712   2.490   1.685   6.035 -0.1436  0.1114 -0.6265
 2417SOL    HW118713   2.522   1.757   5.980 -0.9798 -0.0857 -1.3763
 2417SOL    HW218714   2.420   1.722   6.089  1.7425  0.1903  1.7678
 2418SOL     OW18715   4.191   0.639   1.029  0.2727  0.0752 -0.7271
 2418SOL    HW118716   4.198   0.716   0.972  1.6459  0.7958  0.4249
 2418SOL    HW218717   4.114   0.653   1.084  0.3701 -1.8646 -0.1059
 2419SOL     OW18718   1.214   2.173   3.617 -0.4322 -0.0343  0.1377
 2419SOL    HW118719   1.172   2.259   3.617 -2.2855 -0.9481 -1.2632
 2419SOL    HW218720   1.264   2.169   3.535  0.8079 -0.9107  0.9402
 2420SOL     OW18721   2.442   3.531   0.854 -0.1973 -0.1881 -0.1646
 2420SOL    HW118722   2.446   3.455   0.796 -1.6074  1.7821 -2.8002
 2420SOL    HW218723   2.473   3.601   0.797 -2.2093  1.6032  0.9604
 2421SOL     OW18724   1.607   3.113   1.206 -0.2569 -0.1359  0.0260
 2421SOL    HW118725   1.669   3.065   1.261  0.8192  1.2469  0.0033
 2421SOL    HW218726   1.531   3.055   1.214 -0.8081  0.4157 -1.2655
 2422SOL     OW18727   0.729   1.698   6.052 -0.1640  0.2029 -0.0043
 2422SOL    HW118728   0.818   1.681   6.083 -0.2496  0.2289  0.2594
 2422SOL    HW218729   0.734   1.680   5.959  2.1434  0.3811  0.0843
 2423SOL     OW18730   2.011   1.880  17.209  0.0655 -0.4993  0.0042
 2423SOL    HW118731   2.073   1.946  17.181 -1.5134  1.2907  0.7221
 2423SOL    HW218732   1.950   1.881  17.136 -0.6978 -0.9075  0.6269
 2424SOL     OW18733   2.533   2.940  11.231 -0.0474  1.0002 -0.1605
 2424SOL    HW118734   2.604   2.876  11.237  0.2848  1.4199  0.3712
 2424SOL    HW218735   2.493   2.910  11.150 -0.0190  0.6374 -0.0375
 2425SOL     OW18736   2.408   0.915   0.929 -0.1112  0.3219 -0.5400
 2425SOL    HW118737   2.490   0.908   0.880  1.1807  2.2606  1.3593
 2425SOL    HW218738   2.454   0.892   1.009 -0.2042 -0.3551 -0.6766
 2426SOL     OW18739   1.980   3.190   1.946 -0.2537 -0.4290  0.5506
 2426SOL    HW118740   2.011   3.255   2.009 -1.9088 -1.3814  2.3322
 2426SOL    HW218741   2.020   3.106   1.966 -0.7208 -1.0681 -1.1847
 2427SOL     OW18742   4.455   2.717  13.176 -0.0051 -0.4818  0.1706
 2427SOL    HW118743   4.543   2.730  13.212 -0.2612 -0.4224  0.7687
 2427SOL    HW218744   4.474   2.709  13.083  0.8561 -1.4581  0.4311
 2428SOL     OW18745   0.682   3.617   4.440 -0.0503  0.0727 -0.1969
 2428SOL    HW118746   0.752   3.657   4.491  0.8900 -3.2412  1.1033
 2428SOL    HW218747   0.676   3.527   4.473 -0.8484 -0.4487 -1.7586
 2429SOL     OW18748   3.851   3.821  10.481 -0.2970 -0.8587 -0.1808
 2429SOL    HW118749   3.923   3.784  10.533  1.3034  1.6719 -0.5670
 2429SOL    HW218750   3.795   3.858  10.548 -0.7607 -2.8690  0.5343
 2430SOL     OW18751   2.837   1.266  17.668  0.2635 -0.1534  0.7526
 2430SOL    HW118752   2.909   1.207  17.692  0.7046 -0.3225 -0.9799
 2430SOL    HW218753   2.844   1.337   0.037  3.5581  0.0990  0.1266
 2431SOL     OW18754   3.056   1.029   3.971 -0.0964  0.2471  0.3659
 2431SOL    HW118755   3.048   1.034   4.066  0.4204  1.8606  0.3216
 2431SOL    HW218756   3.071   0.935   3.958 -0.5974 -0.0050  1.6006
 2432SOL     OW18757   0.804   4.652   3.623  0.2253  0.1620  0.2969
 2432SOL    HW118758   0.766   4.716   3.683 -1.2803 -0.9647  0.5392
 2432SOL    HW218759   0.750   4.671   3.546  0.3749  0.9835  0.3888
 2433SOL     OW18760   3.633   2.006  11.646 -0.6629  0.1295 -0.1617
 2433SOL    HW118761   3.673   1.988  11.731 -1.0020  0.3827  0.0516
 2433SOL    HW218762   3.652   1.926  11.596  0.8856  0.0404  0.5601
 2434SOL     OW18763   3.192   0.124   5.909  0.4787  0.3866 -0.3758
 2434SOL    HW118764   3.196   0.150   6.001  0.1949 -0.4222 -0.1378
 2434SOL    HW218765   3.127   0.054   5.917  1.3371 -0.4011 -0.3288
 2435SOL     OW18766   1.278   2.623   1.419  0.6188  0.0694 -0.1227
 2435SOL    HW118767   1.321   2.553   1.468 -0.9962  1.3638  3.1260
 2435SOL    HW218768   1.314   2.618   1.330  0.4585 -1.3923 -0.1068
 2436SOL     OW18769   3.535   2.883   1.369  0.1970  0.3194  0.5625
 2436SOL    HW118770   3.573   2.817   1.428  1.6111 -1.0900 -1.9319
 2436SOL    HW218771   3.487   2.937   1.431 -1.0996  0.9760 -1.0064
 2437SOL     OW18772   4.028   4.101   0.224  0.3520  0.4356 -0.3027
 2437SOL    HW118773   3.964   4.142   0.166  0.3911  1.2037  0.2008
 2437SOL    HW218774   3.978   4.098   0.306  0.5976 -1.5189 -0.2344
 2438SOL     OW18775   2.149   0.547   8.539  0.2827  0.8306  0.3306
 2438SOL    HW118776   2.087   0.620   8.541  0.7829  1.1444  4.2633
 2438SOL    HW218777   2.170   0.537   8.446 -2.7473 -0.2499 -0.2280
 2439SOL     OW18778   1.626   4.091  16.624 -0.0740 -0.8866  0.6666
 2439SOL    HW118779   1.598   4.018  16.569  0.1933  0.0510 -0.7098
 2439SOL    HW218780   1.547   4.094  16.678 -0.0726 -0.7413  0.6595
 2440SOL     OW18781   3.050   1.860   9.870  0.5060  0.3011  0.2900
 2440SOL    HW118782   3.118   1.802   9.904  0.4892  0.4046  0.4952
 2440SOL    HW218783   2.986   1.797   9.836 -0.5402 -0.0521  2.9084
 2441SOL     OW18784   4.350   2.225   2.563 -0.8165 -0.2815  0.3841
 2441SOL    HW118785   4.286   2.154   2.570 -0.6862 -0.2658  1.7134
 2441SOL    HW218786   4.296   2.279   2.505  1.1322  0.9535 -0.2456
 2442SOL     OW18787   3.273   2.569   4.088  0.1868 -0.5034  0.4292
 2442SOL    HW118788   3.258   2.633   4.019 -0.4065 -0.4531  0.6008
 2442SOL    HW218789   3.248   2.622   4.163 -1.6014 -0.1929 -0.3698
 2443SOL     OW18790   2.365   1.980   4.030  0.0907 -0.5459 -0.1826
 2443SOL    HW118791   2.396   2.057   3.982  1.6464 -0.9069  0.2662
 2443SOL    HW218792   2.385   1.907   3.971  0.9909 -0.2392 -0.2492
 2444SOL     OW18793   4.605   0.761   4.923 -0.8596 -0.0634  0.2281
 2444SOL    HW118794   4.618   0.670   4.947 -2.0181  0.0145  1.1239
 2444SOL    HW218795   4.697   0.789   4.923 -0.3938 -1.6277 -0.1983
 2445SOL     OW18796   3.985   4.351   0.993 -0.1497  0.2021  0.3638
 2445SOL    HW118797   3.992   4.431   1.046  0.4827  1.1222 -1.0878
 2445SOL    HW218798   3.961   4.385   0.906  0.8582  0.1993  0.0815
 2446SOL     OW18799   1.608   4.396   7.675  0.3694  0.1935 -0.2882
 2446SOL    HW118800   1.593   4.302   7.670  0.1516  0.1869  0.4429
 2446SOL    HW218801   1.649   4.412   7.760 -0.4023 -0.7162  0.2377
 2447SOL     OW18802   2.075   0.326   2.877  0.1125 -0.2497  0.3220
 2447SOL    HW118803   2.080   0.403   2.820 -0.8602 -0.0525  0.4921
 2447SOL    HW218804   2.133   0.266   2.831 -1.4671  0.6995 -2.8940
 2448SOL     OW18805   0.252   1.163   5.266 -0.2290 -0.7424 -0.5339
 2448SOL    HW118806   0.298   1.092   5.221  0.7862 -1.6158  1.8636
 2448SOL    HW218807   0.200   1.123   5.335  0.6760 -0.2016  0.4773
 2449SOL     OW18808   1.699   1.159   6.996  0.3914  0.0746  0.0600
 2449SOL    HW118809   1.658   1.074   6.987 -1.2825  0.8171  0.7152
 2449SOL    HW218810   1.635   1.220   6.961  0.3989 -0.5326 -1.0080
 2450SOL     OW18811   3.316   3.260   3.324 -0.2711  0.2825 -0.5567
 2450SOL    HW118812   3.332   3.263   3.229  0.0322 -2.6146 -0.6074
 2450SOL    HW218813   3.250   3.329   3.325 -0.7223 -0.1710  0.5674
 2451SOL     OW18814   0.100   0.307   6.645 -0.8623 -0.2379  0.0397
 2451SOL    HW118815   0.005   0.320   6.642 -0.7084  1.0916  1.0580
 2451SOL    HW218816   0.118   0.378   6.706  0.3512  0.0704 -0.6768
 2452SOL     OW18817   3.033   0.571   0.016 -0.1477  0.2118  0.8410
 2452SOL    HW118818   3.096   0.601   0.081 -0.6619  2.6512  0.2241
 2452SOL    HW218819   3.010   0.481   0.038 -2.4913  0.2771 -1.3336
 2453SOL     OW18820   4.137   2.495  13.976 -0.0088 -0.3381  0.1410
 2453SOL    HW118821   4.173   2.567  14.029 -1.7779  1.6633 -1.3915
 2453SOL    HW218822   4.178   2.421  14.021  0.7855  0.7554  1.2136
 2454SOL     OW18823   1.550   0.834   8.786 -0.0475 -0.1469  0.0816
 2454SOL    HW118824   1.531   0.922   8.753  0.7628  0.9247  2.5103
 2454SOL    HW218825   1.587   0.864   8.869 -0.4446 -1.2895  0.6720
 2455SOL     OW18826   2.690   2.866  16.395 -0.0339 -0.5002  0.4829
 2455SOL    HW118827   2.687   2.961  16.404 -4.1241 -0.6597  0.7118
 2455SOL    HW218828   2.780   2.855  16.425  0.3577  0.9966 -0.1384
 2456SOL     OW18829   0.657   2.718  15.103 -0.1971 -0.2281  0.3656
 2456SOL    HW118830   0.699   2.794  15.144 -0.9819  0.0572  0.6436
 2456SOL    HW218831   0.665   2.647  15.167 -0.6085 -1.0371 -0.4846
 2457SOL     OW18832   4.215   1.439   3.361  0.6529  0.6557 -0.4824
 2457SOL    HW118833   4.139   1.381   3.352  0.2844  1.3197 -1.6917
 2457SOL    HW218834   4.272   1.417   3.287 -0.6613  0.2126 -1.3764
 2458SOL     OW18835   0.473   0.398   4.285 -0.5255  0.2048 -0.4695
 2458SOL    HW118836   0.529   0.363   4.216  0.6637  0.2221  0.5021
 2458SOL    HW218837   0.388   0.412   4.242 -0.8698 -0.6117 -0.0645
 2459SOL     OW18838   1.377   0.146  16.444 -0.2548  0.6942  0.7621
 2459SOL    HW118839   1.397   0.084  16.374  0.0176  0.5978  0.9221
 2459SOL    HW218840   1.286   0.172  16.433  0.4714  2.3652 -1.2515
 2460SOL     OW18841   1.244   1.708   3.556 -0.4035 -0.0704  0.2884
 2460SOL    HW118842   1.265   1.781   3.497 -0.0393  0.5268  1.1546
 2460SOL    HW218843   1.257   1.633   3.498 -2.2919 -0.6542  0.6360
 2461SOL     OW18844   0.100   4.020   5.808 -0.3276  0.2134  0.1569
 2461SOL    HW118845   0.148   4.100   5.827 -1.9841  0.8836  1.4718
 2461SOL    HW218846   0.020   4.050   5.850 -1.0458 -2.4012  0.6568
 2462SOL     OW18847   3.357   3.475  14.153  0.6860  0.7623  0.1820
 2462SOL    HW118848   3.304   3.395  14.140  0.9592  0.3179  1.8077
 2462SOL    HW218849   3.442   3.433  14.166  0.3563  0.0611  0.1263
 2463SOL     OW18850   4.482   3.106   3.565 -0.2981 -0.0267 -0.4729
 2463SOL    HW118851   4.494   3.168   3.637 -0.9044 -0.6338  0.1508
 2463SOL    HW218852   4.387   3.114   3.554  0.0265  1.4417 -2.3675
 2464SOL     OW18853   1.417   4.422   9.316  0.0043 -0.2852  0.1959
 2464SOL    HW118854   1.324   4.424   9.296  0.1904 -0.2399 -0.6991
 2464SOL    HW218855   1.431   4.331   9.343 -1.6486 -0.0149  1.9352
 2465SOL     OW18856   0.597   3.779   9.230  0.0237 -0.2693  0.0539
 2465SOL    HW118857   0.611   3.713   9.162 -0.2766  0.4877 -0.7395
 2465SOL    HW218858   0.551   3.724   9.294 -0.4923  0.5000  0.3435
 2466SOL     OW18859   1.829   2.086   1.480 -0.1189 -0.5118  0.4863
 2466SOL    HW118860   1.801   2.162   1.429  0.2142  0.3673  1.6021
 2466SOL    HW218861   1.760   2.026   1.453  0.4880 -0.5915 -0.9228
 2467SOL     OW18862   1.118   4.297  11.307  0.7054 -0.0735 -0.4178
 2467SOL    HW118863   1.184   4.253  11.254 -0.1283 -0.0974 -1.4452
 2467SOL    HW218864   1.051   4.229  11.303 -0.5038  1.2851 -3.1094
 2468SOL     OW18865   2.549   4.233   2.681 -0.7082 -0.3029 -0.5181
 2468SOL    HW118866   2.612   4.299   2.708  2.0703 -1.9721 -2.9858
 2468SOL    HW218867   2.520   4.265   2.596 -0.1088  0.1411 -0.5510
 2469SOL     OW18868   0.397   0.617   9.330  0.4621  0.2291 -0.6222
 2469SOL    HW118869   0.373   0.529   9.357  0.2521 -0.1194 -1.9413
 2469SOL    HW218870   0.471   0.622   9.391 -0.1163 -1.8515  0.2153
 2470SOL     OW18871   2.514   4.156   0.271 -0.5510  0.0135 -0.3377
 2470SOL    HW118872   2.539   4.248   0.259 -0.1533  0.1660  1.7115
 2470SOL    HW218873   2.419   4.161   0.265 -0.6448 -1.7193 -0.0815
 2471SOL     OW18874   4.209   1.532   2.610  0.0788  0.2319 -0.5132
 2471SOL    HW118875   4.300   1.562   2.611  0.0949  0.1593  0.0092
 2471SOL    HW218876   4.197   1.513   2.703 -0.6279 -1.1827 -0.8907
 2472SOL     OW18877   0.816   2.975  15.232 -0.2860  0.7461 -0.4115
 2472SOL    HW118878   0.785   3.048  15.178  2.4927  0.4865 -2.3993
 2472SOL    HW218879   0.858   3.016  15.308  0.1156 -2.1377  0.9422
 2473SOL     OW18880   0.793   1.764   6.745  1.2582  0.4868  0.8275
 2473SOL    HW118881   0.851   1.816   6.689 -1.4062  1.6886 -0.8316
 2473SOL    HW218882   0.757   1.833   6.800  1.6234  0.9481  0.4967
 2474SOL     OW18883   2.933   0.926   7.278 -0.3210  0.1236  0.0359
 2474SOL    HW118884   2.884   0.906   7.198 -1.6027  1.0084  0.5967
 2474SOL    HW218885   2.905   0.863   7.344 -1.4275  1.6002  0.9713
 2475SOL     OW18886   0.035   3.698   8.103  0.0781  0.3210  0.2916
 2475SOL    HW118887   0.025   3.787   8.137  0.0488 -0.2573  1.7603
 2475SOL    HW218888   0.062   3.655   8.183 -1.9020 -0.2483  0.6523
 2476SOL     OW18889   0.552   4.480  11.903  0.0991 -0.0579 -0.4491
 2476SOL    HW118890   0.537   4.398  11.855  1.9118 -0.4421 -0.3769
 2476SOL    HW218891   0.592   4.539  11.839  1.4244 -0.8804 -0.4048
 2477SOL     OW18892   0.810   3.693   5.899  0.2544 -0.2925 -0.2850
 2477SOL    HW118893   0.849   3.608   5.918 -0.1566 -0.3785  0.1863
 2477SOL    HW218894   0.724   3.665   5.865 -0.4643  1.1538  0.3623
 2478SOL     OW18895   1.237   0.344   4.428 -0.4560  0.4098 -0.1543
 2478SOL    HW118896   1.206   0.410   4.365  0.2259 -0.0903 -1.0166
 2478SOL    HW218897   1.265   0.269   4.376 -0.4227  0.4326 -0.1693
 2479SOL     OW18898   1.932   1.836   6.867  0.1049 -0.1664 -0.2179
 2479SOL    HW118899   1.928   1.867   6.776 -0.2945 -0.7501 -0.4009
 2479SOL    HW218900   1.964   1.748   6.845 -0.5948 -0.5695  0.3717
 2480SOL     OW18901   1.578   1.450   5.052  0.0675 -0.2277 -0.1133
 2480SOL    HW118902   1.591   1.368   5.099 -0.6911  0.3726  1.1533
 2480SOL    HW218903   1.548   1.409   4.971 -3.1973  1.7864  0.0879
 2481SOL     OW18904   1.590   4.038   6.965  0.0824  0.7510  0.0042
 2481SOL    HW118905   1.680   4.010   6.982 -0.8301 -2.9988 -1.3131
 2481SOL    HW218906   1.554   4.005   7.047 -2.5949 -2.0876 -2.3453
 2482SOL     OW18907   4.308   4.200   1.238 -0.2841  0.0095 -0.1242
 2482SOL    HW118908   4.274   4.289   1.228 -2.4298 -0.4850  2.7420
 2482SOL    HW218909   4.300   4.173   1.147 -1.6191  1.8527 -0.5502
 2483SOL     OW18910   0.463   3.483   1.933 -0.2020 -0.1730 -0.4337
 2483SOL    HW118911   0.447   3.467   2.026  1.5405  0.7162  0.0320
 2483SOL    HW218912   0.544   3.535   1.938  0.4029 -1.1600 -0.1010
 2484SOL     OW18913   2.235   3.259   2.903 -0.7450 -0.2390  0.2427
 2484SOL    HW118914   2.244   3.198   2.830 -0.2517  1.7492 -1.3544
 2484SOL    HW218915   2.204   3.335   2.854  2.3181  1.2433  0.5919
 2485SOL     OW18916   3.974   3.057   7.396 -0.5416  0.1172  0.1273
 2485SOL    HW118917   4.037   3.116   7.356  1.1369 -2.0270 -0.4216
 2485SOL    HW218918   3.991   3.090   7.484  0.2352  1.9197 -0.7110
 2486SOL     OW18919   4.544   0.718   5.399  0.0760  0.3583 -0.2490
 2486SOL    HW118920   4.467   0.663   5.387 -0.3914  0.7359  0.9825
 2486SOL    HW218921   4.507   0.799   5.364  0.7985  1.1793  0.8595
 2487SOL     OW18922   4.590   2.966  13.481 -0.0131  0.6744  0.2784
 2487SOL    HW118923   4.549   2.882  13.503 -0.8829  0.8759 -0.6099
 2487SOL    HW218924   4.515   3.014  13.449 -1.2049 -1.3855 -0.0234
 2488SOL     OW18925   3.864   0.380   2.361 -0.7055  0.1474 -0.1318
 2488SOL    HW118926   3.793   0.414   2.415 -0.3477 -1.1537  1.1553
 2488SOL    HW218927   3.914   0.460   2.342  1.4182 -0.7853  1.6211
 2489SOL     OW18928   0.668   1.861   1.528  0.7864  0.2648  0.5754
 2489SOL    HW118929   0.627   1.854   1.614  0.4137 -1.5027  0.2633
 2489SOL    HW218930   0.757   1.880   1.558  1.1210  1.5573 -1.2646
 2490SOL     OW18931   2.155   4.109  16.049  0.1521 -0.0740 -0.4004
 2490SOL    HW118932   2.159   4.153  15.964 -0.6740  0.5032 -0.1413
 2490SOL    HW218933   2.241   4.135  16.083  0.2039  1.2129 -1.5144
 2491SOL     OW18934   2.638   2.162   5.705 -0.1162  0.2722  0.4021
 2491SOL    HW118935   2.710   2.153   5.643 -0.9706 -0.3403 -0.5047
 2491SOL    HW218936   2.581   2.096   5.664  1.1125 -0.2028 -0.5095
 2492SOL     OW18937   3.754   3.123  16.632  0.0256  0.1071  0.3248
 2492SOL    HW118938   3.808   3.044  16.620  1.9858  1.1164  2.5258
 2492SOL    HW218939   3.820   3.192  16.626 -1.0216  1.3144  2.9906
 2493SOL     OW18940   2.618   2.666   7.337 -0.1033  0.7746 -0.3247
 2493SOL    HW118941   2.603   2.715   7.256 -2.9845  0.2947 -0.0722
 2493SOL    HW218942   2.608   2.575   7.310  0.6526  1.0325 -1.4546
 2494SOL     OW18943   1.785   1.779  12.266 -0.7253  0.1314 -0.0903
 2494SOL    HW118944   1.776   1.841  12.338 -0.4037 -0.7193  0.6751
 2494SOL    HW218945   1.807   1.701  12.316  1.8665  0.6191 -0.4804
 2495SOL     OW18946   3.416   1.637   7.959  0.2750  0.5483 -1.0576
 2495SOL    HW118947   3.395   1.666   7.870  0.3485  2.5502 -0.4327
 2495SOL    HW218948   3.412   1.723   8.001  1.8791 -0.9647  2.2100
 2496SOL     OW18949   1.510   4.156   9.321  0.0470  0.0189  0.0009
 2496SOL    HW118950   1.564   4.139   9.244 -1.3345 -0.9328 -0.7621
 2496SOL    HW218951   1.430   4.117   9.286  0.9762  0.1283 -2.2536
 2497SOL     OW18952   1.933   0.102   9.132 -0.6738  0.2479 -0.4743
 2497SOL    HW118953   2.009   0.147   9.096 -1.1437  1.2850 -0.1769
 2497SOL    HW218954   1.892   0.180   9.168 -0.6786 -0.7458  1.7008
 2498SOL     OW18955   1.862   3.537   6.892 -0.5249 -0.0817  0.4661
 2498SOL    HW118956   1.836   3.579   6.810 -1.2536 -0.3593  0.5482
 2498SOL    HW218957   1.899   3.453   6.866  0.6934  0.4779  0.4301
 2499SOL     OW18958   0.317   3.603  17.013  0.2180  0.2777  0.0679
 2499SOL    HW118959   0.235   3.569  16.976 -0.3079 -0.5387  1.9378
 2499SOL    HW218960   0.383   3.589  16.945  1.1497 -1.5751  1.3416
 2500SOL     OW18961   4.458   2.569   2.578 -0.5339  0.0743 -0.2472
 2500SOL    HW118962   4.456   2.518   2.497 -0.9410 -1.9517  1.0493
 2500SOL    HW218963   4.545   2.607   2.570 -0.0063 -0.8876  0.9716
 2501SOL     OW18964   2.984   3.534   2.189  0.0111 -0.0723  0.1434
 2501SOL    HW118965   3.004   3.442   2.172 -0.4795 -0.5337  2.0502
 2501SOL    HW218966   2.906   3.536   2.133  0.5469  0.2686 -0.5922
 2502SOL     OW18967   2.979   4.673   9.750  0.0888  0.4648  0.3183
 2502SOL    HW118968   2.993   0.043   9.764  0.2437  0.6520 -1.0061
 2502SOL    HW218969   3.026   4.631   9.822 -0.0731  0.1189  0.2250
 2503SOL     OW18970   0.055   2.944   7.309  0.1174 -0.7026 -0.1416
 2503SOL    HW118971   0.090   2.941   7.220 -0.6906  0.7040 -0.5274
 2503SOL    HW218972   0.121   2.993   7.358 -1.4801  0.1238  1.1991
 2504SOL     OW18973   1.139   2.358   1.079  0.2986 -0.1871  0.6699
 2504SOL    HW118974   1.096   2.434   1.118 -0.6098 -1.2000  1.6724
 2504SOL    HW218975   1.211   2.346   1.141  0.4556 -2.3124  0.0762
 2505SOL     OW18976   3.906   1.101   6.295 -0.3171 -0.0352 -0.3826
 2505SOL    HW118977   3.889   1.194   6.305 -2.2519 -0.5030  0.6550
 2505SOL    HW218978   3.874   1.080   6.382 -1.1757  1.8351 -0.2651
 2506SOL     OW18979   0.681   1.071  13.857  0.0699 -0.3112  0.4637
 2506SOL    HW118980   0.759   1.124  13.873  0.9459 -1.2193 -0.8177
 2506SOL    HW218981   0.674   1.084  13.763  3.2426 -1.5661  0.0334
 2507SOL     OW18982   1.918   2.067   3.381  0.1634  0.3529  0.3126
 2507SOL    HW118983   1.856   2.052   3.452 -1.0485  0.4373 -0.7096
 2507SOL    HW218984   1.873   2.046   3.299  2.0893 -2.0844 -0.1152
 2508SOL     OW18985   2.433   3.997   7.712 -0.0613  0.5152  0.4343
 2508SOL    HW118986   2.460   3.956   7.630 -0.6507  0.4992  0.2538
 2508SOL    HW218987   2.350   4.040   7.692  0.3793  1.3254  0.3277
 2509SOL     OW18988   1.692   1.852   2.146 -0.1126 -0.0415 -0.0348
 2509SOL    HW118989   1.689   1.929   2.202 -0.5868  0.7083 -1.0903
 2509SOL    HW218990   1.788   1.853   2.146 -0.0787 -2.5471 -0.4486
 2510SOL     OW18991   3.236   0.716   6.683  0.6548 -0.1476 -0.0328
 2510SOL    HW118992   3.280   0.788   6.638  2.6946 -1.0697  0.4865
 2510SOL    HW218993   3.156   0.716   6.630 -2.6838  1.6085  5.0925
 2511SOL     OW18994   2.448   1.754   8.332 -0.8729  0.9272  0.1099
 2511SOL    HW118995   2.427   1.789   8.245 -1.9279  1.6542  0.6488
 2511SOL    HW218996   2.535   1.716   8.318  0.0011  2.1277  2.2688
 2512SOL     OW18997   4.073   4.425   1.812 -0.5853 -0.5443 -0.4402
 2512SOL    HW118998   4.022   4.351   1.843  0.8435 -1.9178 -1.3403
 2512SOL    HW218999   4.151   4.419   1.867 -1.9914 -2.6157  1.3210
 2513SOL     OW19000   1.689   1.206   2.346 -0.3416 -0.1436 -0.0185
 2513SOL    HW119001   1.714   1.267   2.277 -0.7030  1.2637  1.0908
 2513SOL    HW219002   1.664   1.259   2.422 -0.1337 -0.6473  0.4031
 2514SOL     OW19003   2.663   4.152   5.335 -0.8637  0.0041  0.8041
 2514SOL    HW119004   2.599   4.180   5.402 -0.0673 -1.7511  2.2956
 2514SOL    HW219005   2.718   4.093   5.387 -0.1482 -0.7672 -0.8503
 2515SOL     OW19006   1.213   3.906  13.161  0.0886 -0.0323 -0.1769
 2515SOL    HW119007   1.147   3.888  13.094  0.8121 -0.1307 -0.8614
 2515SOL    HW219008   1.199   4.000  13.166  0.9422  0.2642 -3.4416
 2516SOL     OW19009   4.420   4.372   3.252  0.2115 -0.0393  0.1532
 2516SOL    HW119010   4.416   4.401   3.343 -1.5737  1.0626 -0.2842
 2516SOL    HW219011   4.478   4.297   3.264  1.0179 -0.3553 -5.4264
 2517SOL     OW19012   4.284   4.622  14.934 -0.0405  1.0726  0.8161
 2517SOL    HW119013   4.244   4.690  14.989  0.7064  0.0715  2.5970
 2517SOL    HW219014   4.365   4.665  14.908  0.5832 -0.2735  0.5252
 2518SOL     OW19015   2.607   3.023   7.765 -0.1624 -0.2736 -0.2364
 2518SOL    HW119016   2.656   3.009   7.683  0.4187  1.1163 -0.1244
 2518SOL    HW219017   2.613   2.937   7.806  0.5366  0.5199  1.3091
 2519SOL     OW19018   4.052   3.871   9.140  0.4994 -0.4854  0.1480
 2519SOL    HW119019   3.983   3.905   9.083 -0.9025  0.5384  2.4091
 2519SOL    HW219020   3.998   3.800   9.174  1.2520 -0.3188  1.7082
 2520SOL     OW19021   0.369   2.530  14.189  0.4401 -0.1380  0.1164
 2520SOL    HW119022   0.411   2.472  14.125 -2.5762 -1.6732 -0.5160
 2520SOL    HW219023   0.426   2.517  14.264 -0.2069  0.9073  0.7834
 2521SOL     OW19024   3.314   4.670   7.987 -0.2110  0.0429 -0.1478
 2521SOL    HW119025   3.352   4.587   7.958 -1.1158  0.8116 -3.5357
 2521SOL    HW219026   3.252   4.688   7.916 -0.7577 -0.3109  0.2426
 2522SOL     OW19027   2.474   2.574   6.486  0.1164 -0.0294  0.7690
 2522SOL    HW119028   2.393   2.620   6.465 -1.3523 -2.7302  0.6181
 2522SOL    HW219029   2.508   2.626   6.559  0.1062  2.5867 -1.0765
 2523SOL     OW19030   3.330   0.182   6.439 -0.3430 -0.9513 -0.2475
 2523SOL    HW119031   3.378   0.233   6.504  1.5700 -1.7491 -1.0130
 2523SOL    HW219032   3.248   0.230   6.428  1.1482  1.6186 -0.1261
 2524SOL     OW19033   3.674   3.805   3.975  0.7419 -0.3087 -0.2766
 2524SOL    HW119034   3.684   3.847   3.889  1.8247  0.0855  0.0399
 2524SOL    HW219035   3.581   3.821   3.989  0.8098  0.5025 -0.7434
 2525SOL     OW19036   1.609   3.626   7.059  0.0217 -0.0753 -0.2501
 2525SOL    HW119037   1.654   3.590   6.983 -1.8702 -0.8157 -0.9885
 2525SOL    HW219038   1.682   3.665   7.108  0.2361 -0.9849  0.1549
 2526SOL     OW19039   2.283   3.360   5.981  0.4898  0.3410  0.0267
 2526SOL    HW119040   2.331   3.304   5.920  0.2066  0.0579  0.0638
 2526SOL    HW219041   2.323   3.353   6.068 -0.8501 -2.8868  0.3695
 2527SOL     OW19042   4.311   0.857   5.408  0.6439 -0.1751  0.5374
 2527SOL    HW119043   4.248   0.791   5.438 -0.3329  0.9815  0.9907
 2527SOL    HW219044   4.341   0.884   5.496 -0.4758  0.0805  0.8309
 2528SOL     OW19045   4.520   1.532   4.209 -0.2250 -0.3432 -0.0653
 2528SOL    HW119046   4.541   1.619   4.175 -1.3497 -0.1769 -0.3174
 2528SOL    HW219047   4.607   1.492   4.209  0.7073  1.6776 -1.0855
 2529SOL     OW19048   0.493   1.001   6.747  0.3901 -0.4803 -0.3795
 2529SOL    HW119049   0.487   1.039   6.659  1.6614  0.9645  0.1671
 2529SOL    HW219050   0.406   0.962   6.756  0.7791 -1.4683 -0.8664
 2530SOL     OW19051   3.731   0.111  11.235  0.1795 -0.4388  0.2544
 2530SOL    HW119052   3.765   0.144  11.318  0.3636 -1.4205  0.5780
 2530SOL    HW219053   3.704   0.024  11.265 -0.9753 -0.0232  0.4168
 2531SOL     OW19054   1.991   0.886   3.370 -0.2201  0.1718 -0.2172
 2531SOL    HW119055   2.006   0.980   3.368  1.1123  0.0230  2.2973
 2531SOL    HW219056   1.898   0.892   3.346 -0.6011 -1.3635  0.8567
 2532SOL     OW19057   4.063   3.589   1.769  0.0030 -0.0202 -0.1980
 2532SOL    HW119058   4.032   3.507   1.807 -0.4573  0.5489  0.6662
 2532SOL    HW219059   4.151   3.566   1.739  0.4082  1.4706 -0.1594
 2533SOL     OW19060   2.859   2.882  13.546  0.1030 -0.5259  0.1108
 2533SOL    HW119061   2.836   2.829  13.623 -2.3729  0.7060  0.2137
 2533SOL    HW219062   2.819   2.831  13.476 -0.1892 -2.4383  1.6579
 2534SOL     OW19063   3.195   4.132   3.903 -0.6529  0.4387  0.1180
 2534SOL    HW119064   3.239   4.169   3.826  1.4935  1.4758  1.8348
 2534SOL    HW219065   3.158   4.048   3.878 -2.0809  1.8135 -2.3531
 2535SOL     OW19066   1.189   1.850   5.377  0.4065 -0.0313 -0.2553
 2535SOL    HW119067   1.274   1.895   5.378  0.3344  0.1299 -1.5483
 2535SOL    HW219068   1.216   1.760   5.358 -0.7104 -0.3521 -0.2967
 2536SOL     OW19069   3.634   4.521   4.363  0.2827 -0.5673  0.0704
 2536SOL    HW119070   3.654   4.593   4.303  1.1665 -0.3936  0.5752
 2536SOL    HW219071   3.673   4.455   4.307  0.6648 -0.2044 -0.0957
 2537SOL     OW19072   4.681   4.682   8.137 -0.1973  0.3115 -0.1201
 2537SOL    HW119073   4.682   0.046   8.096 -0.4269  0.4105  0.0839
 2537SOL    HW219074   0.044   4.649   8.111 -0.0735  1.2639 -0.9273
 2538SOL     OW19075   0.424   4.138   7.899  0.2843  0.5172  0.2737
 2538SOL    HW119076   0.508   4.160   7.859  0.0613  1.9581  0.5878
 2538SOL    HW219077   0.436   4.155   7.993  1.9850 -0.6044  0.2559
 2539SOL     OW19078   2.546   4.303   5.110  0.4356  0.2288  0.4380
 2539SOL    HW119079   2.623   4.313   5.166  0.7032 -0.3502  0.1647
 2539SOL    HW219080   2.478   4.274   5.172 -0.5704 -0.9768 -1.2478
 2540SOL     OW19081   1.104   2.124   1.315 -0.1633  0.2566 -0.2720
 2540SOL    HW119082   1.118   2.215   1.341 -0.5589  0.5016 -0.8964
 2540SOL    HW219083   1.020   2.131   1.270 -1.0217  1.0251  1.4686
 2541SOL     OW19084   2.287   1.699   8.551 -0.4271 -0.1126 -0.3916
 2541SOL    HW119085   2.354   1.735   8.493  0.7575 -0.8309  0.5252
 2541SOL    HW219086   2.345   1.631   8.586 -0.5420 -0.8078 -1.5487
 2542SOL     OW19087   2.913   4.365   3.789  0.0450  0.5539 -0.1053
 2542SOL    HW119088   2.953   4.368   3.876 -1.1999 -3.0828  0.6040
 2542SOL    HW219089   2.821   4.343   3.805 -0.3340  0.2407 -2.7616
 2543SOL     OW19090   2.099   2.430  15.190 -0.5809 -0.8168 -0.0315
 2543SOL    HW119091   2.133   2.480  15.117 -2.0636  1.5387  0.8921
 2543SOL    HW219092   2.182   2.430  15.237  0.6090 -0.2380 -2.1657
 2544SOL     OW19093   3.156   3.383   7.881  0.2018  0.0813 -0.5302
 2544SOL    HW119094   3.099   3.335   7.820 -2.1217  2.0333  0.0830
 2544SOL    HW219095   3.234   3.331   7.863  1.2519  2.0158 -1.6677
 2545SOL     OW19096   2.689   0.423   0.081 -0.3813  0.7947  0.0176
 2545SOL    HW119097   2.715   0.449  17.688  0.8823  1.1175  0.4888
 2545SOL    HW219098   2.704   0.505   0.129 -3.5445  1.7082 -0.5497
 2546SOL     OW19099   0.095   2.765   4.310 -0.4543 -0.4758  0.2124
 2546SOL    HW119100   0.189   2.745   4.317 -0.2522  1.1374  2.0688
 2546SOL    HW219101   0.062   2.675   4.320 -2.4143 -0.0960 -3.1264
 2547SOL     OW19102   2.573   4.302   5.751 -0.4745  0.0500 -0.3194
 2547SOL    HW119103   2.631   4.280   5.824  2.1406  1.4629 -2.0021
 2547SOL    HW219104   2.639   4.325   5.686  2.0265  0.1509  2.2659
 2548SOL     OW19105   2.302   2.567  12.211 -0.4643  0.4237  1.0591
 2548SOL    HW119106   2.375   2.511  12.186  0.0437  1.4512  0.2476
 2548SOL    HW219107   2.247   2.516  12.151 -0.9458  2.6405 -0.3783
 2549SOL     OW19108   4.456   0.507   6.896  0.0763  0.4227 -0.0094
 2549SOL    HW119109   4.382   0.551   6.939  0.3310  2.7356 -1.9208
 2549SOL    HW219110   4.524   0.521   6.962 -0.6819  1.8637  0.4880
 2550SOL     OW19111   4.286   2.861   1.225  0.1777 -0.2985  0.4076
 2550SOL    HW119112   4.309   2.824   1.310 -1.5512 -0.1290  0.9403
 2550SOL    HW219113   4.301   2.955   1.240 -0.5607 -0.1302  0.0828
 2551SOL     OW19114   0.596   2.981   7.749  0.5752 -0.0489  0.6779
 2551SOL    HW119115   0.582   3.017   7.661 -0.4154  0.3694  0.9975
 2551SOL    HW219116   0.547   3.040   7.807 -0.0296  2.3623 -2.2444
 2552SOL     OW19117   2.582   2.071  11.784  0.0967  0.5112 -0.0936
 2552SOL    HW119118   2.622   1.998  11.738  0.5760  1.4167 -1.1076
 2552SOL    HW219119   2.501   2.095  11.739 -0.3556 -0.1688  0.3478
 2553SOL     OW19120   2.103   3.756   4.483 -0.0015 -0.6334  0.4944
 2553SOL    HW119121   2.062   3.823   4.429  3.3216  1.1394  0.1491
 2553SOL    HW219122   2.098   3.682   4.423  1.4507  0.0312 -0.4429
 2554SOL     OW19123   3.366   0.162   1.172  0.1045  0.3007  0.3291
 2554SOL    HW119124   3.405   0.078   1.194  1.6932  0.4869 -1.7158
 2554SOL    HW219125   3.445   0.216   1.182  0.6934 -0.5598  0.3375
 2555SOL     OW19126   0.176   0.809   4.684  0.8092  0.0211 -0.6893
 2555SOL    HW119127   0.206   0.888   4.729  0.4224  0.4954 -1.2568
 2555SOL    HW219128   0.082   0.800   4.702  0.8557 -0.4567 -0.6956
 2556SOL     OW19129   2.239   2.886  11.064  0.3410  0.1640  0.4490
 2556SOL    HW119130   2.227   2.822  11.135  0.7245 -1.2376 -0.7540
 2556SOL    HW219131   2.225   2.837  10.984  2.4647 -0.5398  0.4953
 2557SOL     OW19132   3.440   1.464   4.877 -0.2926  0.3829 -0.0615
 2557SOL    HW119133   3.405   1.375   4.871 -0.1661  0.3191  0.1524
 2557SOL    HW219134   3.440   1.487   4.784  0.4025 -0.4189 -0.2683
 2558SOL     OW19135   0.246   3.854   4.135  0.1816  0.4456 -0.4123
 2558SOL    HW119136   0.267   3.787   4.070  0.1237  2.5496 -2.5956
 2558SOL    HW219137   0.332   3.858   4.178 -0.3861  1.3043  0.6398
 2559SOL     OW19138   0.832   2.943   8.798  0.0815 -0.1051 -0.2045
 2559SOL    HW119139   0.908   2.900   8.759  0.6553 -0.0886  0.8720
 2559SOL    HW219140   0.846   2.917   8.889 -0.4785  0.2818 -0.0074
 2560SOL     OW19141   0.474   2.709   8.219 -0.1994 -0.5902 -0.3904
 2560SOL    HW119142   0.493   2.647   8.149  1.1226  0.1125 -0.6432
 2560SOL    HW219143   0.561   2.744   8.236 -1.3591  1.9159  0.3592
 2561SOL     OW19144   0.719   0.191   9.174  0.3109 -0.2525  0.2663
 2561SOL    HW119145   0.658   0.148   9.114  0.1352 -0.4723  0.6046
 2561SOL    HW219146   0.778   0.225   9.107 -1.3718  1.5956 -0.2591
 2562SOL     OW19147   0.236   3.274   0.227  0.5379  0.0063 -0.2603
 2562SOL    HW119148   0.311   3.242   0.276 -0.5182  0.0410  1.3652
 2562SOL    HW219149   0.189   3.312   0.302  0.0228 -1.0766 -0.0291
 2563SOL     OW19150   1.824   4.340   4.231 -0.0332  0.0092 -0.4056
 2563SOL    HW119151   1.751   4.315   4.174 -0.1509 -1.3375  0.3297
 2563SOL    HW219152   1.777   4.389   4.298  2.3739  1.5705  0.1348
 2564SOL     OW19153   3.768   0.641   4.009 -0.8453 -0.3235  0.1146
 2564SOL    HW119154   3.805   0.707   3.950  0.2031 -0.4010  0.6916
 2564SOL    HW219155   3.804   0.678   4.089  0.8889 -0.7382 -0.4841
 2565SOL     OW19156   4.625   1.318   8.440 -0.0680  0.3186  0.3527
 2565SOL    HW119157   4.613   1.236   8.392 -0.2548  0.6025 -0.0848
 2565SOL    HW219158   4.605   1.282   8.526  0.3818 -1.4550 -0.2975
 2566SOL     OW19159   0.041   2.961  12.902  0.2962 -0.1256  0.4995
 2566SOL    HW119160   0.089   2.905  12.841 -0.3983  1.3496 -1.3821
 2566SOL    HW219161   0.019   2.895  12.968  1.3623 -1.3103 -0.3276
 2567SOL     OW19162   4.119   2.432  12.853 -0.2927  0.3251  0.2003
 2567SOL    HW119163   4.066   2.447  12.932  0.1300 -2.3729  1.0143
 2567SOL    HW219164   4.203   2.465  12.886  0.5328 -0.9160 -0.6689
 2568SOL     OW19165   3.602   2.969   6.166 -0.0902 -0.8689  0.2943
 2568SOL    HW119166   3.525   3.026   6.179  0.2069 -0.2161 -0.8429
 2568SOL    HW219167   3.568   2.892   6.211 -1.1001 -2.9619 -4.0751
 2569SOL     OW19168   4.418   4.350   8.348 -0.1245 -0.0722 -0.8097
 2569SOL    HW119169   4.479   4.389   8.284 -0.3887  1.9239  0.1670
 2569SOL    HW219170   4.439   4.258   8.334 -0.2522 -0.1351 -0.5811
 2570SOL     OW19171   3.978   0.233   7.643 -0.6766  0.3599 -0.2820
 2570SOL    HW119172   3.958   0.248   7.735  0.4204  0.0781  0.0015
 2570SOL    HW219173   4.013   0.319   7.621  2.5159 -1.4268 -2.2434
 2571SOL     OW19174   1.769   2.623   8.217  0.5569 -0.0764 -0.1058
 2571SOL    HW119175   1.862   2.623   8.196  0.4617 -0.6047 -0.5148
 2571SOL    HW219176   1.758   2.701   8.272 -0.4885 -0.6862  0.5437
 2572SOL     OW19177   0.034   3.736   7.658 -0.1103 -0.0390 -0.3595
 2572SOL    HW119178   0.115   3.713   7.613 -0.0072 -0.8669  0.2553
 2572SOL    HW219179   0.053   3.705   7.746  0.7112  0.9173 -0.2008
 2573SOL     OW19180   2.587   1.981   8.542  0.7786 -0.0193 -0.1444
 2573SOL    HW119181   2.630   2.003   8.459  0.9602 -0.6454 -0.2173
 2573SOL    HW219182   2.617   1.890   8.543 -0.5817 -0.4506  0.7744
 2574SOL     OW19183   0.027   2.796  14.402  0.4800 -0.3806 -0.1249
 2574SOL    HW119184   0.075   2.809  14.321  1.3289  0.9914  0.5917
 2574SOL    HW219185   0.063   2.865  14.458  1.3144 -1.3874  0.5642
 2575SOL     OW19186   4.539   4.358   7.390 -0.3068 -0.0322  0.1667
 2575SOL    HW119187   4.478   4.432   7.393  0.7813  0.7662  2.1445
 2575SOL    HW219188   4.618   4.403   7.420  0.6511 -1.1590 -0.6400
 2576SOL     OW19189   0.294   4.346   7.725 -0.1308 -0.4522 -0.2989
 2576SOL    HW119190   0.200   4.366   7.720  0.1854  1.0275 -0.1518
 2576SOL    HW219191   0.306   4.287   7.799  1.6191  0.2189 -0.0535
 2577SOL     OW19192   0.639   1.320   8.375 -0.6743  0.0581 -0.7797
 2577SOL    HW119193   0.685   1.359   8.450 -0.9234  0.2519 -0.7280
 2577SOL    HW219194   0.706   1.324   8.307  0.0931  0.1254 -0.0205
 2578SOL     OW19195   3.289   2.996   4.761 -0.2658 -0.6714  0.6075
 2578SOL    HW119196   3.373   2.958   4.734  0.5554  1.4861  0.1403
 2578SOL    HW219197   3.289   3.089   4.738  1.7894 -0.2381  2.4015
 2579SOL     OW19198   3.312   3.423   4.344  0.3851  0.3471 -0.3528
 2579SOL    HW119199   3.234   3.369   4.359 -0.1840  0.9435 -1.1207
 2579SOL    HW219200   3.371   3.349   4.331  1.6908  0.9807  2.0554
 2580SOL     OW19201   3.416   3.917  17.094  0.4537 -0.1675 -0.2193
 2580SOL    HW119202   3.455   3.979  17.155 -1.0452  1.4070 -0.8753
 2580SOL    HW219203   3.418   3.957  17.007  0.0090  0.5946  0.1230
 2581SOL     OW19204   2.399   2.033   6.934 -0.3127 -0.3536 -0.6616
 2581SOL    HW119205   2.456   1.976   6.985 -0.1002  0.4699  0.0307
 2581SOL    HW219206   2.321   1.980   6.917 -0.9451  0.2686  0.3151
 2582SOL     OW19207   0.529   1.091   8.269 -0.0719 -0.1887  0.3329
 2582SOL    HW119208   0.556   1.174   8.309 -1.6632  0.1522  0.7105
 2582SOL    HW219209   0.546   1.024   8.336  1.1719 -0.8080 -0.6153
 2583SOL     OW19210   2.510   4.092   9.402  0.4560  0.4596 -0.1106
 2583SOL    HW119211   2.521   4.087   9.307 -1.8480 -1.8304 -0.2553
 2583SOL    HW219212   2.589   4.045   9.428  1.0379  1.1757 -0.5834
 2584SOL     OW19213   1.897   3.924  15.510 -0.5727 -0.4072  0.0154
 2584SOL    HW119214   1.932   4.001  15.555  1.1682 -1.7439  0.9481
 2584SOL    HW219215   1.925   3.940  15.420 -1.6289  0.2828 -0.1895
 2585SOL     OW19216   0.159   1.341   9.475  0.4812 -0.0130 -0.2399
 2585SOL    HW119217   0.146   1.429   9.440 -1.4369 -0.0569  0.3194
 2585SOL    HW219218   0.198   1.359   9.561  3.4369  0.6895 -1.7377
 2586SOL     OW19219   4.020   1.069   5.359 -0.3377 -0.5115 -0.2137
 2586SOL    HW119220   4.102   1.098   5.319  0.1093  0.4727  1.4130
 2586SOL    HW219221   3.959   1.127   5.314 -0.9934 -1.6711 -0.7870
 2587SOL     OW19222   1.640   3.135   8.904  0.2968 -0.3225 -0.0367
 2587SOL    HW119223   1.709   3.098   8.958  0.2372  1.8243  1.4692
 2587SOL    HW219224   1.569   3.163   8.962  1.7208 -0.1344  1.5718
 2588SOL     OW19225   3.075   2.136   2.656 -0.6297 -0.3194 -0.4248
 2588SOL    HW119226   3.092   2.228   2.635 -1.7572  0.0972  0.5303
 2588SOL    HW219227   3.160   2.108   2.692 -0.3108  2.7393  1.2274
 2589SOL     OW19228   4.176   3.749   8.486  0.1731  0.4918 -0.6411
 2589SOL    HW119229   4.197   3.665   8.528 -0.7877  0.3007 -0.5333
 2589SOL    HW219230   4.247   3.766   8.424  0.6203 -2.2310 -0.9011
 2590SOL     OW19231   3.064   2.255   3.508 -0.3647 -0.1297 -0.1899
 2590SOL    HW119232   3.088   2.186   3.570  0.1080  0.5628  0.4044
 2590SOL    HW219233   3.154   2.285   3.497  0.5510 -1.7870  2.8299
 2591SOL     OW19234   1.142   0.585  12.450 -0.4272  0.7579 -0.1105
 2591SOL    HW119235   1.117   0.493  12.440  1.9869  0.0576  0.3487
 2591SOL    HW219236   1.227   0.573  12.493 -0.9109 -0.3630  0.5304
 2592SOL     OW19237   0.133   0.898   0.082 -0.4867 -0.3305  0.2611
 2592SOL    HW119238   0.219   0.894   0.040  0.4603 -3.5288  2.4984
 2592SOL    HW219239   0.119   0.807   0.109  2.8153 -0.5478  1.2117
 2593SOL     OW19240   1.203   0.082   1.645 -0.0497 -0.1584 -0.0059
 2593SOL    HW119241   1.193   0.078   1.550  0.1852 -1.4679  0.0262
 2593SOL    HW219242   1.111   0.084   1.673  0.0369 -2.3597  0.3709
 2594SOL     OW19243   2.856   0.352   4.014 -0.0829 -0.2867  0.0361
 2594SOL    HW119244   2.947   0.378   4.028  0.0381 -1.8677  2.2943
 2594SOL    HW219245   2.859   0.346   3.919  0.2728  0.0310  0.0282
 2595SOL     OW19246   1.566   0.117   3.197  0.3420  0.1615 -0.5972
 2595SOL    HW119247   1.486   0.074   3.228  0.0913  1.4844  0.5776
 2595SOL    HW219248   1.587   0.062   3.121 -0.3143 -1.0151  0.0668
 2596SOL     OW19249   4.269   3.496   8.637  0.4353  0.3051  0.0039
 2596SOL    HW119250   4.341   3.487   8.699  1.6244  1.2169 -1.2607
 2596SOL    HW219251   4.300   3.450   8.560  0.3635  2.9615 -1.6196
 2597SOL     OW19252   0.610   4.070  10.362  0.2671 -0.2820 -0.1037
 2597SOL    HW119253   0.601   4.029  10.276  0.2045  2.0617 -1.2089
 2597SOL    HW219254   0.605   4.163  10.338  0.2856  0.0340  1.1348
 2598SOL     OW19255   3.588   2.067  15.861  0.4069 -0.0028  0.0976
 2598SOL    HW119256   3.683   2.078  15.854  0.2072  0.6835 -1.4160
 2598SOL    HW219257   3.544   2.124  15.798  0.6952  3.5569  3.0705
 2599SOL     OW19258   3.513   1.974   8.461 -0.0751 -0.2052 -0.1588
 2599SOL    HW119259   3.560   1.943   8.538  0.5958  1.6461  0.1771
 2599SOL    HW219260   3.436   1.917   8.460 -1.2214  1.3316 -0.7262
 2600SOL     OW19261   2.267   3.494  10.103 -0.3962  0.5685 -0.6330
 2600SOL    HW119262   2.351   3.539  10.098  0.4954 -1.2139 -1.8027
 2600SOL    HW219263   2.245   3.477  10.012 -1.2712 -1.8215 -0.0028
 2601SOL     OW19264   4.283   4.018  13.937  0.1675  0.1106 -0.0325
 2601SOL    HW119265   4.290   3.964  14.015  0.9258 -2.1640 -1.6764
 2601SOL    HW219266   4.372   4.031  13.906 -0.3462 -1.1782 -2.0438
 2602SOL     OW19267   0.602   4.168  17.062  0.0419  0.2232 -0.0362
 2602SOL    HW119268   0.594   4.162  17.157 -2.3200 -1.6247 -0.3383
 2602SOL    HW219269   0.671   4.108  17.033  0.4982  0.5807  0.3148
 2603SOL     OW19270   2.027   1.172   3.061  0.3010 -0.3214  0.2177
 2603SOL    HW119271   2.030   1.267   3.076 -0.5855 -0.3643  0.6606
 2603SOL    HW219272   2.100   1.158   3.000  1.6552 -1.6015  2.1459
 2604SOL     OW19273   1.749   1.843  11.638  0.1893  0.6390  0.3335
 2604SOL    HW119274   1.722   1.923  11.593  0.2213  0.4313 -0.0577
 2604SOL    HW219275   1.677   1.783  11.617  0.5377  0.9954 -1.9349
 2605SOL     OW19276   3.480   0.656  17.232  0.4707  0.3578 -0.3480
 2605SOL    HW119277   3.491   0.667  17.327 -1.9131 -1.0914  0.0747
 2605SOL    HW219278   3.391   0.624  17.225  0.5337  0.0158  0.3376
 2606SOL     OW19279   3.014   0.670   6.519  0.1633 -0.0119  0.8010
 2606SOL    HW119280   3.068   0.703   6.447 -1.6136 -0.0770 -0.5431
 2606SOL    HW219281   2.927   0.691   6.486  0.0997 -1.0622  0.2939
 2607SOL     OW19282   1.082   1.573   3.170 -0.2516 -0.2260 -0.1836
 2607SOL    HW119283   1.066   1.498   3.226  0.5459 -1.0962 -1.1158
 2607SOL    HW219284   1.003   1.620   3.197  0.3741  0.4296  0.4772
 2608SOL     OW19285   2.773   4.103   0.914  0.4390  0.0827 -0.2915
 2608SOL    HW119286   2.743   4.136   0.829 -1.9346 -2.2644 -0.3479
 2608SOL    HW219287   2.693   4.106   0.965  1.1962 -1.0411  0.9509
 2609SOL     OW19288   4.246   4.619   1.669  0.0954 -0.1009  0.1119
 2609SOL    HW119289   4.323   4.563   1.687  0.3486 -0.1763 -1.2192
 2609SOL    HW219290   4.173   4.562   1.691 -0.4166 -0.8630 -3.5757
 2610SOL     OW19291   3.878   0.209   7.205 -0.0803  0.0903  0.2313
 2610SOL    HW119292   3.823   0.180   7.132 -1.4905 -1.7710  2.0270
 2610SOL    HW219293   3.845   0.135   7.257 -0.9143  0.2220 -0.1130
 2611SOL     OW19294   1.645   1.527   6.310  0.4507 -0.0914 -0.5581
 2611SOL    HW119295   1.679   1.478   6.385 -3.3745  0.7730  1.7437
 2611SOL    HW219296   1.631   1.459   6.244  2.1709 -0.2662 -0.7312
 2612SOL     OW19297   4.180   0.136  16.284 -0.2789  0.0379  0.1797
 2612SOL    HW119298   4.224   0.119  16.368 -0.8492 -0.7670  0.3160
 2612SOL    HW219299   4.105   0.078  16.296  0.7869 -1.0406  1.7297
 2613SOL     OW19300   3.904   0.802   5.434  0.1842  0.3804  0.3052
 2613SOL    HW119301   3.923   0.891   5.406 -0.8516  0.6190  0.3440
 2613SOL    HW219302   3.984   0.774   5.477  0.4383 -0.5431 -0.7718
 2614SOL     OW19303   3.028   0.039   4.793 -0.2534 -0.5232 -0.1715
 2614SOL    HW119304   3.048   4.705   4.867 -0.8994 -1.2961 -0.5994
 2614SOL    HW219305   2.957   4.716   4.749 -0.9916 -1.2213  1.7681
 2615SOL     OW19306   4.237   3.501   7.460 -0.1602 -0.6631 -0.3486
 2615SOL    HW119307   4.232   3.563   7.388 -0.6600 -0.1503  0.1315
 2615SOL    HW219308   4.143   3.491   7.476  0.2134 -1.0712  1.6266
 2616SOL     OW19309   0.042   2.012   9.351  0.2195  0.4436 -0.2858
 2616SOL    HW119310   4.701   2.082   9.359  0.8464  0.9426  0.3089
 2616SOL    HW219311   0.108   2.047   9.291 -0.2000 -0.9394 -1.5707
 2617SOL     OW19312   0.416   1.852   7.340  0.0976 -0.1074  0.0460
 2617SOL    HW119313   0.478   1.794   7.297  0.1547  0.0905 -0.1386
 2617SOL    HW219314   0.461   1.934   7.361 -1.6373  0.8556  0.0183
 2618SOL     OW19315   2.288   2.231   2.279  0.3782 -0.4638 -0.1659
 2618SOL    HW119316   2.227   2.241   2.352  1.8885  0.3377  1.0140
 2618SOL    HW219317   2.346   2.160   2.308 -1.4363 -1.3927  1.1963
 2619SOL     OW19318   1.743   2.008   3.905 -0.3568  0.5484 -0.5905
 2619SOL    HW119319   1.662   1.959   3.912  0.6819 -0.9376  0.8760
 2619SOL    HW219320   1.799   1.964   3.969  0.2234  1.0429 -0.7541
 2620SOL     OW19321   1.525   0.094   4.427 -0.3162  0.1096 -0.3027
 2620SOL    HW119322   1.602   0.045   4.398 -0.9555 -1.3248  0.4084
 2620SOL    HW219323   1.514   0.145   4.347 -0.3202 -0.5055 -0.6955
 2621SOL     OW19324   1.326   3.277   0.148  0.0489 -0.0519  0.0347
 2621SOL    HW119325   1.336   3.316   0.235  0.1634 -0.0870  0.0367
 2621SOL    HW219326   1.411   3.237   0.129  0.5123  0.5183  0.8756
 2622SOL     OW19327   1.425   0.778  16.183  0.0174 -0.2100  0.3796
 2622SOL    HW119328   1.401   0.727  16.261 -0.9925  0.3856  0.4551
 2622SOL    HW219329   1.511   0.811  16.208 -1.2251  3.0846  0.1937
 2623SOL     OW19330   3.012   1.524  12.323 -0.6267  0.5332  0.0649
 2623SOL    HW119331   2.952   1.568  12.262  1.4333 -1.1206 -3.1303
 2623SOL    HW219332   2.974   1.436  12.318 -1.6228  0.9712 -0.0470
 2624SOL     OW19333   2.080   4.424   7.218  0.0867  0.4543 -0.2956
 2624SOL    HW119334   2.076   4.329   7.217  2.0868  0.3665  1.8298
 2624SOL    HW219335   2.169   4.425   7.183 -0.9504 -0.1980 -2.9557
 2625SOL     OW19336   4.547   2.000   2.586 -0.0434 -0.9797  0.2909
 2625SOL    HW119337   4.565   1.927   2.645  0.8774  0.2992  1.5656
 2625SOL    HW219338   4.517   1.951   2.509  0.7091 -1.3368  0.2261
 2626SOL     OW19339   3.197   4.547   1.971 -0.1029 -0.0346  0.1692
 2626SOL    HW119340   3.177   4.625   1.919  1.2526 -0.2344 -0.6602
 2626SOL    HW219341   3.146   4.482   1.921 -0.0605  0.2009 -0.1816
 2627SOL     OW19342   3.926   0.048   6.026  0.0480 -0.5786  0.0615
 2627SOL    HW119343   3.866   0.005   6.087 -0.3943  0.8006  0.5904
 2627SOL    HW219344   3.964   0.114   6.084 -0.8340 -1.0995  1.2274
 2628SOL     OW19345   1.891   1.376   6.252 -0.1825 -0.5745  0.0613
 2628SOL    HW119346   1.977   1.390   6.211 -1.6596 -0.2220 -2.8595
 2628SOL    HW219347   1.892   1.380   6.348 -1.7526  0.2890  0.0302
 2629SOL     OW19348   1.713   4.279   8.400 -0.0015  0.5159 -0.6387
 2629SOL    HW119349   1.770   4.289   8.476 -1.7831  1.8389  0.5336
 2629SOL    HW219350   1.698   4.368   8.368  3.1008  0.2968 -2.6937
 2630SOL     OW19351   1.359   1.434   7.342  0.0195 -0.6365 -0.3464
 2630SOL    HW119352   1.407   1.375   7.400 -2.8172  0.2154  2.8575
 2630SOL    HW219353   1.302   1.484   7.400  2.9346  0.7984  1.2540
 2631SOL     OW19354   1.179   0.765   6.894 -0.1269  0.0962  0.0744
 2631SOL    HW119355   1.176   0.764   6.990 -2.4578  3.3890  0.0714
 2631SOL    HW219356   1.132   0.848   6.885 -0.0944  0.0693 -0.3614
 2632SOL     OW19357   0.194   1.142   4.824  0.8889 -0.2680 -0.4428
 2632SOL    HW119358   0.234   1.228   4.834  2.5708 -1.1558  0.4624
 2632SOL    HW219359   0.112   1.170   4.783 -1.0084 -2.7967  1.6397
 2633SOL     OW19360   3.311   2.514   4.610 -0.1383 -0.0920  0.0065
 2633SOL    HW119361   3.257   2.502   4.687 -0.8519 -0.1786 -0.5069
 2633SOL    HW219362   3.398   2.480   4.629 -1.8446 -3.5449  1.5347
 2634SOL     OW19363   1.317   0.011   2.399 -0.3137  0.4458  0.1689
 2634SOL    HW119364   1.316   0.041   2.490  0.0330  1.3962 -0.1441
 2634SOL    HW219365   1.250   0.069   2.365 -1.7776 -0.5658  1.3148
 2635SOL     OW19366   0.475   2.879  14.596 -0.0938  0.0847 -0.1325
 2635SOL    HW119367   0.517   2.925  14.523  0.7839 -5.2635 -2.9707
 2635SOL    HW219368   0.515   2.913  14.675  0.6366 -1.9281  0.3681
 2636SOL     OW19369   0.913   2.676   4.618 -0.0855 -0.0959 -0.7056
 2636SOL    HW119370   0.918   2.632   4.703 -2.1128 -0.7982 -0.9452
 2636SOL    HW219371   0.842   2.740   4.626  1.1784  1.2025  0.1670
 2637SOL     OW19372   1.970   2.425   1.122 -0.1513 -0.2068  0.5427
 2637SOL    HW119373   1.928   2.428   1.208 -0.3212  3.3812  0.3074
 2637SOL    HW219374   1.895   2.445   1.066 -0.0367  2.7066  1.4658
 2638SOL     OW19375   3.746   2.936  16.850 -0.0631 -0.1830 -0.3949
 2638SOL    HW119376   3.839   2.958  16.843 -0.2057 -0.7812 -3.9527
 2638SOL    HW219377   3.751   2.884  16.930 -1.9122  0.6086  0.2495
 2639SOL     OW19378   3.543   3.085   8.779  0.0465  0.4429 -0.3929
 2639SOL    HW119379   3.543   3.179   8.798  0.1115  0.4589 -0.4733
 2639SOL    HW219380   3.464   3.068   8.830  0.2760  1.4031  0.2909
 2640SOL     OW19381   2.229   1.660   5.116 -0.2690  0.3526  0.1530
 2640SOL    HW119382   2.161   1.595   5.135 -0.2274  0.7889  1.8111
 2640SOL    HW219383   2.181   1.698   5.042 -0.7703 -1.5366 -0.4951
 2641SOL     OW19384   2.781   4.317   4.755  0.2645 -0.0263 -0.0127
 2641SOL    HW119385   2.721   4.269   4.812  0.7561  1.3813  1.6819
 2641SOL    HW219386   2.774   4.281   4.667 -4.0911  0.0312  0.3223
 2642SOL     OW19387   1.796   1.107  12.049 -0.5565 -0.5406 -0.2945
 2642SOL    HW119388   1.879   1.118  12.002  0.0598 -3.3930  0.1278
 2642SOL    HW219389   1.733   1.102  11.977 -1.1196 -0.8267  0.2178
 2643SOL     OW19390   0.904   4.080  16.356 -0.1807 -0.1504 -0.7720
 2643SOL    HW119391   0.928   4.127  16.276  0.3327 -0.9426 -1.0878
 2643SOL    HW219392   0.993   4.052  16.378 -1.1730 -1.4305  1.5401
 2644SOL     OW19393   3.746   2.940   4.246 -0.3150 -0.0843  0.0903
 2644SOL    HW119394   3.779   3.030   4.245 -0.9262  0.1772  3.7395
 2644SOL    HW219395   3.655   2.953   4.222  0.0439 -1.5348 -2.1337
 2645SOL     OW19396   0.066   1.666  10.400  0.6776 -0.1876 -0.5625
 2645SOL    HW119397   4.715   1.720  10.374  0.4984 -0.6361 -0.9827
 2645SOL    HW219398   0.106   1.693  10.483 -1.1784  1.1130 -0.0937
 2646SOL     OW19399   3.430   1.163   5.307 -0.0789 -0.1414  0.3615
 2646SOL    HW119400   3.419   1.250   5.267 -1.6048 -1.1688 -1.4225
 2646SOL    HW219401   3.410   1.103   5.236  2.0486 -0.7503  0.2714
 2647SOL     OW19402   0.236   4.711   3.838  0.4473 -0.5560 -0.1700
 2647SOL    HW119403   0.236   4.717   3.933 -0.4564  1.0190 -0.2636
 2647SOL    HW219404   0.307   4.647   3.833 -0.8065 -2.0170  0.7172
 2648SOL     OW19405   4.716   1.305   0.650  0.0198 -0.1906  0.4136
 2648SOL    HW119406   4.685   1.227   0.696  2.3332 -0.0905  2.1662
 2648SOL    HW219407   4.661   1.292   0.573  0.1799  2.6310 -0.1743
 2649SOL     OW19408   4.025   0.397   2.957  0.5329 -0.3157  0.0502
 2649SOL    HW119409   4.111   0.439   2.961 -0.0694  0.9618 -0.8154
 2649SOL    HW219410   3.978   0.476   2.930  0.4690 -0.7551 -1.1601
 2650SOL     OW19411   1.599   4.388   7.979 -0.2290  0.0045 -0.1379
 2650SOL    HW119412   1.531   4.338   7.933  1.6443 -1.0264 -1.8155
 2650SOL    HW219413   1.582   4.372   8.072 -0.9904 -0.4817 -0.3576
 2651SOL     OW19414   2.338   2.334   5.088  0.1687  0.0182 -0.1318
 2651SOL    HW119415   2.347   2.366   5.178 -0.1879 -0.5876  0.1200
 2651SOL    HW219416   2.394   2.393   5.038  1.9607  0.3033  2.1875
 2652SOL     OW19417   3.750   4.474   5.508  0.0290 -0.4835  0.0432
 2652SOL    HW119418   3.669   4.507   5.470  0.8376  0.9314 -0.4382
 2652SOL    HW219419   3.770   4.394   5.459 -0.8574 -0.2573 -0.6886
 2653SOL     OW19420   3.019   3.616   7.946 -0.9004  0.2888 -0.1334
 2653SOL    HW119421   3.067   3.685   7.900  1.0700  0.0601  1.5744
 2653SOL    HW219422   3.065   3.540   7.910 -0.3946  0.2586  0.5928
 2654SOL     OW19423   1.323   4.163   3.001 -0.3026 -0.5524  0.3717
 2654SOL    HW119424   1.407   4.168   2.955 -1.3241  0.0554 -1.4172
 2654SOL    HW219425   1.325   4.067   3.010  0.5932 -0.4490  1.3855
 2655SOL     OW19426   3.967   2.102   4.789 -0.0980 -0.1676  0.3903
 2655SOL    HW119427   3.988   2.032   4.727 -1.8385 -0.7180  0.4400
 2655SOL    HW219428   4.005   2.053   4.862  0.9394  1.3405  0.8680
 2656SOL     OW19429   1.271   2.477  13.417 -0.0700 -0.2601 -0.2052
 2656SOL    HW119430   1.199   2.538  13.400  1.2301  1.4149  0.2993
 2656SOL    HW219431   1.347   2.520  13.456 -1.1815  0.8504  0.7362
 2657SOL     OW19432   3.461   2.337   1.909 -0.1044  0.7658  0.3262
 2657SOL    HW119433   3.416   2.270   1.857  0.5140 -0.5601  1.4824
 2657SOL    HW219434   3.498   2.287   1.982 -0.1369  0.7520  0.3331
 2658SOL     OW19435   2.717   1.161   1.008 -0.4020 -0.0613  0.4689
 2658SOL    HW119436   2.800   1.188   0.967 -0.4521  0.6576  0.8342
 2658SOL    HW219437   2.745   1.071   1.026  0.1339  0.1830  0.8646
 2659SOL     OW19438   3.775   0.783   9.561 -0.0492 -0.3058 -0.4008
 2659SOL    HW119439   3.732   0.803   9.644 -1.3742 -0.8356 -0.9569
 2659SOL    HW219440   3.701   0.748   9.512  0.8860 -1.9596 -0.6236
 2660SOL     OW19441   1.222   0.717  11.007 -0.1871  0.1625  0.3231
 2660SOL    HW119442   1.272   0.654  11.058 -0.3152  0.3789  0.7139
 2660SOL    HW219443   1.297   0.769  10.980  0.0642 -0.3552  0.0059
 2661SOL     OW19444   0.770   1.000   0.665 -0.3627  0.7686 -0.4636
 2661SOL    HW119445   0.764   0.923   0.609  0.0769 -1.3666  2.4332
 2661SOL    HW219446   0.825   1.053   0.608  3.4436 -3.0064 -0.3728
 2662SOL     OW19447   2.189   3.229   4.263 -0.6584  0.1553 -0.0068
 2662SOL    HW119448   2.277   3.222   4.227 -0.8014  0.3421 -0.3934
 2662SOL    HW219449   2.196   3.235   4.358  1.2533  2.2756 -0.2811
 2663SOL     OW19450   4.193   1.398   8.861  0.3272  0.0887  0.3346
 2663SOL    HW119451   4.256   1.409   8.791  2.8453  0.1280  2.5982
 2663SOL    HW219452   4.202   1.480   8.911  0.0979 -0.0041  0.5306
 2664SOL     OW19453   1.585   0.555  14.178 -0.9050 -0.3726  0.2593
 2664SOL    HW119454   1.514   0.574  14.239 -0.3871  1.2760  0.3535
 2664SOL    HW219455   1.531   0.515  14.110  0.6364  1.1480 -1.8855
 2665SOL     OW19456   4.191   1.705   7.787 -0.1579  0.6893  0.3798
 2665SOL    HW119457   4.116   1.762   7.805 -0.4054 -0.0017  1.5845
 2665SOL    HW219458   4.179   1.638   7.855  1.7574 -1.3333 -1.2739
 2666SOL     OW19459   0.376   4.625  13.687 -0.5378  0.2356 -0.3012
 2666SOL    HW119460   0.337   4.621  13.774 -0.4421 -0.5954 -0.2941
 2666SOL    HW219461   0.466   4.658  13.690 -1.5767  3.0125 -0.5796
 2667SOL     OW19462   1.232   3.473   0.747  0.5325  0.0912  0.3150
 2667SOL    HW119463   1.143   3.481   0.711  1.2228  0.1340 -1.3586
 2667SOL    HW219464   1.258   3.565   0.745 -1.2438  0.5840 -0.3911
 2668SOL     OW19465   2.120   3.114   6.546 -0.2585 -0.7193  0.2494
 2668SOL    HW119466   2.129   3.124   6.451 -0.1264  3.7340  0.7645
 2668SOL    HW219467   2.063   3.037   6.536 -2.1929  0.5621  1.4074
 2669SOL     OW19468   1.294   2.455   7.889 -0.1291  0.0319  0.4603
 2669SOL    HW119469   1.261   2.545   7.895  0.2294  0.0729  2.0828
 2669SOL    HW219470   1.276   2.420   7.977 -0.4725 -2.1436 -0.4922
 2670SOL     OW19471   0.318   2.346   8.897 -0.3796  0.0302  0.2068
 2670SOL    HW119472   0.357   2.357   8.810  0.4323 -3.0795  0.1708
 2670SOL    HW219473   0.340   2.257   8.923 -1.2268 -0.4762 -0.7811
 2671SOL     OW19474   1.922   0.445   8.068  0.6608  0.4529 -0.3581
 2671SOL    HW119475   1.868   0.422   7.992  0.7038 -1.7921  0.2930
 2671SOL    HW219476   1.979   0.368   8.069  0.1025  0.0287 -1.2398
 2672SOL     OW19477   4.105   2.350   6.264  0.3618  0.0998 -0.6573
 2672SOL    HW119478   4.027   2.302   6.236  1.1907 -1.6014 -0.0489
 2672SOL    HW219479   4.157   2.280   6.303 -2.7829 -1.2004  1.2074
 2673SOL     OW19480   1.568   4.125   9.046 -0.0515  0.0009  0.0493
 2673SOL    HW119481   1.496   4.113   8.983  1.1609 -1.1451 -1.1268
 2673SOL    HW219482   1.622   4.052   9.016 -0.4261 -0.8590  1.4544
 2674SOL     OW19483   0.312   1.694   8.735  0.0560 -0.5139 -0.3491
 2674SOL    HW119484   0.372   1.675   8.807 -1.4821 -2.5063  0.3937
 2674SOL    HW219485   0.224   1.668   8.762  0.2672  0.0173  0.8589
 2675SOL     OW19486   0.832   1.032  12.543 -0.7205  0.0193  0.1053
 2675SOL    HW119487   0.873   0.946  12.551  0.0985  0.3591 -0.4512
 2675SOL    HW219488   0.832   1.042  12.448  0.8875 -2.2451 -0.1313
 2676SOL     OW19489   1.022   4.505  12.947 -0.2621 -0.1449  0.0617
 2676SOL    HW119490   0.995   4.592  12.919 -0.8151  0.2274  1.7171
 2676SOL    HW219491   1.073   4.515  13.028  1.2045 -0.1542 -0.8675
 2677SOL     OW19492   1.969   1.561   6.831 -0.1364  0.3169 -0.7747
 2677SOL    HW119493   1.883   1.552   6.790 -0.7269  0.0544  0.5395
 2677SOL    HW219494   1.944   1.545   6.922 -0.1746 -1.2826 -1.0602
 2678SOL     OW19495   0.108   0.710   2.666  0.2947 -0.0678 -0.5764
 2678SOL    HW119496   0.156   0.669   2.594  0.4075  0.0145 -0.5468
 2678SOL    HW219497   0.118   0.650   2.741  0.2347  1.0940  0.3707
 2679SOL     OW19498   2.308   2.546  15.313 -0.0882  0.7036  0.0696
 2679SOL    HW119499   2.344   2.596  15.240  1.5939 -0.7045 -0.0821
 2679SOL    HW219500   2.354   2.587  15.386  0.0547 -1.0906  0.9932
 2680SOL     OW19501   3.718   1.770   1.300 -0.3370  0.9578  0.2507
 2680SOL    HW119502   3.721   1.857   1.261  1.5518  0.3609 -0.9123
 2680SOL    HW219503   3.625   1.771   1.324  0.0307  2.4306  1.6520
 2681SOL     OW19504   0.493   0.434  13.715  0.1765  0.2930 -0.2846
 2681SOL    HW119505   0.429   0.465  13.779  0.7959  1.3308 -0.1786
 2681SOL    HW219506   0.508   0.346  13.750 -0.8705  1.0028  1.9680
 2682SOL     OW19507   2.081   3.743   0.526  0.1370  0.2922  0.5197
 2682SOL    HW119508   2.158   3.687   0.532 -1.0327 -1.1820  1.6247
 2682SOL    HW219509   2.103   3.808   0.460  1.5886 -1.5454 -0.8072
 2683SOL     OW19510   4.717   0.576  16.742 -0.7568 -0.2205  0.0433
 2683SOL    HW119511   0.061   0.574  16.674 -0.6813  1.2657  0.0688
 2683SOL    HW219512   0.050   0.599  16.816 -1.2266  3.1925 -0.6583
 2684SOL     OW19513   0.742   2.533  15.600 -0.1244  0.2489  0.3502
 2684SOL    HW119514   0.672   2.554  15.661 -0.1060  1.8372 -0.1800
 2684SOL    HW219515   0.817   2.592  15.612  0.2271 -0.0142 -0.5819
 2685SOL     OW19516   3.638   4.249  15.925  0.2191  0.1944 -0.1538
 2685SOL    HW119517   3.733   4.256  15.912 -0.0290 -1.4070 -2.6706
 2685SOL    HW219518   3.621   4.239  16.018  2.2801 -2.5912 -0.0972
 2686SOL     OW19519   2.626   0.303   3.321  0.0506 -0.4543  0.1391
 2686SOL    HW119520   2.531   0.311   3.325 -0.2415 -2.5289 -2.6220
 2686SOL    HW219521   2.639   0.231   3.382  3.6832 -0.4837 -0.6649
 2687SOL     OW19522   1.218   4.267   8.813 -0.4376  0.1320  0.5297
 2687SOL    HW119523   1.135   4.227   8.837  0.3199 -0.4813  2.0760
 2687SOL    HW219524   1.196   4.359   8.831  1.8963  1.0609 -1.3054
 2688SOL     OW19525   3.503   0.235  11.564  0.3882 -0.0813  0.4043
 2688SOL    HW119526   3.592   0.200  11.565 -0.6755 -2.8220 -0.9250
 2688SOL    HW219527   3.479   0.265  11.477 -0.5626 -1.4934  0.1687
 2689SOL     OW19528   2.434   1.779  16.361  0.1501  0.7061 -0.1077
 2689SOL    HW119529   2.515   1.829  16.371  0.2559  0.1847  1.7697
 2689SOL    HW219530   2.464   1.688  16.371 -0.6974  0.5416  0.9701
 2690SOL     OW19531   4.052   3.529   0.880 -0.3147 -0.1581 -0.0739
 2690SOL    HW119532   4.031   3.556   0.970  0.1147 -1.8079  0.5227
 2690SOL    HW219533   4.145   3.507   0.884 -0.0309  0.6752 -2.0612
 2691SOL     OW19534   0.055   1.751  13.298 -0.0160  0.5679  0.3404
 2691SOL    HW119535   0.060   1.678  13.237 -1.1466  0.9881 -0.2514
 2691SOL    HW219536   0.001   1.812  13.247  1.5310  0.8864 -0.9173
 2692SOL     OW19537   1.261   3.675   7.527 -0.5764  0.0814 -0.4989
 2692SOL    HW119538   1.290   3.756   7.569 -3.0744  1.5884 -1.7153
 2692SOL    HW219539   1.342   3.631   7.500 -0.1408 -0.9133  2.4404
 2693SOL     OW19540   1.663   0.173   3.970  0.0235  0.1811  0.0646
 2693SOL    HW119541   1.748   0.132   3.951  0.4599  1.7418 -1.3908
 2693SOL    HW219542   1.628   0.135   3.889 -1.3124  0.7704  0.3787
 2694SOL     OW19543   2.082   1.112  12.028  0.5593  0.6384 -0.2810
 2694SOL    HW119544   2.097   1.092  11.936 -1.6446 -0.8292 -0.3443
 2694SOL    HW219545   2.174   1.121  12.052  0.6008  1.9375 -0.9307
 2695SOL     OW19546   4.438   3.511  14.045 -0.1499 -0.1444 -0.1286
 2695SOL    HW119547   4.497   3.437  14.031  0.6685  1.0605 -2.9310
 2695SOL    HW219548   4.435   3.538  13.954  2.0850 -0.3835 -0.2850
 2696SOL     OW19549   2.560   1.158  16.771  0.2939  0.1228  0.1983
 2696SOL    HW119550   2.625   1.107  16.723 -0.2294 -0.7191  0.3821
 2696SOL    HW219551   2.528   1.095  16.835 -1.1224 -0.9178 -1.5305
 2697SOL     OW19552   1.178   2.327   1.489 -0.0932 -0.2916  0.0716
 2697SOL    HW119553   1.151   2.416   1.512  0.4284  0.2696 -1.5012
 2697SOL    HW219554   1.253   2.322   1.549  2.1035  1.5556 -2.5370
 2698SOL     OW19555   2.424   1.488  11.687  0.0381 -0.1234  0.2669
 2698SOL    HW119556   2.517   1.475  11.666  0.2016 -0.3004  1.0893
 2698SOL    HW219557   2.409   1.435  11.765 -1.0100  0.4165  0.4226
 2699SOL     OW19558   4.368   0.946  12.096  0.4718 -0.1105  0.1113
 2699SOL    HW119559   4.325   1.026  12.127  0.6863 -0.3091  0.9207
 2699SOL    HW219560   4.458   0.976  12.083  0.1220  1.1671  0.5595
 2700SOL     OW19561   3.542   3.857  12.129 -0.3642  0.0097  0.2207
 2700SOL    HW119562   3.574   3.884  12.043 -1.5565 -0.2473 -0.3059
 2700SOL    HW219563   3.486   3.784  12.100 -1.0210  0.9512 -0.8900
 2701SOL     OW19564   2.815   3.868  10.839  0.0865 -0.8246  0.0043
 2701SOL    HW119565   2.843   3.779  10.817  0.6214 -0.8492  0.7721
 2701SOL    HW219566   2.892   3.903  10.883  0.1926  0.1311 -0.9484
 2702SOL     OW19567   3.535   1.657   3.808 -0.0386  0.5146 -0.2144
 2702SOL    HW119568   3.602   1.632   3.745 -0.4904 -0.1084 -0.4562
 2702SOL    HW219569   3.573   1.613   3.884  0.6442  1.7602  0.1627
 2703SOL     OW19570   1.146   0.657  17.093 -0.3705  0.2626  0.2333
 2703SOL    HW119571   1.205   0.729  17.068  0.1116  0.1133  0.9463
 2703SOL    HW219572   1.178   0.589  17.034  0.1299 -0.4584  1.3566
 2704SOL     OW19573   2.294   2.267  13.976  0.4805  0.0498 -0.1637
 2704SOL    HW119574   2.382   2.266  13.940  0.7855 -2.3976  0.6380
 2704SOL    HW219575   2.245   2.319  13.912 -3.0637 -0.6528  1.9450
 2705SOL     OW19576   2.908   0.047   2.616  0.3642 -0.2008 -0.3871
 2705SOL    HW119577   2.938   4.680   2.626  0.1952 -0.2550 -0.3598
 2705SOL    HW219578   2.820   0.047   2.655  0.2031  1.4991 -0.7754
 2706SOL     OW19579   3.887   3.238   0.620  0.2126 -0.0943 -0.4272
 2706SOL    HW119580   3.952   3.277   0.562 -1.6108  3.9142  0.1747
 2706SOL    HW219581   3.946   3.186   0.673  0.8967 -0.4553 -1.5648
 2707SOL     OW19582   1.600   3.514  14.536 -0.2068 -0.1928 -0.5279
 2707SOL    HW119583   1.606   3.600  14.494  1.7174  0.7243  1.6081
 2707SOL    HW219584   1.629   3.455  14.467 -3.3206 -1.6052 -0.6267
 2708SOL     OW19585   0.011   0.916  15.593 -0.1199 -0.1149  0.2682
 2708SOL    HW119586   4.718   0.993  15.648  2.9638  1.0223 -0.3592
 2708SOL    HW219587   4.713   0.958  15.509  0.5777 -1.0138 -0.3590
 2709SOL     OW19588   1.510   1.582  15.560  0.3342 -0.0128 -0.0974
 2709SOL    HW119589   1.490   1.646  15.492 -3.3086 -1.8610 -0.7359
 2709SOL    HW219590   1.448   1.510  15.548  0.6195 -0.3358  0.3528
 2710SOL     OW19591   4.013   1.921   4.594 -0.1733 -0.0831  0.4916
 2710SOL    HW119592   4.104   1.900   4.572 -0.7288 -0.5079 -1.4114
 2710SOL    HW219593   3.963   1.847   4.557  1.3750 -1.8778  1.9801
 2711SOL     OW19594   0.889   0.697   5.588  0.3328 -0.2363 -0.5990
 2711SOL    HW119595   0.948   0.724   5.517 -1.0552  4.0104 -0.1576
 2711SOL    HW219596   0.887   0.765   5.655  1.3502 -0.0279 -0.7758
 2712SOL     OW19597   3.397   2.432   7.418 -0.0958 -0.0403  0.1939
 2712SOL    HW119598   3.474   2.476   7.454  0.9351 -1.9087  0.2944
 2712SOL    HW219599   3.366   2.371   7.485  1.7436 -0.5998  0.5377
 2713SOL     OW19600   1.403   0.034   8.973  0.1157  0.6614 -0.0944
 2713SOL    HW119601   1.340   0.041   9.045 -0.4402 -1.9050 -0.3277
 2713SOL    HW219602   1.479   0.043   9.030  0.4313  3.1238 -0.9001
 2714SOL     OW19603   3.056   2.463   6.758 -0.1821 -0.2748  0.8009
 2714SOL    HW119604   3.125   2.402   6.783  0.2423 -0.0218  0.2574
 2714SOL    HW219605   3.031   2.426   6.673  2.7433  2.0880 -1.0974
 2715SOL     OW19606   4.637   3.981  10.337 -0.3840 -0.3450  0.0507
 2715SOL    HW119607   4.617   3.951  10.425 -1.7134 -2.3770 -0.9665
 2715SOL    HW219608   4.547   3.984  10.305 -0.6676 -2.9575  0.6842
 2716SOL     OW19609   2.016   0.551  10.430  0.3907 -0.4027 -0.5667
 2716SOL    HW119610   2.022   0.639  10.467  2.5966 -0.8567  0.1569
 2716SOL    HW219611   2.110   0.532  10.435  0.1899 -1.1644  0.2589
 2717SOL     OW19612   0.473   3.034   2.129 -0.0558  0.4721  0.5593
 2717SOL    HW119613   0.498   2.967   2.192 -0.5276 -0.8269 -0.6384
 2717SOL    HW219614   0.380   3.011   2.120 -0.2957  0.6029  2.6367
 2718SOL     OW19615   0.387   4.340  11.305 -0.2900  0.0429  0.1745
 2718SOL    HW119616   0.315   4.278  11.294 -0.8721  0.5805  0.9724
 2718SOL    HW219617   0.363   4.418  11.256  0.4532  0.4873  0.5054
 2719SOL     OW19618   0.401   0.951  14.630 -0.2394  0.3269 -0.3169
 2719SOL    HW119619   0.375   1.034  14.590  0.6404 -0.1452 -1.8971
 2719SOL    HW219620   0.343   0.935  14.704 -0.2581  0.4428 -0.3059
 2720SOL     OW19621   2.449   3.219   7.893 -0.3143  0.2404  0.5094
 2720SOL    HW119622   2.403   3.269   7.961 -0.0223 -1.8703  2.2673
 2720SOL    HW219623   2.500   3.159   7.948 -0.9538 -0.7141  0.0635
 2721SOL     OW19624   0.863   3.974   9.509 -0.1864 -0.3453 -0.1236
 2721SOL    HW119625   0.827   3.937   9.590 -1.9491  0.8574 -0.3543
 2721SOL    HW219626   0.944   3.927   9.489  1.0180  2.0736 -0.8987
 2722SOL     OW19627   2.929   2.781   6.974 -0.0269 -0.7870 -0.4529
 2722SOL    HW119628   2.863   2.845   7.001  1.2199  0.8715 -1.3622
 2722SOL    HW219629   2.972   2.772   7.060 -0.3702 -0.5079 -0.2523
 2723SOL     OW19630   1.817   0.296   7.599  0.0305  0.1553  0.7103
 2723SOL    HW119631   1.751   0.243   7.554  2.0550 -0.2879 -1.7302
 2723SOL    HW219632   1.895   0.242   7.591 -1.2228 -2.0085  3.0773
 2724SOL     OW19633   0.776   2.072  10.274 -0.5428 -0.2796 -0.7378
 2724SOL    HW119634   0.701   2.020  10.303  1.5963 -0.8766  3.7538
 2724SOL    HW219635   0.851   2.022  10.307 -0.3419  1.0733  0.8489
 2725SOL     OW19636   0.815   3.759  13.541 -0.0403 -0.3598  0.0875
 2725SOL    HW119637   0.849   3.767  13.452  2.8118  0.2321  1.2391
 2725SOL    HW219638   0.798   3.851  13.561  2.3533  0.2174 -0.5939
 2726SOL     OW19639   1.383   0.576   3.602 -0.0545  0.0958 -0.0776
 2726SOL    HW119640   1.457   0.614   3.651 -0.2107  1.9070 -1.2817
 2726SOL    HW219641   1.341   0.648   3.555 -0.9665 -0.9842 -0.9047
 2727SOL     OW19642   3.153   1.169  17.381  0.0796 -0.0016 -0.5361
 2727SOL    HW119643   3.143   1.096  17.320 -0.3925  0.8324 -1.4571
 2727SOL    HW219644   3.070   1.216  17.371  0.1798  0.6560  1.6753
 2728SOL     OW19645   4.294   1.733  15.873  0.2193  0.1478  0.4304
 2728SOL    HW119646   4.215   1.778  15.903 -0.1359 -1.9447  2.6863
 2728SOL    HW219647   4.309   1.666  15.940  0.8929 -0.1841 -0.0612
 2729SOL     OW19648   0.690   2.030   7.229 -0.3534  0.3072  0.4980
 2729SOL    HW119649   0.657   1.942   7.211  1.3238 -0.0192 -1.0497
 2729SOL    HW219650   0.785   2.017   7.219 -0.4253 -1.3352  1.8463
 2730SOL     OW19651   0.102   1.723   3.468  0.4394 -0.3382  0.1819
 2730SOL    HW119652   0.098   1.636   3.507 -2.4287 -0.7576 -1.0380
 2730SOL    HW219653   0.194   1.727   3.442  0.1129  0.0427 -0.8918
 2731SOL     OW19654   1.929   4.397   2.030  0.9523 -0.5802 -0.4987
 2731SOL    HW119655   1.908   4.482   1.992  0.4662  0.6415  2.4815
 2731SOL    HW219656   1.924   4.356   1.944 -0.2841 -0.6665 -0.3927
 2732SOL     OW19657   2.896   0.991  11.009  0.1582  0.3020  0.0507
 2732SOL    HW119658   2.889   1.087  11.015  0.1436  0.2993  0.0763
 2732SOL    HW219659   2.877   0.967  11.100  0.6670 -1.3810 -0.2915
 2733SOL     OW19660   0.870   0.377   3.166 -0.3064 -0.3212 -0.1855
 2733SOL    HW119661   0.923   0.325   3.106  0.6539 -0.4935  0.8175
 2733SOL    HW219662   0.938   0.443   3.181 -1.2098 -0.1552  3.1814
 2734SOL     OW19663   2.495   2.484   5.899  0.4242  0.2944 -0.3210
 2734SOL    HW119664   2.515   2.470   5.992 -3.1325 -1.3817  0.2208
 2734SOL    HW219665   2.569   2.537   5.871  1.3342 -0.9428 -0.2667
 2735SOL     OW19666   3.372   2.846   2.926 -0.8280  0.7685  0.6250
 2735SOL    HW119667   3.301   2.835   2.863  0.3710 -1.9671 -0.2490
 2735SOL    HW219668   3.444   2.802   2.882 -2.1102 -2.2770  1.5937
 2736SOL     OW19669   4.271   0.540  14.746 -0.1517 -0.4098 -0.2435
 2736SOL    HW119670   4.361   0.537  14.778  0.3400 -1.6763 -1.7604
 2736SOL    HW219671   4.251   0.633  14.761 -2.1759 -0.6519 -1.3558
 2737SOL     OW19672   0.425   0.068   1.388 -0.3729  0.0299 -0.2115
 2737SOL    HW119673   0.513   0.064   1.425 -0.1892 -1.0932 -0.7461
 2737SOL    HW219674   0.415   4.706   1.344  1.6958 -0.0046 -0.6094
 2738SOL     OW19675   0.029   4.117   2.413  0.1807 -0.0954  0.5047
 2738SOL    HW119676   4.680   4.179   2.411  0.8822  0.7327  0.6834
 2738SOL    HW219677   0.038   4.119   2.508 -0.0305 -0.0276  0.5221
 2739SOL     OW19678   4.674   2.376  16.675  0.1588 -0.2726 -0.1594
 2739SOL    HW119679   4.679   2.363  16.581 -0.8018  0.2656 -0.2920
 2739SOL    HW219680   4.606   2.444  16.672 -0.4157 -0.7937  0.8501
 2740SOL     OW19681   1.398   1.982   1.619 -0.0346 -0.7313  0.6544
 2740SOL    HW119682   1.430   1.914   1.678  0.4672 -1.4315 -0.4334
 2740SOL    HW219683   1.362   2.043   1.685  1.4982 -0.0833  0.8800
 2741SOL     OW19684   4.364   0.089   9.307  0.0044 -0.2208  0.3306
 2741SOL    HW119685   4.364   0.043   9.391 -0.4013  0.0936  0.5034
 2741SOL    HW219686   4.410   0.023   9.255 -1.2542  0.0825 -1.1462
 2742SOL     OW19687   0.821   2.781  11.604  0.2651 -0.6029  0.2530
 2742SOL    HW119688   0.800   2.785  11.511  1.1621 -0.8252  0.0377
 2742SOL    HW219689   0.745   2.773  11.662  0.1582 -2.9993 -0.2060
 2743SOL     OW19690   0.145   2.108   8.620  0.0040  0.3612 -0.4949
 2743SOL    HW119691   0.080   2.114   8.689  0.6813 -1.3994  0.3028
 2743SOL    HW219692   0.153   2.198   8.590 -0.2995  0.0982 -1.3619
 2744SOL     OW19693   2.294   3.150   1.562  0.1851  0.5084 -0.7575
 2744SOL    HW119694   2.337   3.109   1.637 -0.3982 -0.0493 -0.7293
 2744SOL    HW219695   2.218   3.193   1.601 -0.0982  0.6118 -1.4229
 2745SOL     OW19696   2.212   2.752   7.508 -0.4113 -0.0918 -1.1658
 2745SOL    HW119697   2.208   2.723   7.417  1.3867 -1.0111 -0.9578
 2745SOL    HW219698   2.307   2.752   7.522 -0.2135  1.4284 -2.3767
 2746SOL     OW19699   4.350   3.523   2.831  0.7808  0.2403 -0.3356
 2746SOL    HW119700   4.297   3.455   2.790 -1.5536  0.9249  1.5623
 2746SOL    HW219701   4.428   3.517   2.776  1.2236 -1.0217  0.4126
 2747SOL     OW19702   2.747   3.193   1.216 -0.2034  0.5539  0.4043
 2747SOL    HW119703   2.786   3.264   1.267  0.0745  2.3260 -2.2886
 2747SOL    HW219704   2.802   3.195   1.137  0.7571 -1.8151  1.0090
 2748SOL     OW19705   4.313   0.635   9.510 -0.5610  0.4918 -0.0875
 2748SOL    HW119706   4.318   0.540   9.505  0.8622  0.6473 -1.5882
 2748SOL    HW219707   4.375   0.657   9.580  0.5993  0.6892 -1.1845
 2749SOL     OW19708   1.864   1.241   3.859 -0.6133 -0.3443 -0.1773
 2749SOL    HW119709   1.935   1.230   3.795 -0.6865  0.2478 -0.3570
 2749SOL    HW219710   1.843   1.333   3.847  0.1769 -0.2779 -1.0810
 2750SOL     OW19711   0.154   0.022   1.779 -0.4684  0.0780  0.7139
 2750SOL    HW119712   0.093   0.023   1.705 -0.0035  1.5254  0.3661
 2750SOL    HW219713   0.235   4.714   1.739  0.0273  1.9430  0.3004
 2751SOL     OW19714   1.697   3.908   5.962 -0.0435  0.2846  0.6019
 2751SOL    HW119715   1.713   3.953   5.879 -0.4961 -0.6692 -0.0110
 2751SOL    HW219716   1.660   3.989   5.996  0.0468  0.9033 -0.7774
 2752SOL     OW19717   2.971   3.213  13.923 -0.1060 -0.7734 -0.8439
 2752SOL    HW119718   2.965   3.216  14.018  1.6737 -1.8157 -0.7116
 2752SOL    HW219719   2.881   3.237  13.901 -0.2418  0.1345  0.7307
 2753SOL     OW19720   1.126   1.293  13.700  0.2931 -0.2391 -0.3048
 2753SOL    HW119721   1.157   1.383  13.706  2.9886 -1.0365 -1.9343
 2753SOL    HW219722   1.152   1.268  13.611 -0.0557 -1.5040 -0.0592
 2754SOL     OW19723   3.001   3.978   4.313  0.3019 -0.5882 -0.3750
 2754SOL    HW119724   2.976   4.010   4.226 -1.6958 -0.3338  0.3053
 2754SOL    HW219725   2.977   4.055   4.364  0.5892 -1.0333  0.4332
 2755SOL     OW19726   4.391   1.193   4.240 -0.5086 -0.1836  0.7675
 2755SOL    HW119727   4.463   1.130   4.245 -0.2998  0.4126  4.9043
 2755SOL    HW219728   4.414   1.225   4.152  2.3614 -2.0447  0.8342
 2756SOL     OW19729   4.648   3.442   0.669 -0.1613 -0.4718 -0.2894
 2756SOL    HW119730   0.014   3.421   0.696 -0.1453 -0.1719 -0.1018
 2756SOL    HW219731   4.601   3.359   0.670 -1.6614  0.3592  0.6453
 2757SOL     OW19732   0.276   3.674   3.923  0.5947 -0.3158  0.1673
 2757SOL    HW119733   0.353   3.671   3.867 -0.6440  1.9566 -1.6656
 2757SOL    HW219734   0.200   3.709   3.876 -0.7711 -1.8568  1.2589
 2758SOL     OW19735   0.059   1.469   6.670 -0.0289  0.0262 -0.1519
 2758SOL    HW119736   0.090   1.557   6.692  0.8565  0.2672 -2.3942
 2758SOL    HW219737   0.122   1.412   6.715  1.1988  2.0835  0.7691
 2759SOL     OW19738   1.924   3.550  15.440 -0.0458  0.2552  0.5360
 2759SOL    HW119739   1.838   3.539  15.481 -0.9033 -0.5611 -1.4650
 2759SOL    HW219740   1.990   3.555  15.509  2.4027  1.5072 -1.9299
 2760SOL     OW19741   3.481   2.231  14.389  0.6878  0.0546  0.2939
 2760SOL    HW119742   3.453   2.143  14.362 -0.1229  0.7672 -1.1908
 2760SOL    HW219743   3.424   2.286  14.335 -0.3187 -0.0231  1.2762
 2761SOL     OW19744   2.653   1.569   9.261 -0.8302  0.1937  1.0667
 2761SOL    HW119745   2.726   1.610   9.308  0.3994  0.4234 -1.0417
 2761SOL    HW219746   2.686   1.480   9.253  1.1637  1.2143 -2.3442
 2762SOL     OW19747   4.372   0.515   1.327 -0.5899  0.2675 -0.0106
 2762SOL    HW119748   4.359   0.526   1.233  2.1260 -1.0166 -0.5624
 2762SOL    HW219749   4.333   0.432   1.354  0.7419  0.0049  1.1161
 2763SOL     OW19750   2.200   2.456   2.152  0.4561  0.0738  0.0608
 2763SOL    HW119751   2.207   2.431   2.060 -0.0188 -1.4878  0.4421
 2763SOL    HW219752   2.235   2.379   2.196  0.2872 -1.0004 -1.6863
 2764SOL     OW19753   2.453   0.068   7.195  0.5859 -0.0859 -0.1466
 2764SOL    HW119754   2.377   0.094   7.144  0.2914 -0.2453  0.2151
 2764SOL    HW219755   2.438   0.121   7.273  0.9359 -0.5399  0.2309
 2765SOL     OW19756   0.884   1.921   9.020 -0.0673 -0.7170 -0.2970
 2765SOL    HW119757   0.962   1.904   8.968  2.1102  1.0025  2.4340
 2765SOL    HW219758   0.855   2.001   8.976 -1.0881 -0.4641  0.8226
 2766SOL     OW19759   1.536   1.713   7.869  0.9122 -0.1435  0.3424
 2766SOL    HW119760   1.598   1.690   7.939  0.8802  0.3749  0.5432
 2766SOL    HW219761   1.571   1.799   7.846 -0.3849  0.2653 -0.0979
 2767SOL     OW19762   1.345   2.430   4.673  0.2532  0.1365  0.4915
 2767SOL    HW119763   1.271   2.369   4.669  0.4311 -0.1601  1.6986
 2767SOL    HW219764   1.304   2.517   4.676 -0.8455 -0.3885  0.6410
 2768SOL     OW19765   2.707   0.545   4.155  0.1585 -0.3294  0.1850
 2768SOL    HW119766   2.619   0.544   4.118 -0.1501  0.9420  0.8702
 2768SOL    HW219767   2.752   0.465   4.129 -0.3527 -0.9922  1.3699
 2769SOL     OW19768   2.595   2.594  16.012 -0.6925  0.2364 -0.1953
 2769SOL    HW119769   2.557   2.671  16.054  2.1473  1.0945  0.7814
 2769SOL    HW219770   2.604   2.539  16.090 -0.4920  0.5888  0.0266
 2770SOL     OW19771   2.883   4.696   7.762  0.0199  0.1013  0.1600
 2770SOL    HW119772   2.940   4.707   7.838  1.6855 -0.1642 -1.0484
 2770SOL    HW219773   2.808   0.031   7.776  0.6812  1.5408 -2.2473
 2771SOL     OW19774   1.926   2.457   3.677  0.6134  0.0908  0.8749
 2771SOL    HW119775   1.963   2.373   3.651  0.1957  0.5451 -1.1878
 2771SOL    HW219776   1.892   2.436   3.764 -0.0195 -1.5862  0.2113
 2772SOL     OW19777   4.111   1.501   2.864 -0.1741 -0.2221  0.6457
 2772SOL    HW119778   4.016   1.506   2.870 -0.1364  1.1525  0.0774
 2772SOL    HW219779   4.141   1.442   2.933  0.8086 -2.4194 -1.6364
 2773SOL     OW19780   1.129   2.523  11.806  0.7445  0.3077 -0.0281
 2773SOL    HW119781   1.185   2.548  11.879  3.4105 -3.1527 -0.8918
 2773SOL    HW219782   1.071   2.469  11.859  0.7931 -1.6365 -1.9630
 2774SOL     OW19783   4.440   0.261   2.082  0.4561  0.3286  0.5347
 2774SOL    HW119784   4.421   0.216   2.165 -3.6199  2.0942  0.5706
 2774SOL    HW219785   4.361   0.315   2.075 -2.0258 -3.3503 -0.1545
 2775SOL     OW19786   2.000   1.839   7.976  0.3644 -0.3164 -0.3986
 2775SOL    HW119787   1.975   1.891   8.051 -0.6910 -1.6852  0.1919
 2775SOL    HW219788   2.080   1.885   7.948 -0.9692  1.2070 -1.6674
 2776SOL     OW19789   3.004   1.478   8.186 -0.0677 -0.3903  0.3501
 2776SOL    HW119790   2.955   1.438   8.114 -0.6831 -1.3339  1.2793
 2776SOL    HW219791   3.091   1.476   8.147 -0.0940  0.4810  0.2487
 2777SOL     OW19792   3.920   0.677   1.161 -1.1053  0.2900 -0.0006
 2777SOL    HW119793   3.879   0.748   1.112 -1.1418 -0.6348 -1.3075
 2777SOL    HW219794   3.900   0.598   1.110  0.1280 -0.5688  0.8387
 2778SOL     OW19795   3.821   3.602   2.959 -0.4836  0.0184  0.4852
 2778SOL    HW119796   3.740   3.583   3.006  0.6850  0.5567  2.7321
 2778SOL    HW219797   3.794   3.607   2.867  0.3200 -0.7518  0.2122
 2779SOL     OW19798   3.750   3.711   6.476  0.5921 -0.2736 -0.2094
 2779SOL    HW119799   3.673   3.766   6.495  0.9450 -0.4908  1.9087
 2779SOL    HW219800   3.709   3.631   6.510 -2.4702  0.8953 -1.1502
 2780SOL     OW19801   0.124   3.440   6.087 -0.3129  0.2156  0.1672
 2780SOL    HW119802   0.100   3.497   6.160 -2.1721  0.6567 -0.8058
 2780SOL    HW219803   0.041   3.445   6.039  0.0572 -0.4343 -0.5510
 2781SOL     OW19804   2.252   2.277  14.888 -0.0227 -0.4597  0.6181
 2781SOL    HW119805   2.299   2.334  14.949  0.3027 -0.7934  0.6795
 2781SOL    HW219806   2.230   2.207  14.949 -1.9362 -0.5320 -0.1741
 2782SOL     OW19807   4.291   4.180   5.202 -0.0586  0.0682  0.6201
 2782SOL    HW119808   4.231   4.126   5.152 -0.9864  1.3919  0.2985
 2782SOL    HW219809   4.375   4.133   5.204 -0.0051  0.1394 -0.3168
 2783SOL     OW19810   3.568   1.711  10.515  0.6856 -0.3004  0.2597
 2783SOL    HW119811   3.552   1.656  10.438  1.5021 -0.9191  0.5457
 2783SOL    HW219812   3.662   1.723  10.505  0.5032  1.1745  0.3148
 2784SOL     OW19813   3.698   4.358   4.138 -0.4074  0.1036 -0.3911
 2784SOL    HW119814   3.705   4.280   4.083  0.2335 -0.9474  1.1847
 2784SOL    HW219815   3.603   4.370   4.137 -0.4170  0.0585  0.0186
 2785SOL     OW19816   1.929   0.135   2.183  0.0410 -0.0222  0.1488
 2785SOL    HW119817   1.872   0.173   2.250 -3.1405  1.0027 -3.1558
 2785SOL    HW219818   1.876   0.104   2.110 -0.9275 -1.0681  1.2787
 2786SOL     OW19819   1.878   3.584  10.913 -0.1915 -0.1087  0.2501
 2786SOL    HW119820   1.949   3.555  10.970  1.5398  1.5666 -1.0190
 2786SOL    HW219821   1.931   3.630  10.847 -0.3025  0.7598  0.7683
 2787SOL     OW19822   2.032   4.568   0.786 -0.2528  0.1409  0.6959
 2787SOL    HW119823   2.052   4.637   0.723 -0.9094 -1.0146 -0.7663
 2787SOL    HW219824   2.116   4.522   0.785 -1.1087 -1.4022 -0.3160
 2788SOL     OW19825   3.150   0.431   6.268 -0.2922 -0.3081  0.1428
 2788SOL    HW119826   3.200   0.490   6.324 -0.6358 -0.1823  0.3154
 2788SOL    HW219827   3.136   0.484   6.190  0.4865 -0.0765  0.1631
 2789SOL     OW19828   2.315   1.121   2.577 -0.1054 -0.4842 -0.0183
 2789SOL    HW119829   2.379   1.187   2.552  0.0425 -0.5659  0.1432
 2789SOL    HW219830   2.366   1.040   2.579 -3.2758 -2.4760  1.8704
 2790SOL     OW19831   0.499   4.025   5.705 -0.3773 -0.2451  0.6348
 2790SOL    HW119832   0.425   4.009   5.763 -1.6099 -1.0631 -1.1771
 2790SOL    HW219833   0.575   4.008   5.760  0.1666 -1.6694 -0.5663
 2791SOL     OW19834   0.215   3.769   4.842  0.6532  0.3214 -0.2340
 2791SOL    HW119835   0.290   3.715   4.869 -0.8647 -1.1530  1.0591
 2791SOL    HW219836   0.239   3.790   4.752 -1.2196 -0.6562 -0.9603
 2792SOL     OW19837   0.665   0.456   0.216  0.0982 -0.3680 -0.1078
 2792SOL    HW119838   0.591   0.503   0.254  1.9989 -0.2372  3.5287
 2792SOL    HW219839   0.610   0.384   0.185 -0.4504 -0.2050  0.4784
 2793SOL     OW19840   0.246   4.221  13.044 -0.3557 -0.1867  0.5664
 2793SOL    HW119841   0.261   4.131  13.071  1.1659 -0.5502 -1.4856
 2793SOL    HW219842   0.164   4.240  13.090  0.1930  0.6215  1.2108
 2794SOL     OW19843   0.175   4.160   3.823 -0.6110  0.1529  0.4426
 2794SOL    HW119844   0.180   4.212   3.903  0.6403  0.6857  0.0133
 2794SOL    HW219845   0.090   4.122   3.848 -1.3282  1.1727 -0.4758
 2795SOL     OW19846   4.153   4.148   5.836 -0.7115 -0.2632 -0.1709
 2795SOL    HW119847   4.115   4.227   5.796 -0.1133 -0.8483 -1.8990
 2795SOL    HW219848   4.247   4.163   5.822 -0.8333  0.4052 -0.2504
 2796SOL     OW19849   3.493   1.498   2.495  0.0647  0.1046 -0.2003
 2796SOL    HW119850   3.558   1.473   2.430  0.6243 -1.2056  0.8685
 2796SOL    HW219851   3.417   1.521   2.441  1.1502  1.8150 -1.0155
 2797SOL     OW19852   2.733   3.541   4.747 -0.6533  0.0716  0.4826
 2797SOL    HW119853   2.673   3.588   4.690 -2.7857  0.3426  2.9425
 2797SOL    HW219854   2.674   3.500   4.809 -1.3460 -0.2146 -0.3731
 2798SOL     OW19855   1.654   4.157   6.112 -0.3058  0.0065  0.2702
 2798SOL    HW119856   1.604   4.224   6.065  2.1918  1.1912 -0.6661
 2798SOL    HW219857   1.742   4.192   6.099 -0.5795  0.4590 -0.3935
 2799SOL     OW19858   4.646   0.455   7.824  0.8392  0.0772  0.1114
 2799SOL    HW119859   4.663   0.550   7.827 -1.2974  0.4917 -0.9524
 2799SOL    HW219860   4.594   0.441   7.903 -0.5034 -0.0395 -0.7903
 2800SOL     OW19861   0.148   1.359   7.378  0.2719  0.2701  0.2191
 2800SOL    HW119862   0.212   1.368   7.448 -0.7035 -1.7815  1.3622
 2800SOL    HW219863   0.197   1.307   7.314 -0.7321  0.9337 -1.0933
 2801SOL     OW19864   1.625   1.557   4.288  0.5698 -0.1486 -0.3115
 2801SOL    HW119865   1.618   1.618   4.362  1.1025 -0.4893  0.0220
 2801SOL    HW219866   1.709   1.514   4.305 -0.0766 -0.5483  1.8724
 2802SOL     OW19867   3.760   2.584   8.203  0.1860 -0.3546 -0.0763
 2802SOL    HW119868   3.759   2.625   8.290 -1.3632 -0.1609 -0.1830
 2802SOL    HW219869   3.689   2.522   8.219 -0.4615  0.5331  0.5102
 2803SOL     OW19870   3.349   2.182  15.685  0.1511 -0.1226  0.6348
 2803SOL    HW119871   3.311   2.158  15.601  0.4728  2.3693 -0.2118
 2803SOL    HW219872   3.386   2.266  15.657  1.3517 -1.3652 -1.4844
 2804SOL     OW19873   0.319   3.056  10.584  0.4221 -0.0725  0.4235
 2804SOL    HW119874   0.384   3.121  10.612  2.3280 -1.5509 -0.6305
 2804SOL    HW219875   0.344   2.992  10.651 -0.0678  1.2985  1.9220
 2805SOL     OW19876   3.597   0.487   8.332  0.3177  0.2990  0.4778
 2805SOL    HW119877   3.607   0.483   8.427  1.5787  0.6995  0.3623
 2805SOL    HW219878   3.688   0.502   8.306  1.1224 -3.2190  1.2611
 2806SOL     OW19879   2.649   2.948   1.057  0.4916  0.4284 -0.2209
 2806SOL    HW119880   2.724   2.918   1.005  1.3098 -0.7308  1.5796
 2806SOL    HW219881   2.652   3.040   1.032 -0.1981  0.3374 -0.6084
 2807SOL     OW19882   3.554   3.307  12.700  0.1954  0.5221  0.5352
 2807SOL    HW119883   3.532   3.228  12.748  1.1001  1.4846  2.5327
 2807SOL    HW219884   3.587   3.359  12.774  1.5421 -1.9100  1.6306
 2808SOL     OW19885   0.620   3.836   0.670 -0.2999  0.7105 -0.2614
 2808SOL    HW119886   0.634   3.775   0.743 -3.7399  0.6457  0.3457
 2808SOL    HW219887   0.537   3.807   0.633 -0.7168 -0.0800  1.2892
 2809SOL     OW19888   2.421   4.009  13.400  1.2179 -0.3467 -0.3705
 2809SOL    HW119889   2.382   4.022  13.486 -0.1481 -1.2155 -0.8656
 2809SOL    HW219890   2.485   4.080  13.400 -0.3569  1.0699 -1.0893
 2810SOL     OW19891   0.946   2.530   8.023 -0.1679  0.2574 -0.6954
 2810SOL    HW119892   0.967   2.540   7.930  0.2108  0.3849 -0.5940
 2810SOL    HW219893   0.876   2.465   8.019  1.8016 -1.8904  0.0085
 2811SOL     OW19894   3.785   2.329   5.962  0.1241  0.2638 -0.6507
 2811SOL    HW119895   3.705   2.286   5.933  0.6111 -2.3136  1.7494
 2811SOL    HW219896   3.823   2.363   5.881  1.2107 -0.3672 -0.4102
 2812SOL     OW19897   0.641   1.225   3.414 -0.5279  0.8038 -0.2848
 2812SOL    HW119898   0.729   1.196   3.389 -0.8616  1.0494 -1.7244
 2812SOL    HW219899   0.648   1.320   3.421  0.3867  0.5680  2.1168
 2813SOL     OW19900   3.086   0.515  17.447 -0.2917 -0.0420 -0.5821
 2813SOL    HW119901   3.113   0.521  17.539 -0.7334 -0.8092 -0.4057
 2813SOL    HW219902   3.174   0.520  17.409  0.4746  0.7854  1.2667
 2814SOL     OW19903   0.748   4.035   7.276  0.7200  0.5600 -0.3127
 2814SOL    HW119904   0.836   4.067   7.300  0.7905 -0.6856  1.0750
 2814SOL    HW219905   0.696   4.102   7.321  0.7004 -0.2502  0.8529
 2815SOL     OW19906   0.608   2.378   8.839  0.1343  0.0034  0.1874
 2815SOL    HW119907   0.578   2.310   8.899 -0.7938  0.4121  0.1850
 2815SOL    HW219908   0.592   2.330   8.758  0.9182  1.0046 -0.5650
 2816SOL     OW19909   2.696   4.663   1.751  0.1069 -0.6532  0.1908
 2816SOL    HW119910   2.733   4.587   1.705 -0.6576 -1.2727  0.6082
 2816SOL    HW219911   2.689   4.632   1.841  1.3288 -2.1749 -0.2384
 2817SOL     OW19912   1.559   2.329   1.879  0.3830 -0.4173 -0.6181
 2817SOL    HW119913   1.588   2.240   1.899 -2.4790 -0.9390  1.2553
 2817SOL    HW219914   1.632   2.379   1.914  1.4091 -1.6294 -1.0149
 2818SOL     OW19915   4.395   2.321   1.879  0.1779 -0.1601  0.1796
 2818SOL    HW119916   4.423   2.240   1.836 -0.4202  0.3813 -1.2399
 2818SOL    HW219917   4.367   2.370   1.802 -1.5050 -2.1734 -0.5048
 2819SOL     OW19918   0.494   3.744   9.492  0.1834 -0.0333  0.5163
 2819SOL    HW119919   0.443   3.752   9.573  1.3751  0.4491  1.2108
 2819SOL    HW219920   0.586   3.745   9.518  0.0317 -1.2528  1.1530
 2820SOL     OW19921   2.183   2.347  10.410 -0.0139  0.2508  0.0985
 2820SOL    HW119922   2.088   2.356  10.414  0.1080  0.6163  2.3829
 2820SOL    HW219923   2.207   2.440  10.414  0.8618 -0.0461  1.9977
 2821SOL     OW19924   0.034   4.647  15.455 -0.6040  0.4130  0.2058
 2821SOL    HW119925   0.047   4.556  15.482  1.2534 -0.0513 -2.2492
 2821SOL    HW219926   0.096   4.652  15.383  0.3211  0.2669  0.9905
 2822SOL     OW19927   1.273   4.147   6.848  0.5524  0.1840 -0.0008
 2822SOL    HW119928   1.336   4.171   6.916  0.4298  0.5769 -0.0244
 2822SOL    HW219929   1.248   4.060   6.880 -0.3310 -0.7004 -3.0889
 2823SOL     OW19930   1.334   0.558  16.324 -0.0839 -0.3135  0.2481
 2823SOL    HW119931   1.405   0.504  16.360  0.5115  0.5047  0.3064
 2823SOL    HW219932   1.259   0.519  16.369  0.7899 -1.1565  0.9833
 2824SOL     OW19933   3.715   4.605   6.806 -0.2193 -0.5081 -0.0911
 2824SOL    HW119934   3.652   4.533   6.799  0.0430 -0.6058 -1.5315
 2824SOL    HW219935   3.656   4.680   6.796  1.8007  1.2058  1.0366
 2825SOL     OW19936   2.954   3.584   8.196 -0.1079 -0.5759  0.0410
 2825SOL    HW119937   2.995   3.586   8.109 -0.2855  0.8643 -0.0126
 2825SOL    HW219938   2.894   3.510   8.186  2.3649 -2.6674  0.8881
 2826SOL     OW19939   3.103   0.766  14.672 -0.3999 -0.3852 -0.1701
 2826SOL    HW119940   3.079   0.756  14.580 -0.2310 -0.2132 -0.2321
 2826SOL    HW219941   3.157   0.845  14.671 -0.2915 -0.4413  2.1263
 2827SOL     OW19942   4.251   4.479   1.216 -0.3013 -0.6976  0.8249
 2827SOL    HW119943   4.259   4.550   1.280  1.3947 -0.6410  0.5290
 2827SOL    HW219944   4.171   4.508   1.172  0.7432  1.2459  0.2164
 2828SOL     OW19945   2.723   2.110   6.168 -0.7941 -0.0965  0.1995
 2828SOL    HW119946   2.779   2.039   6.197  1.8161  1.5533 -0.7706
 2828SOL    HW219947   2.643   2.090   6.217 -1.2412 -0.3629 -0.6556
 2829SOL     OW19948   3.200   3.373   1.037 -0.5569 -0.4730  0.6919
 2829SOL    HW119949   3.260   3.433   0.992 -1.4217  0.7832  1.2236
 2829SOL    HW219950   3.206   3.298   0.977  2.1608  1.2849 -1.2390
 2830SOL     OW19951   0.125   0.298   3.160 -0.0648 -0.4239  0.4585
 2830SOL    HW119952   0.206   0.338   3.129 -1.3451  1.2941 -0.6754
 2830SOL    HW219953   0.145   0.210   3.131  0.2487 -0.7351  1.6232
 2831SOL     OW19954   2.892   1.944   5.155 -0.0344 -0.0501  0.6134
 2831SOL    HW119955   2.956   2.014   5.145 -1.6427  1.3583  0.2456
 2831SOL    HW219956   2.957   1.875   5.141 -0.0566  0.4257 -1.6944
 2832SOL     OW19957   0.661   1.502  14.818  0.4877  0.0718  0.4047
 2832SOL    HW119958   0.646   1.429  14.758  2.9137 -0.1001  0.0088
 2832SOL    HW219959   0.750   1.486  14.850  0.4193  1.6010  1.4109
 2833SOL     OW19960   3.379   0.214   7.532 -0.4517  0.0271 -0.6542
 2833SOL    HW119961   3.380   0.309   7.520 -0.2965  0.0877 -0.1513
 2833SOL    HW219962   3.470   0.194   7.511 -0.4640  0.0810 -0.7615
 2834SOL     OW19963   3.346   4.065   4.785 -0.0376 -0.2862 -0.4856
 2834SOL    HW119964   3.440   4.045   4.790 -0.3222 -1.2438  1.1884
 2834SOL    HW219965   3.315   3.976   4.804 -1.4635 -0.1871 -2.4090
 2835SOL     OW19966   0.212   1.838   6.818 -0.0389 -0.6708 -0.2760
 2835SOL    HW119967   0.187   1.921   6.858  0.0961 -0.8568  0.2019
 2835SOL    HW219968   0.175   1.781   6.886 -0.6005  1.1538  0.9341
 2836SOL     OW19969   2.974   2.906   1.618 -0.2926  0.5312  0.2223
 2836SOL    HW119970   2.978   2.865   1.532 -0.6596  0.3750  0.2777
 2836SOL    HW219971   2.882   2.897   1.642  0.3166 -1.5073  1.8486
 2837SOL     OW19972   1.544   1.359   3.928 -0.4692  0.2906  0.8375
 2837SOL    HW119973   1.554   1.325   3.839  2.1151  0.1335  1.1677
 2837SOL    HW219974   1.626   1.409   3.927 -0.1612 -0.2368 -0.7122
 2838SOL     OW19975   2.940   4.262   7.565 -0.2926 -0.2475 -0.0797
 2838SOL    HW119976   2.850   4.230   7.561 -0.1272 -0.6511 -0.6611
 2838SOL    HW219977   2.927   4.352   7.537 -1.0254  0.2262  1.8432
 2839SOL     OW19978   4.045   4.282   5.308 -0.1730  0.2929  0.1450
 2839SOL    HW119979   4.138   4.274   5.289 -0.1984  0.5330 -0.0769
 2839SOL    HW219980   4.028   4.366   5.350  0.8759 -0.2031  1.5679
 2840SOL     OW19981   4.326   3.539   5.997 -0.6031  0.4824  0.6576
 2840SOL    HW119982   4.355   3.622   5.960  2.7991 -0.4098  1.3104
 2840SOL    HW219983   4.236   3.532   5.964 -0.1629 -0.2264 -0.3822
 2841SOL     OW19984   1.922   1.705   1.293 -0.4811  0.5660 -0.1702
 2841SOL    HW119985   1.972   1.669   1.367  0.3199  0.5670 -0.7119
 2841SOL    HW219986   1.933   1.630   1.234 -1.9129  0.6473 -0.5440
 2842SOL     OW19987   0.165   1.765   7.238 -0.5718  0.0352  0.5415
 2842SOL    HW119988   0.259   1.758   7.219 -0.4877 -2.6749  2.0330
 2842SOL    HW219989   0.162   1.853   7.275 -1.6777 -0.4818  1.6468
 2843SOL     OW19990   0.275   1.407   4.856  0.5521 -0.4139 -0.3181
 2843SOL    HW119991   0.290   1.490   4.811  0.9271 -0.6310 -0.5906
 2843SOL    HW219992   0.355   1.360   4.835  1.0672  0.3527 -0.0501
 2844SOL     OW19993   4.448   1.119   7.949  0.1504  0.8398  0.0295
 2844SOL    HW119994   4.517   1.185   7.944  0.4827  0.4644 -0.2364
 2844SOL    HW219995   4.378   1.175   7.985 -1.2148  0.9539 -2.7970
 2845SOL     OW19996   1.985   0.537   7.283  0.3906  0.5387 -0.2014
 2845SOL    HW119997   1.983   0.590   7.363  1.2452  0.9866 -0.4851
 2845SOL    HW219998   2.078   0.520   7.269 -0.3555 -2.8143 -0.9027
 2846SOL     OW19999   1.771   2.025   0.234  0.3063  0.0749  0.4309
 2846SOL    HW120000   1.794   1.940   0.271  1.0501  0.2190  0.3094
 2846SOL    HW220001   1.858   2.039   0.196 -0.6853  0.4997 -1.6917
 2847SOL     OW20002   3.120   3.009   6.444 -0.0878 -0.1793 -0.3517
 2847SOL    HW120003   3.084   3.054   6.367 -1.2648 -1.2170 -0.4181
 2847SOL    HW220004   3.201   2.974   6.407 -0.5456 -1.7540  0.1072
 2848SOL     OW20005   4.073   0.656   8.173  0.2246 -0.1677 -0.6779
 2848SOL    HW120006   4.013   0.619   8.238 -1.2735  2.8899 -0.3578
 2848SOL    HW220007   4.067   0.749   8.191  1.1020  0.0085 -1.2890
 2849SOL     OW20008   3.048   0.084  16.688 -0.5095  0.4485  0.3828
 2849SOL    HW120009   3.114   0.035  16.736 -1.1866 -1.6038 -0.7794
 2849SOL    HW220010   3.059   0.052  16.599  1.3463  0.8056  0.4889
 2850SOL     OW20011   3.026   2.308  15.943 -0.5036 -0.1147 -0.6860
 2850SOL    HW120012   3.097   2.369  15.963 -0.8717  0.0062  0.2668
 2850SOL    HW220013   2.978   2.306  16.026 -0.4329 -0.1969 -0.6485
 2851SOL     OW20014   0.169   3.619   9.167 -0.1629  0.1230 -0.6397
 2851SOL    HW120015   0.211   3.704   9.160 -0.4950  0.2709 -0.8387
 2851SOL    HW220016   0.228   3.572   9.226  0.1503 -0.3567 -1.3374
 2852SOL     OW20017   2.645   2.814   4.601 -0.0875 -0.3872 -0.0597
 2852SOL    HW120018   2.640   2.886   4.538  2.5123  0.6275  0.8863
 2852SOL    HW220019   2.577   2.836   4.665  1.0165  1.9599  0.2809
 2853SOL     OW20020   1.728   2.806  14.589 -0.4126 -0.0359  0.3323
 2853SOL    HW120021   1.665   2.845  14.649 -1.3258  1.3599 -1.5595
 2853SOL    HW220022   1.812   2.840  14.621 -0.1840  0.4108 -0.7318
 2854SOL     OW20023   4.260   2.857   4.934 -0.0840 -0.4905 -0.5474
 2854SOL    HW120024   4.324   2.855   5.004 -0.8745  1.1641  0.2115
 2854SOL    HW220025   4.278   2.797   4.861  0.2720 -0.0679 -0.8065
 2855SOL     OW20026   0.998   1.243  10.456 -0.4375 -0.0774 -0.0819
 2855SOL    HW120027   0.964   1.281  10.537 -2.2620 -0.8852 -0.4726
 2855SOL    HW220028   1.093   1.249  10.468 -0.6701  0.8355  1.2444
 2856SOL     OW20029   1.985   0.542   6.596 -0.6163 -0.4009 -0.1005
 2856SOL    HW120030   2.076   0.511   6.586 -0.2189  0.9618 -0.6699
 2856SOL    HW220031   1.944   0.455   6.598 -0.7469 -0.3230  0.5613
 2857SOL     OW20032   1.771   3.874   4.367 -0.2052 -0.3701  0.0368
 2857SOL    HW120033   1.811   3.945   4.317 -1.0200 -0.4066 -0.6614
 2857SOL    HW220034   1.746   3.812   4.298 -1.1914  1.2945 -1.0732
 2858SOL     OW20035   1.579   1.719   0.298  0.2145 -0.1278 -0.8984
 2858SOL    HW120036   1.614   1.653   0.358 -0.3198  0.4023  0.0050
 2858SOL    HW220037   1.659   1.772   0.301 -2.1163  3.3935 -1.0982
 2859SOL     OW20038   2.782   1.243   5.074 -0.0852  0.0469  0.3153
 2859SOL    HW120039   2.863   1.214   5.032  0.5065 -0.4596  1.7989
 2859SOL    HW220040   2.712   1.232   5.011 -1.0627  0.7612  1.2631
 2860SOL     OW20041   0.634   3.737  15.345  0.0364 -0.1510 -0.4624
 2860SOL    HW120042   0.552   3.765  15.387  1.0107  0.0053  1.3599
 2860SOL    HW220043   0.686   3.711  15.421  1.2460 -0.6687 -1.4795
 2861SOL     OW20044   2.949   4.188   0.324 -0.5893 -0.2860 -0.2424
 2861SOL    HW120045   2.975   4.129   0.395 -1.1943 -0.5507 -0.2439
 2861SOL    HW220046   2.854   4.199   0.332 -0.4675 -0.3537  1.1642
 2862SOL     OW20047   2.131   3.464   5.068  0.1454  0.2126  0.4592
 2862SOL    HW120048   2.077   3.529   5.114  0.3491  1.6943 -1.3902
 2862SOL    HW220049   2.168   3.521   5.001  2.0356 -2.4736 -0.7677
 2863SOL     OW20050   2.378   2.626   8.818 -0.0067  0.2664 -0.0509
 2863SOL    HW120051   2.407   2.554   8.875 -0.9883 -1.5134 -1.7858
 2863SOL    HW220052   2.347   2.578   8.741 -1.4770 -1.0695  1.3643
 2864SOL     OW20053   0.320   0.619   6.695 -0.0065  0.0035 -1.0659
 2864SOL    HW120054   0.317   0.701   6.745 -0.1048 -0.6213 -0.0585
 2864SOL    HW220055   0.249   0.573   6.738 -0.3335  0.5953 -0.9804
 2865SOL     OW20056   2.089   3.980  17.526 -0.9182  0.4211 -0.4538
 2865SOL    HW120057   2.050   4.051  17.576 -0.5959  1.3007 -1.4495
 2865SOL    HW220058   2.115   4.016  17.441 -1.2628 -1.5467 -1.4046
 2866SOL     OW20059   0.398   3.274   3.561 -0.4060 -0.0577 -0.6476
 2866SOL    HW120060   0.345   3.248   3.486 -2.6033 -0.5127  1.0450
 2866SOL    HW220061   0.387   3.368   3.575  0.9554  0.2869 -1.8380
 2867SOL     OW20062   0.879   4.133   4.935 -0.7647  0.2201 -0.3672
 2867SOL    HW120063   0.848   4.184   4.860  1.4997 -0.0839 -1.5149
 2867SOL    HW220064   0.815   4.074   4.975 -0.0011 -0.1792  0.2858
 2868SOL     OW20065   0.802   4.613   2.777 -0.3326  0.1337 -0.4823
 2868SOL    HW120066   0.757   4.530   2.760 -0.0878 -0.4201  1.6351
 2868SOL    HW220067   0.857   4.600   2.854 -1.3886  0.2920  0.2851
 2869SOL     OW20068   1.611   4.271   8.756  0.3776  0.1184  0.0574
 2869SOL    HW120069   1.703   4.277   8.730  1.1686 -0.8189  2.6777
 2869SOL    HW220070   1.619   4.280   8.851 -2.4903 -1.0039  0.4118
 2870SOL     OW20071   0.055   2.016  10.706 -0.2805 -0.4915  0.3491
 2870SOL    HW120072   4.682   2.020  10.709 -0.3141 -0.6825 -0.3848
 2870SOL    HW220073   0.074   1.954  10.776 -0.5978  0.8476  1.6168
 2871SOL     OW20074   4.476   1.265   6.515 -0.5795 -0.7754  0.2826
 2871SOL    HW120075   4.474   1.338   6.577 -0.9717  1.2995 -2.1858
 2871SOL    HW220076   4.405   1.293   6.458 -0.4070  0.4643  0.6817
 2872SOL     OW20077   4.489   3.542   3.065  0.0552  0.2430  0.0889
 2872SOL    HW120078   4.567   3.493   3.041 -1.3506 -1.2509 -1.4397
 2872SOL    HW220079   4.433   3.538   2.987 -0.5845  1.5424  0.4837
 2873SOL     OW20080   1.896   4.239  12.418 -0.2351  0.3659 -0.1663
 2873SOL    HW120081   1.940   4.308  12.467 -2.1584  0.7911  0.9546
 2873SOL    HW220082   1.810   4.276  12.398 -1.0144 -1.0428  0.5746
 2874SOL     OW20083   1.746   1.575  13.925 -0.2780 -0.7724 -0.5262
 2874SOL    HW120084   1.716   1.508  13.985 -1.6017 -0.3954 -0.7826
 2874SOL    HW220085   1.748   1.647  13.988  0.4854 -0.6485 -0.6830
 2875SOL     OW20086   4.662   0.408   2.370 -0.7284  0.0332 -0.3962
 2875SOL    HW120087   4.712   0.342   2.322  0.6557  0.2578  0.7722
 2875SOL    HW220088   0.010   0.454   2.413  1.6443 -1.7216 -2.4016
 2876SOL     OW20089   0.791   3.005   7.111  0.0722  0.4918  0.3485
 2876SOL    HW120090   0.821   2.941   7.047 -3.4331  0.3143 -1.0638
 2876SOL    HW220091   0.702   3.020   7.081  0.0617  0.1690  0.2235
 2877SOL     OW20092   3.790   2.547   1.707  0.2593 -0.2870  0.1186
 2877SOL    HW120093   3.853   2.615   1.733  2.0090 -0.8833 -2.5768
 2877SOL    HW220094   3.830   2.480   1.762 -1.2908 -1.4595 -0.1758
 2878SOL     OW20095   1.212   0.516   5.016  0.2320  0.2563  0.0866
 2878SOL    HW120096   1.300   0.503   5.051 -0.0922  0.2376  0.8982
 2878SOL    HW220097   1.208   0.609   5.037  0.8340  0.8654 -2.4065
 2879SOL     OW20098   2.286   4.634   9.435 -0.1044  0.2589 -0.1867
 2879SOL    HW120099   2.351   4.575   9.473  1.2293  2.4402  0.9848
 2879SOL    HW220100   2.205   4.585   9.426 -1.4114  2.8383 -2.7668
 2880SOL     OW20101   2.550   2.483   5.533 -0.0014  0.4487  0.6296
 2880SOL    HW120102   2.607   2.539   5.586 -0.5253  0.9273  0.6878
 2880SOL    HW220103   2.596   2.454   5.454  1.2599  3.1030  0.3973
 2881SOL     OW20104   3.215   1.376   8.619 -0.6236  0.3794  0.0087
 2881SOL    HW120105   3.131   1.396   8.579 -1.2557 -1.0583  0.6178
 2881SOL    HW220106   3.185   1.291   8.651  0.1625  0.1574  0.1649
 2882SOL     OW20107   1.741   0.043   2.006 -0.9242  0.5165 -0.7317
 2882SOL    HW120108   1.660   0.021   2.051  0.0869  1.7569  1.6598
 2882SOL    HW220109   1.752   4.695   1.943  1.9800  1.0443 -0.8263
 2883SOL     OW20110   4.470   2.963  11.992 -0.4498 -0.9793  0.4577
 2883SOL    HW120111   4.564   2.953  11.975 -0.6522  0.8464 -1.6860
 2883SOL    HW220112   4.468   2.914  12.075 -2.1503  0.2750  1.1435
 2884SOL     OW20113   2.524   3.312   1.484 -0.6884  0.0138  0.0398
 2884SOL    HW120114   2.471   3.347   1.412  1.9263  0.2474 -1.7649
 2884SOL    HW220115   2.461   3.251   1.521 -0.9835 -1.8910 -3.5516
 2885SOL     OW20116   2.028   2.001  10.403 -0.1077  0.8698 -0.9571
 2885SOL    HW120117   1.986   1.996  10.317  0.9166  0.6456 -1.4481
 2885SOL    HW220118   1.975   1.935  10.448  1.6765 -0.7349 -1.2240
 2886SOL     OW20119   4.155   2.477   5.836  0.6001 -0.3451  0.2475
 2886SOL    HW120120   4.161   2.525   5.919 -1.8412 -2.0638  1.4006
 2886SOL    HW220121   4.174   2.392   5.875  2.4808 -0.2028 -0.3439
 2887SOL     OW20122   2.607   0.298  10.371  0.0076  0.1741 -0.2587
 2887SOL    HW120123   2.613   0.203  10.362  0.2018  0.2866 -1.3139
 2887SOL    HW220124   2.560   0.304  10.454 -2.2328 -2.5244 -1.3100
 2888SOL     OW20125   3.177   2.355   8.161 -0.0261  0.5127 -0.3473
 2888SOL    HW120126   3.220   2.403   8.090 -2.7787  1.6040 -1.3106
 2888SOL    HW220127   3.174   2.424   8.227 -1.5969 -0.6636  0.7968
 2889SOL     OW20128   0.301   3.758   8.225 -0.0547 -0.3621 -1.2033
 2889SOL    HW120129   0.333   3.825   8.285  2.0081 -1.4180 -1.1101
 2889SOL    HW220130   0.248   3.704   8.283  1.4458  1.0667  1.5009
 2890SOL     OW20131   3.036   1.913   1.135  0.1366  0.1189 -0.0102
 2890SOL    HW120132   2.982   1.864   1.197  1.3013 -0.4144  0.5763
 2890SOL    HW220133   3.023   2.000   1.171  0.7604  0.6910 -1.1720
 2891SOL     OW20134   3.454   2.983   3.420  0.3177  0.8018  0.1473
 2891SOL    HW120135   3.461   3.055   3.358 -0.8190 -0.7190 -1.7297
 2891SOL    HW220136   3.389   2.929   3.374  0.4812 -1.1288  2.1324
 2892SOL     OW20137   2.661   3.941   0.181 -0.1333 -0.2252 -0.7110
 2892SOL    HW120138   2.589   3.905   0.129 -1.3118 -0.1953  0.9105
 2892SOL    HW220139   2.607   4.012   0.218 -1.0547 -2.1521  1.6070
 2893SOL     OW20140   1.571   1.571  16.250  0.5806  0.0244  0.0593
 2893SOL    HW120141   1.621   1.652  16.260  0.0141  0.2185  1.2778
 2893SOL    HW220142   1.492   1.598  16.298 -0.6060 -0.8647 -1.4008
 2894SOL     OW20143   0.096   2.798   0.591 -0.1254  0.4289 -0.1022
 2894SOL    HW120144   0.112   2.892   0.591  0.4343  0.3254  0.7560
 2894SOL    HW220145   0.101   2.770   0.682  4.0179 -0.1922 -0.5272
 2895SOL     OW20146   2.052   2.322  15.873 -0.3166  0.1762  0.1607
 2895SOL    HW120147   2.034   2.236  15.910  3.1067 -0.5093  0.2776
 2895SOL    HW220148   2.102   2.293  15.796 -0.4096  0.8395 -0.1474
 2896SOL     OW20149   3.546   1.603   8.923  0.1335  0.2964  0.0189
 2896SOL    HW120150   3.504   1.556   8.851 -1.0389  1.6575 -0.1812
 2896SOL    HW220151   3.549   1.691   8.884  0.9806 -0.9117 -2.6152
 2897SOL     OW20152   3.464   2.460   5.128 -0.1974  0.0079  0.4271
 2897SOL    HW120153   3.472   2.550   5.096 -0.4939 -0.2068 -0.2597
 2897SOL    HW220154   3.447   2.470   5.222  0.9342  1.3214  0.4911
 2898SOL     OW20155   1.536   3.766   4.714 -0.1561  0.0447  0.3487
 2898SOL    HW120156   1.610   3.825   4.726 -0.8625  0.8128  0.9528
 2898SOL    HW220157   1.517   3.784   4.622  1.1642  0.0109  0.0717
 2899SOL     OW20158   3.293   2.438  14.573 -0.5004 -0.3080  0.0507
 2899SOL    HW120159   3.325   2.525  14.548  1.1920 -0.5853  1.2729
 2899SOL    HW220160   3.317   2.429  14.665  1.9991 -0.8911 -0.6393
 2900SOL     OW20161   1.197   0.970  15.850  0.1418  0.2354 -0.3011
 2900SOL    HW120162   1.214   0.938  15.761  1.0770 -0.0663 -0.0109
 2900SOL    HW220163   1.212   1.064  15.842 -0.6663  0.5413  1.7059
 2901SOL     OW20164   2.477   2.620  16.964  0.5190  0.3359 -0.2638
 2901SOL    HW120165   2.523   2.664  16.893  0.6381  0.5108 -0.0792
 2901SOL    HW220166   2.400   2.677  16.963  0.0378 -0.2921  0.9317
 2902SOL     OW20167   0.395   3.556  11.035  0.3911  0.0204  0.7393
 2902SOL    HW120168   0.398   3.631  11.095  2.1250  1.5225 -1.2482
 2902SOL    HW220169   0.391   3.482  11.095 -3.4341 -1.9896 -1.9923
 2903SOL     OW20170   2.936   1.625   6.571  0.3067  0.1934  0.7383
 2903SOL    HW120171   3.000   1.684   6.531 -0.4648  0.9650  0.6424
 2903SOL    HW220172   2.939   1.669   6.656  2.0233  0.5361  0.4871
 2904SOL     OW20173   3.439   1.275   7.590  0.1795 -0.5185 -0.1080
 2904SOL    HW120174   3.519   1.303   7.545  0.2122 -2.4980 -1.2918
 2904SOL    HW220175   3.453   1.185   7.561 -0.7016 -0.5329 -0.5093
 2905SOL     OW20176   3.495   0.235  11.255 -0.4322  0.5532  0.2559
 2905SOL    HW120177   3.513   0.328  11.264 -1.6883  0.7653  0.4910
 2905SOL    HW220178   3.580   0.196  11.234 -0.9870  0.4564 -1.8809
 2906SOL     OW20179   3.282   0.543   1.989 -0.1109  0.0861 -0.0835
 2906SOL    HW120180   3.233   0.618   2.022 -1.7887 -0.1179 -2.1287
 2906SOL    HW220181   3.252   0.546   1.899  0.6552 -0.3444 -0.3518
 2907SOL     OW20182   2.104   0.692  16.762  0.0537  0.5168  0.1923
 2907SOL    HW120183   2.101   0.723  16.853 -0.3957 -1.8845  0.9949
 2907SOL    HW220184   2.040   0.621  16.766 -2.4427  2.6645 -2.4371
 2908SOL     OW20185   4.268   0.458   2.061  0.0183  0.1802 -0.0517
 2908SOL    HW120186   4.227   0.512   1.994  1.0277  1.0387  0.0239
 2908SOL    HW220187   4.320   0.524   2.107  0.4138  0.2073 -0.5401
 2909SOL     OW20188   0.654   0.381   8.354  0.2094 -0.2211  0.3472
 2909SOL    HW120189   0.603   0.347   8.280  1.0148  1.9484 -1.2275
 2909SOL    HW220190   0.730   0.324   8.361  0.9457  0.7793  0.6076
 2910SOL     OW20191   2.047   2.270   5.059  0.1529 -0.3859 -0.6115
 2910SOL    HW120192   2.043   2.328   4.983  0.1065  0.1695 -0.1925
 2910SOL    HW220193   2.140   2.246   5.053  0.0066 -0.5770 -1.9729
 2911SOL     OW20194   4.496   1.578   7.560  0.2137 -0.3893 -0.4938
 2911SOL    HW120195   4.567   1.612   7.615 -0.2463  1.1656 -0.8621
 2911SOL    HW220196   4.533   1.493   7.536 -1.1316 -1.4306  1.1450
 2912SOL     OW20197   1.018   0.794  12.640  0.0026  0.3587 -0.1984
 2912SOL    HW120198   1.017   0.714  12.588 -2.3653  0.4051 -0.2249
 2912SOL    HW220199   0.963   0.772  12.715  1.2065  0.7271  0.7952
 2913SOL     OW20200   0.044   3.501   1.040 -0.4855  0.5536  0.5417
 2913SOL    HW120201   0.119   3.556   1.018 -0.4864  0.1726 -0.3879
 2913SOL    HW220202   0.059   3.427   0.981 -1.9785  0.3870  0.3791
 2914SOL     OW20203   3.715   4.509   7.901 -0.1425  0.1292  0.0113
 2914SOL    HW120204   3.681   4.598   7.903  0.8674  0.5291 -0.5178
 2914SOL    HW220205   3.801   4.528   7.938 -0.5373  0.5539  0.6945
 2915SOL     OW20206   4.394   0.100   7.093 -0.3786 -0.2968 -0.4564
 2915SOL    HW120207   4.485   0.103   7.122 -0.7261  0.8168  0.4937
 2915SOL    HW220208   4.407   0.103   6.998 -1.4486 -3.3515 -0.7151
 2916SOL     OW20209   4.620   2.579  15.034  0.0827  0.7022 -0.2640
 2916SOL    HW120210   4.550   2.639  15.060 -0.2110  0.2831 -0.0901
 2916SOL    HW220211   4.697   2.615  15.078 -0.6823  1.1968  0.6815
 2917SOL     OW20212   2.089   0.014  12.067  0.2825 -0.5271  0.1388
 2917SOL    HW120213   2.107   4.672  12.000  0.7453  0.1921 -0.4397
 2917SOL    HW220214   2.177   0.047  12.087  1.4543 -2.7634 -1.3208
 2918SOL     OW20215   2.026   0.664   1.710  0.4344  0.2714 -0.4051
 2918SOL    HW120216   2.020   0.568   1.707 -2.4510  0.4562 -0.5789
 2918SOL    HW220217   2.088   0.683   1.781 -0.4905  0.4927  0.3552
 2919SOL     OW20218   2.469   3.206   3.288  0.5572  0.0957 -0.3758
 2919SOL    HW120219   2.431   3.126   3.324 -0.5424  1.0637  0.5859
 2919SOL    HW220220   2.387   3.248   3.262  0.5732  1.0696  1.1491
 2920SOL     OW20221   1.390   3.003   1.971  0.0639 -0.5157 -0.5438
 2920SOL    HW120222   1.452   3.074   1.955 -0.2684  0.1403  1.0790
 2920SOL    HW220223   1.401   2.959   1.887  0.0626 -3.7115  1.1297
 2921SOL     OW20224   0.754   2.438   1.579 -0.0233  0.3741  0.2869
 2921SOL    HW120225   0.814   2.508   1.551 -0.5690  0.6342 -0.2362
 2921SOL    HW220226   0.789   2.365   1.529 -2.0599  0.0101 -0.5777
 2922SOL     OW20227   1.882   2.463  15.049 -0.5819  0.1742  0.3056
 2922SOL    HW120228   1.951   2.457  15.115  0.0129 -1.8877 -0.5011
 2922SOL    HW220229   1.912   2.409  14.976 -0.2104 -1.3782  1.5949
 2923SOL     OW20230   3.500   1.106   6.294 -0.1619  0.1060  0.1675
 2923SOL    HW120231   3.533   1.093   6.205 -0.0552 -0.5589  0.3025
 2923SOL    HW220232   3.417   1.148   6.271  0.2757  0.3920 -0.8901
 2924SOL     OW20233   0.288   4.457   5.439  0.0462 -0.3049 -0.0293
 2924SOL    HW120234   0.223   4.479   5.506 -0.2012  1.6009 -0.8990
 2924SOL    HW220235   0.356   4.407   5.485  0.1770  0.6443  0.8179
 2925SOL     OW20236   4.150   0.454  12.796  0.3271 -0.0812  0.5920
 2925SOL    HW120237   4.132   0.434  12.888 -0.5090  2.2296  0.9330
 2925SOL    HW220238   4.105   0.382  12.751  2.4648 -0.3338 -1.1286
 2926SOL     OW20239   0.324   1.211   7.212 -0.1042 -0.2393 -0.3074
 2926SOL    HW120240   0.381   1.189   7.139  1.2247  1.1356  0.3126
 2926SOL    HW220241   0.341   1.139   7.272  2.1648  0.4364 -0.1609
 2927SOL     OW20242   2.915   1.281   0.369  0.5443  0.3212 -0.3602
 2927SOL    HW120243   2.910   1.230   0.288  1.8018 -3.2853  1.8168
 2927SOL    HW220244   2.827   1.288   0.406  1.3621  0.3927  1.5469
 2928SOL     OW20245   3.639   4.708  14.838 -0.3324 -0.2840 -0.3852
 2928SOL    HW120246   3.646   4.640  14.905  0.5474  0.7696  0.6094
 2928SOL    HW220247   3.700   4.683  14.769 -0.2726 -1.2243  0.0121
 2929SOL     OW20248   2.657   1.932  10.832  0.2919  0.0962 -0.7826
 2929SOL    HW120249   2.729   1.941  10.894 -0.6036  0.0242  0.2620
 2929SOL    HW220250   2.639   1.838  10.826  1.9226 -0.0486 -3.7983
 2930SOL     OW20251   0.721   2.751   4.915  0.5384  0.0512  0.6819
 2930SOL    HW120252   0.697   2.689   4.846 -0.7761 -0.9022  1.9941
 2930SOL    HW220253   0.665   2.720   4.985 -1.7983 -0.8910 -1.5932
 2931SOL     OW20254   2.913   4.212  13.254 -0.6973  0.1963  0.3598
 2931SOL    HW120255   2.925   4.218  13.160 -1.8604  0.0783  0.2085
 2931SOL    HW220256   2.825   4.176  13.243  0.4155 -2.0240 -1.1647
 2932SOL     OW20257   3.351   2.121   4.209  0.5256 -0.4717  0.1848
 2932SOL    HW120258   3.269   2.112   4.257  0.4349 -1.7389 -0.1937
 2932SOL    HW220259   3.318   2.143   4.122 -1.7391 -0.9425  0.9082
 2933SOL     OW20260   3.107   1.806   6.434 -0.0695 -0.3958  0.1361
 2933SOL    HW120261   3.188   1.797   6.484 -1.1287 -0.0763  1.9041
 2933SOL    HW220262   3.131   1.887   6.389 -1.9839  0.2652  0.3199
 2934SOL     OW20263   1.944   3.662   9.219  0.1653 -0.1039 -0.0759
 2934SOL    HW120264   1.957   3.700   9.306  1.6211  0.1528 -0.4141
 2934SOL    HW220265   1.857   3.623   9.228  0.1331 -0.2386 -0.9981
 2935SOL     OW20266   3.525   3.081  12.840  0.1610 -0.1397 -0.5417
 2935SOL    HW120267   3.491   3.023  12.771 -0.6619  1.4468 -1.4808
 2935SOL    HW220268   3.466   3.077  12.914  1.5078 -0.1022  0.5300
 2936SOL     OW20269   2.671   2.775  13.374  0.0617  0.4450 -0.1651
 2936SOL    HW120270   2.648   2.848  13.316  0.3284  0.4115 -0.3150
 2936SOL    HW220271   2.609   2.778  13.447  0.9816 -2.2369  0.7277
 2937SOL     OW20272   1.556   0.593   5.535  0.1373 -0.1311 -0.5541
 2937SOL    HW120273   1.486   0.605   5.470 -0.8494 -0.5592  0.4335
 2937SOL    HW220274   1.573   0.683   5.563  1.1420 -0.7922  0.9191
 2938SOL     OW20275   0.729   0.131   5.935 -0.2650 -0.5582  0.1377
 2938SOL    HW120276   0.797   0.171   5.990  0.8828 -3.3091  0.7072
 2938SOL    HW220277   0.652   0.146   5.989 -1.8115 -1.6445 -1.7954
 2939SOL     OW20278   1.063   4.494   3.319 -0.1333 -0.0209  0.3994
 2939SOL    HW120279   1.040   4.407   3.287  0.4514  1.2282 -3.4253
 2939SOL    HW220280   1.152   4.479   3.351 -1.0764 -0.1167  2.9646
 2940SOL     OW20281   4.434   1.601   8.367  0.3133  0.0507  0.2533
 2940SOL    HW120282   4.513   1.551   8.347  1.2664  1.3232  0.8383
 2940SOL    HW220283   4.452   1.626   8.458 -1.8992 -1.6868  1.1611
 2941SOL     OW20284   0.777   2.637   8.907 -0.3960  0.6923 -0.2001
 2941SOL    HW120285   0.836   2.563   8.916 -1.0905  0.0815 -0.6727
 2941SOL    HW220286   0.754   2.626   8.815 -1.4540 -4.0506  0.6712
 2942SOL     OW20287   3.931   1.581   1.387 -0.1124  0.2806  0.2063
 2942SOL    HW120288   3.863   1.630   1.341  0.3458  0.5660 -0.1691
 2942SOL    HW220289   3.989   1.643   1.431  0.6404 -0.5683  0.4078
 2943SOL     OW20290   2.050   2.509  10.907 -0.1548  0.2072 -0.1704
 2943SOL    HW120291   2.046   2.513  11.002  4.5147 -2.5323  0.1096
 2943SOL    HW220292   2.103   2.584  10.881  0.1756 -0.6782 -2.0251
 2944SOL     OW20293   4.441   4.720   8.301 -0.0119 -0.4308 -0.1256
 2944SOL    HW120294   4.396   0.058   8.243  0.3576 -0.7684 -0.7681
 2944SOL    HW220295   4.511   4.686   8.246  1.1167 -0.9206  1.6224
 2945SOL     OW20296   2.983   1.329  11.649  0.2883 -0.3848 -0.0892
 2945SOL    HW120297   2.990   1.295  11.738  1.3425  0.4183  0.1422
 2945SOL    HW220298   2.896   1.298  11.623  0.8216 -0.6663 -1.5640
 2946SOL     OW20299   1.888   4.718   5.026  0.2729 -0.1064 -0.2545
 2946SOL    HW120300   1.808   4.704   5.076  1.4529 -1.2486  1.2950
 2946SOL    HW220301   1.954   4.714   5.095 -0.5820 -1.4602  0.4837
 2947SOL     OW20302   4.682   1.472   5.286  0.6932 -0.2180 -0.0800
 2947SOL    HW120303   4.685   1.391   5.338 -1.9579 -0.1206  0.2282
 2947SOL    HW220304   4.591   1.497   5.300  1.2250  1.3399  0.5531
 2948SOL     OW20305   4.517   1.466   6.681 -0.6356 -0.1566  0.5744
 2948SOL    HW120306   4.514   1.557   6.710  0.5263 -0.5241  1.8132
 2948SOL    HW220307   4.610   1.452   6.693 -0.5110 -1.1662 -1.6122
 2949SOL     OW20308   1.839   1.918  11.304 -0.1777 -0.1583  0.4253
 2949SOL    HW120309   1.895   1.852  11.344 -1.8715 -0.5674  2.1264
 2949SOL    HW220310   1.901   1.991  11.298 -0.6958  0.5943  4.0866
 2950SOL     OW20311   1.685   0.416  16.029 -0.3475  0.4018 -0.4442
 2950SOL    HW120312   1.611   0.474  16.048 -0.5432  0.0300 -0.0534
 2950SOL    HW220313   1.746   0.483  15.998  1.4424  0.3177  2.8710
 2951SOL     OW20314   2.755   2.875   5.013  0.2647 -0.2626 -0.3885
 2951SOL    HW120315   2.667   2.862   4.980  0.2790 -0.2547 -0.4297
 2951SOL    HW220316   2.788   2.946   4.958 -1.5645  1.1974  0.4407
 2952SOL     OW20317   3.595   0.667   7.317  0.4513 -0.0386  0.4351
 2952SOL    HW120318   3.558   0.716   7.244 -2.4407  0.5187  2.2777
 2952SOL    HW220319   3.635   0.739   7.366 -0.2144  0.1813  0.6530
 2953SOL     OW20320   4.426   4.358   6.636  0.1859  0.5885 -0.2983
 2953SOL    HW120321   4.407   4.428   6.699 -2.0651 -0.9365  0.7309
 2953SOL    HW220322   4.518   4.353   6.660  0.2224 -0.0677 -0.5757
 2954SOL     OW20323   4.189   3.731   9.383  0.0116 -0.2909  0.1470
 2954SOL    HW120324   4.108   3.687   9.359  0.6769 -0.9859 -0.8285
 2954SOL    HW220325   4.189   3.819   9.345 -2.5221  0.0653  0.9686
 2955SOL     OW20326   0.228   0.515   4.178  0.0172 -0.2679 -0.0824
 2955SOL    HW120327   0.210   0.589   4.120 -0.6304 -0.1526  0.2568
 2955SOL    HW220328   0.229   0.556   4.265 -1.4910 -2.2106  0.8621
 2956SOL     OW20329   3.723   1.315   7.232 -0.5874 -0.1292 -0.3655
 2956SOL    HW120330   3.693   1.331   7.143 -2.2354 -2.9310 -0.3250
 2956SOL    HW220331   3.729   1.220   7.241 -0.3982  0.0159  1.1985
 2957SOL     OW20332   3.823   1.652  13.162 -0.0234  0.0247 -0.4362
 2957SOL    HW120333   3.785   1.593  13.227 -0.2648  2.3080  1.5065
 2957SOL    HW220334   3.881   1.587  13.123  0.2352 -0.3011  0.4809
 2958SOL     OW20335   3.094   1.391   4.613 -0.2433  0.1434 -0.1774
 2958SOL    HW120336   3.153   1.375   4.686 -0.4555  1.1584  0.2249
 2958SOL    HW220337   3.123   1.474   4.574 -0.6435 -0.0198 -0.8406
 2959SOL     OW20338   3.869   3.714   4.822  0.2055  0.3573  0.2874
 2959SOL    HW120339   3.789   3.707   4.874 -0.1697 -0.1378 -0.3725
 2959SOL    HW220340   3.929   3.735   4.894 -0.7825 -0.6977  1.4283
 2960SOL     OW20341   0.572   2.809   5.704 -0.3763 -0.0619 -0.0895
 2960SOL    HW120342   0.592   2.886   5.650 -1.0933  1.4497  1.8151
 2960SOL    HW220343   0.549   2.753   5.630 -2.2376  0.3280  0.1945
 2961SOL     OW20344   4.043   0.822   0.431 -0.2254 -0.7016 -0.4097
 2961SOL    HW120345   4.104   0.775   0.488  0.1479  0.8373  0.4566
 2961SOL    HW220346   4.111   0.861   0.376  0.1640 -0.4284  0.2509
 2962SOL     OW20347   3.393   1.896   8.022  0.4851  0.8572 -0.0975
 2962SOL    HW120348   3.316   1.945   7.996 -1.5673 -1.7070  1.1789
 2962SOL    HW220349   3.456   1.968   8.026  0.9760  0.2967  2.0988
 2963SOL     OW20350   3.032   3.328   1.881 -0.6531  0.0443  0.3849
 2963SOL    HW120351   3.105   3.290   1.833 -0.4704  1.7907 -0.7385
 2963SOL    HW220352   3.041   3.295   1.970 -2.1624  0.1705  0.5949
 2964SOL     OW20353   0.949   0.621   2.128 -0.3566 -0.1554 -0.1951
 2964SOL    HW120354   0.904   0.674   2.194 -0.5520 -0.7297  0.1324
 2964SOL    HW220355   0.993   0.694   2.084 -0.5365 -0.4190 -0.8005
 2965SOL     OW20356   1.220   4.378   6.061  0.3359 -0.1744 -0.1221
 2965SOL    HW120357   1.246   4.335   6.142 -1.8264  1.3285  1.3692
 2965SOL    HW220358   1.238   4.310   5.996  0.1746  0.1938 -0.5508
 2966SOL     OW20359   0.198   3.586   3.017 -0.2160  0.0181  0.0813
 2966SOL    HW120360   0.156   3.503   3.040  1.1608 -0.7244 -0.0695
 2966SOL    HW220361   0.263   3.555   2.954  0.3673 -0.1139  0.7540
 2967SOL     OW20362   3.741   4.282   3.576  0.2140 -0.3212  0.2598
 2967SOL    HW120363   3.735   4.191   3.550  0.2224 -0.2641  0.0573
 2967SOL    HW220364   3.669   4.283   3.639  1.8096 -2.3730  2.1067
 2968SOL     OW20365   1.754   1.097   4.827  0.2349  0.3641  0.0770
 2968SOL    HW120366   1.850   1.095   4.833  0.2523 -1.0962 -0.7978
 2968SOL    HW220367   1.738   1.013   4.785  0.9433  0.6835 -0.8338
 2969SOL     OW20368   1.248   1.168   4.332  0.0402  0.5899  0.4217
 2969SOL    HW120369   1.240   1.262   4.312  1.2493  0.7161  0.5407
 2969SOL    HW220370   1.269   1.162   4.425  1.4989 -2.5803 -0.1271
 2970SOL     OW20371   2.837   1.033   2.452 -0.4137  0.1239 -0.4400
 2970SOL    HW120372   2.753   1.005   2.416 -0.5943 -0.1232  0.1592
 2970SOL    HW220373   2.857   0.960   2.511 -1.2894 -0.6122 -1.0503
 2971SOL     OW20374   4.026   2.777   5.621 -0.0153  0.4414  0.1584
 2971SOL    HW120375   4.080   2.757   5.698  0.5260 -0.6141 -0.4982
 2971SOL    HW220376   3.959   2.840   5.647 -1.1270 -1.3723  1.6917
 2972SOL     OW20377   2.768   0.785   0.123 -0.2621 -0.2529 -0.1359
 2972SOL    HW120378   2.845   0.766   0.069 -0.5734 -0.2592 -0.5779
 2972SOL    HW220379   2.748   0.878   0.112 -0.1738 -0.3164 -0.8422
 2973SOL     OW20380   0.606   3.419   5.567  0.3115 -0.6057 -0.3213
 2973SOL    HW120381   0.555   3.338   5.575  1.8958 -1.4335  1.4757
 2973SOL    HW220382   0.679   3.380   5.520 -0.4502 -0.4310 -1.6562
 2974SOL     OW20383   2.998   0.218   9.185 -0.0063 -0.4331  0.4029
 2974SOL    HW120384   2.935   0.207   9.256  0.7983 -2.1523  0.8621
 2974SOL    HW220385   3.041   0.133   9.194  0.5879 -0.3177 -1.5704
 2975SOL     OW20386   0.265   3.798   9.338 -0.0705  0.4402  0.2171
 2975SOL    HW120387   0.252   3.886   9.371 -0.3709  0.7124 -0.6252
 2975SOL    HW220388   0.347   3.770   9.379  0.8218 -0.4271 -2.1186
 2976SOL     OW20389   4.213   1.033   2.794 -0.0655 -0.2778 -0.4007
 2976SOL    HW120390   4.225   0.948   2.751 -0.1541 -0.4872 -0.0113
 2976SOL    HW220391   4.181   1.089   2.723 -0.8076 -0.6291 -0.3401
 2977SOL     OW20392   0.504   4.177   4.025  0.1688  0.5448 -0.2239
 2977SOL    HW120393   0.551   4.219   3.953  0.5193 -0.1612 -0.4063
 2977SOL    HW220394   0.558   4.101   4.045 -2.1256 -0.8347  0.6833
 2978SOL     OW20395   4.034   2.546   6.430  0.0259  0.2477  0.1126
 2978SOL    HW120396   3.992   2.504   6.506  0.6691  2.3847  1.6415
 2978SOL    HW220397   4.056   2.474   6.372 -0.1721  0.3056 -0.0337
 2979SOL     OW20398   0.302   2.926   3.215  0.4058  0.0053 -0.6144
 2979SOL    HW120399   0.361   3.000   3.233 -0.8225  0.8987 -0.2827
 2979SOL    HW220400   0.228   2.979   3.184 -0.7404 -0.8270  0.7114
 2980SOL     OW20401   0.058   2.585   5.951  0.4369  0.4930  0.4453
 2980SOL    HW120402   0.129   2.561   6.010 -1.3128 -0.4844  2.1716
 2980SOL    HW220403   4.708   2.533   5.986  0.1632  0.7076  0.1895
 2981SOL     OW20404   3.707   4.484   3.354 -0.4167  0.2161 -0.1808
 2981SOL    HW120405   3.633   4.426   3.332 -0.9978  0.8967  0.0009
 2981SOL    HW220406   3.729   4.452   3.441  1.6287 -0.1271 -0.8265
 2982SOL     OW20407   1.907   1.746   4.511 -0.8813  0.3350 -0.0552
 2982SOL    HW120408   1.969   1.793   4.567 -0.3157 -2.4550  1.6792
 2982SOL    HW220409   1.961   1.720   4.437 -1.3798 -1.2889  0.1436
 2983SOL     OW20410   3.097   0.419   2.347 -0.3490 -0.5370  0.0401
 2983SOL    HW120411   3.026   0.442   2.286 -0.3439  0.6821  0.4946
 2983SOL    HW220412   3.053   0.361   2.408  0.8277 -0.2985  1.1040
 2984SOL     OW20413   4.262   2.570   4.370  0.0823 -0.6125 -0.1829
 2984SOL    HW120414   4.269   2.477   4.393 -3.3520 -0.9523 -0.4584
 2984SOL    HW220415   4.200   2.602   4.436  1.6272  0.1697  0.8724
 2985SOL     OW20416   4.028   1.616   8.040  0.0427  0.1530 -0.0819
 2985SOL    HW120417   4.086   1.656   8.105  1.2352 -1.0976 -0.3800
 2985SOL    HW220418   3.951   1.673   8.049  1.6336  2.3107  0.0323
 2986SOL     OW20419   0.503   1.367   5.088 -0.2349 -0.3774 -0.2066
 2986SOL    HW120420   0.409   1.381   5.077 -0.9141 -1.8286  3.5741
 2986SOL    HW220421   0.503   1.328   5.176 -0.5864  0.2906  0.0886
 2987SOL     OW20422   0.751   3.298   7.095  0.0948  0.7729  0.4417
 2987SOL    HW120423   0.802   3.334   7.168 -2.1208  2.5321  1.1422
 2987SOL    HW220424   0.750   3.206   7.121  2.2093  1.0262  1.4238
 2988SOL     OW20425   2.352   3.688   7.735  0.4705 -0.1383 -0.1486
 2988SOL    HW120426   2.395   3.678   7.820  2.1236  3.2636 -0.5818
 2988SOL    HW220427   2.285   3.751   7.760 -1.3459 -2.0120 -0.3238
 2989SOL     OW20428   1.635   2.118   6.833 -0.5171 -0.3930  0.5859
 2989SOL    HW120429   1.603   2.099   6.745  2.8265  0.0706 -0.7500
 2989SOL    HW220430   1.722   2.150   6.806  0.2312 -1.5574  1.6350
 2990SOL     OW20431   2.624   4.441   7.752  0.1966 -0.1644 -0.3827
 2990SOL    HW120432   2.570   4.370   7.786 -0.5693  0.3968 -0.4193
 2990SOL    HW220433   2.698   4.441   7.812 -0.1977 -1.0714  0.0961
 2991SOL     OW20434   2.393   1.391   3.317 -0.1609 -0.1625  0.5941
 2991SOL    HW120435   2.479   1.412   3.354  0.8725  0.2752 -2.1174
 2991SOL    HW220436   2.391   1.423   3.227 -1.1820 -1.1529  0.2630
 2992SOL     OW20437   1.343   4.644   7.762  0.0818  0.3852 -0.0901
 2992SOL    HW120438   1.397   4.684   7.694 -0.4658  1.0598 -0.1271
 2992SOL    HW220439   1.263   4.697   7.759 -0.5086 -0.4862  0.2180
 2993SOL     OW20440   2.035   0.806   6.700  0.1207  0.0057  0.4859
 2993SOL    HW120441   1.980   0.729   6.688  0.6469 -0.4004  0.6926
 2993SOL    HW220442   2.123   0.772   6.712  1.0282  1.7050 -1.4095
 2994SOL     OW20443   0.872   3.917   3.786 -0.5095  0.0844 -0.2378
 2994SOL    HW120444   0.946   3.903   3.726 -1.4105  0.6687 -1.4805
 2994SOL    HW220445   0.902   3.874   3.866  0.8431 -1.1024 -1.3677
 2995SOL     OW20446   2.647   1.699   6.460  0.2357 -0.2897 -0.1326
 2995SOL    HW120447   2.742   1.701   6.467  0.3377 -0.8927 -1.4149
 2995SOL    HW220448   2.644   1.645   6.381 -0.3419  1.8402 -1.5739
 2996SOL     OW20449   2.350   0.049   8.637 -0.6120  0.0261  0.3232
 2996SOL    HW120450   2.389   4.685   8.642  0.7686  0.5524 -1.3572
 2996SOL    HW220451   2.265   0.035   8.679 -1.6708 -0.3344 -1.9335
 2997SOL     OW20452   1.248   4.464   5.098  0.6923  0.1836 -0.0471
 2997SOL    HW120453   1.176   4.455   5.160  2.8564 -1.5595  2.2402
 2997SOL    HW220454   1.251   4.371   5.079  0.8312  0.3083 -0.6351
 2998SOL     OW20455   1.933   0.975   9.043  0.0547 -0.4050 -0.4578
 2998SOL    HW120456   1.846   0.939   9.024 -0.0471 -0.6177  0.3854
 2998SOL    HW220457   1.937   0.977   9.139  2.9398  2.1207 -0.6496
 2999SOL     OW20458   2.731   3.129   3.300  0.2115 -0.3941  0.1277
 2999SOL    HW120459   2.653   3.184   3.300  0.6255  0.1654 -4.2497
 2999SOL    HW220460   2.702   3.053   3.250 -1.6830  1.4614 -1.5611
 3000SOL     OW20461   2.487   3.180   5.569 -0.5552 -0.4593  0.0753
 3000SOL    HW120462   2.455   3.213   5.486  2.2558  0.3372 -0.7083
 3000SOL    HW220463   2.529   3.098   5.543  1.5580  0.1992  1.3961
 3001SOL     OW20464   1.213   3.154   7.974  0.0033  0.1437  0.3586
 3001SOL    HW120465   1.251   3.225   7.922 -0.7227 -0.4301 -0.9433
 3001SOL    HW220466   1.126   3.146   7.934  0.2401  1.2985 -0.4028
 3002SOL     OW20467   1.380   3.727   7.928 -0.4792  0.1680 -0.4447
 3002SOL    HW120468   1.411   3.645   7.967 -1.6560  0.3117  0.7969
 3002SOL    HW220469   1.299   3.689   7.894 -2.3409  2.8685  1.0118
 3003SOL     OW20470   2.941   0.301   6.118 -0.1737 -0.9707  0.3823
 3003SOL    HW120471   3.023   0.318   6.165 -0.9854 -0.3430  1.5792
 3003SOL    HW220472   2.944   0.206   6.125 -3.2370 -1.0293  0.6355
 3004SOL     OW20473   0.968   2.652   2.389  0.4367  0.5881  0.0794
 3004SOL    HW120474   1.024   2.577   2.409  2.0637  1.5119 -1.0137
 3004SOL    HW220475   0.886   2.631   2.435 -0.1305  2.3857 -0.1127
 3005SOL     OW20476   1.762   1.753   2.603 -0.3729  0.0562 -0.6630
 3005SOL    HW120477   1.722   1.687   2.548 -0.3417  0.9714 -1.7820
 3005SOL    HW220478   1.853   1.725   2.592 -0.8847 -1.7602 -0.3009
 3006SOL     OW20479   2.649   3.820  11.083  0.0290  0.4386  0.4881
 3006SOL    HW120480   2.706   3.861  11.018  0.5293 -1.7807 -0.4793
 3006SOL    HW220481   2.688   3.848  11.166  2.3475 -1.0687 -0.0906
 3007SOL     OW20482   3.559   2.455   0.688  0.2064 -0.2629  0.0050
 3007SOL    HW120483   3.504   2.461   0.610  2.1684  2.9511 -1.1074
 3007SOL    HW220484   3.644   2.470   0.647  0.1683  2.3478  0.9121
 3008SOL     OW20485   2.973   3.893   9.537  0.3007  0.2821  0.3667
 3008SOL    HW120486   2.979   3.849   9.622 -0.9289  1.3765  1.0074
 3008SOL    HW220487   3.017   3.830   9.480 -0.8422 -0.8587  0.7533
 3009SOL     OW20488   2.564   2.613   2.249  0.0398  0.0539  0.8178
 3009SOL    HW120489   2.476   2.649   2.250  0.0004 -0.0133 -1.0928
 3009SOL    HW220490   2.608   2.631   2.332 -0.4580 -1.6336  1.4443
 3010SOL     OW20491   0.486   3.457  11.703  0.0667  0.5074  0.1965
 3010SOL    HW120492   0.564   3.492  11.748  0.1122 -1.8379  1.9182
 3010SOL    HW220493   0.521   3.442  11.616  1.5124 -0.5126  0.9465
 3011SOL     OW20494   0.052   3.736   0.656 -0.0841 -0.2771 -0.0685
 3011SOL    HW120495   0.004   3.741   0.739 -1.0009  0.1135 -0.6286
 3011SOL    HW220496   0.117   3.671   0.684  0.5787  0.0081 -0.9739
 3012SOL     OW20497   1.953   4.102   9.000  0.0796  0.5501 -0.2705
 3012SOL    HW120498   1.996   4.152   9.069 -1.2758  2.0527 -0.5134
 3012SOL    HW220499   2.029   4.056   8.963 -0.0852  2.5942 -3.2099
 3013SOL     OW20500   3.992   0.907   3.618  0.5303  0.1725  0.0083
 3013SOL    HW120501   3.973   0.985   3.564  0.8715 -0.3510 -0.8758
 3013SOL    HW220502   3.958   0.840   3.559 -1.7242  1.2785  0.0340
 3014SOL     OW20503   3.482   2.948   3.730 -0.0650 -0.5107 -0.0105
 3014SOL    HW120504   3.486   2.852   3.732 -0.7556 -0.5197  0.7531
 3014SOL    HW220505   3.387   2.953   3.739  0.1852  1.4727  1.5215
 3015SOL     OW20506   1.715   4.344  16.685 -0.5529 -0.5361  0.3731
 3015SOL    HW120507   1.737   4.251  16.680 -1.1850 -0.7366  1.3303
 3015SOL    HW220508   1.793   4.385  16.648 -0.4855 -1.8249 -0.9144
 3016SOL     OW20509   0.556   0.811   2.642 -0.0202 -0.5195 -0.6926
 3016SOL    HW120510   0.504   0.883   2.677  0.3726 -0.4469 -0.2641
 3016SOL    HW220511   0.574   0.839   2.552 -0.1820 -0.1008 -0.5908
 3017SOL     OW20512   1.519   1.398   7.112 -0.2624  0.0953  0.2626
 3017SOL    HW120513   1.472   1.315   7.108  0.3416 -0.3643  2.7506
 3017SOL    HW220514   1.484   1.424   7.197 -1.2716  0.7142 -0.3407
 3018SOL     OW20515   1.889   0.993   8.710  0.3969  0.0464 -0.5179
 3018SOL    HW120516   1.804   1.034   8.696  0.1300 -0.0908  0.7286
 3018SOL    HW220517   1.884   0.920   8.772  1.1360  0.3624 -0.0884
 3019SOL     OW20518   4.013   4.317  14.210 -0.0079 -0.3320 -0.0280
 3019SOL    HW120519   4.067   4.239  14.208  1.0015  0.4137 -1.6744
 3019SOL    HW220520   3.981   4.322  14.120  0.4404  1.7717 -0.0825
 3020SOL     OW20521   1.395   0.906  17.165  0.7763  0.0436 -0.1270
 3020SOL    HW120522   1.373   0.903  17.258 -0.8763  0.0969 -0.5092
 3020SOL    HW220523   1.364   0.995  17.146 -2.4761 -1.0903 -0.0938
 3021SOL     OW20524   1.910   0.888   8.029 -0.1825 -0.0302 -0.8084
 3021SOL    HW120525   1.861   0.922   8.104 -0.2703 -0.2953 -0.7485
 3021SOL    HW220526   1.848   0.832   7.982 -1.8072  2.5248 -1.7193
 3022SOL     OW20527   3.583   4.368   2.559  0.3717  0.0112  0.1615
 3022SOL    HW120528   3.636   4.410   2.491  0.6972 -0.1404  0.3249
 3022SOL    HW220529   3.553   4.288   2.518 -1.3256  0.6672  0.1142
 3023SOL     OW20530   2.970   0.749  16.238 -0.4105  0.2174 -0.5979
 3023SOL    HW120531   2.881   0.727  16.263 -0.5504  0.4149 -0.9220
 3023SOL    HW220532   2.996   0.796  16.317 -1.3473 -1.2526  0.5680
 3024SOL     OW20533   0.665   1.895   7.773  0.1974  1.2089  0.2760
 3024SOL    HW120534   0.721   1.909   7.849  0.4319 -0.5785  0.4242
 3024SOL    HW220535   0.730   1.861   7.711 -2.2168  0.9744 -2.1279
 3025SOL     OW20536   2.418   1.758   3.210  0.1140 -0.0065 -0.1369
 3025SOL    HW120537   2.490   1.737   3.270 -0.3288 -5.2621 -1.4741
 3025SOL    HW220538   2.425   1.853   3.207  0.6403 -0.0374  0.0147
 3026SOL     OW20539   3.824   3.216   4.127  0.2379 -0.0437  0.1646
 3026SOL    HW120540   3.826   3.296   4.075  1.1421  0.1568  0.5098
 3026SOL    HW220541   3.815   3.150   4.058  0.3827  0.7811 -0.6402
 3027SOL     OW20542   0.228   1.936  13.404 -0.2941 -0.8892  0.8732
 3027SOL    HW120543   0.172   1.861  13.384 -0.4217 -0.7109  0.5802
 3027SOL    HW220544   0.180   1.991  13.343  2.9611  0.5729 -0.3947
 3028SOL     OW20545   2.639   4.603   2.416 -0.1776 -0.0739 -0.3983
 3028SOL    HW120546   2.731   4.618   2.392  0.1360 -0.2493  0.7034
 3028SOL    HW220547   2.616   4.580   2.326  2.0801 -0.0249 -1.0089
 3029SOL     OW20548   2.079   1.890  15.228 -0.5549 -0.2292 -0.1132
 3029SOL    HW120549   2.060   1.895  15.322 -0.6348  1.8268 -0.2461
 3029SOL    HW220550   2.168   1.859  15.243 -0.0631  0.8433 -0.8277
 3030SOL     OW20551   0.043   1.051   2.692  0.3822 -0.2729 -0.7432
 3030SOL    HW120552   4.713   1.011   2.760  2.0861 -0.4530  0.5018
 3030SOL    HW220553   0.080   1.134   2.724  2.4069 -1.3794 -0.2032
 3031SOL     OW20554   3.228   1.376  17.570 -0.2267 -0.3416 -0.1965
 3031SOL    HW120555   3.198   1.301  17.519 -2.3199  0.1333  0.3225
 3031SOL    HW220556   3.317   1.351  17.598 -0.7859 -1.2578  0.7912
 3032SOL     OW20557   2.174   2.146   3.145  0.0450  0.8510 -0.2386
 3032SOL    HW120558   2.137   2.058   3.138  1.9271  0.2216 -2.4809
 3032SOL    HW220559   2.143   2.189   3.065  1.2231  2.4895  0.1721
 3033SOL     OW20560   1.539   3.148   9.184 -0.5472 -0.3872  1.1323
 3033SOL    HW120561   1.563   3.056   9.192  1.1678 -0.2402 -2.5305
 3033SOL    HW220562   1.617   3.194   9.213 -0.3247  0.6058 -1.0657
 3034SOL     OW20563   1.016   0.213   5.619  0.3112  0.4358  0.6518
 3034SOL    HW120564   1.000   0.268   5.695 -0.1043  0.1011  0.8031
 3034SOL    HW220565   0.948   0.225   5.553  1.5686 -1.8975 -1.0707
 3035SOL     OW20566   0.822   4.505   8.884  0.1002  1.2392 -0.1424
 3035SOL    HW120567   0.804   4.440   8.952  2.2907 -0.8853 -1.5727
 3035SOL    HW220568   0.916   4.510   8.902 -0.0821  2.5043  0.4751
 3036SOL     OW20569   0.229   4.579   9.437  0.0347 -0.1710 -0.4149
 3036SOL    HW120570   0.293   4.604   9.371  0.1436  0.9284  0.0994
 3036SOL    HW220571   0.155   4.574   9.377  0.7424 -2.1979 -1.1334
 3037SOL     OW20572   0.549   1.620   6.965 -0.9920 -0.1770  0.6346
 3037SOL    HW120573   0.633   1.577   6.982 -1.3458 -0.7195  1.0101
 3037SOL    HW220574   0.514   1.602   7.052 -0.6745  1.6186  1.1374
 3038SOL     OW20575   3.570   2.561  13.425 -0.0054  0.1028 -0.8194
 3038SOL    HW120576   3.574   2.592  13.515 -0.3352  1.0225 -1.1125
 3038SOL    HW220577   3.490   2.508  13.427 -0.9248  1.5227  0.3305
 3039SOL     OW20578   4.351   0.730   7.530 -0.1069  0.2030  0.5504
 3039SOL    HW120579   4.364   0.651   7.479 -0.8117  0.1375  0.4756
 3039SOL    HW220580   4.274   0.777   7.498  0.2737  0.4924  0.0535
 3040SOL     OW20581   0.525   3.021   8.491 -0.1942 -0.3382  0.3544
 3040SOL    HW120582   0.454   2.976   8.535  0.1957 -0.1749  1.1529
 3040SOL    HW220583   0.548   3.092   8.551  0.9366 -0.9265  0.6318
 3041SOL     OW20584   3.873   2.177   8.607 -0.1332 -0.2821 -0.2135
 3041SOL    HW120585   3.890   2.087   8.581  1.4390  0.3198 -1.2261
 3041SOL    HW220586   3.941   2.183   8.674 -0.5013 -1.4057  0.2654
 3042SOL     OW20587   1.834   1.573   1.630 -0.0400  0.1752 -0.1231
 3042SOL    HW120588   1.778   1.647   1.650 -2.3286 -1.1857 -1.5128
 3042SOL    HW220589   1.917   1.605   1.593  1.0721 -2.5167  0.0367
 3043SOL     OW20590   0.480   3.134   9.735  0.1224  0.3309  0.0664
 3043SOL    HW120591   0.492   3.055   9.789  3.0594  0.0792 -0.9582
 3043SOL    HW220592   0.442   3.103   9.653 -3.8871  3.0889  0.8821
 3044SOL     OW20593   0.927   2.156   8.143 -0.1991 -0.1762  0.7043
 3044SOL    HW120594   0.884   2.241   8.146 -0.5417 -0.3283  0.2173
 3044SOL    HW220595   0.994   2.169   8.075 -1.4656  1.2403 -0.2582
 3045SOL     OW20596   3.287   4.472  15.216 -0.2796  0.2810  0.6245
 3045SOL    HW120597   3.337   4.408  15.265 -1.0684 -0.8006  0.0154
 3045SOL    HW220598   3.248   4.522  15.287 -1.0645  0.7375 -0.1227
 3046SOL     OW20599   0.541   3.573  12.453  0.1503  0.6023 -0.0001
 3046SOL    HW120600   0.532   3.642  12.520 -2.0363 -0.5383  0.8777
 3046SOL    HW220601   0.519   3.628  12.378 -2.1864 -2.1562 -1.3156
 3047SOL     OW20602   2.261   2.684  10.412  0.0548 -0.7755 -0.2372
 3047SOL    HW120603   2.228   2.758  10.361  1.1253  0.2216  0.5332
 3047SOL    HW220604   2.248   2.716  10.501  1.5031 -0.0289 -0.3015
 3048SOL     OW20605   0.936   3.304   4.434  0.2435  0.1400 -0.3273
 3048SOL    HW120606   0.858   3.316   4.487 -0.7454 -0.0698 -1.7460
 3048SOL    HW220607   0.944   3.371   4.367  0.3866  0.4781  0.0278
 3049SOL     OW20608   2.782   4.210   3.064  0.3926  0.0070  0.4943
 3049SOL    HW120609   2.823   4.275   3.007 -0.3160 -1.1161 -1.2948
 3049SOL    HW220610   2.699   4.251   3.089  1.0632  2.5266 -1.3592
 3050SOL     OW20611   1.430   1.416   4.163 -0.2420 -0.3793  0.5065
 3050SOL    HW120612   1.458   1.371   4.083  0.4716  0.0138  0.5307
 3050SOL    HW220613   1.513   1.452   4.193 -2.4842  4.5069  0.7646
 3051SOL     OW20614   4.273   2.237   5.895  0.2047  0.1206 -0.7047
 3051SOL    HW120615   4.283   2.159   5.841 -0.4037 -2.4427  2.8966
 3051SOL    HW220616   4.346   2.225   5.956 -1.8457 -0.5301  1.6490
 3052SOL     OW20617   1.821   2.094   0.942 -0.0193 -0.3621  0.1944
 3052SOL    HW120618   1.825   2.001   0.923 -0.9617 -0.0914 -1.3300
 3052SOL    HW220619   1.744   2.097   1.000 -0.0784  0.7589  0.0673
 3053SOL     OW20620   4.280   2.452  10.965  0.4082 -0.1282  0.0069
 3053SOL    HW120621   4.207   2.507  10.992  0.0457 -1.3883  1.6576
 3053SOL    HW220622   4.326   2.508  10.903  1.2305  2.2154  2.6980
 3054SOL     OW20623   4.488   2.002  13.167 -0.4508  0.4869 -0.4927
 3054SOL    HW120624   4.428   2.056  13.219 -1.6089 -1.6879  0.4303
 3054SOL    HW220625   4.439   1.922  13.150  1.1011 -0.3830 -0.8728
 3055SOL     OW20626   0.167   4.201  11.235 -0.1603 -0.3355 -0.1173
 3055SOL    HW120627   0.115   4.141  11.182 -2.8235  2.5605 -0.7905
 3055SOL    HW220628   0.087   4.231  11.279  0.9506  2.6965 -0.1677
 3056SOL     OW20629   0.802   0.058   1.307 -0.4588 -0.0280  0.1288
 3056SOL    HW120630   0.745   4.705   1.316  0.5655 -0.5577  2.0754
 3056SOL    HW220631   0.804   0.075   1.212  2.9726 -0.0620  0.2216
 3057SOL     OW20632   0.450   0.756   7.041  0.0931 -0.0869 -0.6442
 3057SOL    HW120633   0.360   0.763   7.009 -0.9451  1.5974  2.6963
 3057SOL    HW220634   0.435   0.764   7.135  0.4443  1.9801 -0.7609
 3058SOL     OW20635   4.117   4.099  17.412 -0.3224  0.3672  0.0302
 3058SOL    HW120636   4.066   4.035  17.461  1.5637 -1.7307 -0.7459
 3058SOL    HW220637   4.203   4.075  17.447 -1.0716 -1.9431  0.2634
 3059SOL     OW20638   4.230   3.250   6.098  0.4819 -0.3498  0.5108
 3059SOL    HW120639   4.324   3.246   6.118  0.1567 -0.4378  1.9516
 3059SOL    HW220640   4.233   3.280   6.007  0.6257  0.3454  0.7393
 3060SOL     OW20641   3.447   2.329   5.397  0.1685  0.4366  0.0554
 3060SOL    HW120642   3.381   2.376   5.448  0.8043 -0.8991  2.0783
 3060SOL    HW220643   3.498   2.401   5.359  1.3011 -0.2674  0.2425
 3061SOL     OW20644   2.972   3.854   5.159  0.3533  0.0566 -0.2411
 3061SOL    HW120645   2.938   3.882   5.074  0.3976  0.5997 -0.0774
 3061SOL    HW220646   3.035   3.923   5.179  2.3580 -1.6882 -0.5023
 3062SOL     OW20647   1.619   0.065   9.147 -0.3154 -0.0132 -0.1956
 3062SOL    HW120648   1.652   0.084   9.234 -0.4609 -1.6066  0.2012
 3062SOL    HW220649   1.633   4.694   9.149  1.2983  0.1800 -1.8533
 3063SOL     OW20650   1.661   1.145   1.081 -0.6347 -0.1549 -0.1807
 3063SOL    HW120651   1.690   1.215   1.023  1.3377  0.6983  1.8528
 3063SOL    HW220652   1.650   1.075   1.016  1.9800  0.4136 -1.2573
 3064SOL     OW20653   3.354   4.085   4.341 -0.2213  0.0995 -0.2635
 3064SOL    HW120654   3.368   3.997   4.376  0.7598  1.9081  3.8132
 3064SOL    HW220655   3.321   4.128   4.419 -2.3173 -0.5553 -0.7872
 3065SOL     OW20656   0.785   3.577  16.866 -0.0553  0.3263  0.2513
 3065SOL    HW120657   0.691   3.592  16.867 -0.3091 -1.2761  0.3098
 3065SOL    HW220658   0.801   3.564  16.960  2.8000 -2.4572 -0.6143
 3066SOL     OW20659   3.509   1.838   4.085 -0.1605 -0.2662 -0.3323
 3066SOL    HW120660   3.520   1.779   4.010  0.9493  0.1558 -0.4913
 3066SOL    HW220661   3.415   1.856   4.084  0.1217  1.2355  0.7381
 3067SOL     OW20662   0.821   1.499   5.556 -0.5410 -1.0450  0.1097
 3067SOL    HW120663   0.799   1.536   5.641  0.5140 -0.5175  0.1479
 3067SOL    HW220664   0.896   1.552   5.532 -0.8414 -2.2651 -3.5581
 3068SOL     OW20665   0.675   4.285   6.320 -0.1335  0.6910 -0.0128
 3068SOL    HW120666   0.725   4.365   6.335  0.7785  0.0669  0.3107
 3068SOL    HW220667   0.610   4.326   6.263 -0.2675 -0.5805 -0.7986
 3069SOL     OW20668   3.842   2.716   2.789 -0.6675 -0.4802  0.2000
 3069SOL    HW120669   3.913   2.736   2.849 -0.0972 -0.5380 -0.4519
 3069SOL    HW220670   3.803   2.638   2.829 -2.2850  0.3524  0.2225
 3070SOL     OW20671   0.475   3.566   3.193  0.7288 -0.0650  0.1499
 3070SOL    HW120672   0.481   3.621   3.115 -0.2577 -1.3799 -0.8383
 3070SOL    HW220673   0.503   3.614   3.271  0.0023  1.7398 -0.6779
 3071SOL     OW20674   1.993   2.405   4.213  0.3830 -0.3171 -0.2660
 3071SOL    HW120675   2.057   2.406   4.285  0.3244 -0.1626 -0.2153
 3071SOL    HW220676   1.909   2.409   4.258  1.0140 -1.2256  0.9907
 3072SOL     OW20677   4.639   4.530  16.748  0.0754 -0.3731 -0.3464
 3072SOL    HW120678   4.574   4.595  16.777 -0.0163 -0.2481 -0.8329
 3072SOL    HW220679   4.714   4.565  16.796  0.6792 -1.5971 -0.4081
 3073SOL     OW20680   1.403   0.121   6.831  0.0529  0.8965 -0.1301
 3073SOL    HW120681   1.459   0.187   6.790  2.0302 -0.3783  0.4913
 3073SOL    HW220682   1.467   0.077   6.887  0.0197  0.9516 -0.0481
 3074SOL     OW20683   0.159   2.282   1.870 -0.6884  0.0502 -0.0617
 3074SOL    HW120684   0.225   2.268   1.938 -2.2854  1.7467  1.8081
 3074SOL    HW220685   0.074   2.284   1.913 -1.0328  2.2316 -0.8772
 3075SOL     OW20686   2.908   2.569  17.175 -0.1041  0.0251 -0.1675
 3075SOL    HW120687   2.927   2.484  17.216  0.0915 -0.0645 -0.4368
 3075SOL    HW220688   2.875   2.622  17.247 -0.3097 -0.1138 -0.1608
 3076SOL     OW20689   1.174   1.883  12.776 -0.3757  0.0450 -0.0030
 3076SOL    HW120690   1.259   1.926  12.766 -0.5360  0.3336 -0.0987
 3076SOL    HW220691   1.216   1.803  12.809 -0.9212 -0.8396 -1.4514
 3077SOL     OW20692   0.100   1.001   7.950 -0.3431 -0.3844 -0.0163
 3077SOL    HW120693   0.166   1.011   8.018  1.1776 -1.9839 -1.2467
 3077SOL    HW220694   0.036   1.069   7.968  0.4573  0.8873 -1.9430
 3078SOL     OW20695   3.985   4.207   3.056  0.0140 -0.1338  0.1497
 3078SOL    HW120696   3.982   4.284   3.114 -0.1032 -0.8033  1.0269
 3078SOL    HW220697   4.073   4.177   3.077 -0.0721 -0.6819 -0.2861
 3079SOL     OW20698   0.149   1.175   9.954  0.0053 -0.4876 -0.1344
 3079SOL    HW120699   0.172   1.147  10.042  0.4501  0.0458 -0.0846
 3079SOL    HW220700   0.164   1.269   9.957  0.2329 -0.4580 -2.2261
 3080SOL     OW20701   4.491   3.444   4.305 -0.0636  0.5393 -0.3466
 3080SOL    HW120702   4.459   3.432   4.216 -3.6349 -0.3720  1.0835
 3080SOL    HW220703   4.446   3.521   4.339 -2.1935 -0.4974 -0.8381
 3081SOL     OW20704   3.949   2.801   4.340  0.7615 -0.0697  0.0843
 3081SOL    HW120705   3.858   2.821   4.316  1.3166  0.2277 -1.7213
 3081SOL    HW220706   3.948   2.840   4.428 -1.2936 -0.7111  0.3485
 3082SOL     OW20707   3.851   0.580   0.710  0.0326  0.0403 -0.4511
 3082SOL    HW120708   3.800   0.601   0.632 -1.4639  1.9563  1.0150
 3082SOL    HW220709   3.939   0.555   0.684 -0.0382  0.2952 -0.9375
 3083SOL     OW20710   0.503   1.727   6.655 -0.5375  0.2239 -0.1421
 3083SOL    HW120711   0.566   1.704   6.723 -0.9614  0.5477  0.3628
 3083SOL    HW220712   0.558   1.750   6.580  1.1802  1.6182  1.5620
 3084SOL     OW20713   3.479   0.080  10.834 -0.9497 -0.6892 -0.4525
 3084SOL    HW120714   3.437   0.116  10.912 -1.0586 -0.9096 -0.4114
 3084SOL    HW220715   3.493   4.716  10.870  0.3030 -0.8265 -1.2671
 3085SOL     OW20716   4.432   0.322  17.076 -0.0940  0.7097  0.7320
 3085SOL    HW120717   4.526   0.333  17.061 -0.4399 -0.9968 -2.7619
 3085SOL    HW220718   4.409   0.234  17.046  3.6891  0.8423 -2.5990
 3086SOL     OW20719   1.990   0.042  13.678 -0.3444 -0.1209  0.0756
 3086SOL    HW120720   1.943   0.028  13.760  0.9884 -0.6468  0.7607
 3086SOL    HW220721   2.024   0.131  13.683 -1.4013  0.3410 -1.0586
 3087SOL     OW20722   1.276   2.889  14.149 -0.4298  0.2979  0.0501
 3087SOL    HW120723   1.244   2.816  14.096  0.0212 -1.5811  2.3780
 3087SOL    HW220724   1.198   2.917  14.197 -2.2184 -2.1239 -1.4276
 3088SOL     OW20725   2.886   4.258   8.099 -0.1841 -0.3683  0.6315
 3088SOL    HW120726   2.878   4.189   8.034  0.7551 -1.5121  1.7224
 3088SOL    HW220727   2.943   4.217   8.165 -1.3118  0.0778  1.8969
 3089SOL     OW20728   3.375   0.374  12.512 -0.3563 -0.8194 -0.2582
 3089SOL    HW120729   3.308   0.442  12.496  0.9326  0.5870  0.2855
 3089SOL    HW220730   3.442   0.428  12.554 -0.5193 -0.5629 -0.3235
 3090SOL     OW20731   0.087   2.788  11.447  0.3483  0.5570 -0.1965
 3090SOL    HW120732   0.075   2.709  11.394  0.8257  1.6781 -1.9559
 3090SOL    HW220733   0.046   2.858  11.396  0.0207 -0.4166 -1.2720
 3091SOL     OW20734   1.472   2.067   3.705  0.6502  0.0424 -0.4119
 3091SOL    HW120735   1.506   2.129   3.769 -0.2357  0.0147  0.0831
 3091SOL    HW220736   1.383   2.099   3.696  1.0550  1.3746  0.3575
 3092SOL     OW20737   0.178   0.180   6.180  0.2932 -0.0228  0.5119
 3092SOL    HW120738   0.093   0.213   6.209 -0.1473 -0.0568 -0.7102
 3092SOL    HW220739   0.172   0.172   6.084 -0.4955  1.0949  0.4606
 3093SOL     OW20740   3.949   0.444   8.994 -0.2520  0.4774 -0.1827
 3093SOL    HW120741   3.977   0.503   9.064  0.3365 -0.4484  0.3717
 3093SOL    HW220742   3.944   0.361   9.042  3.3854  1.1053  1.2882
 3094SOL     OW20743   4.455   3.946   8.765 -0.3694  0.1970 -0.4332
 3094SOL    HW120744   4.413   3.949   8.851 -1.7947 -1.4038 -1.0953
 3094SOL    HW220745   4.549   3.948   8.787 -0.1728  0.7250 -1.3440
 3095SOL     OW20746   3.831   0.270   8.571 -0.3664 -0.5007  0.3829
 3095SOL    HW120747   3.789   0.185   8.583  1.2045 -1.3381 -0.0176
 3095SOL    HW220748   3.751   0.320   8.588  0.9176  1.7392 -0.1385
 3096SOL     OW20749   4.256   4.467   5.800 -0.3946  0.1772 -0.4645
 3096SOL    HW120750   4.312   4.516   5.860  0.0919 -0.2203 -0.5935
 3096SOL    HW220751   4.168   4.499   5.821  0.1845  2.4876 -1.5870
 3097SOL     OW20752   3.105   1.733   8.297  0.4714  0.7411  0.1696
 3097SOL    HW120753   3.046   1.734   8.372 -0.4636  0.8899 -0.5754
 3097SOL    HW220754   3.057   1.770   8.223  1.1759  0.0020 -0.6638
 3098SOL     OW20755   4.089   3.816  10.979  0.7134  0.0735 -0.1993
 3098SOL    HW120756   4.157   3.801  11.044  0.4567 -0.8177 -0.1421
 3098SOL    HW220757   4.028   3.743  10.986  0.4547  0.3501  0.4351
 3099SOL     OW20758   4.001   2.782   7.422  0.4402  0.3554 -0.0857
 3099SOL    HW120759   3.981   2.869   7.385 -1.5969 -1.5401 -3.4475
 3099SOL    HW220760   4.020   2.728   7.345  0.5962 -0.1246  0.2939
 3100SOL     OW20761   0.328   3.207  13.039  0.0544  0.2435 -0.1519
 3100SOL    HW120762   0.256   3.227  12.979 -0.2403  1.0565  0.4836
 3100SOL    HW220763   0.351   3.295  13.067 -1.1243  0.8798 -1.1802
 3101SOL     OW20764   2.619   0.859  10.914 -0.0728  0.3716  0.0266
 3101SOL    HW120765   2.658   0.796  10.853  0.7928  0.0081  0.9723
 3101SOL    HW220766   2.631   0.939  10.862  1.2902 -0.6311 -1.1994
 3102SOL     OW20767   3.222   4.627   8.615 -0.2865  0.4560  0.0780
 3102SOL    HW120768   3.275   4.706   8.606  2.3241 -1.4110 -0.8094
 3102SOL    HW220769   3.260   4.578   8.688 -1.9486  1.0930  1.3943
 3103SOL     OW20770   3.943   0.409  11.502  0.0008 -0.4485  0.2045
 3103SOL    HW120771   3.942   0.488  11.448  2.2251  0.7053  1.8398
 3103SOL    HW220772   4.005   0.426  11.573 -0.4795 -0.0126  0.5197
 3104SOL     OW20773   0.045   3.278  11.351  0.3768  0.3562  0.8273
 3104SOL    HW120774   4.689   3.293  11.401 -0.1714 -0.2588  0.1507
 3104SOL    HW220775   0.075   3.369  11.347 -1.6977  1.0774  1.4859
 3105SOL     OW20776   3.721   3.386   9.918  0.7243  0.1908 -0.0166
 3105SOL    HW120777   3.813   3.412   9.920  0.7210  0.1198  1.0835
 3105SOL    HW220778   3.665   3.456   9.886  0.6173  0.1516  0.0816
 3106SOL     OW20779   2.392   4.166   2.917 -0.3726  0.3264  0.3493
 3106SOL    HW120780   2.418   4.216   2.840  0.7518 -0.2295  0.3751
 3106SOL    HW220781   2.439   4.083   2.907 -1.2518 -0.1259 -0.0471
 3107SOL     OW20782   3.026   0.400  12.005 -0.5122 -0.0930  0.4869
 3107SOL    HW120783   3.038   0.495  11.998 -3.3459  0.1070 -1.6279
 3107SOL    HW220784   3.017   0.395  12.100  3.5891  1.0516  0.9342
 3108SOL     OW20785   4.446   4.600   5.942 -0.0961  0.1057 -0.0037
 3108SOL    HW120786   4.404   4.602   6.028 -0.6873  1.1038 -0.3190
 3108SOL    HW220787   4.536   4.590   5.974 -0.0275  0.2260 -0.1618
 3109SOL     OW20788   1.953   2.098   6.407 -0.0160  0.0747 -0.2852
 3109SOL    HW120789   2.014   2.167   6.432  0.0241 -0.2044  0.3904
 3109SOL    HW220790   1.900   2.148   6.345 -0.8506  0.2873  0.5963
 3110SOL     OW20791   2.413   3.286   6.219 -0.3665 -0.7366 -0.3780
 3110SOL    HW120792   2.427   3.313   6.310 -0.1876 -2.5795  0.1584
 3110SOL    HW220793   2.387   3.195   6.236 -0.6550 -0.5634  0.1027
 3111SOL     OW20794   1.862   2.294   8.818  0.4032 -0.0262  0.2489
 3111SOL    HW120795   1.798   2.330   8.757 -2.4787 -1.2190  2.5962
 3111SOL    HW220796   1.937   2.349   8.796  1.5427 -0.7067  2.3888
 3112SOL     OW20797   0.496   3.782   4.307  0.1866 -0.0686 -0.2408
 3112SOL    HW120798   0.560   3.722   4.345  0.0207  0.6265  1.1249
 3112SOL    HW220799   0.491   3.834   4.387  2.5202 -0.0489 -0.0935
 3113SOL     OW20800   2.019   4.310   6.706 -0.1293  0.1226  0.1727
 3113SOL    HW120801   2.076   4.283   6.634  0.0933  2.6994 -0.5998
 3113SOL    HW220802   2.011   4.230   6.759  1.0959  1.2778  2.0714
 3114SOL     OW20803   3.708   3.032  15.023  0.3498 -0.3105  0.3696
 3114SOL    HW120804   3.777   3.089  14.990  0.7776 -1.2743 -0.4100
 3114SOL    HW220805   3.639   3.075  14.972  1.7754  0.1110 -1.2297
 3115SOL     OW20806   0.120   0.132  10.300  0.5877 -0.7356 -0.3880
 3115SOL    HW120807   0.127   0.227  10.286  1.7402 -0.9081 -0.9682
 3115SOL    HW220808   0.112   0.124  10.395 -0.9925 -2.0001 -0.6398
 3116SOL     OW20809   3.242   1.200   6.357  0.3540  0.4853  0.0483
 3116SOL    HW120810   3.180   1.135   6.325 -0.1293  1.2874 -0.6572
 3116SOL    HW220811   3.223   1.270   6.294  1.0555  0.5793 -0.0639
 3117SOL     OW20812   0.474   1.553  12.267 -1.0742 -0.3933 -0.3694
 3117SOL    HW120813   0.542   1.530  12.330 -2.1762  0.1072  1.0099
 3117SOL    HW220814   0.399   1.502  12.297 -0.4812 -2.0097 -1.6102
 3118SOL     OW20815   2.618   4.395  13.003  0.1565  0.5334 -0.3467
 3118SOL    HW120816   2.551   4.408  12.936  0.3070  5.2450  0.4231
 3118SOL    HW220817   2.700   4.408  12.956  0.9290 -1.9748  0.3116
 3119SOL     OW20818   4.470   3.307   2.555  0.2951 -0.0606 -0.0841
 3119SOL    HW120819   4.434   3.219   2.569 -1.4834  0.9007  1.3151
 3119SOL    HW220820   4.404   3.341   2.496 -1.1441 -2.0049  0.3769
 3120SOL     OW20821   1.669   2.261  14.013  0.5447  0.3580 -0.0825
 3120SOL    HW120822   1.668   2.244  14.108  0.0075 -1.5073 -0.4129
 3120SOL    HW220823   1.620   2.343  14.012 -0.0477 -0.0124 -1.3978
 3121SOL     OW20824   0.072   3.079   8.957  0.2838  0.1796  0.1246
 3121SOL    HW120825   0.086   2.997   8.908 -0.6385 -1.2239  2.1929
 3121SOL    HW220826   0.015   3.040   9.024 -0.1569 -0.2767 -0.5143
 3122SOL     OW20827   4.320   0.297  17.336 -0.2963  0.5451  0.4207
 3122SOL    HW120828   4.233   0.300  17.298  0.3449 -4.3329 -1.3826
 3122SOL    HW220829   4.372   0.312  17.257  1.1885  1.0331  1.4860
 3123SOL     OW20830   2.519   2.109   6.349  0.1987  0.5098 -0.1851
 3123SOL    HW120831   2.468   2.173   6.400 -0.3253 -0.3318  0.3567
 3123SOL    HW220832   2.543   2.048   6.419 -1.0734  0.9167  0.6117
 3124SOL     OW20833   3.387   3.720  14.380 -0.6567 -0.4073  0.5514
 3124SOL    HW120834   3.422   3.794  14.329 -1.9038  0.1377  0.4948
 3124SOL    HW220835   3.351   3.665  14.311  0.3817 -2.9720  2.0533
 3125SOL     OW20836   0.410   4.263  11.745 -0.1652  0.3760 -0.1437
 3125SOL    HW120837   0.369   4.314  11.675 -1.1795  1.3872  1.1840
 3125SOL    HW220838   0.348   4.192  11.753 -1.0971  1.3735  1.4639
 3126SOL     OW20839   3.929   2.456   4.577  0.3447 -0.4560 -0.6577
 3126SOL    HW120840   3.979   2.377   4.596  0.8793  0.1077  0.2694
 3126SOL    HW220841   3.993   2.525   4.561  0.0973 -0.0965 -0.0974
 3127SOL     OW20842   1.559   0.608   4.094  0.1356 -0.0238 -0.3482
 3127SOL    HW120843   1.589   0.517   4.097  0.1101 -0.0389 -0.5764
 3127SOL    HW220844   1.621   0.650   4.035 -0.0668  0.7030 -0.0371
 3128SOL     OW20845   2.774   3.691   7.200 -0.2955  0.0989  0.0755
 3128SOL    HW120846   2.702   3.752   7.215 -0.4482 -0.2905  0.9014
 3128SOL    HW220847   2.826   3.689   7.280  2.0339  1.1992 -1.3995
 3129SOL     OW20848   0.381   0.303   8.148  0.3975  0.1843 -0.0559
 3129SOL    HW120849   0.302   0.292   8.094 -0.9539  2.0379  1.5540
 3129SOL    HW220850   0.409   0.217   8.179  1.6354 -0.5977 -3.3393
 3130SOL     OW20851   3.668   1.091   5.430  0.2749 -0.2318  0.1722
 3130SOL    HW120852   3.693   1.022   5.369  0.9995 -0.4754  0.7436
 3130SOL    HW220853   3.593   1.126   5.382  1.5306  2.0987 -0.1004
 3131SOL     OW20854   1.762   0.404   4.140 -0.3941  0.8451 -0.3819
 3131SOL    HW120855   1.835   0.458   4.110 -1.3212  1.8484 -0.8096
 3131SOL    HW220856   1.763   0.329   4.080  0.6518  1.3799 -1.0334
 3132SOL     OW20857   0.389   2.015   8.922  0.0162 -0.1182  0.5652
 3132SOL    HW120858   0.371   1.976   8.837  3.5863  0.3135 -0.3801
 3132SOL    HW220859   0.394   1.946   8.988 -0.9274 -1.4973 -0.8068
 3133SOL     OW20860   3.372   3.112   6.184  0.1770 -0.3541  0.1167
 3133SOL    HW120861   3.337   3.087   6.098  0.9962 -1.2318  0.0468
 3133SOL    HW220862   3.331   3.044   6.237 -0.8473 -0.4191 -0.7548
 3134SOL     OW20863   0.509   3.861   7.971  0.4435 -0.0226 -0.2937
 3134SOL    HW120864   0.439   3.804   8.003 -0.5751  1.8205  0.7075
 3134SOL    HW220865   0.460   3.939   7.946  1.4091  0.3323 -1.1090
 3135SOL     OW20866   1.877   0.575  15.926  0.2906 -0.7195  0.2978
 3135SOL    HW120867   1.940   0.536  15.865 -0.4560  1.1382 -1.6496
 3135SOL    HW220868   1.890   0.665  15.896 -3.0841 -1.0544 -2.2021
 3136SOL     OW20869   2.183   1.341   6.225 -0.4255 -0.0042 -0.3267
 3136SOL    HW120870   2.195   1.436   6.234  1.5335 -0.2184 -0.4974
 3136SOL    HW220871   2.221   1.312   6.308 -0.3490 -0.8844 -0.6715
 3137SOL     OW20872   3.153   1.278   4.348 -0.4489  1.0192 -0.1937
 3137SOL    HW120873   3.120   1.364   4.323 -1.6620  1.2036  1.9855
 3137SOL    HW220874   3.130   1.268   4.441  0.8597 -0.2081 -0.0096
 3138SOL     OW20875   1.967   1.373   2.119  0.1630 -0.6733  0.6597
 3138SOL    HW120876   1.874   1.364   2.139 -0.1101 -0.8233 -0.6967
 3138SOL    HW220877   1.959   1.408   2.030 -1.6392  0.2703  1.1912
 3139SOL     OW20878   0.416   3.654   6.877  0.0025 -0.1855 -0.2531
 3139SOL    HW120879   0.372   3.570   6.888 -1.9581  0.5235 -2.8311
 3139SOL    HW220880   0.410   3.671   6.783  0.3810 -0.1792 -0.2769
 3140SOL     OW20881   3.183   3.672   8.557 -0.4662  0.1537  0.0988
 3140SOL    HW120882   3.247   3.733   8.593 -0.6279 -1.0941  2.5401
 3140SOL    HW220883   3.114   3.731   8.525 -0.1283  0.8002  0.5532
 3141SOL     OW20884   1.859   1.000  17.488 -0.3908 -1.0203  0.2497
 3141SOL    HW120885   1.870   1.049  17.407 -2.0881 -0.8815  0.1185
 3141SOL    HW220886   1.912   1.049  17.551 -0.2028 -1.3534  0.3576
 3142SOL     OW20887   2.195   3.578   7.985 -0.2905 -0.0781 -0.1972
 3142SOL    HW120888   2.267   3.562   8.046 -0.6621  0.5262  0.3979
 3142SOL    HW220889   2.115   3.561   8.034 -0.5738 -2.1647 -1.3756
 3143SOL     OW20890   0.932   3.573   1.551 -0.0710 -0.1644 -0.5483
 3143SOL    HW120891   0.972   3.620   1.624  0.5544  0.1016 -1.0553
 3143SOL    HW220892   0.844   3.610   1.547 -0.7956 -1.6753  1.8851
 3144SOL     OW20893   1.184   4.158   4.526  0.0912 -0.0061 -0.3695
 3144SOL    HW120894   1.110   4.202   4.568  0.4158 -0.4835  0.7032
 3144SOL    HW220895   1.158   4.131   4.438 -1.2959  2.5790 -0.7354
 3145SOL     OW20896   3.590   0.295   6.607 -0.5927  0.5894  0.4421
 3145SOL    HW120897   3.664   0.354   6.620  1.7248 -2.6417  1.7809
 3145SOL    HW220898   3.516   0.354   6.621 -0.5720  0.4600  1.0963
 3146SOL     OW20899   4.450   1.283   8.703 -0.3195 -0.5071 -0.7560
 3146SOL    HW120900   4.503   1.243   8.772 -0.2793 -2.3214 -1.8404
 3146SOL    HW220901   4.408   1.207   8.664  0.6359 -0.7864 -1.2399
 3147SOL     OW20902   0.878   3.791   7.682  0.3049  0.0222  0.0156
 3147SOL    HW120903   0.805   3.848   7.657  0.6085  0.6252  0.4993
 3147SOL    HW220904   0.854   3.777   7.774 -3.3768  0.1357 -0.9401
 3148SOL     OW20905   4.086   0.615  16.882 -0.5128 -0.3163 -0.1813
 3148SOL    HW120906   4.168   0.582  16.917 -0.5625  0.7869  0.9815
 3148SOL    HW220907   4.098   0.709  16.900  0.6417 -0.8322  1.6978
 3149SOL     OW20908   0.973   4.444  14.215 -0.0506 -0.5150  0.3673
 3149SOL    HW120909   1.051   4.467  14.165 -0.5029  1.9846  0.7724
 3149SOL    HW220910   0.995   4.489  14.296  1.6534  1.2132 -1.0617
 3150SOL     OW20911   2.131   2.123   7.950  0.8111 -0.0424  0.5169
 3150SOL    HW120912   2.091   2.101   8.034  0.4716  0.3633  0.4614
 3150SOL    HW220913   2.071   2.186   7.910  1.4222  0.1222 -0.1205
 3151SOL     OW20914   1.477   0.632   5.044 -0.2657 -0.7892  0.4193
 3151SOL    HW120915   1.534   0.614   4.969 -0.9811  0.7779 -0.4765
 3151SOL    HW220916   1.467   0.727   5.049 -2.1983 -1.0479  1.3472
 3152SOL     OW20917   2.456   1.093  11.748 -0.2760  0.5732 -0.1324
 3152SOL    HW120918   2.542   1.124  11.774 -0.6618  2.1344 -0.7469
 3152SOL    HW220919   2.463   1.082  11.653 -1.3428 -1.5085  0.0214
 3153SOL     OW20920   0.959   3.960   8.044 -0.2948 -0.4619  0.2862
 3153SOL    HW120921   1.036   3.966   7.988 -0.4393  2.1748  0.3564
 3153SOL    HW220922   0.995   3.982   8.130 -1.1242 -2.0125  1.0387
 3154SOL     OW20923   2.184   2.115  16.043  0.0495  0.1028 -0.2266
 3154SOL    HW120924   2.138   2.031  16.035  0.5481 -0.2705  0.7568
 3154SOL    HW220925   2.237   2.120  16.123 -0.6495  2.1266  0.0985
 3155SOL     OW20926   2.671   4.286   6.714 -0.2068  0.1807 -0.5739
 3155SOL    HW120927   2.653   4.192   6.724 -0.8624  0.1955 -1.6908
 3155SOL    HW220928   2.582   4.314   6.733 -0.4376 -0.8283 -0.1800
 3156SOL     OW20929   3.263   2.812  17.660 -0.0257 -0.0435 -0.3369
 3156SOL    HW120930   3.235   2.746  17.596  2.0049 -1.0978 -0.1304
 3156SOL    HW220931   3.353   2.812  17.628 -0.3379  2.3281 -1.2221
 3157SOL     OW20932   1.418   1.508  13.290 -0.0110  0.2145 -0.0148
 3157SOL    HW120933   1.389   1.449  13.360 -3.4954 -0.1099 -1.7528
 3157SOL    HW220934   1.438   1.442  13.224  0.5921  0.1983  0.1895
 3158SOL     OW20935   2.855   4.125   9.052  0.4591  0.0174  0.1041
 3158SOL    HW120936   2.927   4.185   9.068 -0.1990  1.0543 -0.7844
 3158SOL    HW220937   2.890   4.041   9.083 -0.4655  0.5706  2.6507
 3159SOL     OW20938   2.957   3.555   1.670  0.1962  0.6436 -0.3702
 3159SOL    HW120939   2.907   3.514   1.599  2.5510 -0.6428 -1.2780
 3159SOL    HW220940   3.036   3.501   1.672 -1.2713 -1.5196  0.2406
 3160SOL     OW20941   2.110   2.412   6.127  0.0759  0.7282 -0.0967
 3160SOL    HW120942   2.196   2.369   6.122 -0.6365 -0.3888 -2.6137
 3160SOL    HW220943   2.110   2.462   6.046 -3.9459 -0.7264 -0.9947
 3161SOL     OW20944   3.277   0.626   5.804 -0.3608  0.4840  0.6299
 3161SOL    HW120945   3.277   0.530   5.812 -1.1625  0.4448  0.1749
 3161SOL    HW220946   3.299   0.636   5.712 -0.8239  1.0994  0.5831
 3162SOL     OW20947   0.989   2.324  13.718 -0.3006 -0.1651 -0.0930
 3162SOL    HW120948   0.971   2.254  13.656 -0.4315  1.2381 -1.6468
 3162SOL    HW220949   1.070   2.293  13.757 -0.2193 -0.2834 -0.3604
 3163SOL     OW20950   1.329   2.898   7.784 -0.0406 -0.0782  0.0580
 3163SOL    HW120951   1.353   2.876   7.874 -1.7129  2.4746  1.1304
 3163SOL    HW220952   1.373   2.982   7.770 -0.3511 -0.0621 -0.8417
 3164SOL     OW20953   0.739   0.804  13.151  0.9367  0.6882  0.7684
 3164SOL    HW120954   0.741   0.766  13.239 -2.0866  1.2161  1.0601
 3164SOL    HW220955   0.667   0.866  13.160  0.2757  0.3220 -1.9769
 3165SOL     OW20956   1.302   2.185   0.419  0.3564 -0.0644 -0.7293
 3165SOL    HW120957   1.343   2.106   0.383 -2.7212 -1.9723 -0.0533
 3165SOL    HW220958   1.361   2.227   0.483 -1.6746 -0.2187  1.2471
 3166SOL     OW20959   1.145   2.386   6.287  0.1021 -0.3142 -0.1367
 3166SOL    HW120960   1.171   2.463   6.337  0.4617  1.0325 -2.3999
 3166SOL    HW220961   1.052   2.406   6.302  0.5057  0.8445  0.7696
 3167SOL     OW20962   4.420   2.193  15.281  0.7810  0.1777  0.0387
 3167SOL    HW120963   4.455   2.131  15.345 -1.3333 -0.6564  0.3933
 3167SOL    HW220964   4.438   2.148  15.199 -0.5945  0.3556 -0.3591
 3168SOL     OW20965   2.922   3.658   3.188  0.7818  0.8194 -0.6053
 3168SOL    HW120966   2.883   3.586   3.139 -1.3461  0.8252  1.0558
 3168SOL    HW220967   2.939   3.721   3.118 -0.3830 -0.7897 -2.3038
 3169SOL     OW20968   3.014   2.672   8.528 -0.0101  0.2026  0.3691
 3169SOL    HW120969   3.061   2.602   8.572 -0.3683 -0.2762 -0.0226
 3169SOL    HW220970   2.929   2.633   8.550  1.1352 -2.3116  0.2843
 3170SOL     OW20971   0.857   2.351   7.833 -0.5479  0.6359  0.0007
 3170SOL    HW120972   0.784   2.294   7.858 -0.0644 -0.8507 -1.9967
 3170SOL    HW220973   0.809   2.420   7.788  1.0105  0.5987 -1.7024
 3171SOL     OW20974   0.621   0.622  14.969 -0.0567  0.2625  0.4532
 3171SOL    HW120975   0.637   0.649  15.060  1.0219 -0.4701  0.4693
 3171SOL    HW220976   0.531   0.653  14.952 -0.5625 -1.1665  0.5624
 3172SOL     OW20977   2.844   3.236   1.683 -0.0678 -0.6075  0.0278
 3172SOL    HW120978   2.909   3.277   1.741  0.2904 -2.7217  1.1027
 3172SOL    HW220979   2.898   3.198   1.614 -0.5022 -1.5347  0.2073
 3173SOL     OW20980   3.373   0.417   7.025 -0.3546  0.0475 -0.8106
 3173SOL    HW120981   3.423   0.377   7.096 -0.1777 -1.8656 -1.9925
 3173SOL    HW220982   3.318   0.343   6.997 -1.5165  1.8973 -3.4060
 3174SOL     OW20983   0.608   1.064   5.481 -0.3613  0.1031  0.5564
 3174SOL    HW120984   0.645   0.976   5.470 -0.5020 -0.3581  3.7831
 3174SOL    HW220985   0.664   1.098   5.552  0.1911 -3.8282  2.0473
 3175SOL     OW20986   0.930   1.621   1.803 -0.2840  0.3279 -0.4753
 3175SOL    HW120987   0.931   1.715   1.782  0.4160  0.4055 -0.1074
 3175SOL    HW220988   0.838   1.610   1.826  0.2093 -1.9667  0.4192
 3176SOL     OW20989   2.025   1.496   4.142  0.2314  0.5659  0.0845
 3176SOL    HW120990   1.974   1.463   4.216 -0.9636  1.3106 -0.3887
 3176SOL    HW220991   2.084   1.422   4.131  1.7885  1.9189 -0.6422
 3177SOL     OW20992   2.097   2.137   7.441 -0.2870 -0.2585  0.1231
 3177SOL    HW120993   2.161   2.090   7.495 -0.3744 -0.0085  0.4395
 3177SOL    HW220994   2.015   2.101   7.471 -0.3841  0.9876  1.3556
 3178SOL     OW20995   3.169   3.423   5.362 -0.2664 -0.5205 -0.7003
 3178SOL    HW120996   3.182   3.388   5.451 -1.0600  1.0017  0.0056
 3178SOL    HW220997   3.253   3.467   5.350 -0.3089 -0.2634 -0.0746
 3179SOL     OW20998   0.274   1.089  11.534 -0.0754 -0.0957 -0.4415
 3179SOL    HW120999   0.325   1.010  11.546 -2.6261 -1.4882  1.2480
 3179SOL    HW221000   0.308   1.117  11.450  0.1721 -0.5878 -0.5026
 3180SOL     OW21001   1.110   3.109   0.070 -0.1942 -0.4489 -0.4096
 3180SOL    HW121002   1.140   3.022   0.097 -0.0211  0.7124  3.1151
 3180SOL    HW221003   1.179   3.170   0.098 -0.1059 -0.8718  0.2932
 3181SOL     OW21004   4.641   2.314   5.240 -0.0480 -0.5049 -0.0453
 3181SOL    HW121005   4.587   2.236   5.224 -1.5311  0.2305  1.3996
 3181SOL    HW221006   4.712   2.278   5.292 -2.2067 -3.4058  0.9212
 3182SOL     OW21007   3.556   2.476   3.974  0.1452  0.6738  0.1390
 3182SOL    HW121008   3.488   2.509   4.032 -1.4220 -0.0565 -1.3041
 3182SOL    HW221009   3.627   2.478   4.039  0.4773  0.2986 -0.2140
 3183SOL     OW21010   4.079   3.876  10.721 -0.1484 -0.2692  0.1943
 3183SOL    HW121011   3.993   3.911  10.742 -0.6008 -0.6603 -1.0033
 3183SOL    HW221012   4.100   3.846  10.809 -1.2472 -1.8521 -0.0935
 3184SOL     OW21013   2.208   3.819  15.555 -0.2500 -0.5774  0.3324
 3184SOL    HW121014   2.261   3.899  15.553 -1.5950  0.2948 -1.4695
 3184SOL    HW221015   2.145   3.839  15.485  2.1254 -0.7538 -1.8616
 3185SOL     OW21016   0.484   1.367   3.171  0.2844 -0.9994 -0.5447
 3185SOL    HW121017   0.420   1.346   3.238 -0.3431  0.7843 -0.5839
 3185SOL    HW221018   0.562   1.383   3.224 -0.9852 -0.4351  1.1532
 3186SOL     OW21019   0.866   3.003   5.183  0.3868  0.0072  0.6917
 3186SOL    HW121020   0.932   2.945   5.146  0.1745  0.2869 -0.1305
 3186SOL    HW221021   0.921   3.042   5.251 -0.3311  2.3716 -0.0818
 3187SOL     OW21022   3.753   4.246   5.356  0.2684  0.3830 -0.1834
 3187SOL    HW121023   3.716   4.172   5.404  1.8494 -0.4952 -0.3158
 3187SOL    HW221024   3.824   4.203   5.309  0.5590  2.0117 -1.2562
 3188SOL     OW21025   1.239   3.587   2.048  0.2663  1.0368 -0.4430
 3188SOL    HW121026   1.179   3.650   2.007 -0.3510  2.1422  2.1802
 3188SOL    HW221027   1.304   3.645   2.087  0.3661 -1.5564  3.2033
 3189SOL     OW21028   4.066   2.511   3.265  0.2848 -0.2542 -0.2791
 3189SOL    HW121029   3.970   2.512   3.261  0.2665 -1.6676  0.0330
 3189SOL    HW221030   4.089   2.419   3.275 -0.5911 -0.7176 -2.4517
 3190SOL     OW21031   4.500   3.089  12.965  0.3227 -0.0191 -0.0896
 3190SOL    HW121032   4.521   3.180  12.986  1.2006 -1.1389  3.9569
 3190SOL    HW221033   4.573   3.047  13.010 -0.3130 -0.9840  0.0228
 3191SOL     OW21034   3.207   2.679   6.830  1.0237 -0.5638 -0.4137
 3191SOL    HW121035   3.146   2.750   6.810  2.1760  0.5856  0.1383
 3191SOL    HW221036   3.147   2.608   6.807  0.7243  0.4328 -2.6413
 3192SOL     OW21037   2.779   2.577   3.626  0.0355  0.0698 -0.0138
 3192SOL    HW121038   2.712   2.537   3.571 -0.8491 -0.3063  1.3318
 3192SOL    HW221039   2.720   2.616   3.690 -0.0235 -1.0296  0.6012
 3193SOL     OW21040   1.060   2.059  13.689  0.6531 -0.7457  0.4386
 3193SOL    HW121041   1.026   2.104  13.613  0.6647  0.0298  0.8900
 3193SOL    HW221042   1.107   1.989  13.644  1.1753  1.1105 -1.8898
 3194SOL     OW21043   2.704   0.090   7.126 -0.2210  0.2523  0.2161
 3194SOL    HW121044   2.612   0.083   7.149 -0.1246 -0.6732  0.3150
 3194SOL    HW221045   2.744   0.021   7.179  1.8571  1.6297  0.4238
 3195SOL     OW21046   3.305   4.077   5.641 -0.6201  0.2990 -0.2801
 3195SOL    HW121047   3.320   3.992   5.601  0.9938 -0.6449  2.3525
 3195SOL    HW221048   3.310   4.132   5.562  0.3160 -1.7728 -1.6735
 3196SOL     OW21049   0.091   2.143   3.964 -0.4465  0.6181  0.3287
 3196SOL    HW121050   0.011   2.168   3.918 -1.1290 -1.4184  0.4393
 3196SOL    HW221051   0.153   2.213   3.941  0.6805 -0.9646 -1.3694
 3197SOL     OW21052   2.823   3.977  12.724 -0.0948 -0.2777 -0.7298
 3197SOL    HW121053   2.760   3.961  12.654 -0.2994 -0.6098 -0.4697
 3197SOL    HW221054   2.786   4.056  12.762 -1.0600 -1.2171  0.2981
 3198SOL     OW21055   2.654   2.059   5.036  0.1031 -0.1799  0.1859
 3198SOL    HW121056   2.689   2.059   4.947  2.4995 -1.8727  1.1464
 3198SOL    HW221057   2.732   2.072   5.090  1.7522  1.8120 -2.7145
 3199SOL     OW21058   2.869   3.718  10.029 -0.1615  1.0407  0.1490
 3199SOL    HW121059   2.908   3.770  10.100 -1.3824 -0.1440  1.6908
 3199SOL    HW221060   2.856   3.637  10.079 -2.0162  1.3823  0.2025
 3200SOL     OW21061   3.793   3.613  17.270  0.1128 -0.2476  0.0738
 3200SOL    HW121062   3.870   3.631  17.324 -0.0892  0.1965  0.2217
 3200SOL    HW221063   3.830   3.635  17.185 -4.0877 -1.4044 -2.0637
 3201SOL     OW21064   0.482   4.069   9.255 -0.6988  0.1435 -0.0543
 3201SOL    HW121065   0.556   4.045   9.199 -0.3151  0.5643  0.2743
 3201SOL    HW221066   0.465   3.986   9.299  0.5788 -0.1881 -0.1869
 3202SOL     OW21067   2.035   3.681   9.498 -0.0823  0.1831  0.2428
 3202SOL    HW121068   1.947   3.662   9.533  0.1632 -0.2643  0.6288
 3202SOL    HW221069   2.045   3.771   9.529  1.8375  0.5998 -1.6199
 3203SOL     OW21070   0.361   3.317   3.283  0.3317 -0.3416 -0.8064
 3203SOL    HW121071   0.267   3.323   3.300  0.4290  1.1799 -0.8366
 3203SOL    HW221072   0.372   3.390   3.222 -0.2237 -0.9348 -1.6148
 3204SOL     OW21073   4.380   3.806   3.159  0.5101 -0.0263  0.5077
 3204SOL    HW121074   4.440   3.742   3.121 -0.0712 -1.6180  2.2603
 3204SOL    HW221075   4.294   3.768   3.139  0.6995 -0.6385  0.8246
 3205SOL     OW21076   0.746   4.568   6.970 -0.2107 -0.0240 -0.0308
 3205SOL    HW121077   0.742   4.647   6.917 -0.1167  0.1503  0.2250
 3205SOL    HW221078   0.696   4.508   6.914  0.9764 -1.9400  0.9694
 3206SOL     OW21079   3.247   3.246  14.049  0.0520 -0.4348  0.5226
 3206SOL    HW121080   3.177   3.235  13.984 -0.2574  4.0690  0.1527
 3206SOL    HW221081   3.304   3.172  14.027 -0.1316 -1.0782  2.2348
 3207SOL     OW21082   1.051   3.959   9.846  0.0905 -0.1520  0.6168
 3207SOL    HW121083   0.989   3.902   9.801  0.3543  1.2163 -1.4508
 3207SOL    HW221084   1.030   3.929   9.935  0.8294  0.4508  0.9903
 3208SOL     OW21085   0.024   2.085   5.792  0.2394 -0.2115 -0.1167
 3208SOL    HW121086   0.072   2.047   5.866 -0.7857 -1.0919  0.0822
 3208SOL    HW221087   0.022   2.001   5.747 -0.8322  0.6864 -1.7145
 3209SOL     OW21088   3.316   3.622  16.102  0.6721 -0.0291 -1.2228
 3209SOL    HW121089   3.252   3.690  16.121  0.7836 -0.2938  0.0944
 3209SOL    HW221090   3.300   3.562  16.175  0.5421  0.2379 -1.0312
 3210SOL     OW21091   4.685   1.226   5.397 -0.3709  0.1437 -0.0696
 3210SOL    HW121092   4.631   1.200   5.472 -0.0265 -2.6368 -0.7915
 3210SOL    HW221093   0.021   1.152   5.398  0.0037  0.4513  0.4869
 3211SOL     OW21094   4.631   2.393  14.756  0.2621 -0.1286  0.5532
 3211SOL    HW121095   4.610   2.473  14.706  3.0427 -0.5518 -1.3160
 3211SOL    HW221096   4.713   2.359  14.719  1.1330  0.2373  2.1413
 3212SOL     OW21097   3.584   1.916   2.698  0.1500  0.6495  0.5597
 3212SOL    HW121098   3.527   1.842   2.720 -1.5723  1.9068  0.2897
 3212SOL    HW221099   3.665   1.865   2.701  0.1950  0.7379  0.8434
 3213SOL     OW21100   2.961   3.617  10.777 -0.2992  0.6818  0.2166
 3213SOL    HW121101   2.936   3.525  10.789  0.0960  0.6729  0.9554
 3213SOL    HW221102   2.994   3.637  10.864  0.3398 -2.2472  0.6543
 3214SOL     OW21103   3.052   1.895   5.853 -0.4258  0.1012 -0.2447
 3214SOL    HW121104   3.133   1.943   5.872 -0.7230  1.0500 -1.3997
 3214SOL    HW221105   3.079   1.805   5.874 -3.4381 -0.7097  0.1099
 3215SOL     OW21106   3.936   0.803   0.129 -0.0591 -0.0272  0.5229
 3215SOL    HW121107   3.896   0.888   0.112  0.4999 -0.4669 -2.9672
 3215SOL    HW221108   3.966   0.803   0.220 -1.7941 -4.9465  1.1051
 3216SOL     OW21109   1.688   1.928   3.498  0.2929  0.2492 -0.9918
 3216SOL    HW121110   1.632   1.865   3.452 -1.8135 -0.3802  2.3619
 3216SOL    HW221111   1.639   1.986   3.557  2.4058 -0.5923  1.6168
 3217SOL     OW21112   4.698   3.099   7.895  0.4335 -0.3092 -0.4237
 3217SOL    HW121113   4.688   3.185   7.853 -3.5815 -1.2519 -1.3819
 3217SOL    HW221114   4.608   3.080   7.923  1.1386  1.5822  3.1868
 3218SOL     OW21115   0.626   2.677   4.144 -1.0849 -0.2150 -0.2912
 3218SOL    HW121116   0.650   2.769   4.132  1.1237 -0.5812  1.1114
 3218SOL    HW221117   0.699   2.646   4.198 -0.4558  0.6769 -0.6380
 3219SOL     OW21118   2.362   0.377   7.795 -0.0624  0.5929 -0.4340
 3219SOL    HW121119   2.447   0.369   7.753  0.9260 -1.2017  1.9305
 3219SOL    HW221120   2.391   0.436   7.865 -1.2137 -0.7720  1.2067
 3220SOL     OW21121   0.662   2.243   5.115 -0.6599 -0.2667 -0.1253
 3220SOL    HW121122   0.659   2.275   5.024 -0.0689  2.5602  0.8662
 3220SOL    HW221123   0.626   2.155   5.109 -0.3820 -0.5212  2.2548
 3221SOL     OW21124   4.205   4.317   0.302 -0.4992  0.4352  0.2213
 3221SOL    HW121125   4.214   4.295   0.394 -1.3821  0.4897  0.3238
 3221SOL    HW221126   4.169   4.235   0.266  2.8261 -0.4749 -1.0163
 3222SOL     OW21127   2.782   4.326   7.070  0.1413 -0.1933  0.1855
 3222SOL    HW121128   2.772   4.262   6.999 -2.4469  0.9768 -0.4842
 3222SOL    HW221129   2.832   4.390   7.020  0.3275 -0.2205  0.3370
 3223SOL     OW21130   0.540   0.786   7.623  0.2639 -0.7019  0.4103
 3223SOL    HW121131   0.501   0.837   7.694 -0.1343 -0.2623 -0.1317
 3223SOL    HW221132   0.571   0.852   7.561 -1.0597  0.4440  0.9872
 3224SOL     OW21133   0.977   4.677   2.569  0.9130 -0.0638 -0.5171
 3224SOL    HW121134   0.938   4.702   2.485  2.3115 -0.7520 -1.3754
 3224SOL    HW221135   0.907   4.650   2.629  0.6354  2.6623  0.3773
 3225SOL     OW21136   0.021   3.217   0.908  0.2349 -0.3915 -0.2877
 3225SOL    HW121137   4.675   3.209   0.843 -1.7597  0.3102  1.7641
 3225SOL    HW221138   0.082   3.255   0.845 -0.9846  1.0892 -0.5627
 3226SOL     OW21139   3.200   0.973   2.513  0.1008 -0.3809 -0.2378
 3226SOL    HW121140   3.122   0.930   2.548 -0.4241  0.1916 -0.6927
 3226SOL    HW221141   3.201   1.051   2.569  1.0993 -0.0559 -0.7025
 3227SOL     OW21142   2.573   3.130   3.770  0.8033 -0.4321 -0.1468
 3227SOL    HW121143   2.586   3.135   3.865  1.8657 -0.1391 -0.3061
 3227SOL    HW221144   2.590   3.040   3.742  0.3790 -0.6865  0.4157
 3228SOL     OW21145   1.516   3.272  12.149  0.0524 -0.0715  0.7748
 3228SOL    HW121146   1.541   3.188  12.111 -0.9693  0.5309 -1.2383
 3228SOL    HW221147   1.567   3.251  12.227 -1.2915 -0.5458  1.5198
 3229SOL     OW21148   3.121   4.618   3.942  0.2475  0.2560  0.1407
 3229SOL    HW121149   3.211   4.645   3.959  1.8602 -4.4733 -0.9147
 3229SOL    HW221150   3.126   4.590   3.851 -1.3753  1.1897 -0.2235
 3230SOL     OW21151   0.985   3.788  12.003 -0.1419 -0.9750  0.4863
 3230SOL    HW121152   1.061   3.755  11.954 -0.8314  2.4002 -2.7578
 3230SOL    HW221153   0.932   3.791  11.924 -1.6640 -0.7031  1.5244
 3231SOL     OW21154   3.118   3.747   4.236  0.1410  0.1839 -0.3047
 3231SOL    HW121155   3.079   3.834   4.233 -0.4309 -0.0381  0.5766
 3231SOL    HW221156   3.044   3.705   4.282 -1.3069  2.1872 -0.8098
 3232SOL     OW21157   1.347   0.579  14.347  0.2853 -0.2492  0.2068
 3232SOL    HW121158   1.274   0.539  14.394  1.1791  0.9353  2.5877
 3232SOL    HW221159   1.314   0.662  14.313  1.4379  0.5465  1.0259
 3233SOL     OW21160   1.117   0.589   2.647  0.0346  0.5243 -0.2725
 3233SOL    HW121161   1.079   0.564   2.731  0.9445 -0.7501 -0.2387
 3233SOL    HW221162   1.038   0.606   2.596 -1.3531  0.1616  1.7540
 3234SOL     OW21163   4.448   1.773  14.385  0.4689 -0.3217  0.1356
 3234SOL    HW121164   4.532   1.778  14.339  0.1942  0.4044 -0.2850
 3234SOL    HW221165   4.394   1.814  14.318  0.7087 -1.2560 -0.6175
 3235SOL     OW21166   4.317   3.558   5.324  0.0244  0.3515 -0.3282
 3235SOL    HW121167   4.243   3.599   5.279 -0.9500 -0.8266  0.2124
 3235SOL    HW221168   4.354   3.504   5.254 -0.6699 -0.9563  0.3138
 3236SOL     OW21169   2.958   3.472  16.318  0.0787  0.1789  0.4658
 3236SOL    HW121170   2.902   3.402  16.352  1.9616 -0.6881  1.7614
 3236SOL    HW221171   2.900   3.539  16.282 -0.5301 -1.2184 -1.1765
 3237SOL     OW21172   0.391   3.354   9.518  0.3313  0.1719 -0.0740
 3237SOL    HW121173   0.365   3.379   9.430  2.7575  0.5259 -0.6650
 3237SOL    HW221174   0.361   3.263   9.515  0.4394  0.1337  0.0124
 3238SOL     OW21175   3.618   4.478   8.709 -0.1893  0.0342  0.4639
 3238SOL    HW121176   3.677   4.403   8.701  1.1738  1.1698 -0.1988
 3238SOL    HW221177   3.540   4.449   8.663 -0.1482 -0.6070  0.7965
 3239SOL     OW21178   0.624   0.670   5.890  0.0790  0.0099  0.0350
 3239SOL    HW121179   0.643   0.591   5.941  0.5719  0.0430 -0.0931
 3239SOL    HW221180   0.564   0.633   5.825  1.5733  0.3884 -1.5604
 3240SOL     OW21181   1.899   3.528  13.743 -0.0369 -0.2829 -0.0700
 3240SOL    HW121182   1.910   3.433  13.748 -0.5240 -0.2867  0.9159
 3240SOL    HW221183   1.817   3.527  13.693  0.8325  4.8738 -1.6000
 3241SOL     OW21184   4.231   0.426  11.029  0.6516 -0.0088  0.1784
 3241SOL    HW121185   4.183   0.343  11.028  0.9719 -0.1730 -0.9604
 3241SOL    HW221186   4.254   0.437  10.937  0.8332 -2.5000 -0.0860
 3242SOL     OW21187   2.367   1.875   4.782  0.4521 -0.1649  0.0334
 3242SOL    HW121188   2.369   1.944   4.716 -0.2962  0.0467  0.2325
 3242SOL    HW221189   2.371   1.929   4.861 -0.1312 -2.3077  1.5413
 3243SOL     OW21190   0.362   4.407   6.971  0.6414  0.2107  0.2165
 3243SOL    HW121191   0.433   4.405   7.035  1.6178  0.1363 -0.8586
 3243SOL    HW221192   0.406   4.450   6.897  0.2713 -0.6413 -0.4869
 3244SOL     OW21193   0.626   1.719   2.826  0.1521  0.0214 -0.4681
 3244SOL    HW121194   0.708   1.670   2.824 -1.9159 -3.3583 -1.1920
 3244SOL    HW221195   0.597   1.690   2.913  0.6403 -4.4693 -1.8142
 3245SOL     OW21196   4.169   0.821  14.410  0.3588 -0.0274 -0.6855
 3245SOL    HW121197   4.113   0.759  14.457 -1.6273  0.6485 -2.1777
 3245SOL    HW221198   4.258   0.793  14.430  1.2463  1.6419 -2.2746
 3246SOL     OW21199   4.607   1.763   2.168 -0.2149  0.1447 -0.4895
 3246SOL    HW121200   4.573   1.692   2.222  1.5051  0.0615  0.4763
 3246SOL    HW221201   4.694   1.765   2.208 -0.2341  0.3798 -0.4612
 3247SOL     OW21202   3.754   4.401  15.467 -0.8038 -0.3382  0.0199
 3247SOL    HW121203   3.818   4.470  15.488  0.8193 -1.1931 -2.0781
 3247SOL    HW221204   3.793   4.326  15.511  0.1702 -1.9608 -3.6108
 3248SOL     OW21205   0.277   4.041   2.343 -0.6845 -0.9254  0.4525
 3248SOL    HW121206   0.274   4.096   2.265 -3.0898  0.0162  1.2066
 3248SOL    HW221207   0.186   4.053   2.371 -1.3002 -1.9088 -1.0886
 3249SOL     OW21208   4.721   1.349   4.650 -0.6467 -0.7745  0.1992
 3249SOL    HW121209   4.720   1.444   4.662  0.7852 -0.6381 -0.7077
 3249SOL    HW221210   4.630   1.328   4.628 -1.5348  2.0562  1.1534
 3250SOL     OW21211   1.958   1.582   8.079 -0.0004  0.5711 -0.0857
 3250SOL    HW121212   1.973   1.535   7.997 -1.2225 -0.8313  0.4943
 3250SOL    HW221213   1.968   1.669   8.039 -1.3040  0.1516 -1.3518
 3251SOL     OW21214   2.096   0.608   6.050  0.1543 -0.3412  0.0294
 3251SOL    HW121215   2.053   0.526   6.030 -0.7433  0.3677 -0.9580
 3251SOL    HW221216   2.029   0.640   6.110  0.1683  0.3554 -0.3224
 3252SOL     OW21217   3.583   4.449  16.338  0.6463  0.0719 -0.5394
 3252SOL    HW121218   3.490   4.432  16.355  0.7734  1.1196  1.2075
 3252SOL    HW221219   3.608   4.456  16.430 -0.8634  0.1237 -0.1372
 3253SOL     OW21220   2.518   3.642   7.526  0.0800 -0.2351  0.2429
 3253SOL    HW121221   2.468   3.632   7.607  0.0585  0.3790  0.3055
 3253SOL    HW221222   2.559   3.727   7.543  1.6320 -1.0507  0.5384
 3254SOL     OW21223   4.066   2.826   2.945 -0.7397  0.5399 -0.1587
 3254SOL    HW121224   4.149   2.849   2.986 -1.2485 -0.4430  1.4201
 3254SOL    HW221225   4.015   2.832   3.026  0.6045 -0.8945  0.8087
 3255SOL     OW21226   4.082   1.942   5.000  0.6613 -0.4336 -0.4017
 3255SOL    HW121227   4.072   1.910   5.090  0.2468 -2.8162 -1.2960
 3255SOL    HW221228   4.135   1.873   4.959 -0.2413 -1.1850 -0.2856
 3256SOL     OW21229   3.585   3.153   7.530  0.2481  0.1458  0.0365
 3256SOL    HW121230   3.516   3.133   7.468 -0.4674  1.9306  0.2546
 3256SOL    HW221231   3.622   3.239   7.507  0.2328  0.1705  0.1040
 3257SOL     OW21232   1.890   3.300  15.693 -0.2221 -0.1787  0.2245
 3257SOL    HW121233   1.954   3.244  15.650 -0.9900  0.3024 -1.5718
 3257SOL    HW221234   1.934   3.384  15.675  0.1492 -0.7339 -1.4686
 3258SOL     OW21235   3.934   3.310   7.743  0.4595  0.0258 -0.1994
 3258SOL    HW121236   3.858   3.286   7.795  0.4935  0.3841  0.0189
 3258SOL    HW221237   4.000   3.259   7.790 -0.1120  0.8155  1.4456
 3259SOL     OW21238   2.493   4.577   9.621  0.0606 -0.1513  0.4888
 3259SOL    HW121239   2.444   4.553   9.699  1.8728 -2.8987  0.7840
 3259SOL    HW221240   2.519   4.495   9.578  1.9725  0.5683  0.2505
 3260SOL     OW21241   1.577   1.007   3.687  0.1308  0.3839 -0.1012
 3260SOL    HW121242   1.588   1.102   3.692  3.4301  0.1067 -1.6189
 3260SOL    HW221243   1.502   0.989   3.744 -0.2781  1.5326 -0.2728
 3261SOL     OW21244   3.629   0.372   0.022 -0.2077  0.4871  0.0637
 3261SOL    HW121245   3.650   0.445   0.080  0.5578  1.3125 -1.2569
 3261SOL    HW221246   3.541   0.346   0.048  0.0772  0.1505  0.6803
 3262SOL     OW21247   1.234   1.031   4.801 -0.1595 -0.8258  0.0408
 3262SOL    HW121248   1.158   1.083   4.776 -0.3869 -1.3595 -0.3584
 3262SOL    HW221249   1.259   0.984   4.721 -2.0138  1.3026 -1.8025
 3263SOL     OW21250   2.220   2.675   8.410 -0.0191 -0.7323  0.3810
 3263SOL    HW121251   2.300   2.644   8.453 -0.0980 -0.0082  1.0448
 3263SOL    HW221252   2.155   2.668   8.480  0.5407 -1.8470  0.7984
 3264SOL     OW21253   2.126   3.532   4.299 -0.3803 -0.1764  0.2249
 3264SOL    HW121254   2.135   3.446   4.259 -1.3988  0.2928 -1.0062
 3264SOL    HW221255   2.209   3.580   4.289 -1.9922  3.2080  3.1713
 3265SOL     OW21256   2.065   2.196   1.019 -0.5676  0.0971  0.3573
 3265SOL    HW121257   2.031   2.285   1.024  2.0197  1.2487 -2.4065
 3265SOL    HW221258   1.986   2.151   0.990  0.9820 -1.6825 -1.0926
 3266SOL     OW21259   2.380   2.924   8.839  0.5055 -0.8711  0.0990
 3266SOL    HW121260   2.450   2.891   8.895  3.3793  2.5800 -1.4369
 3266SOL    HW221261   2.334   2.844   8.812  0.7096 -0.5617 -1.1740
 3267SOL     OW21262   4.427   3.291  16.836 -0.3115 -0.1937 -0.3572
 3267SOL    HW121263   4.498   3.233  16.809 -0.5965 -0.2092 -1.0615
 3267SOL    HW221264   4.467   3.342  16.907  0.7531  2.2317 -2.6964
 3268SOL     OW21265   2.517   0.277   7.357 -0.7916  0.1564  0.1442
 3268SOL    HW121266   2.608   0.305   7.364 -1.7860  3.1506  1.0419
 3268SOL    HW221267   2.480   0.332   7.426  0.9278  1.4589  0.0066
 3269SOL     OW21268   3.562   3.348   2.151 -0.4437 -0.2535  0.5905
 3269SOL    HW121269   3.644   3.387   2.180  0.1396 -1.2674  0.2983
 3269SOL    HW221270   3.526   3.326   2.237 -0.6407 -0.0663  0.5572
 3270SOL     OW21271   3.368   4.715  14.755 -0.2824  0.4150 -0.7461
 3270SOL    HW121272   3.446   0.011  14.807 -0.5310 -0.8034  0.0914
 3270SOL    HW221273   3.333   4.645  14.810  0.5114 -0.7914 -1.7778
 3271SOL     OW21274   3.072   3.214   8.776 -0.1515 -0.1555  0.1701
 3271SOL    HW121275   3.118   3.197   8.694 -0.9154 -2.4499  0.2159
 3271SOL    HW221276   3.028   3.297   8.757 -0.5193 -0.3249  0.2887
 3272SOL     OW21277   1.524   0.644   8.448  0.3929 -0.4067  0.2291
 3272SOL    HW121278   1.482   0.628   8.363 -1.0177  2.0132  0.4906
 3272SOL    HW221279   1.599   0.696   8.423 -0.6312 -0.1102 -2.2937
 3273SOL     OW21280   1.639   2.537  17.662  0.2081  0.2760  0.3017
 3273SOL    HW121281   1.624   2.499  17.575  1.0616 -3.0623  1.6115
 3273SOL    HW221282   1.729   2.568  17.654 -0.0847  0.9572 -0.4028
 3274SOL     OW21283   1.171   0.478   8.249  0.4716  0.4048 -0.4015
 3274SOL    HW121284   1.161   0.383   8.253 -0.3956  0.5528  0.9424
 3274SOL    HW221285   1.176   0.491   8.343 -0.7721  0.1975 -0.3065
 3275SOL     OW21286   0.399   2.101  13.546 -0.5471 -0.3769 -0.0882
 3275SOL    HW121287   0.448   2.063  13.619 -0.8310  0.9744  0.8124
 3275SOL    HW221288   0.373   2.026  13.493 -0.0398  1.0925 -2.4377
 3276SOL     OW21289   1.695   1.959  12.501 -0.5116  0.5661 -0.1125
 3276SOL    HW121290   1.624   2.019  12.479 -2.4073 -1.8999 -0.8043
 3276SOL    HW221291   1.708   1.991  12.590  2.4475  1.4732 -0.8814
 3277SOL     OW21292   1.966   0.373   1.988 -0.2888 -0.1132 -0.4433
 3277SOL    HW121293   1.936   0.464   1.991 -1.5141 -0.5351 -0.0577
 3277SOL    HW221294   1.928   0.340   2.069 -0.9712 -0.5770 -0.9495
 3278SOL     OW21295   2.530   3.550  15.725  0.2226  0.2311  0.6795
 3278SOL    HW121296   2.462   3.503  15.676  3.3011 -2.6759 -0.8196
 3278SOL    HW221297   2.478   3.598  15.790 -2.5655 -0.1646 -1.2702
 3279SOL     OW21298   4.478   3.926   0.514 -0.1819 -0.1072  0.6321
 3279SOL    HW121299   4.488   4.016   0.485  0.4091 -0.3932 -0.0590
 3279SOL    HW221300   4.387   3.913   0.488  0.0402  1.5239 -0.9300
 3280SOL     OW21301   3.387   4.188   8.111  0.6922  0.8738 -0.4231
 3280SOL    HW121302   3.471   4.232   8.121  0.5109  0.8701  1.2448
 3280SOL    HW221303   3.403   4.130   8.037  1.1546  0.1025  0.2705
 3281SOL     OW21304   3.029   1.913   8.066  0.0071  0.1450 -0.0386
 3281SOL    HW121305   3.054   1.929   7.975  0.7924 -0.6953  0.0317
 3281SOL    HW221306   2.937   1.936   8.077  0.2865  1.7739 -1.1268
 3282SOL     OW21307   4.447   3.511  15.121  0.0335  0.1415 -0.5203
 3282SOL    HW121308   4.376   3.449  15.106  0.8075 -1.0463  0.7470
 3282SOL    HW221309   4.463   3.509  15.215 -0.3692  0.1064 -0.4516
 3283SOL     OW21310   2.774   3.173  13.049 -0.1980 -0.2342 -0.3388
 3283SOL    HW121311   2.834   3.137  12.983  1.0749  1.5037 -0.1091
 3283SOL    HW221312   2.716   3.228  12.996  1.4909  0.0655 -1.8657
 3284SOL     OW21313   4.234   0.371   3.365  0.5752 -0.1733 -0.0104
 3284SOL    HW121314   4.274   0.448   3.326  1.9649  0.9827  3.7206
 3284SOL    HW221315   4.304   0.311   3.391 -0.2697 -0.9748  0.4389
 3285SOL     OW21316   4.100   2.107   8.168  0.5055  0.0873  0.5147
 3285SOL    HW121317   4.136   2.078   8.252  1.0797 -0.2138  0.1654
 3285SOL    HW221318   4.024   2.162   8.186  0.8141  0.6067  0.2370
 3286SOL     OW21319   4.352   2.132  14.292 -0.0308  0.0006 -0.3037
 3286SOL    HW121320   4.300   2.052  14.284  2.9734 -1.4699 -4.9417
 3286SOL    HW221321   4.302   2.193  14.238 -2.5347 -1.3393  0.5120
 3287SOL     OW21322   4.240   1.321   5.568 -0.2487  0.5508 -0.1900
 3287SOL    HW121323   4.181   1.259   5.612 -0.8154  0.1487 -1.5029
 3287SOL    HW221324   4.167   1.375   5.538 -1.5199 -1.6393 -1.1011
 3288SOL     OW21325   1.723   2.849   5.388 -0.1379 -0.0211  0.7809
 3288SOL    HW121326   1.754   2.884   5.305 -2.4644  1.8464  0.7115
 3288SOL    HW221327   1.680   2.770   5.354  1.0817  0.0109 -0.8462
 3289SOL     OW21328   1.463   3.747   5.204 -0.5155 -0.2098 -0.8956
 3289SOL    HW121329   1.435   3.678   5.144  0.8028 -1.6845  0.1740
 3289SOL    HW221330   1.559   3.747   5.194 -0.6773  0.0347 -2.4419
 3290SOL     OW21331   4.409   0.030  15.470 -0.4635  0.1904 -0.1416
 3290SOL    HW121332   4.443   0.102  15.416  3.1622 -2.5527 -1.4755
 3290SOL    HW221333   4.455   0.049  15.552 -2.1323  2.0940  0.3673
 3291SOL     OW21334   2.314   0.759   4.099  0.2991 -0.0146 -0.4204
 3291SOL    HW121335   2.385   0.795   4.152 -0.4687 -0.6652  1.0568
 3291SOL    HW221336   2.277   0.708   4.171 -0.4750  2.0412  0.6484
 3292SOL     OW21337   2.102   1.956  15.749 -0.1879  0.7907  0.3163
 3292SOL    HW121338   2.085   1.927  15.839  2.2782 -0.5456  0.3757
 3292SOL    HW221339   2.062   2.041  15.763 -1.4427  0.2193  0.2217
 3293SOL     OW21340   4.287   0.069   0.468  0.6199  0.1126 -0.4631
 3293SOL    HW121341   4.304   0.068   0.562 -1.2408 -1.7548 -0.1483
 3293SOL    HW221342   4.202   0.111   0.477  0.6744 -0.3030  1.8338
 3294SOL     OW21343   1.492   1.311   5.880  0.3886  0.2026 -0.1757
 3294SOL    HW121344   1.574   1.352   5.853 -0.0575  0.8306 -0.5763
 3294SOL    HW221345   1.452   1.315   5.793 -2.8167 -0.7872  1.2531
 3295SOL     OW21346   3.840   2.076  15.818 -0.0043  0.3857 -0.3252
 3295SOL    HW121347   3.864   2.155  15.770  1.0929  0.8087  0.8970
 3295SOL    HW221348   3.923   2.065  15.865 -0.3496 -1.1563 -0.0802
 3296SOL     OW21349   1.583   3.577   9.490 -0.1779  0.5797  0.2581
 3296SOL    HW121350   1.592   3.490   9.530  2.1781 -0.1072 -1.8051
 3296SOL    HW221351   1.491   3.589   9.468 -0.6756 -1.1853  1.3351
 3297SOL     OW21352   3.284   3.678   2.529 -0.1323 -0.0347  0.4531
 3297SOL    HW121353   3.263   3.721   2.445 -0.2207  0.0020  0.4936
 3297SOL    HW221354   3.201   3.699   2.571 -0.5139  1.5327 -1.0687
 3298SOL     OW21355   1.595   0.583  11.327  0.4834 -0.3952 -0.4740
 3298SOL    HW121356   1.503   0.611  11.334  1.2099  1.7340  0.5660
 3298SOL    HW221357   1.577   0.490  11.311  2.3163 -1.0857  1.3852
 3299SOL     OW21358   0.653   0.461  14.235 -0.2832  0.2923  0.3595
 3299SOL    HW121359   0.590   0.448  14.164  1.1811 -0.4315 -0.7839
 3299SOL    HW221360   0.608   0.407  14.300  0.3702 -1.4713 -0.6563
 3300SOL     OW21361   2.743   4.321   1.133  0.2029 -0.2433  0.8856
 3300SOL    HW121362   2.781   4.337   1.047  0.3396 -0.0272  0.9871
 3300SOL    HW221363   2.811   4.261   1.164 -0.0448 -1.1452 -0.3183
 3301SOL     OW21364   3.917   4.381   1.477  0.0450 -0.1840  0.3101
 3301SOL    HW121365   3.923   4.458   1.420 -0.5787 -0.1471  0.2883
 3301SOL    HW221366   3.823   4.387   1.496 -0.3764 -1.6764 -1.2681
 3302SOL     OW21367   0.009   1.315  11.938 -0.1363 -0.5533  0.9746
 3302SOL    HW121368   0.057   1.389  11.975  1.7235 -0.4092 -1.7539
 3302SOL    HW221369   0.062   1.296  11.861  1.0615  2.6363  1.0164
 3303SOL     OW21370   1.401   4.256  13.844 -0.2959  0.3215  0.3492
 3303SOL    HW121371   1.469   4.323  13.849 -0.4606  0.6420 -1.7750
 3303SOL    HW221372   1.446   4.196  13.785  0.5643  1.3442 -0.0468
 3304SOL     OW21373   2.901   0.826   1.534 -0.1730  0.4106 -0.4425
 3304SOL    HW121374   2.992   0.845   1.515 -0.1904  2.0196  1.0626
 3304SOL    HW221375   2.855   0.800   1.454 -1.6147  0.0803  0.4788
 3305SOL     OW21376   3.991   2.159   3.043 -0.0633 -0.4904  0.2203
 3305SOL    HW121377   3.902   2.124   3.049 -0.1605 -0.3677 -0.5463
 3305SOL    HW221378   4.038   2.075   3.040  0.6215 -0.0845 -0.3952
 3306SOL     OW21379   3.716   1.295   3.635 -0.3649 -0.4145  0.2114
 3306SOL    HW121380   3.701   1.254   3.720 -0.4154 -0.5406  0.1413
 3306SOL    HW221381   3.720   1.388   3.655  1.6334 -0.9359  2.2797
 3307SOL     OW21382   3.531   2.894   5.392 -0.9127  0.1504 -0.4916
 3307SOL    HW121383   3.519   2.989   5.397 -2.2190 -0.0488  0.1944
 3307SOL    HW221384   3.440   2.866   5.383 -1.0293  0.6761 -0.9164
 3308SOL     OW21385   3.297   0.849   4.336  0.2245 -0.1750  0.1766
 3308SOL    HW121386   3.252   0.769   4.363 -0.9078  0.8627  1.3266
 3308SOL    HW221387   3.385   0.839   4.372  0.4014 -0.1468 -0.2412
 3309SOL     OW21388   3.900   4.096   4.380  0.3009 -0.0206 -0.5214
 3309SOL    HW121389   3.964   4.155   4.419 -0.5992  0.8049 -0.2986
 3309SOL    HW221390   3.830   4.161   4.381 -1.5707 -2.0196 -1.3368
 3310SOL     OW21391   1.814   1.330   8.853  0.3135 -0.4316 -0.7228
 3310SOL    HW121392   1.904   1.301   8.870 -0.6824 -3.4059 -0.4704
 3310SOL    HW221393   1.758   1.262   8.890  1.5288 -2.2434 -2.1766
 3311SOL     OW21394   4.684   3.339   7.760  0.1336  0.6775 -0.1349
 3311SOL    HW121395   4.611   3.365   7.703 -2.2128 -1.2314  2.0198
 3311SOL    HW221396   4.716   3.428   7.775 -2.3308  1.4962  0.2575
 3312SOL     OW21397   1.532   1.291  13.182 -0.8545  0.4157  0.0902
 3312SOL    HW121398   1.622   1.313  13.209  0.0045 -0.7485 -1.9110
 3312SOL    HW221399   1.513   1.239  13.260  2.2264 -0.1239  0.4939
 3313SOL     OW21400   1.094   3.262   6.593 -0.2661  0.0231  0.1172
 3313SOL    HW121401   1.063   3.327   6.656 -0.0351 -0.9435  1.2311
 3313SOL    HW221402   1.040   3.184   6.609 -0.5277 -0.3405 -2.5835
 3314SOL     OW21403   2.828   3.302  14.152 -0.3882  0.0702 -0.4026
 3314SOL    HW121404   2.806   3.260  14.236  0.0488  0.8648  0.1135
 3314SOL    HW221405   2.750   3.356  14.138  0.3521  1.5165  1.0075
 3315SOL     OW21406   1.914   4.460  12.067 -0.2225 -0.2250 -0.2020
 3315SOL    HW121407   1.933   4.502  12.151 -0.4564  0.3951 -0.4631
 3315SOL    HW221408   1.985   4.398  12.054 -0.6568 -0.4808 -1.3377
 3316SOL     OW21409   4.118   0.509   0.654  0.7629 -0.0987  0.6123
 3316SOL    HW121410   4.195   0.539   0.605  0.6032 -2.1071 -0.9181
 3316SOL    HW221411   4.154   0.490   0.740 -0.0777 -0.5239  0.8673
 3317SOL     OW21412   2.169   3.531   8.279 -0.4990 -0.4014 -0.1166
 3317SOL    HW121413   2.099   3.490   8.228  0.4189 -2.7547  0.5134
 3317SOL    HW221414   2.148   3.503   8.368  2.3709 -1.5235  0.2101
 3318SOL     OW21415   1.265   3.720   3.385 -0.0364  0.5335  0.3601
 3318SOL    HW121416   1.343   3.679   3.422  0.1713  0.5651 -0.0376
 3318SOL    HW221417   1.285   3.713   3.291 -2.4203 -0.7767 -0.0518
 3319SOL     OW21418   1.657   0.932   7.346 -0.1113 -0.4104 -0.1888
 3319SOL    HW121419   1.749   0.934   7.322 -0.3007  1.7023 -0.6842
 3319SOL    HW221420   1.673   0.924   7.440  0.8515 -2.7831 -0.5521
 3320SOL     OW21421   2.531   0.566   4.950  0.3859  0.0566  0.3552
 3320SOL    HW121422   2.441   0.534   4.964  0.5615 -2.2647 -3.8794
 3320SOL    HW221423   2.532   0.644   5.007  1.8087 -0.1720  0.6243
 3321SOL     OW21424   0.181   4.017  12.037 -0.1529  0.1543 -0.2795
 3321SOL    HW121425   0.266   4.033  11.996  0.1010  0.9327  0.5500
 3321SOL    HW221426   0.200   4.019  12.131  1.4868 -0.5801 -0.5877
 3322SOL     OW21427   3.183   4.328   7.047 -0.2430 -0.2392 -0.5660
 3322SOL    HW121428   3.099   4.283   7.031 -0.2285  0.0181 -1.3838
 3322SOL    HW221429   3.209   4.298   7.134  1.4852  0.8243 -0.7287
 3323SOL     OW21430   0.103   1.260   5.677  0.4328 -0.2415  0.2610
 3323SOL    HW121431   0.118   1.184   5.733  0.2423 -1.0400 -0.7879
 3323SOL    HW221432   0.188   1.297   5.656 -0.6186  2.1148  0.1709
 3324SOL     OW21433   2.913   3.154   0.998 -0.0665  0.4458  0.5952
 3324SOL    HW121434   2.900   3.087   0.930 -0.2492 -0.1139  1.1738
 3324SOL    HW221435   2.991   3.118   1.041 -0.5902 -1.2545  0.1377
 3325SOL     OW21436   2.106   3.723  17.548  0.1123 -0.3138 -0.0446
 3325SOL    HW121437   2.023   3.723  17.597  1.3928 -1.0123  2.1115
 3325SOL    HW221438   2.116   3.818  17.543  0.8695 -0.4894 -1.6979
 3326SOL     OW21439   3.207   0.464   1.717  0.6136 -0.1230  0.6728
 3326SOL    HW121440   3.269   0.399   1.749  0.3307 -0.3615  0.7272
 3326SOL    HW221441   3.137   0.427   1.664 -0.4001  1.3714  0.9621
 3327SOL     OW21442   1.170   2.594   1.719  0.1829  0.0880  0.3126
 3327SOL    HW121443   1.132   2.592   1.807 -1.2183 -0.8292 -0.3183
 3327SOL    HW221444   1.262   2.575   1.738  0.4101 -0.0493 -0.8927
 3328SOL     OW21445   0.588   3.598   8.838  0.1115 -0.0325  0.2581
 3328SOL    HW121446   0.562   3.649   8.761 -3.1150  0.7901  1.9165
 3328SOL    HW221447   0.562   3.509   8.814  0.7755  0.1094 -1.0362
 3329SOL     OW21448   4.397   3.188   9.674  0.2039 -0.1855  0.0645
 3329SOL    HW121449   4.340   3.136   9.618  0.9365  0.5548 -1.3799
 3329SOL    HW221450   4.343   3.194   9.753 -1.0511  0.6720 -0.8571
 3330SOL     OW21451   1.140   3.160   2.160 -0.0962  0.0051 -0.2162
 3330SOL    HW121452   1.097   3.246   2.168  0.9638  0.4366  0.8516
 3330SOL    HW221453   1.221   3.179   2.113  1.0330 -0.4293  1.5367
 3331SOL     OW21454   0.593   3.071   6.137  0.0831  0.1138 -0.0533
 3331SOL    HW121455   0.613   3.154   6.179  0.8460 -0.5612  0.9224
 3331SOL    HW221456   0.537   3.109   6.070 -1.5444 -0.9616  0.7093
 3332SOL     OW21457   4.125   4.079   3.634  0.1346 -0.1644  0.4276
 3332SOL    HW121458   4.071   4.091   3.711  3.1561 -1.6483  2.7918
 3332SOL    HW221459   4.199   4.137   3.655 -1.1615  2.1663 -1.4376
 3333SOL     OW21460   1.383   1.276   2.537  0.0628 -0.1628 -0.0538
 3333SOL    HW121461   1.388   1.220   2.459 -1.9357  0.9578 -0.9889
 3333SOL    HW221462   1.370   1.361   2.495  0.6230  0.2028  0.5262
 3334SOL     OW21463   4.511   2.466   8.215 -0.6348 -0.0074  0.2500
 3334SOL    HW121464   4.501   2.371   8.209 -1.4965  0.2169 -1.8034
 3334SOL    HW221465   4.580   2.478   8.149  0.0566  2.7360  1.4538
 3335SOL     OW21466   1.437   3.164   4.797  0.3272  0.3305 -0.0952
 3335SOL    HW121467   1.502   3.185   4.864 -0.9489  0.5541  1.0515
 3335SOL    HW221468   1.454   3.071   4.782 -2.5588 -0.4632  1.5424
 3336SOL     OW21469   3.882   2.458  16.474 -0.5501  0.3710 -0.9248
 3336SOL    HW121470   3.793   2.437  16.501  0.1739  1.7887  2.5706
 3336SOL    HW221471   3.899   2.396  16.404  0.8614 -0.7372  0.4032
 3337SOL     OW21472   0.448   0.154   9.520  0.3052 -0.1717  0.0072
 3337SOL    HW121473   0.355   0.141   9.536  0.0005 -0.0098 -1.6604
 3337SOL    HW221474   0.490   0.107   9.592 -1.4374 -0.4602  0.8228
 3338SOL     OW21475   1.680   1.957   6.135 -0.2261 -1.0982  0.6781
 3338SOL    HW121476   1.737   1.972   6.060 -2.2890  0.9237 -0.4688
 3338SOL    HW221477   1.615   1.892   6.108 -1.2937  0.7738 -1.1956
 3339SOL     OW21478   0.110   4.310   8.062  0.0524  0.3874 -0.5788
 3339SOL    HW121479   0.095   4.249   7.990  1.7969  0.2162 -0.8067
 3339SOL    HW221480   0.149   4.243   8.119  1.5022  1.4518 -0.3146
 3340SOL     OW21481   2.367   3.956   8.247 -0.1202 -0.3935 -0.1034
 3340SOL    HW121482   2.382   3.965   8.152 -2.1943 -3.5907 -0.7171
 3340SOL    HW221483   2.452   3.924   8.278  0.0945 -1.1361 -1.4575
 3341SOL     OW21484   2.336   3.874   3.221  0.4335 -0.6683 -0.7789
 3341SOL    HW121485   2.380   3.859   3.137  4.0633  1.0149  0.8174
 3341SOL    HW221486   2.403   3.852   3.286 -0.0789 -0.9797 -0.3514
 3342SOL     OW21487   0.969   4.213   6.935  0.0745  0.1668 -0.2070
 3342SOL    HW121488   0.949   4.259   7.017  1.5827  0.0646  0.2146
 3342SOL    HW221489   1.024   4.146   6.974  0.1663 -1.0122 -2.4053
 3343SOL     OW21490   0.284   1.556   6.895  0.3920 -0.5351 -0.2697
 3343SOL    HW121491   0.346   1.487   6.872 -0.9588 -1.1694 -1.9263
 3343SOL    HW221492   0.332   1.631   6.859  2.2263 -0.3033  2.6054
 3344SOL     OW21493   0.911   0.250   6.128 -0.7981  0.2435  0.3154
 3344SOL    HW121494   0.835   0.302   6.153 -0.6405 -0.4762  2.3035
 3344SOL    HW221495   0.972   0.277   6.197 -0.2109  0.8495 -0.4390
 3345SOL     OW21496   0.398   2.000   5.395 -0.8612  0.2271 -0.0354
 3345SOL    HW121497   0.340   1.946   5.340  0.6999 -0.7316 -0.7654
 3345SOL    HW221498   0.448   1.934   5.445 -2.6795 -0.2518  1.1254
 3346SOL     OW21499   3.269   0.076  10.003 -0.4867  0.2484 -0.0338
 3346SOL    HW121500   3.191   0.021   9.998 -1.6780  1.9124  0.5743
 3346SOL    HW221501   3.243   0.156  10.048 -2.4755  0.0047 -0.7664
 3347SOL     OW21502   0.970   4.190   2.597 -0.1902  0.3660  0.3617
 3347SOL    HW121503   0.909   4.255   2.633 -2.1317 -0.5879 -1.2403
 3347SOL    HW221504   1.024   4.175   2.675  0.0291 -0.1945  0.0957
 3348SOL     OW21505   3.338   0.053   0.534 -0.4046  0.0170  0.5144
 3348SOL    HW121506   3.387   0.100   0.467 -2.6053  1.3521 -0.1552
 3348SOL    HW221507   3.400   4.715   0.572  1.1158  0.3769 -1.4079
 3349SOL     OW21508   4.398   2.499  14.252  0.3858  0.0267 -0.1688
 3349SOL    HW121509   4.428   2.444  14.179 -0.3397 -0.8414  0.2018
 3349SOL    HW221510   4.350   2.446  14.315 -0.2783  1.8205  0.8381
 3350SOL     OW21511   1.927   4.192   9.606  0.0711  0.0231 -0.6369
 3350SOL    HW121512   1.844   4.160   9.572 -0.2448 -1.6638  1.7314
 3350SOL    HW221513   1.898   4.220   9.693 -0.6290 -0.4771 -0.7093
 3351SOL     OW21514   2.873   0.470   0.284 -0.2580 -0.2122  0.3449
 3351SOL    HW121515   2.956   0.477   0.330 -0.8457  1.2509  1.1881
 3351SOL    HW221516   2.821   0.533   0.333 -0.2466  0.2780 -0.2785
 3352SOL     OW21517   1.153   3.704  11.484 -0.1700 -0.0352  0.2228
 3352SOL    HW121518   1.081   3.759  11.515 -0.0165  0.2849  0.0021
 3352SOL    HW221519   1.180   3.678  11.572 -1.0610 -1.7521  0.0008
 3353SOL     OW21520   1.180   3.804   0.439 -0.6118 -0.1632 -0.3443
 3353SOL    HW121521   1.148   3.835   0.523  0.9103  0.5610 -0.0360
 3353SOL    HW221522   1.218   3.884   0.402 -0.7653 -0.6398 -1.5366
 3354SOL     OW21523   4.529   1.332  16.266 -0.2119  0.1340 -0.1854
 3354SOL    HW121524   4.460   1.390  16.298  0.2138 -0.2858  1.5042
 3354SOL    HW221525   4.587   1.341  16.342  1.2791  0.5996 -1.3820
 3355SOL     OW21526   0.920   2.565   7.091 -0.0940 -0.0924  0.4314
 3355SOL    HW121527   0.956   2.480   7.068 -1.8709 -1.4225  2.5517
 3355SOL    HW221528   0.982   2.598   7.156 -0.5084  1.4833  0.0358
 3356SOL     OW21529   4.124   2.351   7.282 -0.1513 -0.5401 -0.4168
 3356SOL    HW121530   4.181   2.275   7.274  0.8127  0.0254  1.1065
 3356SOL    HW221531   4.091   2.347   7.372 -0.6810 -2.6128 -0.7149
 3357SOL     OW21532   3.198   0.192   7.311 -0.4163  0.2510 -1.2784
 3357SOL    HW121533   3.203   0.172   7.404 -0.5575 -3.1066 -1.9726
 3357SOL    HW221534   3.289   0.202   7.282 -0.3586  0.0883 -1.1518
 3358SOL     OW21535   2.090   4.426   7.500  0.0772  0.4501  0.0630
 3358SOL    HW121536   2.072   4.450   7.409  0.1754  0.1102 -0.0487
 3358SOL    HW221537   2.126   4.502   7.545 -0.3605  0.1646  0.8918
 3359SOL     OW21538   1.688   4.390  12.374  0.3740 -0.9106 -0.0467
 3359SOL    HW121539   1.752   4.461  12.381 -0.4840 -0.0896 -0.4689
 3359SOL    HW221540   1.621   4.441  12.327  1.1805  0.0964 -0.1183
 3360SOL     OW21541   3.153   3.162  13.155  0.5579 -0.1463  0.2210
 3360SOL    HW121542   3.088   3.145  13.223 -1.9766  0.7361 -1.9693
 3360SOL    HW221543   3.197   3.237  13.196  1.3881  0.1849 -1.2609
 3361SOL     OW21544   1.811   2.264   5.934 -0.1270 -0.1875 -0.9774
 3361SOL    HW121545   1.886   2.211   5.961 -0.2415  0.2348  0.1473
 3361SOL    HW221546   1.857   2.322   5.874 -1.1908  1.9923  0.3141
 3362SOL     OW21547   1.723   3.547   1.890 -0.0094 -0.5337  0.3534
 3362SOL    HW121548   1.670   3.615   1.847 -1.4192 -1.7710  0.1610
 3362SOL    HW221549   1.797   3.603   1.914  0.5184 -0.8848 -0.4446
 3363SOL     OW21550   0.785   3.966  15.545  0.1127  0.1036 -0.0093
 3363SOL    HW121551   0.698   3.958  15.507  0.3358 -1.0999 -0.2581
 3363SOL    HW221552   0.801   3.880  15.583 -2.0231 -1.7619 -3.4262
 3364SOL     OW21553   1.694   2.931   5.646 -0.1472  0.4370  0.6473
 3364SOL    HW121554   1.678   3.018   5.609  0.4616  1.0166  1.7461
 3364SOL    HW221555   1.719   2.885   5.565 -1.2475  1.6036 -0.3614
 3365SOL     OW21556   0.501   3.260  17.464 -0.0917 -0.4819  0.1062
 3365SOL    HW121557   0.428   3.244  17.523  0.7131 -0.8182  1.0033
 3365SOL    HW221558   0.576   3.218  17.506  0.3686  0.0573 -0.1678
 3366SOL     OW21559   0.667   2.153   1.398  0.2305  0.0926 -0.5491
 3366SOL    HW121560   0.614   2.172   1.476 -0.9377 -2.0725 -0.8248
 3366SOL    HW221561   0.614   2.192   1.328 -1.0072  0.4206  0.5672
 3367SOL     OW21562   2.605   3.269  11.055 -0.0522  0.5778 -0.7465
 3367SOL    HW121563   2.637   3.182  11.034 -3.0905 -0.8714  0.6803
 3367SOL    HW221564   2.628   3.277  11.147  4.6113 -0.5423 -1.8143
 3368SOL     OW21565   2.465   1.462   5.855  0.4470  0.4335 -0.6176
 3368SOL    HW121566   2.534   1.502   5.802  0.7456  1.3688  0.4930
 3368SOL    HW221567   2.479   1.520   5.930  2.6312 -1.7167  0.6040
 3369SOL     OW21568   2.061   2.503   3.962 -0.4104 -0.5059  0.0501
 3369SOL    HW121569   2.048   2.471   4.051 -0.8073 -2.0409 -0.5661
 3369SOL    HW221570   1.995   2.450   3.919  2.5046 -2.1364 -2.4542
 3370SOL     OW21571   4.221   1.681   3.863 -0.1898 -0.2312 -0.0116
 3370SOL    HW121572   4.312   1.682   3.833 -0.7917 -2.5674 -1.9122
 3370SOL    HW221573   4.220   1.588   3.883 -1.2956 -0.4262 -0.9664
 3371SOL     OW21574   2.382   1.727   3.890  0.5406  0.2349  0.5643
 3371SOL    HW121575   2.439   1.666   3.843 -0.6201  1.3310 -2.1929
 3371SOL    HW221576   2.306   1.721   3.833  0.7223 -2.2344  0.5634
 3372SOL     OW21577   3.613   1.959   5.774 -0.2025  0.2819 -0.2263
 3372SOL    HW121578   3.696   2.002   5.797 -0.6347  1.6417 -1.2453
 3372SOL    HW221579   3.625   1.943   5.681  1.0244 -0.3953  0.0537
 3373SOL     OW21580   1.057   2.539   5.931 -0.0394 -0.8901 -0.3011
 3373SOL    HW121581   1.133   2.595   5.943 -0.7478 -0.1345  0.6399
 3373SOL    HW221582   1.097   2.482   5.865 -0.3948 -1.0791 -0.3559
 3374SOL     OW21583   0.104   0.554   1.265  0.1962  0.3705  0.4592
 3374SOL    HW121584   0.061   0.489   1.321  0.6873  0.0129  0.4178
 3374SOL    HW221585   0.094   0.630   1.322  1.4915  0.9806 -0.1374
 3375SOL     OW21586   4.579   0.806   0.867 -0.4910  0.3886 -0.2561
 3375SOL    HW121587   4.539   0.720   0.860  1.3709 -0.7049  2.6256
 3375SOL    HW221588   4.668   0.771   0.879 -0.8798 -0.6171 -0.3176
 3376SOL     OW21589   1.288   1.755  14.463  0.3411 -0.1183  0.1001
 3376SOL    HW121590   1.292   1.804  14.381  0.9889  0.8839  0.7282
 3376SOL    HW221591   1.352   1.685  14.454 -0.6685 -1.3838  2.6151
 3377SOL     OW21592   3.077   2.660  16.889  0.1306 -0.1875 -0.5947
 3377SOL    HW121593   3.000   2.645  16.944  0.0841 -1.8426 -1.1177
 3377SOL    HW221594   3.094   2.573  16.854 -1.3220 -0.2488 -1.1811
 3378SOL     OW21595   3.576   3.675   3.173  0.1994 -0.1165  0.0683
 3378SOL    HW121596   3.575   3.771   3.171 -1.0554 -0.1221  0.1269
 3378SOL    HW221597   3.489   3.656   3.210  0.3346  0.1845  0.5482
 3379SOL     OW21598   4.611   0.920   5.171  0.0595  0.3224 -0.0140
 3379SOL    HW121599   4.694   0.883   5.141 -0.8538 -2.4472  0.9261
 3379SOL    HW221600   4.561   0.883   5.098  0.2597  0.6275 -0.3100
 3380SOL     OW21601   0.570   3.739  11.556  0.0317 -0.2389 -0.1526
 3380SOL    HW121602   0.602   3.651  11.575 -1.0758 -1.2043 -2.7201
 3380SOL    HW221603   0.619   3.765  11.479 -0.1635  0.8012  0.0702
 3381SOL     OW21604   1.757   3.139   7.392  0.1091  0.1886  0.1264
 3381SOL    HW121605   1.768   3.167   7.301  2.4156 -0.7811  0.0973
 3381SOL    HW221606   1.794   3.052   7.404  1.6579  0.5362 -2.1317
 3382SOL     OW21607   1.242   4.549   8.870 -0.7549  0.0965 -0.4436
 3382SOL    HW121608   1.322   4.597   8.890 -0.9865  0.5883 -0.6789
 3382SOL    HW221609   1.190   4.565   8.949  1.7347 -2.4314  1.6787
 3383SOL     OW21610   3.460   1.046  10.333  0.7053  0.0904 -0.4869
 3383SOL    HW121611   3.531   0.981  10.331  0.8901  0.2750  0.0764
 3383SOL    HW221612   3.414   1.017  10.412  0.5346  2.7645  0.4118
 3384SOL     OW21613   1.980   2.876  16.761 -0.5474  0.1838 -0.0788
 3384SOL    HW121614   2.005   2.785  16.775 -0.6639  0.0309 -0.8766
 3384SOL    HW221615   1.906   2.885  16.821  0.6762  0.7142  1.3495
 3385SOL     OW21616   2.255   2.103   5.404 -0.0523  0.0318 -0.4197
 3385SOL    HW121617   2.302   2.026   5.372  0.4302 -0.7556  2.1268
 3385SOL    HW221618   2.204   2.113   5.324 -2.9239  1.1579  1.5394
 3386SOL     OW21619   2.131   0.881  11.076 -0.2279 -0.6723 -0.3542
 3386SOL    HW121620   2.213   0.870  11.027 -1.0844 -2.8922 -1.2964
 3386SOL    HW221621   2.158   0.828  11.151 -0.4035 -1.2326 -0.6824
 3387SOL     OW21622   1.023   2.983  14.248  0.1553 -0.2310  0.1234
 3387SOL    HW121623   0.979   3.068  14.248  0.4031 -0.1018  0.4914
 3387SOL    HW221624   0.949   2.922  14.247 -0.3524  0.3796  0.2349
 3388SOL     OW21625   3.177   2.613   5.036 -0.1129  0.0172  0.6063
 3388SOL    HW121626   3.082   2.612   5.047 -0.5478 -2.0190 -3.2887
 3388SOL    HW221627   3.198   2.553   4.964  1.3326  0.4171  0.6866
 3389SOL     OW21628   4.508   3.367   1.260 -0.4295  0.6987  0.0540
 3389SOL    HW121629   4.455   3.288   1.265  1.9908 -0.8727  1.1647
 3389SOL    HW221630   4.553   3.363   1.175  1.5689 -3.6285  1.2960
 3390SOL     OW21631   3.364   0.451   5.216 -0.7828 -0.3569 -0.0837
 3390SOL    HW121632   3.275   0.418   5.207  0.1358 -3.5922  2.4057
 3390SOL    HW221633   3.418   0.372   5.211  1.1126  0.8371  1.5438
 3391SOL     OW21634   2.738   0.680  10.754  0.0917  0.0514  0.1176
 3391SOL    HW121635   2.688   0.701  10.675  1.4415  1.9269 -0.2346
 3391SOL    HW221636   2.753   0.586  10.748 -0.2258 -0.0480  0.8806
 3392SOL     OW21637   4.077   3.984   7.621  0.6968 -0.2939  0.0770
 3392SOL    HW121638   4.146   3.933   7.663  1.1324  1.0861  1.0211
 3392SOL    HW221639   4.127   4.055   7.582 -1.2765  0.4822 -1.0598
 3393SOL     OW21640   2.149   3.476   6.679 -0.1764  0.2429 -0.1383
 3393SOL    HW121641   2.095   3.398   6.691  2.7375 -1.6193  0.9122
 3393SOL    HW221642   2.203   3.474   6.758 -0.2375  2.3132 -0.0334
 3394SOL     OW21643   3.034   3.435  10.416  0.1186  0.6940  0.2339
 3394SOL    HW121644   2.939   3.423  10.412  0.3110 -1.2587  1.5469
 3394SOL    HW221645   3.060   3.402  10.502  0.8173 -1.7536 -0.9232
 3395SOL     OW21646   1.905   3.989   3.455  0.0283 -0.1754  0.1380
 3395SOL    HW121647   1.950   3.989   3.370  0.3242 -0.2735  0.2962
 3395SOL    HW221648   1.977   3.961   3.511 -0.5915 -0.9779  0.5297
 3396SOL     OW21649   1.992   0.856   5.325 -0.0540  0.3925 -0.7325
 3396SOL    HW121650   1.915   0.802   5.311 -0.9892  1.2096  1.2629
 3396SOL    HW221651   1.944   0.938   5.337  0.8892  0.9787 -0.8880
 3397SOL     OW21652   0.821   1.461   4.350 -0.1822 -0.1316 -0.1667
 3397SOL    HW121653   0.827   1.429   4.260 -0.3955 -2.2470  0.5808
 3397SOL    HW221654   0.798   1.553   4.337 -0.4365 -0.1286  0.3116
 3398SOL     OW21655   2.080   1.273  15.255 -0.1610 -0.3891 -0.2033
 3398SOL    HW121656   2.017   1.267  15.327 -0.7351 -0.8164 -0.7371
 3398SOL    HW221657   2.126   1.190  15.265  0.8737  0.2787  0.5975
 3399SOL     OW21658   4.644   3.186   0.418  0.4927 -0.2350  0.0880
 3399SOL    HW121659   4.608   3.274   0.405  0.7883  0.0969  1.4573
 3399SOL    HW221660   4.663   3.171   0.325 -4.2460  1.3625 -1.1433
 3400SOL     OW21661   1.836   3.345   2.399 -0.2611 -0.7470  0.0853
 3400SOL    HW121662   1.840   3.422   2.343 -3.1146 -0.7321 -0.0973
 3400SOL    HW221663   1.751   3.307   2.381  0.0214 -1.2031 -0.2883
 3401SOL     OW21664   2.306   4.032   4.380 -0.1060 -0.0987 -0.1555
 3401SOL    HW121665   2.274   4.121   4.367 -0.9271 -0.3336  0.2990
 3401SOL    HW221666   2.381   4.030   4.440 -1.6355 -0.7872  1.7338
 3402SOL     OW21667   0.884   1.842   7.615  0.4906 -0.0313 -0.9055
 3402SOL    HW121668   0.908   1.900   7.543 -0.8487  1.0880 -0.4554
 3402SOL    HW221669   0.942   1.870   7.685 -1.9558  0.9109  0.7561
 3403SOL     OW21670   2.740   2.001  14.830 -0.5108 -0.0535  0.2301
 3403SOL    HW121671   2.653   1.980  14.865 -0.8019  0.8053  0.0182
 3403SOL    HW221672   2.714   2.014  14.739 -2.3641 -2.3652  0.4263
 3404SOL     OW21673   2.963   0.761  16.814 -0.3349 -0.8727 -0.1773
 3404SOL    HW121674   2.885   0.807  16.846  0.4031  0.9267 -0.9391
 3404SOL    HW221675   2.977   0.703  16.889  2.4332  0.8226  0.6322
 3405SOL     OW21676   1.660   4.049   8.249  0.5866  0.2493  0.6733
 3405SOL    HW121677   1.656   4.120   8.314  0.4440 -0.6952  1.7026
 3405SOL    HW221678   1.692   3.972   8.296  1.7654 -0.0308 -0.5955
 3406SOL     OW21679   0.297   0.450  17.626 -0.4601  0.2952 -0.3557
 3406SOL    HW121680   0.351   0.380  17.662 -0.2347  0.4424 -0.4041
 3406SOL    HW221681   0.361   0.513  17.592 -3.5495  2.7454 -1.6579
 3407SOL     OW21682   3.229   3.722   7.497  0.6482 -0.0633  0.3887
 3407SOL    HW121683   3.264   3.634   7.499 -0.0332 -0.3871 -1.5210
 3407SOL    HW221684   3.306   3.775   7.474  0.8732  0.2116  1.7870
 3408SOL     OW21685   4.474   2.974  12.289  0.6708  0.2842 -0.1195
 3408SOL    HW121686   4.561   2.934  12.286 -0.3964 -2.1689  1.0999
 3408SOL    HW221687   4.415   2.921  12.344 -0.0855 -0.3373 -1.5208
 3409SOL     OW21688   1.918   2.586   0.570  0.4667  0.1563 -0.0361
 3409SOL    HW121689   1.978   2.534   0.516 -1.2444 -0.2360 -1.5652
 3409SOL    HW221690   1.834   2.550   0.539  1.7016 -2.0070 -0.9018
 3410SOL     OW21691   2.854   3.549  14.900  0.4710 -0.6232 -0.2026
 3410SOL    HW121692   2.922   3.583  14.841  0.0995  0.8832  0.2415
 3410SOL    HW221693   2.890   3.570  14.987  0.4544 -0.6215 -0.1962
 3411SOL     OW21694   4.647   1.066   4.732  0.2636  0.1059  0.2250
 3411SOL    HW121695   4.629   1.134   4.797  0.8162  0.5358 -0.0760
 3411SOL    HW221696   4.565   1.016   4.725  0.1251  0.5089 -1.1114
 3412SOL     OW21697   2.164   2.265   2.524 -0.0875  0.0447 -0.2391
 3412SOL    HW121698   2.074   2.287   2.499 -0.1591 -0.3784 -0.3468
 3412SOL    HW221699   2.161   2.266   2.620 -1.3826 -0.7622 -0.2779
 3413SOL     OW21700   0.809   1.090   3.192  0.2597 -0.0603 -0.1631
 3413SOL    HW121701   0.761   1.031   3.133 -0.0600 -1.3085  1.3529
 3413SOL    HW221702   0.868   1.029   3.235  0.0773 -1.3709 -1.7432
 3414SOL     OW21703   4.360   0.527   5.415 -0.6440 -0.1788 -0.0365
 3414SOL    HW121704   4.331   0.460   5.353 -2.2354  0.9794 -0.5653
 3414SOL    HW221705   4.399   0.476   5.485 -0.5623 -0.5429 -0.3476
 3415SOL     OW21706   3.390   1.935   3.602 -0.3961  0.0808  0.0084
 3415SOL    HW121707   3.461   1.949   3.541 -0.6781  0.4004 -0.2443
 3415SOL    HW221708   3.427   1.978   3.679 -1.2540  1.1072 -0.1456
 3416SOL     OW21709   1.733   3.368  17.171  0.0996 -0.3129 -0.0073
 3416SOL    HW121710   1.676   3.434  17.132 -1.2212 -1.4104  0.0569
 3416SOL    HW221711   1.792   3.431  17.213  0.6703 -3.1192  3.4632
 3417SOL     OW21712   2.929   4.383  10.136 -0.1436 -0.2888 -0.2422
 3417SOL    HW121713   2.961   4.294  10.152 -0.9514 -0.7495 -1.2395
 3417SOL    HW221714   2.843   4.362  10.100 -0.1448 -2.0104  0.7425
 3418SOL     OW21715   3.641   3.674   4.957 -0.1882  0.0616 -0.3639
 3418SOL    HW121716   3.619   3.763   4.985 -0.5969  0.1414 -0.9264
 3418SOL    HW221717   3.553   3.650   4.927  0.3071 -0.5434 -1.3149
 3419SOL     OW21718   1.164   1.023  12.296  0.8126 -0.3813  0.1315
 3419SOL    HW121719   1.120   0.983  12.221 -0.6189  0.4321  0.5362
 3419SOL    HW221720   1.106   1.097  12.312 -0.7605 -2.0548  2.1712
 3420SOL     OW21721   1.433   3.829   9.186 -0.1621 -0.8382 -0.1896
 3420SOL    HW121722   1.379   3.908   9.179 -0.3158 -0.6946  2.8114
 3420SOL    HW221723   1.474   3.828   9.099 -0.0806  1.1793 -0.1916
 3421SOL     OW21724   2.794   0.866   6.447  0.0434  0.0743  0.1527
 3421SOL    HW121725   2.733   0.937   6.428 -0.9923 -0.4561  1.4693
 3421SOL    HW221726   2.831   0.856   6.360 -0.7170 -0.7644 -0.0666
 3422SOL     OW21727   1.006   4.213   9.147  0.0128  0.1230 -0.2734
 3422SOL    HW121728   1.003   4.195   9.053 -0.6802 -2.0298  0.1557
 3422SOL    HW221729   0.950   4.142   9.179  0.8999 -0.6628 -0.4745
 3423SOL     OW21730   4.333   2.308   8.380 -0.5252  0.2627 -0.0332
 3423SOL    HW121731   4.358   2.397   8.404  1.5443 -0.8515  1.9429
 3423SOL    HW221732   4.268   2.284   8.446 -0.0476  2.5223  1.2583
 3424SOL     OW21733   2.186   0.009   5.718 -0.3828  0.1476 -0.3520
 3424SOL    HW121734   2.141   4.690   5.645 -0.0112 -0.0849 -0.4481
 3424SOL    HW221735   2.170   0.100   5.694 -0.4394 -0.5533 -2.8942
 3425SOL     OW21736   1.292   4.450   7.029 -0.4926 -0.5143 -0.5918
 3425SOL    HW121737   1.337   4.389   6.970  1.0832  1.2929 -1.2837
 3425SOL    HW221738   1.279   4.391   7.103 -0.7958  0.3275  0.0167
 3426SOL     OW21739   0.472   1.158   6.511 -0.6810  0.0211  0.1434
 3426SOL    HW121740   0.469   1.253   6.522  1.4154  0.1086 -0.1542
 3426SOL    HW221741   0.394   1.151   6.455 -0.8217  0.3132  0.3036
 3427SOL     OW21742   3.633   2.684   1.551  0.0658 -0.0207  0.2423
 3427SOL    HW121743   3.698   2.753   1.537 -0.3197  0.0395 -1.2999
 3427SOL    HW221744   3.680   2.625   1.610 -0.2851 -0.1043  0.4389
 3428SOL     OW21745   1.066   4.484   6.855  0.1537 -0.1712 -0.4254
 3428SOL    HW121746   1.023   4.421   6.912  0.8463  0.0359  0.3378
 3428SOL    HW221747   1.150   4.490   6.902 -0.2106  0.2110  0.1800
 3429SOL     OW21748   0.912   1.864   6.423  0.0633 -0.6800  0.0372
 3429SOL    HW121749   1.003   1.836   6.428  0.4632  0.5405 -0.4245
 3429SOL    HW221750   0.919   1.940   6.364 -0.9083 -1.9122 -1.6703
 3430SOL     OW21751   3.549   3.605   2.465 -0.2220 -0.2316  0.0459
 3430SOL    HW121752   3.465   3.649   2.474 -0.4388 -0.4125 -0.9818
 3430SOL    HW221753   3.601   3.659   2.405 -0.4977  0.5978  0.5662
 3431SOL     OW21754   1.888   2.741   5.796  0.0827  0.2069  0.1067
 3431SOL    HW121755   1.802   2.731   5.755  0.0496  0.9744 -0.0050
 3431SOL    HW221756   1.913   2.833   5.791 -0.8569  0.3515 -1.9435
 3432SOL     OW21757   0.814   0.465  14.443 -0.6836 -0.0473 -0.3831
 3432SOL    HW121758   0.786   0.540  14.496  1.0463  0.5551 -0.3039
 3432SOL    HW221759   0.742   0.454  14.381 -0.8954 -1.0629  0.0449
 3433SOL     OW21760   1.784   1.590   8.536  0.4590 -0.3660  0.0236
 3433SOL    HW121761   1.861   1.645   8.524 -0.1426  0.4619 -0.0109
 3433SOL    HW221762   1.739   1.599   8.453  2.0262 -0.9699 -0.8855
 3434SOL     OW21763   0.971   2.814   4.991 -0.3476  0.3512 -0.6302
 3434SOL    HW121764   0.883   2.803   4.956 -1.1539 -1.0597  1.8294
 3434SOL    HW221765   0.988   2.722   5.013  0.1888  0.2875 -1.3025
 3435SOL     OW21766   2.935   4.272   5.275 -0.1244 -0.1946  0.2746
 3435SOL    HW121767   2.891   4.203   5.225 -1.1908 -0.1846  1.1931
 3435SOL    HW221768   2.886   4.352   5.256 -0.2381  0.2333  2.4188
 3436SOL     OW21769   2.752   1.054   7.542 -0.2263  0.2473  0.3003
 3436SOL    HW121770   2.771   1.145   7.520  2.6767 -0.9449 -2.0389
 3436SOL    HW221771   2.835   1.011   7.522  1.2016  3.9451 -1.8347
 3437SOL     OW21772   1.504   3.626   4.263  0.0597  0.2303  0.0085
 3437SOL    HW121773   1.452   3.580   4.197 -2.4027  3.2074 -0.0679
 3437SOL    HW221774   1.591   3.634   4.224  0.5620  1.4448  1.3917
 3438SOL     OW21775   3.921   4.195   2.449 -0.1734 -0.4675  0.0291
 3438SOL    HW121776   3.888   4.280   2.420 -0.7828 -1.1444 -1.2290
 3438SOL    HW221777   3.942   4.163   2.362 -0.7411  3.8346 -1.7015
 3439SOL     OW21778   1.342   4.432  10.489  0.0511 -0.1927 -0.2247
 3439SOL    HW121779   1.319   4.443  10.581  3.1182  2.9875  0.1537
 3439SOL    HW221780   1.319   4.344  10.459  1.5865  0.1013 -2.2947
 3440SOL     OW21781   0.032   1.596   2.655  0.4828  0.1114  0.0541
 3440SOL    HW121782   0.116   1.570   2.617  0.8971  1.7148 -0.1040
 3440SOL    HW221783   0.056   1.678   2.699  2.4069 -1.2222  1.5008
 3441SOL     OW21784   1.092   0.368   6.305  0.1612 -0.2617  0.3170
 3441SOL    HW121785   1.149   0.333   6.373 -0.4809  1.0154  1.5266
 3441SOL    HW221786   1.146   0.348   6.228 -1.6949 -1.6852 -0.6069
 3442SOL     OW21787   0.880   2.939   5.831 -0.4244  0.2795 -0.7804
 3442SOL    HW121788   0.821   2.917   5.903  2.4637  0.2427  1.5819
 3442SOL    HW221789   0.962   2.934   5.880 -1.0940 -1.2081  0.2016
 3443SOL     OW21790   4.568   2.399   2.333  0.0411 -0.0385 -0.4022
 3443SOL    HW121791   4.490   2.369   2.286  0.1521 -1.7142  0.4891
 3443SOL    HW221792   4.588   2.475   2.278 -0.2825  1.0945  1.0548
 3444SOL     OW21793   3.430   0.563   3.002 -0.0892 -0.9248  0.6340
 3444SOL    HW121794   3.355   0.531   2.951  0.3798  0.9253 -1.2394
 3444SOL    HW221795   3.463   0.643   2.960 -4.3264 -0.4800 -1.8888
 3445SOL     OW21796   4.578   0.491   2.016 -0.0733  0.8333  0.0550
 3445SOL    HW121797   4.528   0.513   1.937 -1.5165 -1.6630  0.2916
 3445SOL    HW221798   4.526   0.414   2.039  3.5247 -1.2223  1.2508
 3446SOL     OW21799   1.522   1.327  10.880 -0.4134  0.2022 -0.0116
 3446SOL    HW121800   1.551   1.350  10.792 -2.2056  0.4021 -0.5342
 3446SOL    HW221801   1.515   1.416  10.915  3.6187  1.3345 -2.1104
 3447SOL     OW21802   2.284   3.569   0.159 -0.1627  0.2885  0.3645
 3447SOL    HW121803   2.223   3.634   0.123  0.9304  1.0343 -0.1418
 3447SOL    HW221804   2.325   3.632   0.218  0.7961 -0.9961  1.0762
 3448SOL     OW21805   4.393   3.485  16.624  0.1431  0.0605  0.5955
 3448SOL    HW121806   4.439   3.457  16.704  1.6365  0.6262 -0.0788
 3448SOL    HW221807   4.378   3.577  16.645 -1.7435 -0.2631  0.6884
 3449SOL     OW21808   0.871   0.480   6.859  0.2045  0.4126  0.0447
 3449SOL    HW121809   0.827   0.535   6.793 -2.5342 -2.8243 -0.8197
 3449SOL    HW221810   0.820   0.510   6.934  0.8893  0.0340  0.6574
 3450SOL     OW21811   3.525   0.122  16.327  0.3737  0.5463 -0.2601
 3450SOL    HW121812   3.436   0.097  16.352  1.2552  1.5985  3.7472
 3450SOL    HW221813   3.533   0.072  16.245 -1.7822 -1.2974  0.6283
 3451SOL     OW21814   2.794   2.224  10.856  0.4355  0.1000  0.1302
 3451SOL    HW121815   2.841   2.307  10.862 -0.1010  0.3445  0.9764
 3451SOL    HW221816   2.851   2.158  10.817  1.3759 -0.1783  2.0048
 3452SOL     OW21817   2.707   3.946   3.994  0.0752  0.0368 -0.4646
 3452SOL    HW121818   2.744   3.861   4.017 -1.1466 -0.4034 -0.0782
 3452SOL    HW221819   2.642   3.916   3.930 -2.0794 -0.0815  1.7681
 3453SOL     OW21820   3.636   2.887   5.075  0.3032  0.0193  0.0678
 3453SOL    HW121821   3.595   2.800   5.073  0.6856 -0.1746  0.6198
 3453SOL    HW221822   3.729   2.868   5.080 -0.0008 -1.5179 -0.0546
 3454SOL     OW21823   1.631   1.376   0.334 -0.3881  0.5000 -0.3013
 3454SOL    HW121824   1.594   1.448   0.385 -1.6473  1.0719 -2.0247
 3454SOL    HW221825   1.724   1.399   0.342 -0.9121  2.5417 -0.0482
 3455SOL     OW21826   3.177   3.176  16.021 -0.4714  0.6537  0.4368
 3455SOL    HW121827   3.221   3.202  15.940  1.2333 -0.4022  1.0245
 3455SOL    HW221828   3.107   3.240  16.036 -0.5638  1.2984 -2.6532
 3456SOL     OW21829   0.123   1.539   0.696 -0.2545  0.4695 -0.5928
 3456SOL    HW121830   0.099   1.590   0.619 -0.6057 -0.6370 -1.2216
 3456SOL    HW221831   0.075   1.459   0.674 -1.2339  1.4003 -1.7921
 3457SOL     OW21832   0.173   2.127  16.720  0.0746  0.0548  0.0254
 3457SOL    HW121833   0.144   2.050  16.769 -0.7257  0.9757  0.9829
 3457SOL    HW221834   0.240   2.089  16.662  0.6754  1.7311 -0.3604
 3458SOL     OW21835   3.677   1.583   6.313 -0.0555  0.3962  0.4017
 3458SOL    HW121836   3.762   1.628   6.311 -0.3102  0.7538 -2.6831
 3458SOL    HW221837   3.669   1.565   6.219  0.9366  0.4438  0.3102
 3459SOL     OW21838   3.190   1.887   6.749 -0.3060 -0.0395 -0.1678
 3459SOL    HW121839   3.135   1.957   6.715 -3.0329 -1.3742  1.5232
 3459SOL    HW221840   3.260   1.934   6.794  0.7691 -0.1957 -1.6672
 3460SOL     OW21841   1.691   3.844   2.087 -0.3199  0.5078  0.0912
 3460SOL    HW121842   1.661   3.815   2.002 -1.6378 -0.0742  0.7557
 3460SOL    HW221843   1.734   3.921   2.051  2.4234 -0.6147  0.9700
 3461SOL     OW21844   2.043   0.919   6.451 -0.2681  0.1354 -0.4322
 3461SOL    HW121845   2.011   0.904   6.540 -2.7872  0.7674 -1.2269
 3461SOL    HW221846   2.096   0.840   6.451  1.5790  1.3649 -0.8510
 3462SOL     OW21847   4.277   4.452   2.025  0.3923  0.3251 -0.6639
 3462SOL    HW121848   4.349   4.516   2.026  1.6681 -1.1046 -2.6346
 3462SOL    HW221849   4.322   4.369   2.010 -1.1864 -0.4857 -0.8610
 3463SOL     OW21850   1.935   4.197   2.236  0.0954  0.5008 -0.0956
 3463SOL    HW121851   1.948   4.267   2.173  1.1825  1.6208  1.3739
 3463SOL    HW221852   2.022   4.158   2.231 -0.2138 -0.0847 -0.7916
 3464SOL     OW21853   2.724   1.837  14.471 -0.4374  0.2345  0.5889
 3464SOL    HW121854   2.632   1.815  14.486 -1.5344  3.7900 -0.9131
 3464SOL    HW221855   2.732   1.921  14.516 -0.3223  1.1439 -1.1038
 3465SOL     OW21856   2.579   4.383  14.866 -0.5942  1.5155  0.3654
 3465SOL    HW121857   2.551   4.338  14.946  0.3515 -0.2119 -0.3012
 3465SOL    HW221858   2.563   4.475  14.889 -1.5739  1.2276  0.8592
 3466SOL     OW21859   3.901   0.852   3.893  0.4748 -0.7351  0.4185
 3466SOL    HW121860   3.951   0.863   3.812  0.0072 -0.3968  0.1736
 3466SOL    HW221861   3.936   0.920   3.951  0.4403 -0.6144  0.2985
 3467SOL     OW21862   4.269   2.742   2.711 -1.3372  0.1909  0.5224
 3467SOL    HW121863   4.341   2.683   2.691 -1.4681  0.1743  0.0910
 3467SOL    HW221864   4.231   2.684   2.777 -1.1321  0.0315  0.4987
 3468SOL     OW21865   3.494   4.476   0.188  0.1811 -0.3366 -0.2471
 3468SOL    HW121866   3.509   4.420   0.112  0.7350  0.3818 -0.6629
 3468SOL    HW221867   3.416   4.522   0.156  0.1566 -1.8914 -2.3839
 3469SOL     OW21868   2.443   4.334   7.333 -0.4056 -0.4161 -0.1400
 3469SOL    HW121869   2.483   4.404   7.385  1.0951  0.4745 -2.5051
 3469SOL    HW221870   2.404   4.385   7.262  1.9133  1.2918 -0.1801
 3470SOL     OW21871   4.132   3.094   3.319  0.2261 -1.0158 -0.2887
 3470SOL    HW121872   4.143   3.091   3.415 -0.6945  0.5077 -0.1366
 3470SOL    HW221873   4.082   3.175   3.303 -2.2552 -2.3892  0.5308
 3471SOL     OW21874   3.457   3.389   5.902 -0.3379  0.1788 -0.4633
 3471SOL    HW121875   3.518   3.348   5.839  1.2215  0.0586  1.1349
 3471SOL    HW221876   3.517   3.398   5.975  0.9224  1.4653 -1.6595
 3472SOL     OW21877   3.301   2.965   8.454  0.1580 -0.1317 -0.0657
 3472SOL    HW121878   3.272   2.989   8.542 -1.2550  1.2982 -0.9216
 3472SOL    HW221879   3.307   3.048   8.407 -1.6111  0.9733  1.6833
 3473SOL     OW21880   3.083   0.221   1.156  0.0846 -0.4915  0.4353
 3473SOL    HW121881   3.164   0.171   1.158  1.6898  2.0628 -0.9390
 3473SOL    HW221882   3.025   0.168   1.211  0.4503  0.7241  2.0015
 3474SOL     OW21883   3.947   2.353  13.482  0.5249  0.4545  0.0145
 3474SOL    HW121884   3.869   2.358  13.537  1.1084 -1.1516  0.9824
 3474SOL    HW221885   3.908   2.295  13.416  1.5302 -0.2086  0.0138
 3475SOL     OW21886   0.264   3.110   9.497 -0.0788 -0.0622 -0.0305
 3475SOL    HW121887   0.209   3.076   9.568  0.9992 -1.3884  0.1618
 3475SOL    HW221888   0.196   3.115   9.430 -0.0473  0.0197 -0.0570
 3476SOL     OW21889   0.058   4.235   3.101  0.2027  0.1650  0.2391
 3476SOL    HW121890   0.076   4.147   3.067  0.4929 -0.5365  2.1828
 3476SOL    HW221891   0.039   4.278   3.018 -0.0261  1.4913  0.9746
 3477SOL     OW21892   4.073   0.041   8.807  0.9151  0.0211  0.3397
 3477SOL    HW121893   4.053   4.716   8.887  2.5891 -2.0723 -0.5256
 3477SOL    HW221894   4.013   0.116   8.813  1.2573  0.2921  0.3779
 3478SOL     OW21895   2.223   0.466   3.097  0.0707 -0.3725  0.2360
 3478SOL    HW121896   2.189   0.462   3.007  0.5494  0.1964  0.0348
 3478SOL    HW221897   2.147   0.490   3.150  0.2141 -1.5582  0.9904
 3479SOL     OW21898   2.094   2.481   6.973 -0.6514 -0.1229  0.6001
 3479SOL    HW121899   2.114   2.390   6.949  1.8460  0.4436  0.5775
 3479SOL    HW221900   2.016   2.497   6.920  0.6651  1.1763 -0.9133
 3480SOL     OW21901   1.787   4.389   0.841  0.0464  0.2030 -0.0136
 3480SOL    HW121902   1.699   4.354   0.829 -0.9049  1.9611  1.8534
 3480SOL    HW221903   1.831   4.304   0.849  0.8849  0.5054 -1.4313
 3481SOL     OW21904   0.182   2.070   2.561 -0.5763  0.1093 -0.3199
 3481SOL    HW121905   0.126   2.118   2.500 -0.2800  2.8396  1.5584
 3481SOL    HW221906   0.220   2.009   2.497 -0.6955 -0.6835  0.3695
 3482SOL     OW21907   0.428   1.695   6.102 -0.6617 -0.0862 -0.0812
 3482SOL    HW121908   0.523   1.687   6.114 -0.5046  0.1081 -1.2408
 3482SOL    HW221909   0.417   1.735   6.016  0.9237  1.9903  0.6697
 3483SOL     OW21910   0.003   1.854   5.644  0.5237 -0.5441  0.6014
 3483SOL    HW121911   0.040   1.767   5.628  2.2397  0.1107  1.0094
 3483SOL    HW221912   0.004   1.892   5.556  0.4185  1.8566  1.6698
 3484SOL     OW21913   1.351   1.096   1.188  0.3711  0.3925  0.2711
 3484SOL    HW121914   1.307   1.124   1.269 -0.8349 -0.6209 -0.0315
 3484SOL    HW221915   1.315   1.009   1.173 -0.6236  1.1281 -1.5755
 3485SOL     OW21916   3.311   4.259   7.293 -0.9233  0.5397  0.5089
 3485SOL    HW121917   3.401   4.260   7.326 -0.5554 -0.7629 -0.4813
 3485SOL    HW221918   3.273   4.183   7.337 -1.4819  0.4680 -0.0966
 3486SOL     OW21919   3.897   1.762  17.344  0.1653  0.3217  0.2454
 3486SOL    HW121920   3.809   1.752  17.381  0.6845 -1.6945  0.9311
 3486SOL    HW221921   3.958   1.790  17.412  3.1474 -0.2874 -2.1644
 3487SOL     OW21922   3.528   1.572  10.942  0.3103 -0.1169  0.3557
 3487SOL    HW121923   3.494   1.661  10.941 -0.6875 -0.4966  0.6804
 3487SOL    HW221924   3.449   1.518  10.941 -1.7707  2.8978 -2.7637
 3488SOL     OW21925   0.264   4.095   4.935 -0.3890  0.2557  0.2998
 3488SOL    HW121926   0.269   4.161   5.004  0.2189  0.2438  0.2633
 3488SOL    HW221927   0.176   4.064   4.957 -0.6900 -1.0545 -2.6813
 3489SOL     OW21928   2.762   4.430   1.669 -0.3566  0.0864  0.0854
 3489SOL    HW121929   2.708   4.352   1.657 -0.7047  0.1126  1.4480
 3489SOL    HW221930   2.850   4.395   1.653  0.2217  1.5645 -0.0059
 3490SOL     OW21931   3.495   3.180  16.535  0.7177 -0.1542  0.0965
 3490SOL    HW121932   3.516   3.239  16.462  3.7041  1.3230  2.1582
 3490SOL    HW221933   3.581   3.168  16.576  0.0007 -1.0002  1.3387
 3491SOL     OW21934   3.560   3.117   8.522  0.1504 -0.6332  0.2445
 3491SOL    HW121935   3.567   3.213   8.519  1.4342 -0.7469 -0.2194
 3491SOL    HW221936   3.554   3.092   8.614  0.1045  2.5103  1.1156
 3492SOL     OW21937   2.654   1.936  12.805  0.4386 -0.1751  0.1614
 3492SOL    HW121938   2.602   1.855  12.798  1.5281 -0.6544 -2.1436
 3492SOL    HW221939   2.635   1.962  12.715  2.3421 -0.9613 -0.4555
 3493SOL     OW21940   3.962   4.587   8.310 -0.4921  0.6164  0.0267
 3493SOL    HW121941   3.936   4.599   8.401 -1.2541 -0.6455 -0.0372
 3493SOL    HW221942   4.054   4.561   8.304 -1.7299 -2.9402 -3.0280
 3494SOL     OW21943   4.262   4.053  10.655  0.0100  0.2279 -0.4012
 3494SOL    HW121944   4.206   3.980  10.683  0.7039  0.3712  1.3543
 3494SOL    HW221945   4.197   4.109  10.611  1.2952  0.8412 -1.5355
 3495SOL     OW21946   0.571   2.156   2.802  0.4389 -0.3894  0.1334
 3495SOL    HW121947   0.479   2.141   2.824 -0.0063  1.3217 -0.6107
 3495SOL    HW221948   0.607   2.182   2.887 -1.2918  1.9341  0.1463
 3496SOL     OW21949   1.859   4.299   8.661  0.0410  0.5588  0.1866
 3496SOL    HW121950   1.942   4.254   8.682  0.8243  2.3420  0.8885
 3496SOL    HW221951   1.896   4.386   8.644  2.8756 -0.7028 -0.2312
 3497SOL     OW21952   2.418   0.435   6.431 -0.1439 -0.6466  0.5012
 3497SOL    HW121953   2.373   0.357   6.463 -0.2413 -1.1538 -0.8629
 3497SOL    HW221954   2.405   0.431   6.336 -0.7090 -0.4008  0.5687
 3498SOL     OW21955   3.643   0.764   2.277  0.1383 -0.4505 -0.4332
 3498SOL    HW121956   3.672   0.698   2.215 -1.3561 -3.1509  1.7562
 3498SOL    HW221957   3.557   0.724   2.286  0.2215  0.0445  2.4479
 3499SOL     OW21958   1.698   2.549   3.144  0.0649  0.3023  0.3938
 3499SOL    HW121959   1.734   2.469   3.182  1.3508  0.7090  0.0449
 3499SOL    HW221960   1.752   2.549   3.064  0.4373  2.6574  0.6438
 3500SOL     OW21961   0.484   2.989   4.918  0.3193  0.1995  0.0310
 3500SOL    HW121962   0.580   2.988   4.920  0.3595  3.7115 -1.0066
 3500SOL    HW221963   0.465   3.067   4.867 -1.2603  0.1870  0.5956
 3501SOL     OW21964   0.982   1.668   4.052  0.2428  0.1496  0.1323
 3501SOL    HW121965   1.008   1.580   4.029  3.0603  0.5390  1.7971
 3501SOL    HW221966   1.067   1.707   4.073 -0.1109  0.4661  1.0004
 3502SOL     OW21967   0.397   4.157   8.564 -0.0807  0.2212  0.2814
 3502SOL    HW121968   0.485   4.185   8.541  0.3935 -0.6713  1.0260
 3502SOL    HW221969   0.351   4.241   8.555  0.4099  0.6896  2.2704
 3503SOL     OW21970   1.753   0.098   8.911  0.5353 -0.5187 -0.3441
 3503SOL    HW121971   1.811   0.022   8.919  0.6534 -0.5479 -1.5378
 3503SOL    HW221972   1.737   0.114   9.004 -1.2962 -1.1245 -0.5490
 3504SOL     OW21973   4.344   1.716   6.469  0.1719  0.2698  0.0262
 3504SOL    HW121974   4.261   1.684   6.503  0.9253  0.7974  2.3420
 3504SOL    HW221975   4.359   1.799   6.513 -1.9719 -0.4572  2.1047
 3505SOL     OW21976   3.283   4.164   5.904  0.1699 -0.1024 -0.4111
 3505SOL    HW121977   3.288   4.099   5.974  1.0956  1.4687  1.0085
 3505SOL    HW221978   3.273   4.112   5.825 -2.1248  0.8477 -0.7403
 3506SOL     OW21979   1.114   0.064   2.820 -0.7675 -0.2357 -0.5471
 3506SOL    HW121980   1.104   4.712   2.878  0.4810 -1.7008 -2.2186
 3506SOL    HW221981   1.051   0.036   2.754  0.1926 -0.7946 -1.2258
 3507SOL     OW21982   0.707   0.557   9.197 -0.1534  0.8326 -0.4728
 3507SOL    HW121983   0.707   0.483   9.257  4.4566  0.3545 -1.0302
 3507SOL    HW221984   0.614   0.560   9.175 -0.4712 -0.2759  0.7358
 3508SOL     OW21985   1.436   1.803   6.391  0.5788  0.1697  0.6499
 3508SOL    HW121986   1.416   1.854   6.312  1.7147 -1.3247 -0.5991
 3508SOL    HW221987   1.446   1.877   6.451  0.2791  0.3492  0.4831
 3509SOL     OW21988   0.389   3.484   2.862  0.2568  0.1699 -0.2317
 3509SOL    HW121989   0.429   3.564   2.896 -1.0967  0.8524 -0.2892
 3509SOL    HW221990   0.442   3.423   2.914 -0.9773 -0.5708  0.1584
 3510SOL     OW21991   4.553   3.659   3.671 -0.0073  0.4253  0.3807
 3510SOL    HW121992   4.568   3.740   3.720 -1.4030  0.3144  0.9684
 3510SOL    HW221993   4.465   3.639   3.703 -0.4875  0.3012 -1.0201
 3511SOL     OW21994   2.609   2.264   3.308 -0.3009  0.1897 -0.2698
 3511SOL    HW121995   2.604   2.359   3.320 -1.9812  0.5138 -3.6217
 3511SOL    HW221996   2.695   2.250   3.268 -0.1074  0.6019  0.0010
 3512SOL     OW21997   3.868   3.823   7.721  0.2201  0.0271 -0.2096
 3512SOL    HW121998   3.939   3.879   7.687  0.6222 -0.4639 -0.1781
 3512SOL    HW221999   3.924   3.752   7.752  1.0930  1.3101  1.1519
 3513SOL     OW22000   2.024   2.914   7.304  0.6131  0.2514  0.3932
 3513SOL    HW122001   1.959   2.843   7.306  0.7774  0.0689 -0.5116
 3513SOL    HW222002   2.026   2.915   7.399 -1.3303 -0.9170  0.4399
 3514SOL     OW22003   2.657   0.893   0.841 -0.2684 -0.7459  0.1751
 3514SOL    HW122004   2.693   0.817   0.795 -2.3458 -3.0423  2.3155
 3514SOL    HW222005   2.716   0.896   0.917 -1.9211  3.2196  1.2853
 3515SOL     OW22006   0.215   1.972   3.138 -0.3727  0.8099  0.4079
 3515SOL    HW122007   0.288   1.913   3.152 -0.6040 -0.2359 -2.8807
 3515SOL    HW222008   0.237   2.009   3.052 -0.8530  2.2443  0.9084
 3516SOL     OW22009   3.328   2.353   3.467  0.5098  0.1093 -0.1905
 3516SOL    HW122010   3.398   2.308   3.514 -1.8152 -1.9461  1.3008
 3516SOL    HW222011   3.369   2.435   3.438 -3.0021  2.1060  0.4280
 3517SOL     OW22012   0.353   3.436   9.263 -0.4377 -0.5757 -0.5461
 3517SOL    HW122013   0.416   3.491   9.217 -0.8640  1.7173  1.6586
 3517SOL    HW222014   0.379   3.347   9.239  1.6013  0.2738 -1.4840
 3518SOL     OW22015   1.848   3.677  14.004 -0.5965 -0.6468  0.4779
 3518SOL    HW122016   1.874   3.624  13.928 -2.8788 -0.3399 -0.5236
 3518SOL    HW222017   1.790   3.743  13.965  0.1732  0.6924  1.6220
 3519SOL     OW22018   0.345   4.021   2.990  0.0964  0.9018  0.1155
 3519SOL    HW122019   0.381   4.110   2.998  0.5589  0.6509  0.7952
 3519SOL    HW222020   0.365   3.997   2.900  1.1607  0.3105  0.5039
 3520SOL     OW22021   3.540   0.783   0.995  0.1679 -0.5595 -0.1112
 3520SOL    HW122022   3.491   0.777   1.077  0.1562 -0.9776 -0.1465
 3520SOL    HW222023   3.607   0.846   1.020  0.9113 -0.4721 -2.3239
 3521SOL     OW22024   2.883   0.233   6.700 -0.3009  0.2149 -0.4215
 3521SOL    HW122025   2.842   0.260   6.782 -1.5226  2.3027 -1.7273
 3521SOL    HW222026   2.849   0.286   6.628  0.1937 -4.2037 -3.9625
 3522SOL     OW22027   1.400   0.515  11.059  0.2556 -0.1160 -0.2016
 3522SOL    HW122028   1.322   0.488  11.106  1.1740  2.1856  2.5783
 3522SOL    HW222029   1.464   0.458  11.102 -0.5715  1.2890  2.8872
 3523SOL     OW22030   2.935   2.189   4.881  0.3817  0.2542  0.3460
 3523SOL    HW122031   2.988   2.120   4.922 -0.8678 -0.4961  0.7149
 3523SOL    HW222032   2.899   2.127   4.817 -0.2249  1.1898 -0.2294
 3524SOL     OW22033   0.065   4.209  11.805  0.1415 -0.1984 -0.2639
 3524SOL    HW122034   0.011   4.145  11.759  0.0393 -0.4112  0.1536
 3524SOL    HW222035   0.057   4.183  11.897  1.1548  3.0530  0.7429
 3525SOL     OW22036   3.290   1.462   2.153  0.0417  0.9060  0.1984
 3525SOL    HW122037   3.294   1.540   2.208 -1.8632 -0.3868  2.2135
 3525SOL    HW222038   3.196   1.440   2.157  0.2944  0.0454  1.6336
 3526SOL     OW22039   3.829   2.492   0.605 -0.1807 -0.1719  0.0381
 3526SOL    HW122040   3.828   2.524   0.696 -1.1803  0.8546 -0.3305
 3526SOL    HW222041   3.922   2.478   0.587 -0.3618  1.6398 -2.3225
 3527SOL     OW22042   4.388   1.366  14.417  0.2408 -0.0694 -0.0461
 3527SOL    HW122043   4.334   1.288  14.399 -0.5839 -0.1223  2.5816
 3527SOL    HW222044   4.480   1.343  14.409 -0.0618 -1.6228  0.9542
 3528SOL     OW22045   3.554   1.077   4.748 -0.2590 -0.2564 -0.2515
 3528SOL    HW122046   3.648   1.078   4.765 -0.6622 -0.7210  1.9872
 3528SOL    HW222047   3.545   1.115   4.661  0.5631 -0.1433 -0.2923
 3529SOL     OW22048   1.774   2.819  11.719 -0.3183 -0.1527  0.1886
 3529SOL    HW122049   1.778   2.914  11.727 -1.9835 -0.0454 -0.1658
 3529SOL    HW222050   1.680   2.801  11.710  0.1529 -2.0899 -0.8489
 3530SOL     OW22051   0.521   0.890   8.801 -0.3636  0.1493 -0.2415
 3530SOL    HW122052   0.457   0.937   8.748 -0.8715  1.1658  1.2644
 3530SOL    HW222053   0.469   0.850   8.871  0.0192 -0.4558 -0.2996
 3531SOL     OW22054   1.462   0.198   8.142  0.2995 -0.0247  0.2167
 3531SOL    HW122055   1.552   0.177   8.121  0.5577  0.8281  0.4440
 3531SOL    HW222056   1.447   0.174   8.233 -1.2465 -1.1150 -0.3218
 3532SOL     OW22057   0.693   3.732   4.751 -0.6741 -0.3668 -0.7345
 3532SOL    HW122058   0.786   3.725   4.772 -0.9495 -0.1477  0.5532
 3532SOL    HW222059   0.682   3.823   4.780  1.0594  0.0564 -1.4041
 3533SOL     OW22060   0.252   3.973   2.033 -0.4270  0.1367 -0.0242
 3533SOL    HW122061   0.192   3.966   1.959 -2.4700  0.5413  1.6041
 3533SOL    HW222062   0.221   4.060   2.059  0.1654  0.6266 -0.9758
 3534SOL     OW22063   1.555   2.765  16.361 -0.3418  0.0777  0.1460
 3534SOL    HW122064   1.596   2.851  16.371 -1.1379  0.1954  2.2666
 3534SOL    HW222065   1.619   2.699  16.386 -0.1284  0.1016 -0.3372
 3535SOL     OW22066   4.053   0.437  12.447 -0.7921  0.3225  0.1056
 3535SOL    HW122067   4.058   0.379  12.524 -0.4170  1.0988  0.6623
 3535SOL    HW222068   3.978   0.493  12.465 -0.4997  0.3903  1.1048
 3536SOL     OW22069   4.493   1.948   4.011  0.3193  0.4313 -0.2544
 3536SOL    HW122070   4.398   1.944   4.004  0.4370 -1.2370 -0.9132
 3536SOL    HW222071   4.513   2.021   3.952 -2.3617  1.7167  0.4247
 3537SOL     OW22072   4.579   1.120   8.245 -0.2749 -0.5782  0.3405
 3537SOL    HW122073   4.585   1.173   8.166  0.0259 -1.1085  0.0098
 3537SOL    HW222074   4.567   1.036   8.202 -2.8063  0.3923 -0.8491
 3538SOL     OW22075   3.944   1.474   4.087  0.4252  0.3888 -0.3325
 3538SOL    HW122076   4.019   1.466   4.145  0.9134 -1.8727 -1.2619
 3538SOL    HW222077   3.951   1.565   4.057 -0.7799  0.4938 -0.2995
 3539SOL     OW22078   2.502   4.531   8.599  0.5032  0.3810 -0.1621
 3539SOL    HW122079   2.522   4.522   8.692 -2.0394 -0.9549  0.2578
 3539SOL    HW222080   2.575   4.475   8.576  0.1522  0.9362 -2.6911
 3540SOL     OW22081   3.247   0.750   0.517  0.0656  0.3478 -0.1952
 3540SOL    HW122082   3.187   0.778   0.586 -1.0182  0.1220 -1.0407
 3540SOL    HW222083   3.328   0.743   0.566  0.0465  0.9098 -0.0782
 3541SOL     OW22084   0.424   0.522   8.403  0.3611  0.4554 -0.3027
 3541SOL    HW122085   0.410   0.541   8.496  1.3692 -1.7963  0.3011
 3541SOL    HW222086   0.508   0.478   8.397 -0.3224 -1.1228  1.8060
 3542SOL     OW22087   4.222   0.320   1.560 -0.5197  0.6908  0.0430
 3542SOL    HW122088   4.265   0.332   1.645 -0.8458  0.3836  0.2521
 3542SOL    HW222089   4.143   0.370   1.583 -1.1428 -0.4274  0.3394
 3543SOL     OW22090   0.108   1.990   2.086  0.3930 -0.2800 -0.5771
 3543SOL    HW122091   0.126   1.901   2.115 -1.6555 -0.9730 -1.4276
 3543SOL    HW222092   0.195   2.016   2.056 -0.0608  1.8509 -0.0848
 3544SOL     OW22093   3.791   2.682  15.175  0.3035  0.1148  0.7075
 3544SOL    HW122094   3.788   2.626  15.097 -1.1167  2.0302 -0.6421
 3544SOL    HW222095   3.698   2.706  15.170  0.4325  0.5748  0.5012
 3545SOL     OW22096   2.658   2.277   7.502 -0.0918  0.4111  0.6297
 3545SOL    HW122097   2.593   2.327   7.550 -0.0686 -0.1786  1.2765
 3545SOL    HW222098   2.738   2.296   7.551  0.8636 -0.4493 -0.5793
 3546SOL     OW22099   0.068   2.450   5.015  0.8817 -0.4275 -0.1102
 3546SOL    HW122100   0.040   2.434   5.105  0.3303  1.6335  0.0947
 3546SOL    HW222101   0.056   2.367   4.969  1.3006 -0.0048 -0.9979
 3547SOL     OW22102   1.699   1.439  11.656  0.0099 -0.4848  0.8794
 3547SOL    HW122103   1.765   1.392  11.706 -0.1649 -0.1773  1.4012
 3547SOL    HW222104   1.729   1.526  11.685 -1.6392  0.3935 -0.0238
 3548SOL     OW22105   2.969   3.964   2.441 -0.2759 -0.7277  0.1320
 3548SOL    HW122106   2.909   3.962   2.366 -2.0401  1.6652  1.5015
 3548SOL    HW222107   3.038   4.021   2.408 -0.4568  0.7691  2.3553
 3549SOL     OW22108   3.011   3.466  11.539  0.2480  0.0757  0.8647
 3549SOL    HW122109   3.094   3.512  11.524  0.2034 -1.0736 -3.0654
 3549SOL    HW222110   3.032   3.400  11.472  1.6456 -0.6825  2.0492
 3550SOL     OW22111   1.667   2.299   5.318  0.0022 -0.1008  0.0496
 3550SOL    HW122112   1.713   2.347   5.249 -0.1369 -2.1412 -1.4724
 3550SOL    HW222113   1.734   2.234   5.340 -2.3138 -1.9248  1.6996
 3551SOL     OW22114   0.708   3.272  15.076 -0.1225 -0.7055  0.8147
 3551SOL    HW122115   0.640   3.331  15.045 -0.3433 -1.6298 -0.4624
 3551SOL    HW222116   0.789   3.324  15.079  0.3857 -1.5023  0.9370
 3552SOL     OW22117   4.197   3.321   3.999  0.5360 -0.4314 -0.2378
 3552SOL    HW122118   4.285   3.284   3.993  0.4550 -0.7899  0.8451
 3552SOL    HW222119   4.146   3.248   3.965  1.5550 -1.6865  0.9493
 3553SOL     OW22120   2.667   2.049   1.341  0.2933 -0.5712  0.0373
 3553SOL    HW122121   2.723   1.973   1.325  1.3572  0.3879 -0.7369
 3553SOL    HW222122   2.583   2.028   1.299 -0.1779  0.8244  0.2921
 3554SOL     OW22123   2.477   0.912   3.923  0.3311 -0.6195  0.1114
 3554SOL    HW122124   2.549   0.862   3.963 -0.2112  0.1567  2.0674
 3554SOL    HW222125   2.408   0.875   3.977 -0.0216 -1.6979 -1.0750
 3555SOL     OW22126   2.310   1.035  10.219 -0.0193  0.1407  0.2716
 3555SOL    HW122127   2.216   1.047  10.230 -0.1606 -0.3745 -0.3954
 3555SOL    HW222128   2.335   1.037  10.127 -0.9684 -0.3860 -0.0012
 3556SOL     OW22129   0.017   1.429   4.957 -0.9389 -0.0752  0.5982
 3556SOL    HW122130   0.108   1.431   4.927 -0.4489  0.9535  2.1334
 3556SOL    HW222131   0.003   1.520   4.984  1.9573  0.1643  1.3050
 3557SOL     OW22132   0.171   2.103  14.701  0.7134  0.2623 -0.1193
 3557SOL    HW122133   0.214   2.152  14.632  0.0936  0.0213 -0.6857
 3557SOL    HW222134   0.154   2.021  14.653  2.6589 -0.1686 -0.0550
 3558SOL     OW22135   3.077   1.435   5.270  0.1587  0.1238 -0.3031
 3558SOL    HW122136   3.130   1.465   5.343  0.1504  2.0604 -1.0821
 3558SOL    HW222137   3.106   1.471   5.186  0.3267 -0.9551 -0.7056
 3559SOL     OW22138   0.217   2.046   0.359  0.5312 -0.0794  0.4282
 3559SOL    HW122139   0.255   2.004   0.282  2.1758  0.0884  1.1364
 3559SOL    HW222140   0.133   2.000   0.360  0.9375 -0.8141  0.2631
 3560SOL     OW22141   1.979   4.569   2.910 -0.1563 -0.5385 -0.1912
 3560SOL    HW122142   1.949   4.658   2.891  1.1738  0.2825  1.5250
 3560SOL    HW222143   1.980   4.564   3.006  1.7583 -2.6505 -0.3229
 3561SOL     OW22144   2.350   2.360   4.722  0.1969  0.0540 -0.1220
 3561SOL    HW122145   2.345   2.452   4.747 -0.7299  0.6545 -2.4930
 3561SOL    HW222146   2.256   2.356   4.703  0.0832 -0.5188  0.5700
 3562SOL     OW22147   1.724   2.516   7.559  0.6090  0.1414  0.0460
 3562SOL    HW122148   1.708   2.495   7.651  1.3362  1.1404  0.4085
 3562SOL    HW222149   1.777   2.446   7.521 -0.3983 -1.2803  1.2774
 3563SOL     OW22150   3.930   4.295   5.017 -0.6210  0.2022 -0.1361
 3563SOL    HW122151   3.949   4.219   5.073  2.1499  0.1027 -1.2030
 3563SOL    HW222152   3.986   4.266   4.945 -1.2988 -1.0640 -0.1668
 3564SOL     OW22153   4.283   1.396   4.990 -0.1122 -0.1345 -0.5624
 3564SOL    HW122154   4.312   1.351   4.910 -0.6690 -0.0125 -0.8289
 3564SOL    HW222155   4.217   1.454   4.953 -0.6569  0.3643  1.2157
 3565SOL     OW22156   1.463   2.818   6.581  0.7530 -0.0001 -0.1181
 3565SOL    HW122157   1.469   2.797   6.487 -1.6130 -2.0608  0.1801
 3565SOL    HW222158   1.542   2.782   6.621  0.0373 -2.1195 -0.6232
 3566SOL     OW22159   2.316   0.741   7.814 -0.2103  0.0525  0.5641
 3566SOL    HW122160   2.234   0.781   7.786  0.5087  0.4865 -0.8986
 3566SOL    HW222161   2.323   0.758   7.908  0.7781 -0.4766  0.5878
 3567SOL     OW22162   1.143   4.670  12.694 -0.1160 -0.3521  0.0302
 3567SOL    HW122163   1.115   4.579  12.686  0.9341 -0.6212 -0.6070
 3567SOL    HW222164   1.148   4.686  12.600  2.3903 -1.2355  0.0114
 3568SOL     OW22165   0.688   4.422   3.689 -0.6269 -0.1079 -0.3937
 3568SOL    HW122166   0.743   4.497   3.668 -1.9618  1.0824  0.3596
 3568SOL    HW222167   0.678   4.458   3.778  0.8271  2.6162 -1.3386
 3569SOL     OW22168   0.147   1.787   9.528  0.4815  0.1984 -0.6508
 3569SOL    HW122169   0.092   1.824   9.597  2.0002 -0.4724  0.9162
 3569SOL    HW222170   0.164   1.859   9.467  1.9125  0.8535  0.5197
 3570SOL     OW22171   2.775   0.358   6.499 -0.3743 -0.3320 -0.1255
 3570SOL    HW122172   2.749   0.449   6.482 -0.8515 -0.4701 -0.1149
 3570SOL    HW222173   2.746   0.323   6.415 -0.5621 -3.1036  1.1093
 3571SOL     OW22174   0.844   2.174   8.914  0.0348  0.1264 -0.5785
 3571SOL    HW122175   0.881   2.250   8.958  2.9692 -2.7478  1.8501
 3571SOL    HW222176   0.755   2.188   8.946 -0.5883 -0.8372 -1.8469
 3572SOL     OW22177   2.988   2.982   2.326  0.0953 -0.0778  0.7297
 3572SOL    HW122178   3.054   2.975   2.257  0.6768 -0.9227  1.3583
 3572SOL    HW222179   2.923   3.043   2.293 -0.9267 -1.3935  0.3113
 3573SOL     OW22180   1.505   0.148   8.735 -0.0828 -0.6170 -0.4964
 3573SOL    HW122181   1.480   0.091   8.807  0.2467  0.8555  0.7853
 3573SOL    HW222182   1.438   0.216   8.745  0.6032 -0.3698  2.3576
 3574SOL     OW22183   2.740   1.720   4.411 -0.0310  0.5248  0.3066
 3574SOL    HW122184   2.648   1.701   4.429  0.3225  0.2834  1.8419
 3574SOL    HW222185   2.786   1.637   4.422 -1.1108 -0.3719 -1.7520
 3575SOL     OW22186   3.945   0.166   7.937 -0.3635  0.1659 -0.0073
 3575SOL    HW122187   3.920   0.075   7.944 -0.5415  0.3468  1.5454
 3575SOL    HW222188   4.035   0.170   7.970 -0.4316 -0.6758  0.2638
 3576SOL     OW22189   4.001   3.845   6.973  0.4381 -0.1115 -0.0914
 3576SOL    HW122190   4.031   3.755   6.964 -1.3350 -0.6250 -0.9001
 3576SOL    HW222191   4.063   3.894   6.919  0.4305  0.9026  0.8303
 3577SOL     OW22192   2.807   1.485   8.701 -0.2092 -0.2013 -0.5794
 3577SOL    HW122193   2.869   1.450   8.637  1.4753  0.2056  0.8425
 3577SOL    HW222194   2.779   1.400   8.735 -0.8421 -0.0699 -0.7763
 3578SOL     OW22195   1.970   2.070   8.190 -0.2486  0.0887  0.0402
 3578SOL    HW122196   1.877   2.091   8.182 -0.2006  0.3788  0.2325
 3578SOL    HW222197   2.001   2.146   8.240  0.5712 -1.2939  1.6289
 3579SOL     OW22198   2.258   4.426   0.733 -0.3324  0.1080  0.7068
 3579SOL    HW122199   2.306   4.492   0.683 -0.0083 -1.2650 -0.8024
 3579SOL    HW222200   2.337   4.403   0.782  0.6871 -0.5411 -1.2273
 3580SOL     OW22201   2.624   1.323  14.856 -0.2318 -0.1603  0.3718
 3580SOL    HW122202   2.556   1.345  14.792  0.1052  0.4496  0.2253
 3580SOL    HW222203   2.699   1.366  14.816  1.8655 -2.9271  1.3278
 3581SOL     OW22204   1.072   1.968  12.008 -0.8146  0.3464  0.3484
 3581SOL    HW122205   1.042   1.970  11.917 -2.4236 -2.5671  0.8090
 3581SOL    HW222206   0.995   2.012  12.043 -0.1043  1.3738  0.5995
 3582SOL     OW22207   2.948   0.797   1.806  0.0530 -0.2153  0.1865
 3582SOL    HW122208   2.927   0.787   1.713  0.4399 -0.0493  0.0838
 3582SOL    HW222209   2.959   0.891   1.813 -0.5779 -0.1394  0.1872
 3583SOL     OW22210   4.581   4.604   8.537  0.3168  0.6113 -0.4958
 3583SOL    HW122211   4.585   4.690   8.579 -0.7241  1.2197 -1.6240
 3583SOL    HW222212   4.535   4.624   8.455 -1.2928 -0.7849  0.0752
 3584SOL     OW22213   3.315   3.858   3.740  0.0986  0.1826 -0.2446
 3584SOL    HW122214   3.359   3.811   3.810  0.3900 -0.2604 -0.7211
 3584SOL    HW222215   3.368   3.859   3.660  0.6568  2.2757  0.1437
 3585SOL     OW22216   2.175   3.849  13.342 -0.4509  0.7884 -0.0174
 3585SOL    HW122217   2.188   3.932  13.388  3.0180  1.1067 -1.5647
 3585SOL    HW222218   2.214   3.871  13.257  0.1484  0.6790  0.2295
 3586SOL     OW22219   4.515   3.045  11.532 -0.4150  0.1979  0.3074
 3586SOL    HW122220   4.487   2.954  11.540 -0.4301  0.0456 -1.5035
 3586SOL    HW222221   4.504   3.073  11.623  2.1376 -1.7797  1.1890
 3587SOL     OW22222   1.403   0.356   2.932 -0.0966 -0.4176 -0.1141
 3587SOL    HW122223   1.349   0.334   3.008 -2.0615 -0.5140 -1.5386
 3587SOL    HW222224   1.392   0.451   2.940  2.3745 -0.0191 -1.2740
 3588SOL     OW22225   0.642   0.371   7.738  0.3673  0.7111 -0.4413
 3588SOL    HW122226   0.628   0.389   7.831  1.2715 -0.5584 -0.0552
 3588SOL    HW222227   0.569   0.316   7.711 -0.4464  0.9191  1.2996
 3589SOL     OW22228   0.440   0.568   2.706  0.5954 -0.3367 -0.6153
 3589SOL    HW122229   0.461   0.661   2.711  1.8715 -0.6763  0.1102
 3589SOL    HW222230   0.517   0.542   2.655 -1.0166 -1.9260 -2.2953
 3590SOL     OW22231   3.618   2.399   7.178 -0.6342 -0.8087  0.3332
 3590SOL    HW122232   3.589   2.440   7.259  1.3393  0.4011  0.4122
 3590SOL    HW222233   3.680   2.463   7.145 -0.6444 -0.5287  0.8696
 3591SOL     OW22234   2.435   3.165   5.033 -0.5668  0.6640  0.6759
 3591SOL    HW122235   2.409   3.146   5.122 -0.9349 -1.5957  0.0980
 3591SOL    HW222236   2.493   3.241   5.042 -1.3764  1.1333  1.8786
 3592SOL     OW22237   3.423   2.929  10.039 -0.3122 -0.0476 -0.7323
 3592SOL    HW122238   3.459   2.882   9.963  0.0477  1.5790 -1.5653
 3592SOL    HW222239   3.336   2.890  10.045  0.1220 -0.6044  1.9291
 3593SOL     OW22240   3.071   1.552   6.962  0.6031 -0.5297 -0.4874
 3593SOL    HW122241   3.052   1.502   7.041  1.6701  0.1028  0.1702
 3593SOL    HW222242   3.114   1.630   6.998 -0.9484 -1.1971  2.7760
 3594SOL     OW22243   4.291   0.815   1.661 -0.2219  0.2409 -0.1919
 3594SOL    HW122244   4.370   0.761   1.649  1.6864  2.4826  2.1585
 3594SOL    HW222245   4.270   0.839   1.571 -2.4455  2.8130  1.0266
 3595SOL     OW22246   0.038   4.332   7.128 -0.6737 -0.4873  0.2847
 3595SOL    HW122247   0.098   4.390   7.175  0.4390 -1.4910  0.0978
 3595SOL    HW222248   0.103   4.279   7.081 -0.0891 -0.5341  1.1424
 3596SOL     OW22249   0.554   1.693  10.499 -0.4787  0.0366 -0.1232
 3596SOL    HW122250   0.482   1.649  10.454  1.0093 -3.4881  0.9348
 3596SOL    HW222251   0.522   1.694  10.589 -0.9485 -3.2064 -0.2549
 3597SOL     OW22252   1.296   1.070   8.321  0.3048 -0.4882  1.0449
 3597SOL    HW122253   1.371   1.023   8.285 -1.9436 -1.8141 -1.9401
 3597SOL    HW222254   1.224   1.009   8.300 -0.8632  1.7056 -1.2479
 3598SOL     OW22255   4.388   1.256   2.816 -0.3239 -0.0436  0.0421
 3598SOL    HW122256   4.319   1.270   2.752 -0.5285  1.1656  0.5247
 3598SOL    HW222257   4.408   1.164   2.799  0.1837  0.1737 -0.4994
 3599SOL     OW22258   2.077   1.701  11.725  0.4659  0.0264 -0.3036
 3599SOL    HW122259   2.125   1.761  11.781 -0.5119  1.0900 -0.5971
 3599SOL    HW222260   2.143   1.644  11.685  0.6265  1.1175 -1.5884
 3600SOL     OW22261   2.700   1.424   1.121  0.0518  0.3054 -0.3262
 3600SOL    HW122262   2.632   1.396   1.060  0.0099  2.0547 -1.0847
 3600SOL    HW222263   2.768   1.357   1.125 -1.5977 -1.4571 -1.4429
 3601SOL     OW22264   0.717   3.721  13.273 -0.2299  0.0633 -0.0466
 3601SOL    HW122265   0.659   3.788  13.237 -1.9038 -0.8878  0.8946
 3601SOL    HW222266   0.799   3.761  13.244  0.3054 -0.7308  0.3891
 3602SOL     OW22267   1.990   4.498   3.167  0.4251  0.1425 -0.0323
 3602SOL    HW122268   1.906   4.452   3.176 -0.6860  2.1472 -0.1421
 3602SOL    HW222269   2.048   4.422   3.172  1.3679  0.7747 -1.2869
 3603SOL     OW22270   0.937   3.763   7.005  0.2947  0.0084 -0.0822
 3603SOL    HW122271   1.030   3.783   7.018  0.3864 -0.1658 -0.4652
 3603SOL    HW222272   0.901   3.727   7.086 -0.5491 -0.2650 -0.5814
 3604SOL     OW22273   2.581   2.296   4.612  0.2922  0.2424 -0.1462
 3604SOL    HW122274   2.578   2.386   4.579  2.3287  0.4982  0.3709
 3604SOL    HW222275   2.494   2.300   4.651  0.7205  0.3652  0.8068
 3605SOL     OW22276   1.486   1.378   6.150  0.1118  0.6743 -0.5229
 3605SOL    HW122277   1.483   1.289   6.184 -0.4642  0.7989 -0.2491
 3605SOL    HW222278   1.492   1.359   6.057 -1.9622  0.6063 -0.6328
 3606SOL     OW22279   0.630   2.351   8.390  0.1731 -0.1890 -0.4859
 3606SOL    HW122280   0.549   2.305   8.366 -0.2045  0.6021 -0.7341
 3606SOL    HW222281   0.659   2.305   8.469  0.5306  1.3314  0.2600
 3607SOL     OW22282   2.875   4.673   5.637 -0.7535  0.1536  0.3498
 3607SOL    HW122283   2.856   0.015   5.705  1.5789  0.1354  1.0314
 3607SOL    HW222284   2.843   4.596   5.685  0.2936  0.8967  2.2585
 3608SOL     OW22285   3.746   4.701   8.962  0.6687 -0.0823 -0.8394
 3608SOL    HW122286   3.776   4.616   8.930 -0.4795 -0.2101 -1.5445
 3608SOL    HW222287   3.652   4.695   8.944 -0.0637  0.3220  2.8770
 3609SOL     OW22288   1.453   4.091   4.481 -0.9016  0.7576  0.0488
 3609SOL    HW122289   1.478   4.004   4.510  1.8738  1.2899 -0.7174
 3609SOL    HW222290   1.359   4.090   4.502 -1.0520 -0.4566 -0.6970
 3610SOL     OW22291   2.709   1.298  11.275  0.0115  0.2292  0.0635
 3610SOL    HW122292   2.642   1.240  11.241 -0.4938 -0.0827  1.5691
 3610SOL    HW222293   2.658   1.378  11.292  0.2997  0.7085 -1.3405
 3611SOL     OW22294   0.963   4.645   2.073  0.0664  0.7205  0.2264
 3611SOL    HW122295   0.890   4.657   2.011 -0.8325 -0.2139  1.1156
 3611SOL    HW222296   0.925   4.632   2.159  0.4409 -1.9303  0.0042
 3612SOL     OW22297   1.121   1.889   0.425  0.6564 -0.0305  0.3127
 3612SOL    HW122298   1.132   1.941   0.505 -0.6436 -1.3017  1.3308
 3612SOL    HW222299   1.211   1.902   0.395  0.4840 -1.4467 -0.8348
 3613SOL     OW22300   3.142   3.014   1.074  0.2380 -0.2638 -0.2629
 3613SOL    HW122301   3.114   2.923   1.073 -1.0548  0.1095  1.0197
 3613SOL    HW222302   3.208   3.005   1.142 -0.3345 -1.8377  0.0816
 3614SOL     OW22303   3.247   2.279   6.796 -0.0818 -0.3051  0.1792
 3614SOL    HW122304   3.268   2.224   6.871  0.4446  0.9372  0.9452
 3614SOL    HW222305   3.309   2.255   6.727 -1.8344  0.0554 -1.5141
 3615SOL     OW22306   1.062   0.096   9.391  0.0679 -0.4254  0.1930
 3615SOL    HW122307   1.046   0.068   9.301  0.3370 -2.0940  0.6815
 3615SOL    HW222308   1.150   0.069   9.415  0.5378  0.7604 -0.1735
 3616SOL     OW22309   0.314   4.531   0.664  0.0530 -0.2367  0.1854
 3616SOL    HW122310   0.375   4.481   0.610  1.9291  1.9144  0.3227
 3616SOL    HW222311   0.244   4.556   0.603  1.2278  0.8937 -0.6970
 3617SOL     OW22312   3.611   4.544   9.789 -0.2188 -0.3789  0.1888
 3617SOL    HW122313   3.538   4.482   9.794 -0.1076 -0.5438 -0.2311
 3617SOL    HW222314   3.611   4.560   9.884  0.1700  1.2759 -0.0965
 3618SOL     OW22315   2.901   2.332   3.295  0.1582 -0.2023 -0.0217
 3618SOL    HW122316   2.949   2.316   3.377 -3.0087  1.4321  2.1737
 3618SOL    HW222317   2.908   2.244   3.259 -1.8848  0.5450 -2.2586
 3619SOL     OW22318   1.201   2.220  13.460 -0.4329  0.2364 -0.1578
 3619SOL    HW122319   1.217   2.313  13.441 -0.3726  0.1901 -0.3304
 3619SOL    HW222320   1.260   2.214  13.536 -1.3578  0.1173  0.5490
 3620SOL     OW22321   0.440   3.945   3.253 -0.1425  0.4786  0.3529
 3620SOL    HW122322   0.426   3.933   3.159 -3.7965 -0.8400  1.0501
 3620SOL    HW222323   0.374   4.013   3.268 -0.7548 -0.2715  1.0628
 3621SOL     OW22324   1.422   0.756   0.855  0.0189  0.7096  0.1041
 3621SOL    HW122325   1.442   0.744   0.947 -5.0792  0.6806  1.2067
 3621SOL    HW222326   1.343   0.705   0.839  0.3272  0.3387 -0.2369
 3622SOL     OW22327   4.138   3.152   6.820  0.7683 -0.5397 -0.2162
 3622SOL    HW122328   4.218   3.199   6.796 -0.3075  0.3108 -2.1876
 3622SOL    HW222329   4.070   3.217   6.836  1.4471  0.0001  0.4425
 3623SOL     OW22330   4.679   4.348  15.415 -0.2829  0.7275  0.2364
 3623SOL    HW122331   4.601   4.296  15.393  1.6686 -1.7613 -0.8781
 3623SOL    HW222332   0.007   4.338  15.334  1.2869  2.9248  0.9780
 3624SOL     OW22333   2.953   3.604   2.509  0.1043  0.3747 -0.4641
 3624SOL    HW122334   2.947   3.605   2.414  0.3322 -1.0865 -0.4924
 3624SOL    HW222335   2.942   3.696   2.532 -1.8381 -0.4067  1.8838
 3625SOL     OW22336   1.599   3.469   6.802 -0.1161  0.0319 -0.2301
 3625SOL    HW122337   1.643   3.532   6.744 -1.9742  0.7818 -0.8203
 3625SOL    HW222338   1.509   3.471   6.773  0.2036  0.0062 -1.2049
 3626SOL     OW22339   3.474   4.288   0.633  0.1706 -0.0097  1.0449
 3626SOL    HW122340   3.450   4.229   0.562  1.5854  1.5755 -0.7435
 3626SOL    HW222341   3.561   4.252   0.651  0.6005  0.4607 -0.0793
 3627SOL     OW22342   0.961   2.375   1.898  0.6185  0.3189 -0.3747
 3627SOL    HW122343   0.901   2.428   1.845  0.1117 -0.3033 -0.4268
 3627SOL    HW222344   1.012   2.332   1.829 -0.3154 -0.5701 -0.5056
 3628SOL     OW22345   2.549   3.585   2.657 -0.8734 -0.3760  0.1267
 3628SOL    HW122346   2.535   3.493   2.682  2.0687  0.0450  3.1865
 3628SOL    HW222347   2.571   3.632   2.737 -1.5113  1.9221 -1.0481
 3629SOL     OW22348   1.615   0.036   6.978  0.1065 -0.1831 -0.0038
 3629SOL    HW122349   1.676   4.699   7.021  0.8859  0.4385 -0.2316
 3629SOL    HW222350   1.618   0.102   7.047  2.6457  0.5000 -0.7399
 3630SOL     OW22351   4.048   0.764  17.375 -0.3143  0.4106  0.7195
 3630SOL    HW122352   4.126   0.795  17.421  0.2983  0.1172 -0.1211
 3630SOL    HW222353   4.063   0.798  17.287  0.9217  1.2674  1.2682
 3631SOL     OW22354   2.314   3.803  11.869 -0.0284  0.7691 -0.1333
 3631SOL    HW122355   2.225   3.834  11.885  0.0673 -0.2680  2.4486
 3631SOL    HW222356   2.310   3.828  11.776 -1.9939 -2.2091 -0.8437
 3632SOL     OW22357   2.178   3.848   9.147 -0.0649 -1.3235  0.3848
 3632SOL    HW122358   2.114   3.777   9.157 -0.3336 -1.3275 -1.3485
 3632SOL    HW222359   2.191   3.883   9.235  2.1374  0.9200 -0.8470
 3633SOL     OW22360   2.403   2.092   1.248 -0.3819  0.1661  0.6303
 3633SOL    HW122361   2.406   2.160   1.315 -0.7836  1.1435 -0.3212
 3633SOL    HW222362   2.319   2.049   1.264 -0.9667  0.8612 -0.5468
 3634SOL     OW22363   1.828   0.671  11.217  0.6407  0.1083 -0.1991
 3634SOL    HW122364   1.746   0.638  11.256 -1.3423  2.9684 -1.9567
 3634SOL    HW222365   1.886   0.599  11.243 -0.9479 -1.4457 -0.8921
 3635SOL     OW22366   1.069   3.582   6.690 -0.0898  0.1111  0.1572
 3635SOL    HW122367   1.058   3.664   6.738 -0.8326  0.0516  0.0815
 3635SOL    HW222368   0.984   3.539   6.685 -0.5723  0.9016  1.5457
 3636SOL     OW22369   0.589   1.535   5.440 -0.6602  0.0939  0.0817
 3636SOL    HW122370   0.667   1.534   5.495 -0.6658  0.3017  0.0935
 3636SOL    HW222371   0.576   1.441   5.439 -0.1370  0.0244 -0.1708
 3637SOL     OW22372   1.577   4.463   4.478  0.4210 -0.5876 -0.0743
 3637SOL    HW122373   1.506   4.402   4.495 -0.8715  1.1147  0.5978
 3637SOL    HW222374   1.615   4.470   4.565  1.4103  0.1855 -0.5614
 3638SOL     OW22375   1.211   3.219   7.498  0.3344 -0.4000  0.2613
 3638SOL    HW122376   1.295   3.185   7.468  1.0385 -0.1796  1.9863
 3638SOL    HW222377   1.173   3.219   7.409  3.2198 -1.2372 -0.9546
 3639SOL     OW22378   0.052   1.079   4.497  0.2375 -0.0469  0.0069
 3639SOL    HW122379   0.000   1.012   4.451  1.5095 -0.4651 -0.8191
 3639SOL    HW222380   0.007   1.087   4.581  0.8488  1.0069  0.2315
 3640SOL     OW22381   1.372   0.904  13.753 -0.1126  0.7031  0.2282
 3640SOL    HW122382   1.339   0.943  13.672  1.0687  3.6748  1.1738
 3640SOL    HW222383   1.330   0.958  13.819 -1.8689  0.5253 -0.7576
 3641SOL     OW22384   0.707   3.036  11.496 -0.2423  0.3236 -0.1354
 3641SOL    HW122385   0.728   2.964  11.436  2.2857  0.9807 -0.0426
 3641SOL    HW222386   0.662   3.097  11.438 -0.7411 -0.6661 -0.7971
 3642SOL     OW22387   3.369   0.892   4.038 -0.7107 -0.0772 -0.3700
 3642SOL    HW122388   3.299   0.834   4.068 -1.0940  1.4369  1.6331
 3642SOL    HW222389   3.421   0.899   4.118  1.3364  0.1987 -1.7112
 3643SOL     OW22390   1.104   2.253   4.694 -0.5523  0.3050 -0.3293
 3643SOL    HW122391   1.053   2.175   4.715  0.0334 -0.6100 -2.2545
 3643SOL    HW222392   1.078   2.304   4.771 -0.1789 -1.8028  1.1830
 3644SOL     OW22393   2.081   2.311   4.633 -0.4126  0.0963  0.2599
 3644SOL    HW122394   2.035   2.364   4.699  0.2265 -1.1398  1.7079
 3644SOL    HW222395   2.116   2.386   4.585 -0.4911 -0.0510 -0.0214
 3645SOL     OW22396   4.550   2.549   7.229  0.2098 -0.1366 -0.1681
 3645SOL    HW122397   4.538   2.455   7.237 -0.2789 -0.1188 -0.6918
 3645SOL    HW222398   4.622   2.574   7.287 -0.4842  0.4863  0.4316
 3646SOL     OW22399   4.461   0.660   1.518  0.1577  0.1427 -0.0513
 3646SOL    HW122400   4.529   0.721   1.488  0.0869 -0.3718 -1.2687
 3646SOL    HW222401   4.418   0.627   1.439  0.0187 -0.9736  0.4876
 3647SOL     OW22402   3.220   3.892  16.172 -0.0227  0.1893  0.0773
 3647SOL    HW122403   3.128   3.868  16.180  0.3239 -1.0056  0.4338
 3647SOL    HW222404   3.240   3.895  16.079 -2.6586  0.6559 -0.4804
 3648SOL     OW22405   2.130   1.044  13.977  0.1288  0.2325 -0.2541
 3648SOL    HW122406   2.074   1.113  14.013 -0.9994 -0.3479 -0.9206
 3648SOL    HW222407   2.099   0.980  14.042  0.6076  1.3240  1.0668
 3649SOL     OW22408   1.539   1.957   4.468 -0.1609  0.0848 -0.0146
 3649SOL    HW122409   1.600   2.021   4.431  1.2558 -0.6794  0.9806
 3649SOL    HW222410   1.466   2.019   4.468 -0.2392 -0.0178  1.8156
 3650SOL     OW22411   1.488   4.671  16.238  0.6685 -0.0471 -0.1028
 3650SOL    HW122412   1.489   4.575  16.230 -0.2903 -0.0860  0.2484
 3650SOL    HW222413   1.410   4.673  16.183 -1.0097 -0.0424  2.2986
 3651SOL     OW22414   3.515   3.513   6.735 -0.1886  0.9037 -0.1687
 3651SOL    HW122415   3.454   3.439   6.744 -1.2992  1.8443  0.0056
 3651SOL    HW222416   3.565   3.487   6.657 -1.1252 -2.3694  0.3019
 3652SOL     OW22417   0.752   4.258   0.896 -0.6244 -0.3222  0.0490
 3652SOL    HW122418   0.701   4.221   0.824 -0.5878  0.6885 -0.5031
 3652SOL    HW222419   0.794   4.336   0.859  0.4671 -0.1671  1.6126
 3653SOL     OW22420   2.925   2.980  15.547  0.4709 -0.3456 -0.0941
 3653SOL    HW122421   2.988   2.998  15.617 -0.3519 -2.4985  1.2024
 3653SOL    HW222422   2.911   3.069  15.516 -1.9197 -1.8384 -3.2538
 3654SOL     OW22423   0.993   1.939   2.926 -0.1038 -0.2271 -0.0577
 3654SOL    HW122424   1.026   1.856   2.893  2.0747  0.0540  1.4717
 3654SOL    HW222425   0.911   1.953   2.878  0.1248  0.3997 -0.2642
 3655SOL     OW22426   4.254   2.122   3.942  0.0991  0.4472  0.1187
 3655SOL    HW122427   4.165   2.157   3.951  0.5208  1.5079  0.2077
 3655SOL    HW222428   4.272   2.120   4.036 -3.9052  2.4088  0.9240
 3656SOL     OW22429   3.384   0.267   1.774  0.0489 -0.2513  0.3097
 3656SOL    HW122430   3.442   0.238   1.703 -2.2349 -1.9108 -0.8674
 3656SOL    HW222431   3.449   0.266   1.845 -1.9216 -0.1802  2.0933
 3657SOL     OW22432   2.565   3.896  10.723  0.8131 -0.4818  0.2274
 3657SOL    HW122433   2.554   3.811  10.680  0.3066 -0.3515  0.0993
 3657SOL    HW222434   2.650   3.885  10.766  1.0247  0.9857  0.1968
 3658SOL     OW22435   4.465   4.693   1.098  0.4296  0.2771  0.2965
 3658SOL    HW122436   4.414   4.612   1.096  2.5866 -1.0911  0.3304
 3658SOL    HW222437   4.543   4.674   1.150  0.8646 -0.2961 -0.5712
 3659SOL     OW22438   1.147   4.477   2.429  0.1755 -0.1789 -0.5809
 3659SOL    HW122439   1.103   4.464   2.513  2.4194  1.5529  0.8636
 3659SOL    HW222440   1.138   4.572   2.421 -0.3518 -0.2748 -1.1677
 3660SOL     OW22441   3.999   3.450  10.899 -1.0821 -0.4734 -0.0217
 3660SOL    HW122442   4.044   3.514  10.844  0.5057  0.2620  2.1211
 3660SOL    HW222443   4.070   3.422  10.957 -0.5896 -3.0998 -1.9543
 3661SOL     OW22444   1.619   3.160  15.265  0.1648  0.0025  0.1549
 3661SOL    HW122445   1.678   3.213  15.211  1.4247 -0.7093  0.8429
 3661SOL    HW222446   1.628   3.203  15.350 -0.8228 -1.0261  0.7848
 3662SOL     OW22447   4.238   0.557   2.553 -0.1814 -0.1492  1.0456
 3662SOL    HW122448   4.232   0.553   2.458  2.2548  0.8736  0.8412
 3662SOL    HW222449   4.298   0.484   2.569  0.2285  0.3552  1.8184
 3663SOL     OW22450   4.700   4.489   3.388 -0.2887  0.1099 -0.1051
 3663SOL    HW122451   4.627   4.509   3.446 -1.2854 -0.3082 -1.2152
 3663SOL    HW222452   0.013   4.412   3.433 -0.7207 -0.1814 -0.2516
 3664SOL     OW22453   3.255   0.483   1.062  0.6428  0.1226  0.4022
 3664SOL    HW122454   3.215   0.404   1.099 -2.1851  1.3176 -0.1420
 3664SOL    HW222455   3.331   0.498   1.119  0.1355 -0.8948  1.3477
 3665SOL     OW22456   4.445   3.827   5.861 -0.1549  0.8214  0.1111
 3665SOL    HW122457   4.353   3.851   5.853 -0.4455 -0.6539 -0.9262
 3665SOL    HW222458   4.465   3.786   5.777  2.3030  0.6779  0.7514
 3666SOL     OW22459   3.314   0.186   2.517 -0.1646 -0.3955  0.0509
 3666SOL    HW122460   3.321   0.263   2.461 -0.3519 -1.7551 -1.8110
 3666SOL    HW222461   3.409   0.173   2.526  0.1059  1.1318 -0.6045
 3667SOL     OW22462   0.651   2.915   6.569  0.1715  0.1525 -0.0878
 3667SOL    HW122463   0.629   2.826   6.541  0.8525  0.0630 -0.3445
 3667SOL    HW222464   0.655   2.968   6.489  0.8006  2.0349  1.2111
 3668SOL     OW22465   0.314   0.623  12.360  0.1770 -0.1608 -0.0340
 3668SOL    HW122466   0.355   0.625  12.446  1.3640  1.3788 -0.6393
 3668SOL    HW222467   0.396   0.617  12.311  0.4031  0.3680  0.2803
 3669SOL     OW22468   4.131   2.579   3.513  0.0979  0.0823  0.3374
 3669SOL    HW122469   4.103   2.545   3.428 -1.0808  0.1001  0.7278
 3669SOL    HW222470   4.189   2.647   3.478 -1.6544  0.5564 -1.6762
 3670SOL     OW22471   0.586   4.330   9.308  0.1732 -0.5007  0.2188
 3670SOL    HW122472   0.549   4.242   9.305  1.7621 -1.2599  2.9684
 3670SOL    HW222473   0.559   4.357   9.396  0.9811  1.0188 -0.0086
 3671SOL     OW22474   2.248   1.850  11.880 -0.0990  0.4807  0.4062
 3671SOL    HW122475   2.234   1.767  11.927 -0.1495  0.0615 -0.3497
 3671SOL    HW222476   2.339   1.836  11.852 -0.4138 -0.0726 -0.3533
 3672SOL     OW22477   0.966   4.058   0.882  0.1829 -0.4374  0.4783
 3672SOL    HW122478   1.022   4.050   0.959  0.8783  0.6485  0.0910
 3672SOL    HW222479   0.890   4.108   0.911  0.4915 -0.2547  0.9651
 3673SOL     OW22480   4.668   1.559  16.146  0.3785 -0.0153 -0.1398
 3673SOL    HW122481   0.021   1.556  16.203 -1.6532 -0.6193  2.6154
 3673SOL    HW222482   4.613   1.495  16.192  1.7431  0.1439  1.6968
 3674SOL     OW22483   2.619   0.442   8.884 -0.3147 -0.3769 -0.2468
 3674SOL    HW122484   2.706   0.438   8.923  0.2626  1.5544 -1.3525
 3674SOL    HW222485   2.563   0.503   8.932 -1.7590 -1.9573  0.0725
 3675SOL     OW22486   2.547   2.239  13.881  0.5692  0.2692 -0.5156
 3675SOL    HW122487   2.613   2.179  13.914  1.6834  1.0939 -1.2146
 3675SOL    HW222488   2.598   2.303  13.831  1.3995  0.1929  0.2465
 3676SOL     OW22489   1.136   0.460   8.535  0.4647 -0.3361 -0.1807
 3676SOL    HW122490   1.150   0.409   8.615 -0.8647  0.3103  0.4582
 3676SOL    HW222491   1.139   0.553   8.558  0.6985 -0.5725  0.7647
 3677SOL     OW22492   2.583   3.100   8.080  0.0361  0.5309  0.6442
 3677SOL    HW122493   2.513   3.040   8.108  0.5921 -1.0328 -1.3142
 3677SOL    HW222494   2.574   3.171   8.143 -1.7599  0.1463  0.8326
 3678SOL     OW22495   3.857   3.470  13.636 -0.2723 -0.0538  0.9064
 3678SOL    HW122496   3.800   3.547  13.641  1.6551  1.4338  0.1032
 3678SOL    HW222497   3.904   3.471  13.719 -0.5336 -1.8360  1.0697
 3679SOL     OW22498   0.868   3.815   6.158 -0.0559  0.3437 -0.2487
 3679SOL    HW122499   0.858   3.788   6.067 -1.4981 -0.7656  0.2416
 3679SOL    HW222500   0.816   3.895   6.156 -0.2431  0.2451  0.7030
 3680SOL     OW22501   1.933   1.044   9.321  0.0561 -0.2633  0.3602
 3680SOL    HW122502   1.993   1.118   9.323  0.0632 -0.2163 -1.8223
 3680SOL    HW222503   1.916   1.021   9.413 -1.5771 -0.9994 -0.1167
 3681SOL     OW22504   2.320   1.685   7.017  0.3855 -0.0683  0.0114
 3681SOL    HW122505   2.298   1.594   6.996 -3.4418  0.7878  0.2687
 3681SOL    HW222506   2.242   1.701   7.071  1.0542 -0.8767  1.2205
 3682SOL     OW22507   3.695   1.381   3.168 -0.7289 -0.0811  0.0907
 3682SOL    HW122508   3.667   1.324   3.239 -0.5328 -0.8046 -0.4131
 3682SOL    HW222509   3.631   1.452   3.162 -0.0485  0.4945 -0.2465
 3683SOL     OW22510   3.195   3.041   7.468  0.0824  0.2118  0.3217
 3683SOL    HW122511   3.141   3.036   7.547 -0.4813 -2.0810 -0.2277
 3683SOL    HW222512   3.185   2.950   7.442  1.8179 -0.4064  1.7979
 3684SOL     OW22513   4.519   0.966   7.560  0.4308  0.7944 -0.0208
 3684SOL    HW122514   4.462   1.042   7.556  2.7624  2.4285 -2.3370
 3684SOL    HW222515   4.465   0.889   7.544  0.6716  0.6050  0.0701
 3685SOL     OW22516   3.017   2.099   3.774  0.0128  0.0421 -0.0335
 3685SOL    HW122517   2.981   2.052   3.699  0.0675  0.5788 -0.3965
 3685SOL    HW222518   2.956   2.072   3.843  0.6205  0.5873  0.7243
 3686SOL     OW22519   0.195   1.053  14.030 -0.6413 -0.1930  0.0423
 3686SOL    HW122520   0.202   1.040  14.125  1.6025  1.2892  0.0816
 3686SOL    HW222521   0.286   1.041  14.003 -0.3216 -0.6908  1.3180
 3687SOL     OW22522   3.128   2.770   5.331  0.1803 -0.0778  0.6091
 3687SOL    HW122523   3.153   2.750   5.241  0.7680  0.9926  0.5363
 3687SOL    HW222524   3.083   2.852   5.313  0.3065  0.0922  1.0833
 3688SOL     OW22525   3.077   4.308   4.065  0.1405 -0.3162  0.4866
 3688SOL    HW122526   3.033   4.233   4.105 -1.1153  0.5977  0.8043
 3688SOL    HW222527   3.142   4.265   4.009 -0.6618 -0.5671 -0.2485
 3689SOL     OW22528   2.745   2.024   7.972  0.2952  0.1583  0.2065
 3689SOL    HW122529   2.761   1.942   7.925 -0.1794 -0.0810  0.4653
 3689SOL    HW222530   2.662   2.044   7.929  0.2569  0.1309  0.2689
 3690SOL     OW22531   1.148   1.423   2.905  0.0584  0.6311 -0.2754
 3690SOL    HW122532   1.139   1.516   2.884 -1.1535  0.3895 -0.8349
 3690SOL    HW222533   1.072   1.406   2.960  0.4027 -0.1560 -0.0407
 3691SOL     OW22534   1.744   1.750   6.452  0.1573 -0.9751  0.9020
 3691SOL    HW122535   1.652   1.742   6.427  0.2152 -2.4450  1.1911
 3691SOL    HW222536   1.760   1.658   6.470  0.3693 -0.6817  2.2371
 3692SOL     OW22537   1.187   2.726   5.675 -0.1627 -0.0530  0.2730
 3692SOL    HW122538   1.247   2.785   5.630 -0.4093  1.0388  1.4091
 3692SOL    HW222539   1.191   2.758   5.765 -0.5322 -0.5585  0.4728
 3693SOL     OW22540   3.441   2.172   8.274 -0.0961 -0.1148  0.5283
 3693SOL    HW122541   3.351   2.150   8.251  0.6131  0.5337 -2.8929
 3693SOL    HW222542   3.452   2.106   8.342 -1.2154 -0.6560  0.1871
 3694SOL     OW22543   2.286   2.062   3.488 -0.4339 -0.1685  0.6335
 3694SOL    HW122544   2.235   1.983   3.506 -0.6976  0.0147  0.6981
 3694SOL    HW222545   2.279   2.061   3.393  0.7234 -4.6270  0.6175
 3695SOL     OW22546   2.718   0.987   3.085 -0.4035  0.0230 -0.3332
 3695SOL    HW122547   2.774   0.985   3.163  0.6675 -0.5768 -1.1112
 3695SOL    HW222548   2.745   1.075   3.055 -1.1109  0.4016  0.1527
 3696SOL     OW22549   1.207   1.298   6.268  0.4919 -0.6974  0.2782
 3696SOL    HW122550   1.258   1.356   6.213 -1.8896  1.3731  0.2685
 3696SOL    HW222551   1.174   1.235   6.204 -1.0620  0.3727  0.0366
 3697SOL     OW22552   2.574   3.714   1.493 -0.2659  0.4432  0.0443
 3697SOL    HW122553   2.654   3.661   1.492  0.9349  2.2754 -0.2419
 3697SOL    HW222554   2.510   3.657   1.449  0.4472  1.4853 -2.3705
 3698SOL     OW22555   1.878   1.592   5.602 -0.1051 -0.2904  0.5613
 3698SOL    HW122556   1.955   1.558   5.557  1.1756  2.0519  0.9858
 3698SOL    HW222557   1.906   1.683   5.605  0.6875 -0.4722 -1.9441
 3699SOL     OW22558   3.167   2.739   5.594  0.3042 -0.0027  0.0709
 3699SOL    HW122559   3.218   2.817   5.617 -1.6698  1.0213  1.0128
 3699SOL    HW222560   3.143   2.756   5.503 -1.5380 -2.1977  0.1429
 3700SOL     OW22561   0.902   1.386  10.670 -0.4354 -0.3787  0.5212
 3700SOL    HW122562   0.976   1.421  10.718 -0.7221 -1.1966  1.5773
 3700SOL    HW222563   0.828   1.443  10.692 -1.7817 -1.5100 -1.0237
 3701SOL     OW22564   4.645   4.296   4.199 -0.1531  0.4528 -0.1415
 3701SOL    HW122565   4.668   4.328   4.112  0.0608 -0.7993 -0.5521
 3701SOL    HW222566   4.559   4.332   4.218 -0.3589 -0.6805  1.0789
 3702SOL     OW22567   3.933   4.019   5.150 -0.1219 -0.1001 -0.0775
 3702SOL    HW122568   3.922   3.941   5.205 -0.5504  0.6365  0.8794
 3702SOL    HW222569   3.979   3.986   5.073 -0.7936  1.8957 -1.3269
 3703SOL     OW22570   1.881   4.287   9.319 -0.0590 -0.0214  0.2603
 3703SOL    HW122571   1.905   4.196   9.299 -0.1313  0.4659 -1.9765
 3703SOL    HW222572   1.830   4.281   9.400  2.1329 -3.0463  1.4329
 3704SOL     OW22573   3.956   2.307   5.400 -0.4390 -0.4707 -0.2280
 3704SOL    HW122574   3.960   2.396   5.436 -0.6404 -1.2045  1.6560
 3704SOL    HW222575   3.869   2.310   5.362  0.0156  6.9452 -0.7168
 3705SOL     OW22576   1.081   1.133   6.639 -0.3601 -0.6799  0.4261
 3705SOL    HW122577   1.134   1.186   6.700 -1.0065  0.0123  0.3904
 3705SOL    HW222578   1.138   1.105   6.568  0.8902  0.7990  0.8351
 3706SOL     OW22579   0.380   2.819   4.318  0.1284 -0.2148  0.3582
 3706SOL    HW122580   0.379   2.740   4.264 -1.6215  0.2041 -0.1960
 3706SOL    HW222581   0.428   2.881   4.264  0.1213 -2.4409 -2.1723
 3707SOL     OW22582   2.813   3.029   4.818 -0.0742  0.1139  0.1916
 3707SOL    HW122583   2.859   3.105   4.853  2.3580  0.4455 -3.7560
 3707SOL    HW222584   2.881   2.973   4.781 -0.9564 -0.4311 -0.5759
 3708SOL     OW22585   0.608   3.322   2.957 -0.0287 -0.0266  0.3945
 3708SOL    HW122586   0.625   3.305   2.865  3.5590  0.9523  0.8717
 3708SOL    HW222587   0.697   3.351   2.976  0.8876 -0.6347 -2.9804
 3709SOL     OW22588   4.189   1.394   6.718  0.1767  0.4322  0.1951
 3709SOL    HW122589   4.158   1.432   6.800 -1.1439 -0.5302  0.1404
 3709SOL    HW222590   4.280   1.393   6.748 -0.0626 -0.9599  0.8829
 3710SOL     OW22591   1.370   0.279   4.819  0.4035 -0.4835  0.0674
 3710SOL    HW122592   1.298   0.335   4.789  1.6810  0.5098 -1.1034
 3710SOL    HW222593   1.426   0.279   4.742 -1.2408 -0.2866 -1.1190
 3711SOL     OW22594   3.768   0.636  17.142  0.3475 -0.1737  0.0722
 3711SOL    HW122595   3.675   0.620  17.160  0.2391 -0.2540 -0.5241
 3711SOL    HW222596   3.811   0.551  17.146  0.9239  0.0001 -2.2304
 3712SOL     OW22597   2.208   3.751  11.119  0.3322  0.1256 -0.2390
 3712SOL    HW122598   2.209   3.763  11.024  0.8002 -1.5068 -0.4553
 3712SOL    HW222599   2.251   3.666  11.128  1.6732  0.7035 -1.2131
 3713SOL     OW22600   0.077   3.850   6.185  0.9790  0.2543  0.4189
 3713SOL    HW122601   0.121   3.916   6.238 -1.1042  0.3025  2.1205
 3713SOL    HW222602   0.081   3.772   6.241 -0.6013 -0.7445 -0.8340
 3714SOL     OW22603   1.738   0.652   8.663 -0.3534  0.5001 -0.3032
 3714SOL    HW122604   1.748   0.574   8.717 -1.4897  0.4210 -0.2182
 3714SOL    HW222605   1.710   0.725   8.717 -0.3564 -0.0576  0.4416
 3715SOL     OW22606   4.528   2.287   9.612 -0.0964  0.3555 -0.1153
 3715SOL    HW122607   4.534   2.243   9.697  0.2248 -1.6263 -1.1625
 3715SOL    HW222608   4.573   2.369   9.634 -1.5363  0.7821  1.1954
 3716SOL     OW22609   2.757   1.174   3.723 -0.1171 -0.0638  0.5031
 3716SOL    HW122610   2.825   1.228   3.762  2.6712 -2.5695 -0.9344
 3716SOL    HW222611   2.799   1.099   3.680  0.1351  1.5149 -1.9693
 3717SOL     OW22612   0.064   2.164  15.472  0.5095 -0.1879 -0.9142
 3717SOL    HW122613   0.139   2.156  15.530 -0.3118  0.2392  0.2232
 3717SOL    HW222614   0.021   2.082  15.496 -0.3219  1.1197  2.0855
 3718SOL     OW22615   3.815   4.365   4.481  0.2662  0.0551  0.0502
 3718SOL    HW122616   3.885   4.424   4.454 -0.1834  0.5861  0.0431
 3718SOL    HW222617   3.738   4.421   4.480  0.8225  0.8375  0.3364
 3719SOL     OW22618   4.394   2.707  15.151 -0.0850 -0.6353 -0.5942
 3719SOL    HW122619   4.390   2.627  15.203  2.1284 -1.0491 -1.0530
 3719SOL    HW222620   4.329   2.757  15.200 -0.3032 -1.0498 -0.4572
 3720SOL     OW22621   2.142   2.568   5.263 -0.1179  0.0498  0.0707
 3720SOL    HW122622   2.125   2.638   5.326  2.2423  1.5099 -0.9192
 3720SOL    HW222623   2.222   2.523   5.288 -2.0183 -2.4194  1.7195
 3721SOL     OW22624   3.473   0.990   3.418  0.2235  0.1142  0.2974
 3721SOL    HW122625   3.491   0.900   3.391 -0.9921 -0.8832  2.8656
 3721SOL    HW222626   3.378   0.982   3.404  0.3678  0.3560 -0.7954
 3722SOL     OW22627   0.576   2.338  11.030 -0.3326  0.4301 -0.4032
 3722SOL    HW122628   0.592   2.281  11.105  0.7138  0.5765 -0.5175
 3722SOL    HW222629   0.669   2.356  11.012  0.4505  0.5673  3.9507
 3723SOL     OW22630   2.354   4.321   4.417 -0.1720  0.3067  0.1314
 3723SOL    HW122631   2.398   4.386   4.362  0.4883  0.9435  1.4053
 3723SOL    HW222632   2.426   4.278   4.464  0.0143 -0.7532 -1.1584
 3724SOL     OW22633   4.364   2.715   8.165 -0.1321  0.0293 -0.2590
 3724SOL    HW122634   4.397   2.627   8.154 -2.3959 -0.8881  0.2621
 3724SOL    HW222635   4.329   2.736   8.078 -0.6337  1.8415  0.3664
 3725SOL     OW22636   2.852   1.451   0.706  0.2607  0.1287 -0.1257
 3725SOL    HW122637   2.908   1.375   0.720  0.1863  0.3526  1.3613
 3725SOL    HW222638   2.884   1.501   0.781  1.5418 -0.5194 -0.2420
 3726SOL     OW22639   0.663   0.628   0.557  0.2880 -0.3171 -0.1835
 3726SOL    HW122640   0.580   0.676   0.563  0.3461 -0.4663  1.7699
 3726SOL    HW222641   0.645   0.552   0.612 -2.2542  1.1988  1.0780
 3727SOL     OW22642   3.154   1.601   1.045 -0.8470  0.1805  0.2773
 3727SOL    HW122643   3.088   1.640   0.987  1.5550  1.1841 -1.8010
 3727SOL    HW222644   3.229   1.660   1.039  0.1613 -1.0065  1.1262
 3728SOL     OW22645   0.874   3.803   6.520 -0.5260  0.6337  0.2086
 3728SOL    HW122646   0.911   3.826   6.605 -0.2595  3.9101 -0.8003
 3728SOL    HW222647   0.925   3.863   6.466 -0.4394  1.0399  0.7468
 3729SOL     OW22648   1.870   4.721  13.922 -0.0809 -0.3220 -0.0998
 3729SOL    HW122649   1.794   4.673  13.889  0.0985 -1.8375  1.7190
 3729SOL    HW222650   1.847   0.032  14.008  1.6952  0.8817 -0.1168
 3730SOL     OW22651   2.004   4.707   3.347 -0.2239 -0.4771 -0.2414
 3730SOL    HW122652   1.941   0.055   3.332 -1.0892 -1.2682 -0.3451
 3730SOL    HW222653   1.972   4.646   3.281  3.4448 -1.1825 -1.3618
 3731SOL     OW22654   0.393   2.024  17.046  0.7046  0.0849 -0.4162
 3731SOL    HW122655   0.302   1.997  17.033  0.1437  2.1753 -0.7590
 3731SOL    HW222656   0.393   2.016  17.142  2.3236  0.2984 -0.3956
 3732SOL     OW22657   1.628   1.555   0.879  0.5239  0.0938  0.7664
 3732SOL    HW122658   1.679   1.474   0.882  0.8812  0.2766 -0.4067
 3732SOL    HW222659   1.576   1.547   0.959  0.3843 -0.3026  0.6364
 3733SOL     OW22660   1.662   3.614  13.612  0.2974  0.0341 -0.5707
 3733SOL    HW122661   1.588   3.564  13.647  1.6105 -2.2914 -1.1441
 3733SOL    HW222662   1.622   3.700  13.599 -0.3420 -0.3408 -1.0638
 3734SOL     OW22663   4.161   1.720   5.344 -0.0889  1.2294 -0.4496
 3734SOL    HW122664   4.165   1.639   5.294  0.0856  0.9486  0.0264
 3734SOL    HW222665   4.240   1.699   5.393 -1.2054 -1.4333  0.1866
 3735SOL     OW22666   3.402   2.986  10.347 -0.3502  0.1086  0.2661
 3735SOL    HW122667   3.310   2.964  10.360 -1.0141  2.5877 -0.1321
 3735SOL    HW222668   3.447   2.908  10.379 -0.0373 -0.3624 -1.3214
 3736SOL     OW22669   3.838   3.556   2.278 -0.3873  0.4750 -0.7923
 3736SOL    HW122670   3.816   3.499   2.352 -1.7562  2.4985  0.3367
 3736SOL    HW222671   3.827   3.496   2.205 -0.3045  1.1173 -1.3274
 3737SOL     OW22672   1.062   3.159   8.403  0.1773 -0.4447 -0.0197
 3737SOL    HW122673   1.094   3.079   8.362  0.9768 -1.2084  2.0677
 3737SOL    HW222674   0.967   3.146   8.408  0.0244  0.8258  0.3851
 3738SOL     OW22675   0.542   1.463   9.833  0.2625  0.1120 -0.5878
 3738SOL    HW122676   0.608   1.406   9.872 -0.7249 -1.0648 -0.6525
 3738SOL    HW222677   0.533   1.540   9.890 -0.3512  0.7495 -1.5406
 3739SOL     OW22678   2.555   0.229   5.862  0.4105 -0.6488 -0.5403
 3739SOL    HW122679   2.487   0.170   5.896 -0.0172 -1.1053 -2.1969
 3739SOL    HW222680   2.522   0.250   5.775 -1.3550  1.3464  0.6114
 3740SOL     OW22681   3.868   4.714   3.581 -0.2668 -0.1444  0.2352
 3740SOL    HW122682   3.810   0.066   3.569  1.1224  0.9991  0.7582
 3740SOL    HW222683   3.942   0.039   3.617  0.6794 -0.8066 -0.8464
 3741SOL     OW22684   4.604   3.361   4.550  0.6033  0.3975 -0.5426
 3741SOL    HW122685   4.563   3.394   4.470 -1.7082 -0.9535  0.0850
 3741SOL    HW222686   4.681   3.416   4.562 -1.2933  3.2736 -1.7105
 3742SOL     OW22687   1.271   4.109   0.525  0.5798  0.1115  0.1908
 3742SOL    HW122688   1.192   4.162   0.512  1.8081  1.8277 -0.2915
 3742SOL    HW222689   1.322   4.140   0.451  0.9883 -2.5364 -0.5952
 3743SOL     OW22690   4.626   0.244   2.890  0.2464 -0.0939  0.2266
 3743SOL    HW122691   4.635   0.291   2.973  3.6416 -2.8040  1.3869
 3743SOL    HW222692   4.538   0.206   2.899 -0.9340  2.0717 -2.4251
 3744SOL     OW22693   0.958   3.451   8.993 -0.0616  0.4765 -0.4830
 3744SOL    HW122694   1.032   3.433   8.935 -0.2745  0.2935 -0.6968
 3744SOL    HW222695   0.903   3.375   8.975  0.5854  0.4812 -2.5675
 3745SOL     OW22696   0.961   1.253   4.472  0.3586  0.0445 -0.0312
 3745SOL    HW122697   1.046   1.295   4.477  0.7868 -0.8428  0.1321
 3745SOL    HW222698   0.910   1.330   4.447  0.7560  0.6245  0.9564
 3746SOL     OW22699   4.044   1.883   6.259  0.5405  0.6103 -0.0330
 3746SOL    HW122700   4.122   1.929   6.228 -0.4866 -0.2039 -3.8095
 3746SOL    HW222701   3.984   1.920   6.194 -2.1788 -0.7450  1.6742
 3747SOL     OW22702   3.851   3.856   0.444  1.2493  0.2268  0.6682
 3747SOL    HW122703   3.913   3.922   0.478 -0.5456  1.6579  1.1371
 3747SOL    HW222704   3.831   3.887   0.356  3.4502  0.1804  0.1313
 3748SOL     OW22705   1.358   1.146   5.387  0.3077  0.1348 -0.0417
 3748SOL    HW122706   1.308   1.196   5.322 -0.4893  1.4252  1.5499
 3748SOL    HW222707   1.380   1.219   5.446 -0.5237  0.2664  0.1009
 3749SOL     OW22708   1.402   2.206   2.135 -0.7625 -0.0850  0.4032
 3749SOL    HW122709   1.481   2.248   2.168 -0.1733 -1.8996  1.2706
 3749SOL    HW222710   1.341   2.279   2.125 -0.1246  0.4602  0.5244
 3750SOL     OW22711   0.920   1.048   7.160 -0.4821 -0.5173  0.1439
 3750SOL    HW122712   0.868   1.069   7.238  2.3705 -0.8307  2.1455
 3750SOL    HW222713   0.936   0.953   7.165  1.2389 -0.2262  0.3708
 3751SOL     OW22714   3.236   1.319   1.441 -0.0785 -0.1488 -0.2883
 3751SOL    HW122715   3.213   1.374   1.516  0.5134 -1.3093  0.7400
 3751SOL    HW222716   3.198   1.235   1.466  1.1929 -0.1165  1.7621
 3752SOL     OW22717   3.384   3.844  11.842  0.1485  0.3760  0.4819
 3752SOL    HW122718   3.296   3.817  11.816  1.1572  0.7074 -3.3659
 3752SOL    HW222719   3.422   3.766  11.802  1.8890  1.4716 -0.0144
 3753SOL     OW22720   2.841   2.341   3.809  0.1857  0.3763  0.1013
 3753SOL    HW122721   2.855   2.252   3.777 -0.7283  0.5154 -0.6551
 3753SOL    HW222722   2.832   2.393   3.730 -1.1251 -0.2830 -0.1846
 3754SOL     OW22723   3.334   2.015  13.564 -0.4572  0.2714 -0.0906
 3754SOL    HW122724   3.263   2.033  13.502 -0.9520  1.5074  0.8390
 3754SOL    HW222725   3.350   1.924  13.540 -0.8836  0.9776 -3.0103
 3755SOL     OW22726   3.242   4.131  16.755  0.2778  0.6426  0.5215
 3755SOL    HW122727   3.212   4.159  16.668 -2.3726 -0.3072  1.1252
 3755SOL    HW222728   3.167   4.076  16.777 -1.4837  2.5587 -0.7135
 3756SOL     OW22729   3.684   4.316  11.396  0.3046 -0.2644  0.3899
 3756SOL    HW122730   3.653   4.238  11.442  0.5019 -0.3118  0.4436
 3756SOL    HW222731   3.722   4.358  11.473  0.1996  0.8214 -0.1538
 3757SOL     OW22732   0.844   3.046   4.336  0.3935  0.6072  0.2794
 3757SOL    HW122733   0.767   3.098   4.359  0.0914  0.0343  0.5948
 3757SOL    HW222734   0.918   3.102   4.359  0.6914  0.2994  0.0663
 3758SOL     OW22735   0.828   2.779  14.191 -0.1582 -0.6387 -0.2540
 3758SOL    HW122736   0.845   2.718  14.119  1.2464  1.3828 -1.6574
 3758SOL    HW222737   0.767   2.842  14.152  0.0780  1.0145  2.0657
 3759SOL     OW22738   0.397   2.027  17.334  0.2622  0.0147 -0.0094
 3759SOL    HW122739   0.410   1.933  17.350  3.5323  0.4875  0.0901
 3759SOL    HW222740   0.449   2.078  17.396  1.0516 -2.1036  1.0912
 3760SOL     OW22741   2.122   2.645   3.641  0.6450  0.0695  0.1183
 3760SOL    HW122742   2.110   2.628   3.547  0.2142  0.9474  0.0152
 3760SOL    HW222743   2.055   2.586   3.676  0.9215 -0.9852 -1.1217
 3761SOL     OW22744   0.471   3.314  16.316  0.2470  0.1037  0.7383
 3761SOL    HW122745   0.542   3.335  16.256 -1.2022  0.1427 -0.9565
 3761SOL    HW222746   0.429   3.233  16.285 -1.2107  0.4048  1.9077
 3762SOL     OW22747   3.961   2.566  15.337 -0.0725  0.1340 -0.1532
 3762SOL    HW122748   3.911   2.620  15.276  1.1417  0.2299 -1.0499
 3762SOL    HW222749   3.890   2.513  15.373 -0.8614  1.5047  0.3288
 3763SOL     OW22750   0.925   3.963   2.944 -0.1605  0.1178  1.0088
 3763SOL    HW122751   0.983   4.033   2.914 -2.4696  0.8637 -1.7407
 3763SOL    HW222752   0.983   3.906   2.994 -0.6488 -2.3164 -1.2032
 3764SOL     OW22753   2.271   2.049  10.006 -0.1109 -0.2745  0.4547
 3764SOL    HW122754   2.366   2.057   9.999 -0.0313 -0.2255  1.5980
 3764SOL    HW222755   2.257   2.121  10.067 -1.0054 -1.0343  1.1589
 3765SOL     OW22756   4.007   3.746   2.396 -0.3936 -0.1113 -0.2786
 3765SOL    HW122757   3.955   3.669   2.372 -0.5220 -0.8234  2.2767
 3765SOL    HW222758   4.062   3.708   2.465  0.5892 -0.2290 -1.1293
 3766SOL     OW22759   3.592   2.548   5.382  0.2111 -0.4454  0.1983
 3766SOL    HW122760   3.618   2.636   5.412 -2.9122 -0.3463  2.6523
 3766SOL    HW222761   3.598   2.513   5.471 -1.1484  0.0698  0.4948
 3767SOL     OW22762   1.671   3.203   5.554  0.0793  0.8009  0.0504
 3767SOL    HW122763   1.685   3.224   5.646 -0.4511 -0.2791  0.3746
 3767SOL    HW222764   1.584   3.243   5.551 -0.6351 -0.6089  1.9170
 3768SOL     OW22765   4.626   2.038   5.424 -0.2211 -0.4794 -0.6437
 3768SOL    HW122766   4.667   2.011   5.342  0.7906 -0.7673 -0.0492
 3768SOL    HW222767   4.678   2.116   5.442  0.2918 -0.8097 -0.6939
 3769SOL     OW22768   1.334   3.051  13.915  0.2743  0.4960 -0.2863
 3769SOL    HW122769   1.371   2.993  13.849 -0.9913  0.0809 -0.6404
 3769SOL    HW222770   1.313   2.990  13.986 -1.3806  1.5345  0.1233
 3770SOL     OW22771   1.440   1.915   9.138 -0.2968  0.1249  0.1892
 3770SOL    HW122772   1.466   1.889   9.050 -1.0249  1.5969 -0.4580
 3770SOL    HW222773   1.369   1.851   9.150 -1.3600  1.1515 -0.7067
 3771SOL     OW22774   2.146   4.277   9.206  0.0044  0.2255 -0.1039
 3771SOL    HW122775   2.079   4.345   9.210  0.1857  0.3388  0.9202
 3771SOL    HW222776   2.106   4.206   9.256 -0.9817 -0.1360 -1.4010
 3772SOL     OW22777   1.377   3.929   4.889 -0.3134  0.0370 -0.4610
 3772SOL    HW122778   1.287   3.900   4.899 -0.8103  0.7117 -2.9190
 3772SOL    HW222779   1.423   3.853   4.854 -2.5714 -1.2604 -0.6106
 3773SOL     OW22780   3.875   3.258   4.912  0.2681  0.0254  0.1315
 3773SOL    HW122781   3.850   3.213   4.832  0.6956 -0.3637  0.2183
 3773SOL    HW222782   3.821   3.204   4.970  0.2734 -0.9790 -0.7951
 3774SOL     OW22783   3.347   3.888   3.017 -0.2582 -0.1617  0.2992
 3774SOL    HW122784   3.429   3.913   3.060  0.1340  1.7223 -1.5725
 3774SOL    HW222785   3.353   3.937   2.935  0.6855 -2.1447 -0.8353
 3775SOL     OW22786   3.583   0.820   1.903 -0.3554 -0.1582 -0.2147
 3775SOL    HW122787   3.574   0.737   1.949  5.4482  0.1415  1.4504
 3775SOL    HW222788   3.518   0.881   1.940 -0.7533 -0.9755  0.4445
 3776SOL     OW22789   4.082   3.516   3.645 -0.9820  0.1350  0.0832
 3776SOL    HW122790   4.010   3.571   3.674  0.4771  1.4778  1.1274
 3776SOL    HW222791   4.083   3.525   3.549 -1.5038  0.7453  0.1372
 3777SOL     OW22792   0.218   3.101   7.461  0.1968  0.0977 -0.0687
 3777SOL    HW122793   0.251   3.180   7.504  3.2144 -0.7682 -0.8494
 3777SOL    HW222794   0.212   3.050   7.541 -1.5828 -0.1570 -0.3554
 3778SOL     OW22795   3.862   1.674   6.698  0.1522  0.1937 -0.2507
 3778SOL    HW122796   3.910   1.721   6.630 -0.6013  0.5428 -0.5416
 3778SOL    HW222797   3.773   1.709   6.689  0.1123  0.0288 -0.4951
 3779SOL     OW22798   0.227   2.660   1.927 -0.7138  0.1464  0.1613
 3779SOL    HW122799   0.178   2.628   2.003  0.3801  0.6027  1.0439
 3779SOL    HW222800   0.158   2.714   1.888 -1.0669  0.4635  1.2286
 3780SOL     OW22801   4.039   0.383   8.337  0.3494  0.2340 -0.0833
 3780SOL    HW122802   4.029   0.474   8.366 -0.6638  1.2992 -3.8758
 3780SOL    HW222803   3.957   0.345   8.369  1.2473 -1.7183 -0.1349
 3781SOL     OW22804   4.555   0.554   4.317  0.1619 -0.4100 -0.0834
 3781SOL    HW122805   4.518   0.532   4.402  0.0956 -0.6853 -0.1833
 3781SOL    HW222806   4.576   0.465   4.287  1.8797  0.1061 -0.4285
 3782SOL     OW22807   4.018   1.629  14.455  0.1637 -0.0227  0.4083
 3782SOL    HW122808   4.038   1.542  14.490  0.0282 -0.2635 -0.1090
 3782SOL    HW222809   3.941   1.606  14.403 -0.5536  2.1512  0.5154
 3783SOL     OW22810   3.211   3.229   8.358 -0.1601  0.0424 -0.5780
 3783SOL    HW122811   3.208   3.189   8.271 -1.4247  0.2294 -0.6292
 3783SOL    HW222812   3.216   3.322   8.338  0.6310 -0.4052 -2.4351
 3784SOL     OW22813   1.707   1.974  11.886  0.7065  0.4282 -0.8874
 3784SOL    HW122814   1.716   1.931  11.801 -1.9698 -0.4053 -0.7250
 3784SOL    HW222815   1.790   2.022  11.887  0.3479  1.0856 -2.4295
 3785SOL     OW22816   3.500   3.959  13.111 -0.3386 -0.2290 -0.2463
 3785SOL    HW122817   3.593   3.940  13.096  0.2821  2.0048  0.7955
 3785SOL    HW222818   3.516   4.015  13.186  0.9484 -1.2081  0.2158
 3786SOL     OW22819   3.300   2.867   0.409 -0.2035  0.9438 -0.3740
 3786SOL    HW122820   3.279   2.803   0.340  3.2331  0.2885 -0.8110
 3786SOL    HW222821   3.372   2.818   0.448 -2.0983 -0.9567  0.7746
 3787SOL     OW22822   2.591   4.528   8.266 -0.5767 -0.4421  0.2251
 3787SOL    HW122823   2.525   4.460   8.250  1.4641 -2.3742 -0.0804
 3787SOL    HW222824   2.644   4.514   8.188 -0.9855 -2.6118  0.3304
 3788SOL     OW22825   3.224   3.802  12.405  0.5426  0.2315 -0.8294
 3788SOL    HW122826   3.199   3.831  12.493 -2.3180 -0.3616 -1.4523
 3788SOL    HW222827   3.260   3.878  12.360 -0.6168  0.3962 -1.4950
 3789SOL     OW22828   1.595   3.094   0.937 -0.3011 -0.0881 -0.4098
 3789SOL    HW122829   1.503   3.077   0.915 -0.1029 -0.5468 -0.8983
 3789SOL    HW222830   1.586   3.129   1.025  0.7653 -0.2866 -0.2341
 3790SOL     OW22831   3.193   4.685   6.576  0.7159 -0.0680  0.2511
 3790SOL    HW122832   3.222   0.046   6.541  1.3404 -0.4127 -0.0528
 3790SOL    HW222833   3.241   4.660   6.655  0.7505  0.5848  0.4345
 3791SOL     OW22834   1.145   3.095   5.609 -0.0703  0.1293  0.7677
 3791SOL    HW122835   1.206   3.092   5.682 -0.3704 -2.3420  0.9095
 3791SOL    HW222836   1.195   3.036   5.553 -0.0345 -1.3328  2.3736
 3792SOL     OW22837   4.150   2.025   2.608 -0.4926  0.7332 -0.1914
 3792SOL    HW122838   4.055   2.025   2.596 -0.6759  0.0612  1.2223
 3792SOL    HW222839   4.170   1.936   2.637 -0.0489  1.2757  1.1677
 3793SOL     OW22840   2.929   1.053   1.818  0.3380  0.0427 -0.0634
 3793SOL    HW122841   2.897   1.121   1.877 -0.6743 -1.4319  1.0823
 3793SOL    HW222842   2.893   1.084   1.734  0.7064  0.1845 -0.1680
 3794SOL     OW22843   2.606   2.882   3.646  0.4147  0.3210 -0.1233
 3794SOL    HW122844   2.609   2.818   3.717 -0.2808  0.6376  0.1944
 3794SOL    HW222845   2.573   2.838   3.567  1.6160  1.8655 -1.4890
 3795SOL     OW22846   1.316   4.432   3.098 -0.1442 -0.2347  0.3978
 3795SOL    HW122847   1.333   4.424   3.192 -1.5442 -0.4314  0.6428
 3795SOL    HW222848   1.349   4.349   3.065 -1.6779 -1.3174  1.5839
 3796SOL     OW22849   3.518   0.745   8.841  0.1427 -0.5517  0.1303
 3796SOL    HW122850   3.602   0.706   8.818 -0.2226  0.6280 -3.2482
 3796SOL    HW222851   3.490   0.682   8.907  0.2911  0.1779  0.8962
 3797SOL     OW22852   4.112   0.973   6.966  0.2010 -0.4970 -0.8658
 3797SOL    HW122853   4.120   1.046   6.904  2.5191 -1.8516 -2.1694
 3797SOL    HW222854   4.034   0.928   6.932 -2.7767  1.2735  3.6387
 3798SOL     OW22855   4.414   0.151   4.789 -0.8889 -0.0115 -0.0739
 3798SOL    HW122856   4.319   0.149   4.797 -1.0047  0.0019 -1.4666
 3798SOL    HW222857   4.432   0.196   4.872  2.6675 -0.3307 -0.6758
 3799SOL     OW22858   2.398   4.279   2.459  0.0356  0.1086  0.0692
 3799SOL    HW122859   2.312   4.317   2.478 -0.3025  0.0868 -1.4114
 3799SOL    HW222860   2.379   4.231   2.378  1.6268 -0.3553 -0.0202
 3800SOL     OW22861   0.401   2.361   3.191 -0.6068  0.2542 -0.5268
 3800SOL    HW122862   0.450   2.365   3.109  1.8763 -0.7790  0.9120
 3800SOL    HW222863   0.429   2.449   3.215 -1.2347  0.3939 -0.3010
 3801SOL     OW22864   0.365   0.899   9.259  0.2345  0.0483 -1.0458
 3801SOL    HW122865   0.394   0.955   9.332  1.0256 -0.3084 -1.0880
 3801SOL    HW222866   0.374   0.811   9.297  1.9349  0.5912 -0.1609
 3802SOL     OW22867   1.801   3.942  10.861  0.4829 -0.4714 -0.3182
 3802SOL    HW122868   1.786   3.987  10.778  0.8066 -0.7160 -0.5078
 3802SOL    HW222869   1.711   3.928  10.890  0.7390 -0.6265  0.3909
 3803SOL     OW22870   4.351   3.300   5.163  0.5036  0.3690 -0.1744
 3803SOL    HW122871   4.376   3.362   5.094 -3.2236  0.2427 -1.6534
 3803SOL    HW222872   4.373   3.217   5.122 -0.8585 -0.5411  0.9315
 3804SOL     OW22873   0.703   3.231  17.666 -0.1993 -0.1968 -0.4181
 3804SOL    HW122874   0.636   3.172   0.007 -1.2789  0.8636 -0.6940
 3804SOL    HW222875   0.714   3.285   0.049 -2.3611 -0.4439  0.0792
 3805SOL     OW22876   0.540   2.628  16.028 -0.0692  0.0382 -0.3583
 3805SOL    HW122877   0.597   2.551  16.025 -0.2373 -0.0522 -1.4009
 3805SOL    HW222878   0.521   2.644  15.935  1.3135 -0.6349 -0.7650
 3806SOL     OW22879   0.723   4.477  17.616 -0.1805 -0.5071  0.0709
 3806SOL    HW122880   0.657   4.409  17.629 -0.8374  0.4928  1.9301
 3806SOL    HW222881   0.804   4.429  17.634 -1.3970 -1.8113  2.0092
 3807SOL     OW22882   0.109   2.017  17.017  0.0453  0.3420 -0.6733
 3807SOL    HW122883   0.064   1.989  16.937  1.4220  1.7377 -1.9417
 3807SOL    HW222884   0.064   1.961  17.080  0.7753  0.7644  0.2287
 3808SOL     OW22885   3.704   3.687   5.354  0.0149  0.2058  0.0725
 3808SOL    HW122886   3.632   3.744   5.380  0.5506  0.4361  1.0745
 3808SOL    HW222887   3.665   3.609   5.314  0.8285 -0.4661  0.5921
 3809SOL     OW22888   1.766   2.676  16.986 -0.1404 -0.6450 -0.3368
 3809SOL    HW122889   1.738   2.768  16.991 -0.2909 -0.5646 -2.6912
 3809SOL    HW222890   1.719   2.640  16.911 -1.3380  0.4584 -0.1285
 3810SOL     OW22891   2.274   3.923   9.383  0.3247 -0.0377  1.0270
 3810SOL    HW122892   2.229   3.911   9.467  1.6085 -0.8617  1.5894
 3810SOL    HW222893   2.338   3.993   9.399  1.9484 -1.2612 -0.2766
 3811SOL     OW22894   0.220   2.842   6.084  0.2816  0.3223 -0.2582
 3811SOL    HW122895   0.236   2.773   6.020 -0.9591 -0.7320  0.5758
 3811SOL    HW222896   0.194   2.920   6.034 -2.5287  0.3418  1.2657
 3812SOL     OW22897   1.232   4.602  10.272 -0.0138 -0.1939 -0.4554
 3812SOL    HW122898   1.234   4.536  10.342 -1.5337  2.2460  1.8820
 3812SOL    HW222899   1.324   4.625  10.257 -0.0627  1.1245  1.3078
 3813SOL     OW22900   3.629   3.420   6.508  0.2643 -0.2002 -0.1023
 3813SOL    HW122901   3.674   3.340   6.536  0.6609  0.6760  1.8377
 3813SOL    HW222902   3.598   3.393   6.422  0.3582  3.4967 -1.3055
 3814SOL     OW22903   1.655   4.508   9.198  0.4387 -0.1237 -0.3930
 3814SOL    HW122904   1.723   4.459   9.245 -0.2288  1.4524  2.2107
 3814SOL    HW222905   1.585   4.505   9.262  1.1191 -1.9297  0.2670
 3815SOL     OW22906   1.929   0.228  10.351 -0.0473  0.2549  0.2870
 3815SOL    HW122907   1.910   0.245  10.259 -0.1366 -0.5614  0.1498
 3815SOL    HW222908   1.849   0.188  10.386 -2.0603  1.0342 -3.4406
 3816SOL     OW22909   3.758   4.571   0.936 -0.4646 -0.5197 -0.0105
 3816SOL    HW122910   3.778   4.663   0.921 -0.3433 -0.7138 -1.0332
 3816SOL    HW222911   3.663   4.568   0.943 -0.5531 -1.0846 -1.4470
 3817SOL     OW22912   4.401   4.224   2.569 -0.1075  0.3445 -0.1486
 3817SOL    HW122913   4.309   4.249   2.560 -0.5152 -0.4203  1.8761
 3817SOL    HW222914   4.394   4.159   2.639 -0.6580  0.0578 -0.4676
 3818SOL     OW22915   2.761   0.679   0.693 -0.1150 -0.4624 -0.1747
 3818SOL    HW122916   2.733   0.683   0.602  1.2301  0.7179 -0.5312
 3818SOL    HW222917   2.792   0.590   0.711 -1.3870 -0.1069  3.8029
 3819SOL     OW22918   2.701   0.753   3.471 -0.4284 -0.1771 -0.2447
 3819SOL    HW122919   2.780   0.787   3.429 -1.4245  0.3373 -1.7231
 3819SOL    HW222920   2.632   0.808   3.433 -0.0518  0.9737  0.7272
 3820SOL     OW22921   0.300   4.335   6.642  0.6706 -0.6489 -0.6756
 3820SOL    HW122922   0.350   4.410   6.674  0.3011 -0.2405 -1.0616
 3820SOL    HW222923   0.364   4.264   6.637  0.2663 -0.9317 -1.7699
 3821SOL     OW22924   1.992   4.459   8.898 -0.9374  0.6523 -0.0549
 3821SOL    HW122925   1.982   4.489   8.988 -0.5618  1.4023 -0.2599
 3821SOL    HW222926   1.924   4.391   8.897 -0.6133  0.3086  2.0387
 3822SOL     OW22927   3.552   0.875   9.968 -0.6847  0.1039  0.2006
 3822SOL    HW122928   3.563   0.926  10.048 -0.1991 -0.3968  0.4548
 3822SOL    HW222929   3.474   0.823   9.989 -0.7673 -0.1180 -0.6615
 3823SOL     OW22930   1.199   2.399   4.925  0.0251  0.7000  0.3117
 3823SOL    HW122931   1.244   2.385   5.008  0.8184 -0.7915 -0.3744
 3823SOL    HW222932   1.248   2.464   4.875  0.7186  0.5903  0.8369
 3824SOL     OW22933   3.241   3.567   3.506 -0.1740 -0.6089  0.7662
 3824SOL    HW122934   3.200   3.651   3.485  0.4535 -0.4171  0.2959
 3824SOL    HW222935   3.188   3.520   3.442 -3.7159  1.5952  2.0658
 3825SOL     OW22936   1.112   0.119   0.422  0.1863  0.4895 -0.5166
 3825SOL    HW122937   1.093   0.056   0.491 -1.5739 -1.0930 -2.4331
 3825SOL    HW222938   1.150   0.191   0.473  0.8701 -0.4094  0.2212
 3826SOL     OW22939   2.467   0.132  11.133 -0.7852  0.5892  0.0716
 3826SOL    HW122940   2.474   0.172  11.220  1.4804 -1.2777  0.7517
 3826SOL    HW222941   2.515   0.050  11.122 -1.2963  0.4525 -1.1300
 3827SOL     OW22942   0.279   2.163   3.326  0.4049  0.0165  0.7078
 3827SOL    HW122943   0.222   2.130   3.256 -1.0325  0.2882  1.7527
 3827SOL    HW222944   0.320   2.243   3.293  2.0673 -0.1683  2.3381
 3828SOL     OW22945   3.031   4.222   0.841 -0.0790 -0.6141 -0.4301
 3828SOL    HW122946   2.944   4.197   0.873  0.5320 -1.3932  0.6222
 3828SOL    HW222947   3.005   4.296   0.785  1.3953  0.3845  0.1930
 3829SOL     OW22948   2.602   3.998  10.197 -0.0284 -0.1551  0.4189
 3829SOL    HW122949   2.612   3.948  10.116 -1.0677 -1.0241  0.8282
 3829SOL    HW222950   2.568   4.081  10.161  0.3734  0.3337  1.1734
 3830SOL     OW22951   2.139   0.257   5.625 -0.3206  0.0962  0.1063
 3830SOL    HW122952   2.161   0.310   5.702 -0.8045 -0.1086  0.3810
 3830SOL    HW222953   2.125   0.327   5.562 -0.8226  1.9045  2.2444
 3831SOL     OW22954   0.972   0.707  11.722 -0.3320  0.1988  0.1836
 3831SOL    HW122955   0.992   0.673  11.809 -0.1267 -0.2557 -0.0411
 3831SOL    HW222956   0.896   0.650  11.711 -0.9927  1.0130  0.5485
 3832SOL     OW22957   0.728   4.655   4.190 -0.0360 -0.1846  0.0299
 3832SOL    HW122958   0.740   4.697   4.276  0.3686 -1.3523  0.5546
 3832SOL    HW222959   0.648   4.693   4.155  1.7071  0.2903 -3.4181
 3833SOL     OW22960   3.648   3.281   0.478  0.4863  0.2259  0.0351
 3833SOL    HW122961   3.722   3.268   0.537  0.1523  0.0982  0.4258
 3833SOL    HW222962   3.682   3.287   0.389 -0.0454  0.0394 -0.1761
 3834SOL     OW22963   0.230   0.950   7.724 -0.4562  0.1347 -0.6582
 3834SOL    HW122964   0.177   0.965   7.803 -0.7183 -1.4365 -0.5246
 3834SOL    HW222965   0.316   0.960   7.765 -1.4594 -1.1054  1.8086
 3835SOL     OW22966   2.288   0.789   6.294 -0.0229  0.6245 -0.0982
 3835SOL    HW122967   2.226   0.859   6.274  0.3656  1.2254  0.8049
 3835SOL    HW222968   2.340   0.843   6.353 -0.5785  1.7239 -0.6096
 3836SOL     OW22969   2.422   2.742  16.351 -0.1249 -0.1400 -0.4259
 3836SOL    HW122970   2.513   2.765  16.336  0.1420 -0.7308  0.2983
 3836SOL    HW222971   2.393   2.825  16.390  0.8941 -0.6049  1.3162
 3837SOL     OW22972   4.208   3.989  12.198 -0.4219  0.1996 -0.4028
 3837SOL    HW122973   4.263   4.067  12.206  2.0864 -1.3763 -2.3564
 3837SOL    HW222974   4.255   3.925  12.250 -0.4918  0.7676  0.3620
 3838SOL     OW22975   4.279   4.603   4.029 -0.0423 -0.5758  0.6490
 3838SOL    HW122976   4.291   4.663   3.955 -0.3081 -2.4837 -0.9671
 3838SOL    HW222977   4.199   4.560   3.998  0.8933 -0.2928 -2.1292
 3839SOL     OW22978   3.341   0.780   5.537 -0.2114  0.1438  0.6043
 3839SOL    HW122979   3.391   0.729   5.473 -1.9049 -0.4750 -0.2347
 3839SOL    HW222980   3.314   0.857   5.487  2.8654 -0.6109 -2.2166
 3840SOL     OW22981   1.116   0.341  16.699 -0.8587  0.2462 -0.4820
 3840SOL    HW122982   1.052   0.383  16.756  0.6830 -1.6655  2.5991
 3840SOL    HW222983   1.185   0.333  16.764 -2.8409 -1.4407  1.4144
 3841SOL     OW22984   1.707   4.217   3.452  0.1944  0.3448  0.0840
 3841SOL    HW122985   1.732   4.126   3.466  0.9370  0.1539 -2.3639
 3841SOL    HW222986   1.685   4.216   3.359  1.4667 -0.9220 -0.2031
 3842SOL     OW22987   1.424   4.575   4.939 -0.3226 -0.1194  0.0345
 3842SOL    HW122988   1.350   4.533   4.983  0.9984  0.3221  2.6970
 3842SOL    HW222989   1.374   4.638   4.887 -0.9342 -0.0916  0.6508
 3843SOL     OW22990   2.353   3.564  14.251  0.1034  0.1585 -0.1011
 3843SOL    HW122991   2.416   3.590  14.184 -0.4378  0.0029 -0.6742
 3843SOL    HW222992   2.267   3.583  14.212  0.8484  0.5412 -1.5519
 3844SOL     OW22993   3.293   2.241   7.603  0.5224 -0.1302  0.4939
 3844SOL    HW122994   3.371   2.234   7.658  0.2529  0.1035  0.9044
 3844SOL    HW222995   3.266   2.150   7.597  2.1474 -0.7913  2.9700
 3845SOL     OW22996   2.425   4.048  11.193 -0.0213  0.6165 -0.1561
 3845SOL    HW122997   2.476   4.036  11.113 -0.1241  0.3542 -0.1827
 3845SOL    HW222998   2.334   4.030  11.168  0.0409  0.7254 -0.4631
 3846SOL     OW22999   1.957   1.824   6.277  0.0201 -0.1045  0.2176
 3846SOL    HW123000   1.933   1.915   6.292 -1.3036 -0.4148  0.0315
 3846SOL    HW223001   1.879   1.775   6.304  1.7056 -2.9183  0.0441
 3847SOL     OW23002   4.306   0.628   6.161  0.0090  0.3167  0.3447
 3847SOL    HW123003   4.362   0.689   6.209 -0.3955  0.4086  0.6998
 3847SOL    HW223004   4.234   0.623   6.224 -1.8838  1.2030 -1.7635
 3848SOL     OW23005   0.506   1.420   6.489  0.0003  0.3955  0.0656
 3848SOL    HW123006   0.437   1.463   6.438  0.2719  0.7611  0.0026
 3848SOL    HW223007   0.586   1.450   6.446  1.2315  0.1397  2.1860
 3849SOL     OW23008   3.659   0.412  12.768 -0.0220 -0.1963 -0.1645
 3849SOL    HW123009   3.581   0.400  12.823 -0.2244  0.9770 -0.2008
 3849SOL    HW223010   3.713   0.447  12.839 -0.2417  0.9170 -0.5422
 3850SOL     OW23011   4.477   2.701   7.512  0.0367 -0.2677  1.1951
 3850SOL    HW123012   4.544   2.725   7.577  0.6538  0.4220  0.2930
 3850SOL    HW223013   4.501   2.613   7.485  2.3266  1.0692 -1.1400
 3851SOL     OW23014   1.977   4.319   3.792  0.9641  0.2587  0.5739
 3851SOL    HW123015   1.885   4.304   3.813  0.2324  1.8780 -1.3721
 3851SOL    HW223016   1.980   4.397   3.736  3.6113 -0.9065 -0.8906
 3852SOL     OW23017   2.712   0.645   1.918 -0.2612  0.5172 -0.2172
 3852SOL    HW123018   2.788   0.673   1.867  0.6482 -4.4651 -1.5851
 3852SOL    HW223019   2.724   0.694   2.000  0.5804  0.8341 -0.5275
 3853SOL     OW23020   2.023   0.819   8.535 -0.7137 -0.6702  0.2753
 3853SOL    HW123021   1.962   0.806   8.462  0.3225 -1.0395 -0.5264
 3853SOL    HW223022   1.993   0.900   8.576 -0.0230  0.0487 -0.6710
 3854SOL     OW23023   3.324   0.953  12.105  0.5435  0.0705  0.5454
 3854SOL    HW123024   3.399   1.006  12.076  1.7534 -2.0428 -0.2255
 3854SOL    HW223025   3.378   0.899  12.162  0.7628 -0.7551 -0.4340
 3855SOL     OW23026   3.452   1.708   5.649 -0.0997  0.6882 -0.1612
 3855SOL    HW123027   3.512   1.633   5.652  0.0063  0.6569 -2.6203
 3855SOL    HW223028   3.425   1.720   5.740 -0.6361 -0.5610 -0.1562
 3856SOL     OW23029   4.607   0.538  15.587 -0.3458  0.0205 -0.2440
 3856SOL    HW123030   4.581   0.580  15.505 -1.0989 -0.1297 -0.0855
 3856SOL    HW223031   4.625   0.615  15.642  1.1553 -0.1637 -0.4684
 3857SOL     OW23032   3.586   4.381  17.424 -0.1974  0.4207 -0.2823
 3857SOL    HW123033   3.591   4.318  17.352  0.4351  0.5634 -0.3662
 3857SOL    HW223034   3.619   4.462  17.385 -1.8771  1.0650 -0.3772
 3858SOL     OW23035   3.389   3.029   1.526  0.1952  0.0786 -0.4354
 3858SOL    HW123036   3.330   2.958   1.550  0.7574 -0.5154 -0.8204
 3858SOL    HW223037   3.448   3.013   1.600 -0.8970 -2.9615 -0.2352
 3859SOL     OW23038   4.227   0.613   7.042  0.0123 -0.4861 -0.1357
 3859SOL    HW123039   4.157   0.657   7.090  0.7811  0.0123  0.5209
 3859SOL    HW223040   4.162   0.585   6.977 -0.1041  0.1274 -0.2770
 3860SOL     OW23041   3.129   4.076   5.090  0.8966 -0.6316  0.1914
 3860SOL    HW123042   3.115   4.041   5.003  0.7878 -1.0096  0.3596
 3860SOL    HW223043   3.174   4.158   5.068 -0.9140  0.8986  2.1701
 3861SOL     OW23044   0.319   0.975   8.151 -0.0621 -0.0218  0.0822
 3861SOL    HW123045   0.399   0.998   8.197  0.4733 -1.4344 -0.1408
 3861SOL    HW223046   0.302   0.894   8.200 -1.2777  1.0981  1.5070
 3862SOL     OW23047   0.085   0.868   5.948  0.1113  1.1939  0.3479
 3862SOL    HW123048   0.147   0.912   5.891  1.0124 -1.4452 -0.7189
 3862SOL    HW223049   0.002   0.909   5.924  0.4792  1.4196 -0.5245
 3863SOL     OW23050   1.056   1.970   4.679  0.3264  0.1485  0.5513
 3863SOL    HW123051   1.146   1.938   4.681  0.8531  1.7124  2.0806
 3863SOL    HW223052   1.026   1.967   4.769 -1.9308 -1.4288 -0.2483
 3864SOL     OW23053   3.298   1.508   3.995 -0.3170 -0.3202  0.0961
 3864SOL    HW123054   3.281   1.443   3.926 -0.1671 -1.1987  0.8834
 3864SOL    HW223055   3.393   1.519   3.987 -0.3747  0.0186 -0.1522
 3865SOL     OW23056   3.327   3.203   7.739 -0.8241  0.2125 -0.0465
 3865SOL    HW123057   3.321   3.208   7.644 -0.7366 -2.8097 -0.2006
 3865SOL    HW223058   3.422   3.213   7.744 -0.9389  0.9948  0.6808
 3866SOL     OW23059   4.339   3.792   2.447 -0.1589  0.2391 -0.2756
 3866SOL    HW123060   4.284   3.726   2.490  0.8719 -0.2125  0.3235
 3866SOL    HW223061   4.417   3.792   2.501  0.7705  0.1142 -1.6141
 3867SOL     OW23062   1.438   2.068   8.572 -0.1515 -0.2390  0.4225
 3867SOL    HW123063   1.532   2.082   8.561 -0.3308  0.2227 -0.5235
 3867SOL    HW223064   1.410   2.078   8.481  0.3410 -0.5550  0.2334
 3868SOL     OW23065   1.879   0.257   5.722 -0.0046 -0.6177 -0.0470
 3868SOL    HW123066   1.967   0.274   5.688  1.1307  0.3996  3.3394
 3868SOL    HW223067   1.873   0.162   5.728 -0.2425 -0.5332  1.0486
 3869SOL     OW23068   2.043   0.885   4.054  0.4998 -0.0679 -0.2922
 3869SOL    HW123069   2.115   0.872   4.114  0.5869  0.5380 -0.2598
 3869SOL    HW223070   1.994   0.962   4.084  0.1985 -0.7637  0.9852
 3870SOL     OW23071   3.363   3.940   2.746 -0.0879  0.2550 -0.2814
 3870SOL    HW123072   3.304   3.991   2.690 -0.5636  0.4842  0.4252
 3870SOL    HW223073   3.434   3.916   2.687 -1.1551 -2.5342 -0.4714
 3871SOL     OW23074   2.178   4.039   7.631  0.1250 -0.4623  0.5124
 3871SOL    HW123075   2.125   3.996   7.698  0.7027 -0.8726  0.7061
 3871SOL    HW223076   2.118   4.111   7.612  0.6854  0.2409  1.3819
 3872SOL     OW23077   4.675   3.761   0.004 -0.1505  0.2874  0.1137
 3872SOL    HW123078   4.656   3.814   0.082  0.0018  1.8712 -0.9167
 3872SOL    HW223079   4.675   3.674   0.044  1.9729  0.6510  0.9040
 3873SOL     OW23080   2.830   0.411   9.064 -0.5954  0.0749  0.3260
 3873SOL    HW123081   2.879   0.489   9.088 -1.2963  0.9908 -1.2149
 3873SOL    HW223082   2.898   0.347   9.087 -0.9150  0.1021  1.3331
 3874SOL     OW23083   2.105   0.988   6.163  0.7171 -0.0282  0.0981
 3874SOL    HW123084   2.028   0.974   6.108  1.5837  0.8112 -1.3482
 3874SOL    HW223085   2.080   1.059   6.222 -1.8769 -0.5622 -0.3499
 3875SOL     OW23086   2.807   3.958   2.203 -0.3376 -0.4903  0.0741
 3875SOL    HW123087   2.796   3.929   2.113 -0.0561  1.7169 -0.6796
 3875SOL    HW223088   2.739   3.905   2.246 -1.0953  1.0027  0.7179
 3876SOL     OW23089   3.891   0.347   0.156 -0.4855  0.5447 -0.2415
 3876SOL    HW123090   3.859   0.435   0.139  2.6192  1.5932 -0.6363
 3876SOL    HW223091   3.808   0.301   0.140 -0.8369  1.2156 -0.3549
 3877SOL     OW23092   3.424   0.495   2.670 -0.2863 -0.1829 -0.3598
 3877SOL    HW123093   3.338   0.516   2.635 -0.9172 -1.3474  0.4892
 3877SOL    HW223094   3.417   0.405   2.701 -3.4002  0.0638 -0.3817
 3878SOL     OW23095   3.009   3.441   6.172 -0.5769 -0.4780 -0.0405
 3878SOL    HW123096   2.949   3.509   6.140 -0.6624 -1.2546 -1.5258
 3878SOL    HW223097   3.075   3.499   6.211 -0.7390 -0.8996  0.8582
 3879SOL     OW23098   3.498   1.286   0.001 -0.3122  0.2960 -0.1460
 3879SOL    HW123099   3.583   1.245  17.683 -1.2814 -1.7441 -0.0452
 3879SOL    HW223100   3.515   1.300   0.094  0.7138  2.0797 -0.6042
 3880SOL     OW23101   1.381   2.458   9.948 -0.2412 -0.1634 -0.3336
 3880SOL    HW123102   1.414   2.384   9.896  2.1097  1.4128 -1.0886
 3880SOL    HW223103   1.429   2.535   9.917  1.9005 -1.2393  0.2589
 3881SOL     OW23104   2.549   3.841  12.012 -0.4665  0.0033  0.3025
 3881SOL    HW123105   2.526   3.923  12.056  0.6867  1.0142 -1.0103
 3881SOL    HW223106   2.463   3.819  11.975  0.3369 -1.2202 -0.8168
 3882SOL     OW23107   2.270   2.623   4.789  0.2232 -0.0900  0.1755
 3882SOL    HW123108   2.221   2.698   4.821  1.3730 -0.7293  3.4513
 3882SOL    HW223109   2.256   2.643   4.696  0.8108 -1.3898 -0.1900
 3883SOL     OW23110   0.510   1.467  17.379  0.2093 -0.2949  0.3378
 3883SOL    HW123111   0.526   1.374  17.364 -0.1065 -0.6835  2.3659
 3883SOL    HW223112   0.600   1.501  17.378 -0.6663  1.9970 -0.4750
 3884SOL     OW23113   4.302   4.472   8.578  0.4160 -0.6576  0.3010
 3884SOL    HW123114   4.377   4.525   8.606 -1.1122  0.4719  2.3225
 3884SOL    HW223115   4.336   4.437   8.496  0.5256  0.3022 -0.0648
 3885SOL     OW23116   0.184   3.356  10.427  0.1426  0.0515 -0.0760
 3885SOL    HW123117   0.170   3.402  10.345 -0.9191  0.6140  0.4269
 3885SOL    HW223118   0.202   3.268  10.393 -1.1472 -0.1574 -0.2101
 3886SOL     OW23119   2.556   4.081   9.143 -0.0738  0.0084 -0.5878
 3886SOL    HW123120   2.647   4.091   9.112  0.0324  0.3469 -0.1666
 3886SOL    HW223121   2.508   4.147   9.094 -0.1588 -0.2101 -0.7986
 3887SOL     OW23122   0.459   1.943   4.642  0.4454  0.4254  0.5145
 3887SOL    HW123123   0.550   1.927   4.615  0.0651  0.8958 -1.0433
 3887SOL    HW223124   0.473   1.984   4.727 -2.8803  0.5469  1.0037
 3888SOL     OW23125   3.116   3.455  13.575  0.0985  0.0073 -0.0730
 3888SOL    HW123126   3.119   3.370  13.619 -0.7931 -0.9050 -1.7837
 3888SOL    HW223127   3.099   3.503  13.656 -2.6616  1.3473 -1.4497
 3889SOL     OW23128   1.917   1.460   0.698 -0.2415  0.3997 -0.5253
 3889SOL    HW123129   1.889   1.421   0.781 -0.6442  1.5137 -0.1299
 3889SOL    HW223130   1.960   1.542   0.725 -0.3953 -0.0288  1.0411
 3890SOL     OW23131   3.611   3.546   3.954  0.5998 -0.6015  0.7432
 3890SOL    HW123132   3.658   3.629   3.961 -0.8671  0.4514 -2.3278
 3890SOL    HW223133   3.585   3.544   3.862  1.6115 -1.4321  0.4592
 3891SOL     OW23134   3.425   3.969  10.514  0.2733 -0.1381  0.0540
 3891SOL    HW123135   3.413   3.950  10.607 -0.7878  1.3906  0.2148
 3891SOL    HW223136   3.449   3.879  10.490  0.6684 -0.1993  0.6810
 3892SOL     OW23137   4.719   1.048   6.878 -0.6074 -0.2867 -0.0735
 3892SOL    HW123138   4.628   1.070   6.858  0.2060  1.5256 -1.7956
 3892SOL    HW223139   0.001   0.955   6.860 -0.7363 -1.0609  3.8461
 3893SOL     OW23140   2.683   0.509   3.538 -0.3740 -0.0818  0.1224
 3893SOL    HW123141   2.699   0.593   3.497  2.5987 -0.4686  0.4969
 3893SOL    HW223142   2.654   0.450   3.468 -1.8705 -1.9243  2.2747
 3894SOL     OW23143   3.998   3.042  12.074 -0.2658 -0.1302 -0.1212
 3894SOL    HW123144   3.971   3.054  11.983 -0.2506 -0.9132 -0.2218
 3894SOL    HW223145   4.089   3.072  12.077 -0.8639  1.6571  0.2184
 3895SOL     OW23146   0.118   0.087   6.512  0.4300  0.3154 -0.1202
 3895SOL    HW123147   0.041   0.088   6.455  1.0999 -0.0397 -1.0164
 3895SOL    HW223148   0.106   0.167   6.563 -0.1422  1.6297 -2.3219
 3896SOL     OW23149   0.070   4.690   2.594  0.2038 -0.4964 -0.5609
 3896SOL    HW123150   0.038   4.656   2.677  0.4653 -2.0025 -1.0849
 3896SOL    HW223151   0.006   4.670   2.527 -0.5402  1.6355 -0.4895
 3897SOL     OW23152   3.870   1.447   0.080 -0.6292 -0.1740  0.3909
 3897SOL    HW123153   3.933   1.505   0.036 -1.2975  1.9120  2.1914
 3897SOL    HW223154   3.898   1.459   0.171 -0.6720 -2.6898  0.7304
 3898SOL     OW23155   3.558   4.047   8.978 -0.1311 -0.0200  0.4482
 3898SOL    HW123156   3.486   4.017   9.034 -2.6826  1.8742 -1.8148
 3898SOL    HW223157   3.516   4.127   8.946 -0.8672 -0.1593  1.0833
 3899SOL     OW23158   3.511   3.652  11.732  0.3926 -0.2521 -0.3627
 3899SOL    HW123159   3.489   3.624  11.644  0.2616  1.5762 -0.9184
 3899SOL    HW223160   3.551   3.571  11.764 -2.3173 -1.1904  0.6022
 3900SOL     OW23161   0.581   4.717   8.981  0.2059 -0.0853  0.2681
 3900SOL    HW123162   0.638   4.660   8.929 -0.4846 -0.1445 -0.4102
 3900SOL    HW223163   0.504   0.002   8.926 -0.4063  0.1226  1.1584
 3901SOL     OW23164   4.550   4.430   1.314 -0.3345  0.6397  0.0420
 3901SOL    HW123165   4.462   4.394   1.301 -0.0138 -0.4087  0.7824
 3901SOL    HW223166   4.578   4.419   1.223  0.5236  1.7389  0.1842
 3902SOL     OW23167   2.226   0.412   3.788  0.0176 -0.2629 -0.4653
 3902SOL    HW123168   2.314   0.434   3.757  0.6141 -0.7565  0.8791
 3902SOL    HW223169   2.167   0.466   3.736 -0.0223  0.4868  0.3759
 3903SOL     OW23170   2.384   2.537  17.207 -0.3637  0.0042  0.3445
 3903SOL    HW123171   2.427   2.549  17.122 -1.0580  2.1962  0.3011
 3903SOL    HW223172   2.412   2.621  17.245 -1.4795 -1.1040  3.6533
 3904SOL     OW23173   1.748   1.805  14.088  0.5807 -0.3570  0.4374
 3904SOL    HW123174   1.656   1.814  14.063  0.3390 -2.2271  0.6867
 3904SOL    HW223175   1.727   1.803  14.181 -1.3535 -0.1903 -0.0070
 3905SOL     OW23176   4.711   2.861  14.817  0.5060  0.0650 -0.3412
 3905SOL    HW123177   4.683   2.936  14.766  0.0366  0.5444  0.6218
 3905SOL    HW223178   0.028   2.915  14.884 -0.3169  0.1564  0.0838
 3906SOL     OW23179   0.521   3.589   2.525  0.2482  0.2430 -0.3614
 3906SOL    HW123180   0.605   3.583   2.570  0.3499  2.1934 -0.3139
 3906SOL    HW223181   0.485   3.675   2.545  1.3180  0.6868 -0.3778
 3907SOL     OW23182   1.898   1.101   4.071  0.5518 -0.0930  0.6586
 3907SOL    HW123183   1.818   1.050   4.063  0.9111 -0.8077  1.6647
 3907SOL    HW223184   1.879   1.161   3.998  1.5083 -0.4592  0.1096
 3908SOL     OW23185   0.290   0.905   3.162 -0.2357  0.9486  0.2586
 3908SOL    HW123186   0.215   0.863   3.120 -0.9939  1.9463  0.6123
 3908SOL    HW223187   0.277   0.997   3.139 -0.2070  0.6046 -1.1925
 3909SOL     OW23188   0.532   0.209   6.099  0.2183 -0.3290  0.0093
 3909SOL    HW123189   0.524   0.303   6.115  1.0238 -0.5587  1.8148
 3909SOL    HW223190   0.525   0.170   6.187 -1.2435  0.6476  0.3231
 3910SOL     OW23191   2.661   3.480  10.868 -0.4316 -0.0320 -0.2108
 3910SOL    HW123192   2.638   3.396  10.907 -2.2773  0.7752  0.4504
 3910SOL    HW223193   2.744   3.469  10.821  0.7182  0.4326  1.6804
 3911SOL     OW23194   0.851   3.968   9.219 -0.2468  0.2133 -0.3959
 3911SOL    HW123195   0.772   3.968   9.164 -0.1148 -0.4323 -0.5924
 3911SOL    HW223196   0.821   3.918   9.295  0.9166 -1.1055 -0.7949
 3912SOL     OW23197   3.944   3.491   7.534 -0.0071 -0.1251 -0.2108
 3912SOL    HW123198   3.949   3.427   7.605 -0.4386  0.3962  0.2930
 3912SOL    HW223199   3.973   3.568   7.583 -1.0515 -1.6723  2.8139
 3913SOL     OW23200   2.784   2.165   3.066 -0.6278 -0.4040  0.1308
 3913SOL    HW123201   2.724   2.091   3.058  0.1442 -1.0535  0.4409
 3913SOL    HW223202   2.731   2.236   3.029  0.0685  1.0235  1.8393
 3914SOL     OW23203   0.960   0.346   7.178 -0.0970 -0.4427  0.4471
 3914SOL    HW123204   0.934   0.353   7.270 -0.9913 -0.7397  0.2157
 3914SOL    HW223205   0.900   0.408   7.138 -1.5530 -2.7495 -0.9153
 3915SOL     OW23206   1.065   2.154   2.318 -0.0967 -0.5304  0.3787
 3915SOL    HW123207   1.058   2.077   2.260  1.1247 -1.0586  0.9348
 3915SOL    HW223208   0.980   2.176   2.355 -1.0258 -0.8469 -1.5328
 3916SOL     OW23209   3.341   3.659   4.978 -0.2366 -0.5895  0.0101
 3916SOL    HW123210   3.320   3.723   4.911  0.7620 -1.9113 -1.5589
 3916SOL    HW223211   3.318   3.708   5.057 -1.0531 -0.0202 -0.5765
 3917SOL     OW23212   2.146   2.177  12.607  0.3593 -0.2916  0.1330
 3917SOL    HW123213   2.103   2.191  12.523 -0.6514 -2.1382  0.3480
 3917SOL    HW223214   2.184   2.265  12.617  1.1752 -0.9213  2.7100
 3918SOL     OW23215   4.290   2.335   2.151 -0.3554 -0.4883 -0.2632
 3918SOL    HW123216   4.224   2.355   2.084  0.6552  1.7580 -0.5720
 3918SOL    HW223217   4.364   2.316   2.094  1.3567  0.4356  1.6412
 3919SOL     OW23218   3.901   0.570  12.811 -0.3056 -0.3609  0.5056
 3919SOL    HW123219   3.986   0.528  12.804  0.4744  1.1818  0.7742
 3919SOL    HW223220   3.868   0.536  12.728  2.8904  0.3122 -1.0355
 3920SOL     OW23221   0.332   4.580  11.637 -0.4600  0.3602  0.1522
 3920SOL    HW123222   0.285   4.498  11.628  0.6809 -0.4528  1.5768
 3920SOL    HW223223   0.278   4.617  11.707 -3.0851  0.2754 -1.8515
 3921SOL     OW23224   3.503   2.803   1.923 -0.0721 -0.7870 -1.0073
 3921SOL    HW123225   3.450   2.748   1.866  0.5383 -1.9871 -0.4223
 3921SOL    HW223226   3.523   2.742   1.994  1.1774 -0.5933 -1.1904
 3922SOL     OW23227   0.708   3.310   8.955  0.1413 -0.0143 -0.1822
 3922SOL    HW123228   0.731   3.233   9.007  1.9094  0.6246 -0.0276
 3922SOL    HW223229   0.675   3.273   8.873 -1.1195 -0.7586  0.6507
 3923SOL     OW23230   1.535   3.893  16.486  0.3068 -0.0571  0.5726
 3923SOL    HW123231   1.542   3.803  16.516  2.4529  0.5134  1.8171
 3923SOL    HW223232   1.567   3.877  16.397 -4.7125 -0.1576 -1.2054
 3924SOL     OW23233   2.980   3.588  15.938  0.8891  0.4099  0.4538
 3924SOL    HW123234   2.964   3.648  16.011  0.4934  1.0058 -0.1227
 3924SOL    HW223235   2.919   3.622  15.873  1.7272  1.8447  0.4249
 3925SOL     OW23236   2.100   1.884   1.695  0.2513  0.1109  0.5660
 3925SOL    HW123237   2.118   1.871   1.788  0.4163 -3.9897 -0.0218
 3925SOL    HW223238   2.107   1.979   1.693  0.1221  0.0639 -2.4049
 3926SOL     OW23239   3.939   1.956  11.498  0.0820  0.2590  0.3460
 3926SOL    HW123240   3.865   1.897  11.511  0.7663 -0.6904 -0.0361
 3926SOL    HW223241   4.006   1.890  11.477 -0.4166  0.0026 -0.4502
 3927SOL     OW23242   4.293   2.015   3.701  0.0671  0.0818  0.1296
 3927SOL    HW123243   4.302   2.057   3.787 -0.9871 -0.9139  0.7469
 3927SOL    HW223244   4.207   2.046   3.671  0.2992 -1.9082 -2.5793
 3928SOL     OW23245   3.079   0.709  13.648 -0.4184  0.4486 -0.0579
 3928SOL    HW123246   3.162   0.712  13.600  0.5378  0.4343  1.5935
 3928SOL    HW223247   3.123   0.698  13.732  0.0369  0.5768 -0.2751
 3929SOL     OW23248   3.449   4.577  14.514  0.9889  0.0934  0.0154
 3929SOL    HW123249   3.444   4.608  14.604 -1.5206  1.4465 -0.5706
 3929SOL    HW223250   3.520   4.630  14.477  0.6333  0.6577  0.1437
 3930SOL     OW23251   1.619   1.154   8.946  0.2663 -0.4194 -0.1302
 3930SOL    HW123252   1.664   1.080   8.988 -0.7010 -1.7346 -1.3951
 3930SOL    HW223253   1.568   1.115   8.875 -1.1157  1.4799 -0.1587
 3931SOL     OW23254   0.835   0.254   0.201  0.1764 -0.0942  0.2259
 3931SOL    HW123255   0.825   0.240   0.107  3.5520  0.9082 -0.2753
 3931SOL    HW223256   0.786   0.334   0.220  0.8810  0.4385 -0.2210
 3932SOL     OW23257   3.325   4.374   2.848  0.4996 -0.2212 -0.3874
 3932SOL    HW123258   3.235   4.341   2.848 -0.1141  1.4698  0.7047
 3932SOL    HW223259   3.333   4.403   2.757  2.3544 -0.4515 -0.2918
 3933SOL     OW23260   3.043   3.173   1.532 -0.0993  0.2003 -0.7928
 3933SOL    HW123261   3.137   3.157   1.525 -0.2077 -1.0937  0.6687
 3933SOL    HW223262   3.005   3.086   1.522  0.0599 -0.1415  1.6779
 3934SOL     OW23263   0.955   4.566   7.650 -0.3781 -0.0098  0.1918
 3934SOL    HW123264   0.942   4.489   7.705  1.1095 -1.0673 -0.9190
 3934SOL    HW223265   0.981   4.634   7.712 -3.0496 -0.0324  1.3248
 3935SOL     OW23266   4.522   2.943   4.863 -0.2084 -0.1195  0.4733
 3935SOL    HW123267   4.429   2.964   4.861  0.1712  1.5432 -0.3748
 3935SOL    HW223268   4.556   2.976   4.780 -0.9665 -0.1202  0.1648
 3936SOL     OW23269   2.920   3.248  15.460 -0.3303 -0.5197  0.0683
 3936SOL    HW123270   2.885   3.274  15.546 -1.4105  0.3136 -0.6248
 3936SOL    HW223271   2.919   3.340  15.433  0.3466 -0.6594 -0.4335
 3937SOL     OW23272   4.330   2.282  14.529 -0.0469 -0.4470 -0.0799
 3937SOL    HW123273   4.293   2.230  14.601  0.9010  3.4565  3.2105
 3937SOL    HW223274   4.319   2.220  14.457 -3.7847 -0.1522  0.2483
 3938SOL     OW23275   2.818   2.073   1.566  0.2984 -0.1303 -0.6544
 3938SOL    HW123276   2.788   2.097   1.478  1.3369  1.9630 -0.4549
 3938SOL    HW223277   2.908   2.049   1.543  0.8978 -1.2730  2.9782
 3939SOL     OW23278   4.506   2.912   8.438 -0.7351  0.1756  0.0631
 3939SOL    HW123279   4.546   2.827   8.420 -0.7381  0.1640  0.1124
 3939SOL    HW223280   4.507   2.918   8.534 -2.6984 -0.4094  0.1137
 3940SOL     OW23281   0.114   2.535   8.834  0.1099  0.0539  0.1580
 3940SOL    HW123282   0.179   2.491   8.888  1.1842  0.5805 -0.7083
 3940SOL    HW223283   0.133   2.478   8.759  1.7259 -0.1789  0.7422
 3941SOL     OW23284   0.767   3.568   2.698  0.5614 -0.4606  0.0775
 3941SOL    HW123285   0.832   3.528   2.756  0.4900 -0.9876 -0.1975
 3941SOL    HW223286   0.794   3.521   2.619 -1.8658  1.0407 -1.6357
 3942SOL     OW23287   4.188   2.601  10.460  0.5844 -0.1207 -0.3092
 3942SOL    HW123288   4.215   2.686  10.495 -0.7120 -0.5643  1.7424
 3942SOL    HW223289   4.106   2.582  10.506  0.8015 -0.7529 -0.1907
 3943SOL     OW23290   3.291   3.648   7.153  0.2706 -0.4182 -0.0189
 3943SOL    HW123291   3.366   3.636   7.211  1.3662  2.0641 -0.9286
 3943SOL    HW223292   3.280   3.742   7.144  1.1142 -0.2244  1.0141
 3944SOL     OW23293   1.560   2.663   8.758 -0.2804 -0.1531  0.0978
 3944SOL    HW123294   1.546   2.726   8.828  1.0716  0.4999 -0.2261
 3944SOL    HW223295   1.550   2.717   8.679 -0.8125  3.7509  2.8384
 3945SOL     OW23296   1.232   4.657   2.085  0.3763 -0.4782 -0.2241
 3945SOL    HW123297   1.137   4.661   2.092  0.3662  0.1477 -0.7105
 3945SOL    HW223298   1.239   4.635   1.992 -1.1403  0.5613 -0.5878
 3946SOL     OW23299   4.330   2.313   3.448 -0.4428  0.1328  0.3758
 3946SOL    HW123300   4.380   2.275   3.376 -0.2074  2.5264 -0.7084
 3946SOL    HW223301   4.245   2.270   3.436  0.3615 -1.4386  0.2552
 3947SOL     OW23302   3.298   2.714   8.019  0.5674  0.1109 -0.3298
 3947SOL    HW123303   3.211   2.713   8.059  0.6708 -2.6525 -0.1931
 3947SOL    HW223304   3.354   2.717   8.096 -1.1252 -2.5293  1.0191
 3948SOL     OW23305   0.479   4.571   5.977 -0.0147 -0.1118 -0.1209
 3948SOL    HW123306   0.464   4.569   6.072  0.9426  2.9701  0.1042
 3948SOL    HW223307   0.574   4.565   5.977 -0.2021 -3.1731  0.0839
 3949SOL     OW23308   2.383   3.586   1.334  0.1846 -0.1230  0.2049
 3949SOL    HW123309   2.307   3.536   1.363 -0.3645 -0.1082 -1.1837
 3949SOL    HW223310   2.330   3.666   1.339  0.7630  0.3012 -0.4179
 3950SOL     OW23311   1.397   4.367   8.632 -0.9532 -0.1962 -0.0192
 3950SOL    HW123312   1.470   4.315   8.666  0.3016  1.8998  0.4302
 3950SOL    HW223313   1.336   4.330   8.696 -0.7493 -1.4285 -0.5184
 3951SOL     OW23314   0.521   3.294   2.154 -0.4231 -0.4116  0.0603
 3951SOL    HW123315   0.474   3.211   2.144 -2.4694  0.8493 -0.8572
 3951SOL    HW223316   0.516   3.307   2.248  2.1389 -1.6242  0.3590
 3952SOL     OW23317   2.405   4.148   3.338  0.2189  0.2036  0.4975
 3952SOL    HW123318   2.385   4.055   3.328  1.3836  0.0627 -0.6322
 3952SOL    HW223319   2.363   4.170   3.420 -1.8764  0.3029 -0.6124
 3953SOL     OW23320   4.104   1.772  11.396 -0.1730  0.2930 -0.1255
 3953SOL    HW123321   4.089   1.753  11.304  0.3972 -1.8185  0.2113
 3953SOL    HW223322   4.190   1.733  11.412 -0.6028 -0.6282 -0.0727
 3954SOL     OW23323   2.292   1.761   8.055 -0.4743 -0.4536 -0.0643
 3954SOL    HW123324   2.322   1.850   8.040  1.8439 -1.2138  0.0365
 3954SOL    HW223325   2.220   1.771   8.118 -1.5639 -0.8894 -1.2379
 3955SOL     OW23326   4.036   2.690   2.122 -0.1193 -0.1641  0.1539
 3955SOL    HW123327   4.001   2.605   2.092  0.0928 -0.0072 -0.5396
 3955SOL    HW223328   4.090   2.666   2.197  1.5511 -1.2177 -1.3863
 3956SOL     OW23329   1.826   2.269  13.575  0.0723  0.0613  0.5042
 3956SOL    HW123330   1.846   2.290  13.666  1.3453  0.6869  0.0823
 3956SOL    HW223331   1.791   2.352  13.543 -1.3713 -0.4695  0.6825
 3957SOL     OW23332   3.187   1.554   5.669 -0.8182 -0.1752  0.6804
 3957SOL    HW123333   3.223   1.468   5.647 -0.0706  0.6241 -1.1913
 3957SOL    HW223334   3.196   1.611   5.593 -1.5020  0.3275  0.9694
 3958SOL     OW23335   1.191   0.335   9.112  0.5634  0.2297 -0.0605
 3958SOL    HW123336   1.168   0.364   9.200 -1.6179 -0.2659 -0.4640
 3958SOL    HW223337   1.221   0.419   9.076  1.2859 -1.1377 -2.6227
 3959SOL     OW23338   2.294   3.591  13.970  0.0425  0.0203  0.1301
 3959SOL    HW123339   2.233   3.554  14.034 -0.1036  1.2786  0.7148
 3959SOL    HW223340   2.226   3.629  13.915  1.0257  1.2147 -0.2574
 3960SOL     OW23341   3.177   2.980   6.023  0.3107 -0.3783  0.7978
 3960SOL    HW123342   3.238   2.979   5.950  1.0205 -3.0484  1.4431
 3960SOL    HW223343   3.132   2.897   6.009 -0.9459  0.3884  0.2378
 3961SOL     OW23344   2.808   3.419   9.030  0.3186  0.2389 -0.1904
 3961SOL    HW123345   2.789   3.507   9.063 -1.7128 -0.7725  1.3100
 3961SOL    HW223346   2.732   3.369   9.057 -0.8556  1.9816 -0.2668
 3962SOL     OW23347   0.174   2.017   7.327 -0.1421  0.1144  0.8196
 3962SOL    HW123348   0.268   2.009   7.343 -0.2744 -0.1052  1.5058
 3962SOL    HW223349   0.132   2.034   7.412 -1.6803 -1.3660  0.3564
 3963SOL     OW23350   4.576   0.352   3.148 -0.2588  0.1546  0.2392
 3963SOL    HW123351   4.550   0.261   3.159 -0.0907  0.2013  1.0340
 3963SOL    HW223352   4.669   0.356   3.171 -0.0296 -0.0300 -0.6525
 3964SOL     OW23353   4.384   3.894  10.230 -0.4602 -0.4745  0.6030
 3964SOL    HW123354   4.300   3.934  10.206 -0.7386 -1.5729 -0.2122
 3964SOL    HW223355   4.418   3.844  10.156 -1.2135  2.1409 -1.5512
 3965SOL     OW23356   2.615   3.286  11.672 -0.1044  0.0123 -0.3586
 3965SOL    HW123357   2.564   3.333  11.606 -0.7542 -1.1355 -0.6700
 3965SOL    HW223358   2.583   3.324  11.753 -0.9105 -0.5530 -0.4139
 3966SOL     OW23359   3.457   0.604   9.062 -0.5782 -0.3886 -0.0444
 3966SOL    HW123360   3.485   0.665   9.130  2.5358  0.8177 -2.3831
 3966SOL    HW223361   3.432   0.523   9.106 -0.1969  0.5013  1.8325
 3967SOL     OW23362   3.836   0.104   0.912 -0.1891  0.0453  0.4357
 3967SOL    HW123363   3.817   0.124   1.003 -1.7769 -2.6559  0.6948
 3967SOL    HW223364   3.806   0.184   0.869 -0.4062  0.1322  0.7526
 3968SOL     OW23365   3.280   2.693  16.211  0.4613  0.2881 -0.3410
 3968SOL    HW123366   3.259   2.781  16.243 -1.9197 -0.5479  0.3489
 3968SOL    HW223367   3.245   2.648  16.288  0.3460  0.5084 -0.2654
 3969SOL     OW23368   1.960   2.295  17.141 -0.2578 -0.2983 -0.1533
 3969SOL    HW123369   1.878   2.250  17.158  0.1684 -0.1676  2.1839
 3969SOL    HW223370   2.022   2.223  17.160  1.9070  0.8134 -2.9648
 3970SOL     OW23371   2.708   1.829   1.725 -0.0822 -0.4077  0.7592
 3970SOL    HW123372   2.619   1.858   1.707  0.8092  1.9166  0.0676
 3970SOL    HW223373   2.761   1.903   1.694 -0.1147 -0.9738 -0.6356
 3971SOL     OW23374   1.269   1.926  13.917  0.2535 -0.3519  0.7058
 3971SOL    HW123375   1.254   1.880  13.835  1.8518 -1.3168  0.9610
 3971SOL    HW223376   1.311   2.006  13.884  0.4753 -1.1996 -1.0666
 3972SOL     OW23377   2.132   1.690   3.719 -0.1395 -0.3882 -0.8733
 3972SOL    HW123378   2.039   1.698   3.737  0.5093  1.7647  1.5014
 3972SOL    HW223379   2.140   1.741   3.638  0.1912 -1.4386 -1.5015
 3973SOL     OW23380   4.589   4.160   3.281  0.5476  1.0335 -0.1812
 3973SOL    HW123381   4.665   4.198   3.237  1.6972  1.6031  2.3307
 3973SOL    HW223382   4.642   4.089   3.317  0.4543  0.5874 -0.9083
 3974SOL     OW23383   2.095   0.741   7.094  0.3639 -0.3206 -0.0566
 3974SOL    HW123384   2.069   0.817   7.043 -1.2724  0.2623  1.6228
 3974SOL    HW223385   2.149   0.700   7.027  0.5995  1.6651 -1.0730
 3975SOL     OW23386   4.329   1.824   2.972  0.2011 -0.3125  0.3143
 3975SOL    HW123387   4.358   1.750   3.026  1.5447  0.1626  0.2475
 3975SOL    HW223388   4.417   1.853   2.949 -0.1584  0.1077 -0.5349
 3976SOL     OW23389   0.481   3.027   4.187 -0.0600 -0.5953  0.0943
 3976SOL    HW123390   0.485   3.120   4.167 -0.1484 -0.5438  0.3128
 3976SOL    HW223391   0.557   3.002   4.135 -0.5472 -2.0854  0.1012
 3977SOL     OW23392   3.465   3.380  10.854  0.5646  0.1997  0.0061
 3977SOL    HW123393   3.489   3.294  10.890 -1.0959  0.3318  1.4458
 3977SOL    HW223394   3.373   3.374  10.830  0.5960  1.0567 -0.3046
 3978SOL     OW23395   1.038   0.844   4.308 -0.4478 -0.5088 -0.2113
 3978SOL    HW123396   1.095   0.842   4.385 -1.0711 -0.0702  0.2579
 3978SOL    HW223397   0.986   0.922   4.325  0.9481  0.5687 -0.8836
 3979SOL     OW23398   1.767   4.692   9.619  0.4048  0.0524 -0.8132
 3979SOL    HW123399   1.707   0.005   9.684  3.7679  2.0031  1.1784
 3979SOL    HW223400   1.700   4.635   9.582 -0.9660  1.2223 -0.1406
 3980SOL     OW23401   3.850   2.585  13.707 -0.0513 -0.0105 -0.2518
 3980SOL    HW123402   3.788   2.514  13.690 -1.4139  1.0086  0.5140
 3980SOL    HW223403   3.856   2.610  13.615 -2.2942 -0.2414 -0.4670
 3981SOL     OW23404   1.323   0.693   7.372 -0.5227 -0.3880 -0.4474
 3981SOL    HW123405   1.393   0.721   7.313 -0.6561 -2.5729 -1.6267
 3981SOL    HW223406   1.255   0.651   7.319 -0.9758 -1.0888  0.7000
 3982SOL     OW23407   3.796   0.621   2.824 -0.7998  0.1786 -0.6714
 3982SOL    HW123408   3.802   0.702   2.774 -0.2019  1.0037  0.7466
 3982SOL    HW223409   3.850   0.567   2.765 -0.0391  0.1693  0.0413
 3983SOL     OW23410   4.522   3.261   8.267  0.7260 -0.1791 -0.1970
 3983SOL    HW123411   4.587   3.200   8.300  0.6552 -0.0441  0.1940
 3983SOL    HW223412   4.541   3.338   8.321  1.5959 -1.0938  0.8102
 3984SOL     OW23413   0.742   2.812  11.034  0.3393  0.1998 -0.3295
 3984SOL    HW123414   0.776   2.873  10.968  0.4865  0.1532 -0.2971
 3984SOL    HW223415   0.650   2.839  11.033  0.8142  1.8453  1.3563
 3985SOL     OW23416   1.345   3.628   6.991 -0.2228 -0.0630 -0.1600
 3985SOL    HW123417   1.438   3.609   7.007 -0.4031 -1.9641 -1.4112
 3985SOL    HW223418   1.309   3.545   6.960  0.8049  0.0084 -1.5471
 3986SOL     OW23419   1.245   2.356   7.595  0.2404  0.3673 -0.1118
 3986SOL    HW123420   1.187   2.292   7.637  1.3644 -0.6665 -0.1267
 3986SOL    HW223421   1.195   2.437   7.587  0.7312  0.9109  2.5505
 3987SOL     OW23422   0.497   0.065   4.057 -0.0116 -0.1284 -0.1214
 3987SOL    HW123423   0.525   0.156   4.056 -1.5727  0.3513  1.1049
 3987SOL    HW223424   0.413   0.072   4.102  0.8695 -2.7166  1.9401
 3988SOL     OW23425   3.425   4.653  11.414 -0.2947 -0.0011  0.3889
 3988SOL    HW123426   3.348   4.607  11.448 -0.6043  1.0790  1.1630
 3988SOL    HW223427   3.384   4.718  11.357  1.1587  0.6659  0.1056
 3989SOL     OW23428   3.084   1.010   9.942  0.1767 -1.1602  0.4404
 3989SOL    HW123429   3.164   1.061   9.929 -0.3814  0.3164  2.7203
 3989SOL    HW223430   3.061   1.000   9.850  1.6915 -0.5542 -0.0090
 3990SOL     OW23431   4.211   1.508   7.590 -0.4174  0.4806 -0.2013
 3990SOL    HW123432   4.306   1.510   7.589 -0.4131  0.8592  1.1498
 3990SOL    HW223433   4.199   1.578   7.654  3.3581  0.5325  0.4431
 3991SOL     OW23434   2.363   3.491  14.512  0.0885 -0.0125 -0.4668
 3991SOL    HW123435   2.351   3.513  14.420  0.8039 -1.6597 -0.9652
 3991SOL    HW223436   2.421   3.415  14.506  0.1560 -0.0722  0.8142
 3992SOL     OW23437   4.237   3.312  11.440  0.4412  0.9814 -0.2375
 3992SOL    HW123438   4.307   3.249  11.422 -0.7369  0.0622 -1.5384
 3992SOL    HW223439   4.205   3.301  11.530  1.1210 -0.4901 -0.1854
 3993SOL     OW23440   3.952   1.932   8.532  0.2103  0.1376  0.0024
 3993SOL    HW123441   3.939   1.853   8.584 -0.7965  0.2500 -0.0932
 3993SOL    HW223442   3.885   1.915   8.466  0.1744 -0.6027  0.2333
 3994SOL     OW23443   4.706   2.837   6.852 -0.1334  0.6697  0.6865
 3994SOL    HW123444   4.612   2.837   6.871 -0.0533 -0.8430  1.0234
 3994SOL    HW223445   4.720   2.743   6.851 -2.5983  0.2870  1.3605
 3995SOL     OW23446   1.323   2.087   4.484 -0.3755 -0.4298 -0.4090
 3995SOL    HW123447   1.301   2.160   4.427 -0.9918 -1.1413 -1.0900
 3995SOL    HW223448   1.247   2.088   4.543  1.3469 -0.5607  1.7803
 3996SOL     OW23449   0.869   0.250   6.516  0.1730  0.6478 -0.1152
 3996SOL    HW123450   0.941   0.211   6.566  0.1320  1.8649  0.8906
 3996SOL    HW223451   0.921   0.314   6.468  0.0121 -0.1141 -1.2859
 3997SOL     OW23452   2.569   2.230  13.009  0.1080 -0.6396  0.0198
 3997SOL    HW123453   2.593   2.303  13.066 -0.1119 -0.1427 -0.5284
 3997SOL    HW223454   2.553   2.152  13.063 -0.3562 -1.7354 -1.6939
 3998SOL     OW23455   0.897   0.290   3.428  0.5955 -0.3358  0.3553
 3998SOL    HW123456   0.876   0.314   3.338 -1.3083  2.3074  1.5229
 3998SOL    HW223457   0.813   0.278   3.473 -0.2547 -1.5162 -1.5574
 3999SOL     OW23458   0.099   4.616  14.489  0.1583  0.3536  0.0372
 3999SOL    HW123459   0.171   4.590  14.547  2.1930  2.3394 -1.6183
 3999SOL    HW223460   0.082   4.530  14.450 -0.6612  1.4977 -2.0948
 4000SOL     OW23461   3.113   3.134  11.688  0.5596  0.1999 -0.1140
 4000SOL    HW123462   3.026   3.164  11.664  0.8026  1.2774  0.3386
 4000SOL    HW223463   3.106   3.153  11.782  0.7108 -0.1583 -0.0297
 4001SOL     OW23464   3.887   1.154   6.015 -0.6582 -0.0136  0.1734
 4001SOL    HW123465   3.953   1.093   5.984 -1.8440 -0.2954 -1.8568
 4001SOL    HW223466   3.868   1.131   6.106  1.1859  0.4643  0.6717
 4002SOL     OW23467   3.402   1.301   6.832 -0.2049 -0.4463 -0.6823
 4002SOL    HW123468   3.427   1.324   6.742  2.8619  1.2155  0.5591
 4002SOL    HW223469   3.320   1.349   6.843  0.2392  0.5922 -1.8380
 4003SOL     OW23470   2.013   4.395  11.754  0.4216 -0.6797 -0.1202
 4003SOL    HW123471   1.952   4.465  11.778  0.0960 -1.3042  0.8419
 4003SOL    HW223472   2.100   4.433  11.763  0.6027 -1.3667  0.9440
 4004SOL     OW23473   4.561   0.168  13.109 -0.2836  0.7595 -0.0289
 4004SOL    HW123474   4.600   0.093  13.156 -2.7182 -0.6020 -0.2072
 4004SOL    HW223475   4.614   0.148  13.032 -1.8617 -0.4031 -0.8197
 4005SOL     OW23476   0.322   3.326  11.180  0.1311 -0.3321 -0.1510
 4005SOL    HW123477   0.292   3.383  11.251 -0.5008  0.1542 -0.8093
 4005SOL    HW223478   0.334   3.246  11.230  1.3158  0.3653  0.6870
 4006SOL     OW23479   3.066   0.797  12.232 -0.2280  0.4549 -0.4303
 4006SOL    HW123480   2.982   0.757  12.251 -0.4082 -0.0260 -2.2276
 4006SOL    HW223481   3.092   0.737  12.162 -0.3103 -0.8136  0.6319
 4007SOL     OW23482   0.278   1.732   1.451  0.4618 -0.1077  0.5012
 4007SOL    HW123483   0.328   1.667   1.401 -0.5373 -0.9679  0.6135
 4007SOL    HW223484   0.328   1.812   1.435 -1.9547  0.5675 -3.8096
 4008SOL     OW23485   0.964   3.176  17.529  0.2560 -0.1920  0.3786
 4008SOL    HW123486   1.017   3.169  17.609  0.4189  2.3105  0.5031
 4008SOL    HW223487   0.879   3.196  17.567 -0.6393 -0.0746 -1.7113
 4009SOL     OW23488   1.598   4.535   7.262  0.5423 -0.4485  0.6276
 4009SOL    HW123489   1.598   4.630   7.274 -0.0062 -0.5768  1.7194
 4009SOL    HW223490   1.655   4.531   7.186  0.0324  1.6568  0.1273
 4010SOL     OW23491   1.714   2.812   6.717 -0.4228 -0.0177 -0.7119
 4010SOL    HW123492   1.654   2.822   6.791  0.7233  0.1237  0.2071
 4010SOL    HW223493   1.697   2.723   6.686 -0.4446 -0.3964  0.3764
 4011SOL     OW23494   0.317   2.171  13.859  0.2594 -0.4750 -0.0108
 4011SOL    HW123495   0.260   2.148  13.933  0.0702 -2.3344 -0.7285
 4011SOL    HW223496   0.332   2.081  13.829 -0.8031 -0.7494  0.2518
 4012SOL     OW23497   2.097   3.954   8.259  0.1029  0.3364 -0.3778
 4012SOL    HW123498   2.028   3.910   8.209 -0.3679  1.2871 -0.5875
 4012SOL    HW223499   2.174   3.902   8.235  0.1862  0.7436 -1.0132
 4013SOL     OW23500   0.831   2.799   6.960 -0.3535 -0.1577 -0.1931
 4013SOL    HW123501   0.874   2.773   6.878 -0.6466 -1.1807 -0.0252
 4013SOL    HW223502   0.853   2.721   7.011  0.3752  0.4938  0.4931
 4014SOL     OW23503   2.456   1.434   9.645 -0.8375  0.0907  0.2358
 4014SOL    HW123504   2.475   1.391   9.562  1.7959  0.9373  0.4198
 4014SOL    HW223505   2.426   1.519   9.612  0.2094 -0.1780 -1.3910
 4015SOL     OW23506   0.459   0.779   4.174  0.0058  0.4710  0.0943
 4015SOL    HW123507   0.548   0.774   4.139 -0.7068 -0.8806 -1.5236
 4015SOL    HW223508   0.462   0.729   4.255 -0.9424 -1.0134 -0.7901
 4016SOL     OW23509   0.776   0.762   9.366 -0.1317 -0.3846  0.4433
 4016SOL    HW123510   0.713   0.757   9.439 -0.2925  2.3536  0.4789
 4016SOL    HW223511   0.756   0.683   9.316 -3.7214  0.1620  0.9998
 4017SOL     OW23512   2.809   1.503  13.141 -0.0981 -0.3095  0.0339
 4017SOL    HW123513   2.796   1.427  13.085 -0.7272  0.6900 -1.1641
 4017SOL    HW223514   2.815   1.560  13.065 -2.7286  0.7181  0.5976
 4018SOL     OW23515   2.014   0.101   1.272 -0.4785  0.0930 -0.4158
 4018SOL    HW123516   2.084   0.124   1.332 -1.1365 -0.5837  0.6198
 4018SOL    HW223517   1.966   0.181   1.251 -0.3988 -0.3853 -2.4310
 4019SOL     OW23518   3.663   1.666   8.426  0.3097  0.4945  0.2462
 4019SOL    HW123519   3.596   1.706   8.369  0.5209 -1.7940 -1.6082
 4019SOL    HW223520   3.713   1.624   8.356  3.8711  2.6579  1.4909
 4020SOL     OW23521   0.170   3.068   4.224 -0.2754  0.5243  0.1489
 4020SOL    HW123522   0.137   2.987   4.262 -1.5246  0.8215 -0.3033
 4020SOL    HW223523   0.263   3.051   4.214 -0.8408 -1.3904 -1.8244
 4021SOL     OW23524   4.045   4.543   3.896  0.7062  0.1148  0.6094
 4021SOL    HW123525   3.986   4.618   3.896 -0.2645 -0.6485  0.7864
 4021SOL    HW223526   4.036   4.506   3.809  0.6244 -2.1606  1.5771
 4022SOL     OW23527   2.961   3.389   1.373 -0.4237 -0.2160  0.4039
 4022SOL    HW123528   3.027   3.458   1.373  1.7330 -2.2840  2.6203
 4022SOL    HW223529   3.005   3.324   1.428 -0.5357  0.4382  1.2455
 4023SOL     OW23530   2.474   2.462  15.767 -0.0381 -0.3329 -0.3008
 4023SOL    HW123531   2.397   2.405  15.774 -0.0895 -0.1252  0.7264
 4023SOL    HW223532   2.482   2.503  15.853  0.1869 -1.9317  0.4432
 4024SOL     OW23533   1.514   0.391  16.436 -0.4740  0.0755  0.3201
 4024SOL    HW123534   1.573   0.337  16.383  0.5280  2.4484 -0.9456
 4024SOL    HW223535   1.466   0.317  16.475  0.4118  0.0368  1.3423
 4025SOL     OW23536   2.189   1.525   5.825 -0.0645 -0.1624 -0.4523
 4025SOL    HW123537   2.234   1.598   5.783 -1.7403  0.3631 -1.3528
 4025SOL    HW223538   2.268   1.472   5.835  0.6447  1.2240  1.2892
 4026SOL     OW23539   4.280   3.997   8.029 -0.0457  0.0799 -0.4364
 4026SOL    HW123540   4.229   4.071   8.061  1.4733  1.4150 -1.0993
 4026SOL    HW223541   4.216   3.929   8.009 -0.6015  0.7342 -0.8731
 4027SOL     OW23542   2.267   1.041  15.179  0.1663  0.1884  0.3420
 4027SOL    HW123543   2.349   1.064  15.222  0.5676  0.9155 -0.8213
 4027SOL    HW223544   2.276   1.088  15.097 -0.9388 -0.1537  0.0201
 4028SOL     OW23545   0.942   1.691  10.884  0.1049  0.0840 -0.2299
 4028SOL    HW123546   0.952   1.756  10.814 -2.0666 -0.5833 -1.1460
 4028SOL    HW223547   0.992   1.730  10.956 -1.0698  1.8266 -0.3371
 4029SOL     OW23548   2.170   2.954   7.776 -0.0769 -0.0526 -0.6163
 4029SOL    HW123549   2.198   2.876   7.824 -1.4144  0.3718  0.8413
 4029SOL    HW223550   2.176   3.026   7.839 -3.3500  0.0839 -0.4489
 4030SOL     OW23551   0.236   3.704   2.000  0.0474 -0.1404 -0.1771
 4030SOL    HW123552   0.197   3.723   1.915 -0.8571  1.2873  0.5804
 4030SOL    HW223553   0.232   3.788   2.046 -2.7505 -0.8276  0.8551
 4031SOL     OW23554   4.184   0.036  12.122  0.1018 -0.1202  0.1774
 4031SOL    HW123555   4.199   0.087  12.202 -0.1179 -0.0255  0.1566
 4031SOL    HW223556   4.272   0.048  12.085  0.0230  1.4276  0.4780
 4032SOL     OW23557   0.739   2.271   8.612  0.4852 -0.4673  0.1756
 4032SOL    HW123558   0.777   2.327   8.680 -1.1577 -1.7725  2.1663
 4032SOL    HW223559   0.794   2.195   8.628 -1.0611 -1.4600  0.7600
 4033SOL     OW23560   1.670   3.887   7.441 -0.0815 -0.0417  0.1609
 4033SOL    HW123561   1.583   3.916   7.413 -1.2817 -1.8742  2.0320
 4033SOL    HW223562   1.659   3.888   7.536 -0.3013 -1.3527  0.1473
 4034SOL     OW23563   3.323   4.555   3.697  0.3094  0.4412  0.2704
 4034SOL    HW123564   3.349   4.609   3.771 -1.9636 -0.7628  1.9448
 4034SOL    HW223565   3.393   4.491   3.686  1.1691  1.5797 -0.8449
 4035SOL     OW23566   4.023   3.386   8.786 -0.2418  0.0931  0.2659
 4035SOL    HW123567   3.980   3.301   8.776  0.2657 -0.1416  0.0723
 4035SOL    HW223568   4.108   3.378   8.742  0.1054  1.4293  0.7136
 4036SOL     OW23569   2.990   0.791  10.842  0.3400 -0.5334 -0.6988
 4036SOL    HW123570   2.904   0.750  10.835  0.2225 -0.7699  2.1805
 4036SOL    HW223571   2.959   0.876  10.874  0.7794 -0.9018  0.7033
 4037SOL     OW23572   4.261   0.107   2.614 -0.3629  0.1905  0.2940
 4037SOL    HW123573   4.223   0.095   2.701  0.4749  0.0044  0.6337
 4037SOL    HW223574   4.289   0.022   2.579  1.4689  0.2661  1.5247
 4038SOL     OW23575   0.435   1.813   7.981 -0.3707  0.0679 -0.6712
 4038SOL    HW123576   0.381   1.860   8.044  2.3875  1.9190  0.3366
 4038SOL    HW223577   0.522   1.842   8.010 -0.2000  0.1421 -1.2550
 4039SOL     OW23578   2.265   4.518  11.803 -0.0455  0.3938 -0.0328
 4039SOL    HW123579   2.321   4.593  11.823 -0.8492  1.6046 -2.2464
 4039SOL    HW223580   2.331   4.453  11.782  0.8959  1.2907  0.1512
 4040SOL     OW23581   1.557   3.653   5.879  0.3769 -0.5435  0.6856
 4040SOL    HW123582   1.577   3.746   5.882 -0.7179 -0.2600 -0.6582
 4040SOL    HW223583   1.557   3.634   5.973 -0.5973  0.6196  0.9124
 4041SOL     OW23584   0.513   4.541   5.276 -0.1325  0.2270 -0.3048
 4041SOL    HW123585   0.560   4.563   5.357  0.6177  2.5320 -1.3781
 4041SOL    HW223586   0.429   4.553   5.320 -0.9784  0.6784 -2.0471
 4042SOL     OW23587   4.699   2.215   9.073 -0.2595  0.2558 -0.2954
 4042SOL    HW123588   0.068   2.193   9.088 -0.4342  0.1026  0.5529
 4042SOL    HW223589   4.673   2.229   9.164  0.5697  0.2816 -0.0655
 4043SOL     OW23590   3.271   4.208   4.561 -0.5533 -0.6651 -0.6958
 4043SOL    HW123591   3.304   4.153   4.632 -1.7427 -0.3623  0.1007
 4043SOL    HW223592   3.179   4.214   4.588  0.1372  1.7280  1.1299
 4044SOL     OW23593   3.585   0.579   6.914  0.4352 -0.0040 -0.0158
 4044SOL    HW123594   3.508   0.533   6.949 -0.8126 -0.3440 -3.1822
 4044SOL    HW223595   3.649   0.509   6.904 -1.7027 -1.8022 -1.1485
 4045SOL     OW23596   4.699   0.003   4.140  0.0241 -0.4381 -0.2735
 4045SOL    HW123597   4.613   0.036   4.114  1.0965  2.1372 -0.5069
 4045SOL    HW223598   4.698   4.636   4.107 -0.6443  0.0635 -1.6373
 4046SOL     OW23599   0.835   0.092   5.150 -0.9740  0.5117 -0.0742
 4046SOL    HW123600   0.927   0.118   5.144 -1.0283  0.9795  1.2411
 4046SOL    HW223601   0.829   0.078   5.245 -0.6563  0.0822 -0.1148
 4047SOL     OW23602   3.865   3.494   5.616  0.0002  0.5129  0.3058
 4047SOL    HW123603   3.840   3.574   5.661  1.3066  0.6438  0.7820
 4047SOL    HW223604   3.788   3.480   5.560  1.0641 -0.2897 -0.9786
 4048SOL     OW23605   3.766   4.209   2.703 -0.4350 -0.0621  0.2362
 4048SOL    HW123606   3.800   4.166   2.624 -0.5171  1.7813 -0.8020
 4048SOL    HW223607   3.697   4.266   2.669 -0.5607  0.9487  2.2317
 4049SOL     OW23608   3.043   0.038   8.897  0.0251 -0.6184  0.5256
 4049SOL    HW123609   3.073   0.116   8.944  1.5420 -1.1904  0.4990
 4049SOL    HW223610   2.998   0.081   8.824  0.7724  1.3501  1.2111
 4050SOL     OW23611   3.685   3.811   7.186  0.1996  0.6113 -0.1935
 4050SOL    HW123612   3.743   3.745   7.223 -1.9768 -0.9694  0.3764
 4050SOL    HW223613   3.655   3.770   7.105 -0.8158  1.2286 -0.1336
 4051SOL     OW23614   3.012   3.336   5.169  0.4050 -0.5705  0.4283
 4051SOL    HW123615   3.087   3.391   5.148 -0.0615 -1.4816 -3.6423
 4051SOL    HW223616   3.017   3.347   5.264  0.6193  2.0897  0.0889
 4052SOL     OW23617   1.059   4.572   2.989 -0.2566 -0.4078 -0.0992
 4052SOL    HW123618   1.001   4.563   3.065 -0.0603 -0.1677  0.0773
 4052SOL    HW223619   1.136   4.528   3.025 -0.3953 -0.2768  0.3559
 4053SOL     OW23620   3.470   4.075   1.004 -0.4399  0.4669  0.2286
 4053SOL    HW123621   3.533   4.049   0.936 -0.0913  0.4763  0.5473
 4053SOL    HW223622   3.386   4.079   0.959 -1.1909  0.3080  1.6158
 4054SOL     OW23623   3.099   3.451   3.296 -0.5188 -0.0407  0.5967
 4054SOL    HW123624   3.052   3.519   3.247 -1.0225 -0.4222  0.5467
 4054SOL    HW223625   3.061   3.371   3.260  0.5715 -0.5424  0.5641
 4055SOL     OW23626   2.122   4.205   2.926 -0.1929  0.4985  0.2718
 4055SOL    HW123627   2.210   4.168   2.920 -0.7640 -1.1132  1.6627
 4055SOL    HW223628   2.123   4.231   3.018  0.4518  2.4580 -0.2950
 4056SOL     OW23629   0.201   1.305   8.312  0.2719 -0.4431  0.0335
 4056SOL    HW123630   0.208   1.210   8.315  2.4686 -0.2699  1.1802
 4056SOL    HW223631   0.200   1.328   8.219  0.6440 -0.4334  0.0325
 4057SOL     OW23632   2.522   4.537   6.505  0.1299  0.4669 -0.1141
 4057SOL    HW123633   2.466   4.591   6.561  0.9814  1.8190 -0.5768
 4057SOL    HW223634   2.597   4.527   6.564 -0.1317  0.3228  0.1952
 4058SOL     OW23635   0.403   2.215   8.687  0.0933  0.3368  0.8229
 4058SOL    HW123636   0.426   2.213   8.594 -1.1587  1.2434  0.5022
 4058SOL    HW223637   0.364   2.128   8.692  3.1347 -1.0075  1.5361
 4059SOL     OW23638   2.505   2.930   4.389 -0.3179  0.3785  0.3085
 4059SOL    HW123639   2.515   2.956   4.298  1.2800  1.1875  0.7296
 4059SOL    HW223640   2.496   2.837   4.369 -0.1320  0.0643  1.6688
 4060SOL     OW23641   2.845   2.005   8.796  0.2127 -0.3822  0.0694
 4060SOL    HW123642   2.767   1.990   8.849  1.5129 -0.8291  1.8729
 4060SOL    HW223643   2.895   1.925   8.813  0.5511 -0.0010  0.8864
 4061SOL     OW23644   2.813   3.473   1.949 -0.0346  0.2749 -0.3020
 4061SOL    HW123645   2.872   3.412   1.904 -1.7468 -1.1195 -0.6250
 4061SOL    HW223646   2.778   3.521   1.874 -4.0021 -0.8064  0.8709
 4062SOL     OW23647   3.015   1.499   4.851 -0.1455 -0.3261  0.0984
 4062SOL    HW123648   3.037   1.406   4.845 -1.2914 -0.5019 -1.4015
 4062SOL    HW223649   2.920   1.493   4.860 -0.2323 -0.1352 -0.6433
 4063SOL     OW23650   3.896   0.703  11.777 -0.1181 -0.5318 -0.6891
 4063SOL    HW123651   3.889   0.615  11.739  1.7142 -0.6502 -0.7517
 4063SOL    HW223652   3.867   0.689  11.867 -1.7524  2.0520 -0.7987
 4064SOL     OW23653   2.364   1.156   3.882  0.3068 -0.3562  0.0765
 4064SOL    HW123654   2.411   1.079   3.914 -0.5316  0.4424  3.2174
 4064SOL    HW223655   2.426   1.224   3.907 -0.0197  0.6469 -1.9008
 4065SOL     OW23656   1.895   2.497   1.407  1.6306 -0.1548 -0.0679
 4065SOL    HW123657   1.902   2.489   1.502 -1.1641 -3.3577 -0.1113
 4065SOL    HW223658   1.893   2.592   1.393 -0.0453 -0.0576  0.7292
 4066SOL     OW23659   2.269   3.701  16.352  0.0383  0.4370  0.1644
 4066SOL    HW123660   2.215   3.721  16.275  0.2518  1.4615  0.2740
 4066SOL    HW223661   2.269   3.789  16.390  0.2210 -0.9033  3.2711
 4067SOL     OW23662   0.989   4.232   6.327 -0.1635  0.2555  0.2579
 4067SOL    HW123663   1.013   4.313   6.372 -0.3743  2.2035 -3.0686
 4067SOL    HW223664   0.894   4.239   6.342 -0.0927  1.4473  0.1631
 4068SOL     OW23665   3.520   2.300   4.376  0.4604 -0.2260  0.4103
 4068SOL    HW123666   3.451   2.292   4.310  0.6974  1.9452 -0.1010
 4068SOL    HW223667   3.596   2.327   4.324  1.0782 -1.0264  0.9036
 4069SOL     OW23668   3.567   2.140  16.406  0.2691  0.1154  0.0944
 4069SOL    HW123669   3.638   2.156  16.468 -0.1502 -0.1707  0.6382
 4069SOL    HW223670   3.569   2.045  16.397 -1.3348  0.1884 -1.2070
 4070SOL     OW23671   0.045   0.405   5.354  0.5395  0.0317 -0.0866
 4070SOL    HW123672   4.695   0.353   5.387  2.0069 -1.2258  1.2357
 4070SOL    HW223673   0.122   0.348   5.366  0.7117  0.5654  1.3768
 4071SOL     OW23674   4.372   3.804  12.870  0.4063  0.0676 -0.1987
 4071SOL    HW123675   4.296   3.826  12.924  1.8796 -0.3355  2.0896
 4071SOL    HW223676   4.398   3.714  12.892 -0.2378  0.1743  1.0158
 4072SOL     OW23677   2.578   2.370  10.594  0.2095 -0.2261 -0.2805
 4072SOL    HW123678   2.581   2.278  10.567 -1.3000 -0.0979 -0.8631
 4072SOL    HW223679   2.552   2.408  10.510  1.4914  1.0234 -0.1140
 4073SOL     OW23680   1.751   4.492   5.161  0.1646 -0.1631 -0.3391
 4073SOL    HW123681   1.741   4.510   5.067  2.4619  0.6289 -0.4362
 4073SOL    HW223682   1.669   4.447   5.183 -0.1646  1.2741  1.3363
 4074SOL     OW23683   0.523   4.386   0.550 -0.0259  0.6356  0.0148
 4074SOL    HW123684   0.541   4.293   0.558 -3.8570  0.1485  2.8196
 4074SOL    HW223685   0.606   4.424   0.522 -0.7916  1.7932 -0.6968
 4075SOL     OW23686   4.458   1.186   0.246 -0.3793 -0.1390  0.2350
 4075SOL    HW123687   4.523   1.230   0.300 -0.4480  1.1516 -0.7103
 4075SOL    HW223688   4.506   1.126   0.189  1.8788 -0.4888  2.5414
 4076SOL     OW23689   4.698   2.296   6.057  0.3561 -0.1569  0.0534
 4076SOL    HW123690   0.034   2.366   6.082 -0.2399 -0.2646  1.8062
 4076SOL    HW223691   0.027   2.223   6.092 -0.5086 -0.6740  0.2724
 4077SOL     OW23692   4.514   1.914   6.263 -0.1119 -0.3076 -0.4220
 4077SOL    HW123693   4.527   1.892   6.355  3.3653  0.9807 -0.5969
 4077SOL    HW223694   4.610   1.915   6.252  0.0533 -0.7192  1.0759
 4078SOL     OW23695   0.132   3.220  12.863  0.2339  0.1430 -0.7048
 4078SOL    HW123696   0.140   3.227  12.767  0.7839  0.8863 -0.6106
 4078SOL    HW223697   0.079   3.141  12.869  0.5514  0.0554  0.9374
 4079SOL     OW23698   3.636   2.749   8.413  0.1070  0.6110  0.4134
 4079SOL    HW123699   3.679   2.834   8.418  0.7661  0.4062 -1.5272
 4079SOL    HW223700   3.620   2.734   8.506 -0.9507  0.6274  0.2279
 4080SOL     OW23701   1.392   4.051   8.832  0.1295 -0.1495  0.5042
 4080SOL    HW123702   1.337   3.981   8.865 -1.6765  0.0207 -2.1470
 4080SOL    HW223703   1.332   4.122   8.855  0.6813  1.1889 -2.1064
 4081SOL     OW23704   3.381   2.307   8.637 -0.3364 -0.2276  0.1242
 4081SOL    HW123705   3.468   2.267   8.640 -0.2543  0.0698  1.4129
 4081SOL    HW223706   3.331   2.256   8.700 -0.6016  0.9637  0.8666
 4082SOL     OW23707   4.435   0.820   5.696 -0.3063  0.0793 -0.2214
 4082SOL    HW123708   4.373   0.803   5.767  1.6938 -1.0895  1.2430
 4082SOL    HW223709   4.491   0.744   5.684 -0.6553 -0.1751 -0.2259
 4083SOL     OW23710   3.134   2.470   0.366 -0.0518  0.0098 -0.4949
 4083SOL    HW123711   3.054   2.423   0.343  0.8306 -1.4073 -0.7231
 4083SOL    HW223712   3.099   2.517   0.441  0.8177  0.1836 -0.1985
 4084SOL     OW23713   3.204   4.144   8.872  0.1255  0.4147  0.1515
 4084SOL    HW123714   3.129   4.199   8.849  0.2985  0.4026 -0.4623
 4084SOL    HW223715   3.178   4.124   8.961  0.0892 -2.4205 -0.4830
 4085SOL     OW23716   4.157   4.432  17.182  0.4411 -0.1350 -0.4904
 4085SOL    HW123717   4.078   4.390  17.215 -0.5024  0.4907 -1.9556
 4085SOL    HW223718   4.169   4.495  17.253  1.4957 -2.9847  1.8470
 4086SOL     OW23719   0.792   3.115   3.224  0.3644  0.2936 -0.1533
 4086SOL    HW123720   0.808   3.190   3.166 -0.0512  0.1448 -0.4643
 4086SOL    HW223721   0.700   3.087   3.221  0.5400 -0.5575  2.7090
 4087SOL     OW23722   1.500   4.295   6.970  0.9862 -0.1051 -0.1219
 4087SOL    HW123723   1.515   4.294   7.065 -1.8975 -2.2133  0.3355
 4087SOL    HW223724   1.524   4.208   6.938 -2.7978 -0.1743 -2.7704
 4088SOL     OW23725   1.055   0.022   7.817  0.5808 -0.4259 -0.4584
 4088SOL    HW123726   1.092   0.082   7.881  0.3484 -1.0017  0.2203
 4088SOL    HW223727   0.985   0.072   7.774  1.2545 -0.3306 -1.4422
 4089SOL     OW23728   1.225   4.662   9.173  0.1439  0.0010  0.1474
 4089SOL    HW123729   1.262   4.685   9.259  0.8087 -0.8541  0.0898
 4089SOL    HW223730   1.189   4.577   9.196 -0.1473  1.1325  3.8270
 4090SOL     OW23731   1.064   1.889   9.217  0.5880  0.4348 -0.1921
 4090SOL    HW123732   1.143   1.843   9.189  0.0009 -1.5363  1.3755
 4090SOL    HW223733   1.018   1.906   9.135  0.8569 -1.1011 -0.6690
 4091SOL     OW23734   4.570   1.916  13.421  0.3401  0.0605  0.3155
 4091SOL    HW123735   4.565   1.963  13.338 -0.2329 -0.9549 -0.2387
 4091SOL    HW223736   4.662   1.921  13.447  0.1103  0.6311  1.0004
 4092SOL     OW23737   2.404   4.245   6.061  0.2328 -0.1981  0.2794
 4092SOL    HW123738   2.459   4.193   6.120  0.6448 -2.4909 -2.1391
 4092SOL    HW223739   2.466   4.316   6.045 -1.3334  1.3581  1.1255
 4093SOL     OW23740   4.054   3.605  13.436 -0.3652 -0.3107 -0.2230
 4093SOL    HW123741   4.080   3.562  13.354  0.0311 -0.0228 -0.2452
 4093SOL    HW223742   4.013   3.537  13.490 -0.6545 -0.2996 -0.4224
 4094SOL     OW23743   0.492   0.526   8.038 -0.3410  0.3686  0.4881
 4094SOL    HW123744   0.582   0.500   8.055 -0.1031  0.5355 -0.4800
 4094SOL    HW223745   0.447   0.449   8.072  0.2405  0.7637  2.1630
 4095SOL     OW23746   2.142   0.958   3.782  0.1533  0.1280 -0.1060
 4095SOL    HW123747   2.129   1.053   3.773  1.3336  0.2700 -0.3803
 4095SOL    HW223748   2.100   0.947   3.867  0.7383  0.6359  0.2507
 4096SOL     OW23749   1.068   2.873   7.889  0.4461 -0.0723  0.6238
 4096SOL    HW123750   1.154   2.898   7.855  0.7459 -0.0766  1.3751
 4096SOL    HW223751   1.010   2.872   7.813  1.4039 -0.5345 -0.1058
 4097SOL     OW23752   1.639   1.585   1.374  0.7168  0.5809 -0.5895
 4097SOL    HW123753   1.589   1.566   1.454  0.8328  1.0331 -0.4077
 4097SOL    HW223754   1.725   1.583   1.415 -0.0768  0.2326  1.0974
 4098SOL     OW23755   3.669   0.823   8.434 -0.3367 -0.4112 -0.6194
 4098SOL    HW123756   3.598   0.859   8.381 -0.0278 -0.6253 -1.1840
 4098SOL    HW223757   3.636   0.838   8.523 -0.1457 -0.1426 -0.5956
 4099SOL     OW23758   3.042   0.218   6.430  0.8981  0.0041  0.7198
 4099SOL    HW123759   3.053   0.296   6.376  0.1800 -0.4542 -0.1053
 4099SOL    HW223760   2.966   0.242   6.483 -0.4323 -1.1345 -0.6323
 4100SOL     OW23761   4.565   3.889   5.239 -0.0975 -0.6451  0.7784
 4100SOL    HW123762   4.489   3.856   5.191 -0.5079  2.3427 -0.6368
 4100SOL    HW223763   4.626   3.815   5.231  2.1421  1.1187  1.4204
 4101SOL     OW23764   3.548   4.284  17.681 -0.0514  0.2849 -0.1074
 4101SOL    HW123765   3.453   4.286  17.676 -0.0834  0.3442  0.5435
 4101SOL    HW223766   3.576   4.314  17.594  1.0422  1.9028  0.7784
 4102SOL     OW23767   2.363   3.153   5.797  0.4767 -0.0089 -0.0077
 4102SOL    HW123768   2.298   3.085   5.777  0.8773 -0.2952 -0.3352
 4102SOL    HW223769   2.423   3.135   5.724  0.6851  1.8572 -0.3033
 4103SOL     OW23770   3.149   4.256   3.115  0.0687  0.4733  0.0462
 4103SOL    HW123771   3.123   4.261   3.023  0.9706  0.6398 -0.1983
 4103SOL    HW223772   3.242   4.256   3.093  0.7128 -0.2849  2.7995
 4104SOL     OW23773   1.916   3.008  13.293 -0.0462  0.1462 -0.0498
 4104SOL    HW123774   1.920   3.014  13.198  0.8855  0.8162  0.0310
 4104SOL    HW223775   1.832   3.053  13.293 -1.3318 -2.2489 -2.2159
 4105SOL     OW23776   0.595   2.162   9.034  0.2954 -0.0098 -0.1947
 4105SOL    HW123777   0.527   2.110   8.991  1.1157 -0.8697 -0.4414
 4105SOL    HW223778   0.591   2.108   9.114  0.7367  1.6098  0.9102
 4106SOL     OW23779   4.171   3.930   6.332 -0.1442  0.7887 -0.4206
 4106SOL    HW123780   4.174   3.901   6.241  0.5191  1.2603 -0.5467
 4106SOL    HW223781   4.080   3.959   6.322 -0.8855 -1.2427  0.4541
 4107SOL     OW23782   3.797   0.580  16.698 -0.2976 -0.1889 -0.0199
 4107SOL    HW123783   3.755   0.522  16.762 -0.5146  0.8661  0.7946
 4107SOL    HW223784   3.850   0.510  16.660  1.4100 -0.1247  2.2244
 4108SOL     OW23785   1.374   1.005   3.897 -0.1176  0.2241  0.1602
 4108SOL    HW123786   1.329   1.079   3.939 -0.1122 -0.4591  1.3903
 4108SOL    HW223787   1.322   0.926   3.915  0.1110  0.3632  1.4774
 4109SOL     OW23788   0.570   0.371   7.219  0.6294  0.1744  0.1268
 4109SOL    HW123789   0.547   0.279   7.204  0.2291  0.3028 -0.0575
 4109SOL    HW223790   0.507   0.397   7.286  0.2265  1.2126 -0.6653
 4110SOL     OW23791   2.298   4.095   5.837 -0.1688  0.8198 -0.0523
 4110SOL    HW123792   2.326   4.164   5.896 -1.8165  0.5675  1.0192
 4110SOL    HW223793   2.306   4.009   5.879  0.9875  1.0462  0.1761
 4111SOL     OW23794   3.658   0.006   4.745 -0.1784  0.4833  0.2791
 4111SOL    HW123795   3.603   0.042   4.675 -0.8275 -2.3768 -0.6908
 4111SOL    HW223796   3.639   4.635   4.742 -0.3984  0.6255 -2.8921
 4112SOL     OW23797   3.645   0.166  17.249  0.0515  0.5275 -0.6328
 4112SOL    HW123798   3.728   0.149  17.206  0.4744  0.0830  0.3763
 4112SOL    HW223799   3.678   0.223  17.318  0.1477  0.2621 -0.4601
 4113SOL     OW23800   1.683   0.056   6.366 -0.0125 -0.5139  0.3675
 4113SOL    HW123801   1.656   0.134   6.416  2.5480  0.8877 -0.4614
 4113SOL    HW223802   1.681   4.707   6.429 -1.1293  0.5080  1.5203
 4114SOL     OW23803   0.609   1.999   6.349 -0.0446  0.9049  0.0022
 4114SOL    HW123804   0.599   1.916   6.395  0.8543 -0.7684 -2.8111
 4114SOL    HW223805   0.560   2.060   6.404  0.8706  1.7091 -0.0794
 4115SOL     OW23806   2.759   2.685  15.786  0.0188 -0.1979  0.1665
 4115SOL    HW123807   2.744   2.646  15.700  1.4552 -1.1054  0.3314
 4115SOL    HW223808   2.723   2.613  15.838  1.2380 -0.7217  0.2753
 4116SOL     OW23809   4.578   1.697   3.877 -0.4450 -0.2757  0.2411
 4116SOL    HW123810   4.548   1.781   3.913  1.0680  1.1578 -1.8939
 4116SOL    HW223811   4.670   1.685   3.901 -0.2891 -1.9107 -1.2127
 4117SOL     OW23812   0.973   3.378   3.321 -0.3330 -0.2411 -0.4824
 4117SOL    HW123813   0.987   3.394   3.414 -2.4302 -1.7626  0.1042
 4117SOL    HW223814   0.879   3.387   3.302 -0.8793 -0.4877  2.1156
 4118SOL     OW23815   2.349   3.306   0.207  0.0541  0.4603 -0.3062
 4118SOL    HW123816   2.322   3.394   0.183 -1.7163 -0.0727 -0.2715
 4118SOL    HW223817   2.303   3.297   0.290  0.4827  1.6002  0.0498
 4119SOL     OW23818   3.596   2.426   6.433 -0.2504 -0.6933  0.4332
 4119SOL    HW123819   3.665   2.362   6.449  0.7748  0.6107  1.2484
 4119SOL    HW223820   3.593   2.455   6.524  0.9405  1.4211 -0.1939
 4120SOL     OW23821   2.683   0.560   3.118 -0.7036 -0.8113  0.0790
 4120SOL    HW123822   2.617   0.580   3.185  0.2149  2.3969  0.0471
 4120SOL    HW223823   2.623   0.548   3.044 -0.6672 -0.5248  0.0008
 4121SOL     OW23824   1.100   4.136   2.819 -0.0936 -0.2877  0.1546
 4121SOL    HW123825   1.153   4.204   2.860 -0.3801  0.8319 -1.3243
 4121SOL    HW223826   1.164   4.088   2.766 -0.6659 -2.9256  1.8366
 4122SOL     OW23827   2.943   0.545   5.094  0.6607 -0.1808 -0.3759
 4122SOL    HW123828   3.008   0.611   5.117  1.7819 -1.7038  0.8924
 4122SOL    HW223829   2.916   0.595   5.017 -0.9793 -1.0925 -0.3881
 4123SOL     OW23830   2.804   0.078   8.230  0.3318  0.5438 -0.5377
 4123SOL    HW123831   2.880   0.103   8.283 -0.6287  0.5786  0.8009
 4123SOL    HW223832   2.845   0.009   8.178 -0.1241 -2.4894  3.1321
 4124SOL     OW23833   2.690   1.630  11.400  0.2219 -0.2478  0.1045
 4124SOL    HW123834   2.697   1.663  11.311  0.6640 -0.5744  0.0200
 4124SOL    HW223835   2.703   1.708  11.454 -0.9693  0.1917 -0.2365
 4125SOL     OW23836   1.395   1.263   6.516  0.1128 -0.8962 -0.2661
 4125SOL    HW123837   1.344   1.229   6.443  0.3850  0.6190 -1.1719
 4125SOL    HW223838   1.433   1.340   6.472 -1.3865 -0.1753 -0.3002
 4126SOL     OW23839   0.671   2.647  17.136 -0.0330 -0.0713 -0.2671
 4126SOL    HW123840   0.751   2.692  17.110  1.5142 -1.8484  1.4852
 4126SOL    HW223841   0.607   2.713  17.106 -0.7437 -1.5094 -1.9386
 4127SOL     OW23842   0.961   3.466  11.446  0.2444 -0.0983 -0.3881
 4127SOL    HW123843   1.003   3.404  11.506 -0.0574 -1.3443 -1.4608
 4127SOL    HW223844   1.030   3.532  11.443  0.6928 -0.6470 -2.3806
 4128SOL     OW23845   3.526   2.685   3.748 -0.6052 -0.1847  0.7010
 4128SOL    HW123846   3.446   2.636   3.725 -0.6071 -0.3456  1.0495
 4128SOL    HW223847   3.578   2.613   3.784  0.5000  1.4139  2.2923
 4129SOL     OW23848   0.842   2.900  12.572 -0.3151  0.0890  0.4671
 4129SOL    HW123849   0.755   2.859  12.581 -0.8151  0.8119 -1.2272
 4129SOL    HW223850   0.860   2.948  12.653  1.3746 -0.4327  0.4003
 4130SOL     OW23851   2.613   0.737   7.993 -0.0483 -0.1738 -0.4025
 4130SOL    HW123852   2.586   0.822   8.027 -1.6337 -0.3139 -1.3018
 4130SOL    HW223853   2.677   0.763   7.926  0.3399  0.6383  0.2921
 4131SOL     OW23854   1.370   4.139  10.828  0.2034  0.1058 -0.2727
 4131SOL    HW123855   1.441   4.138  10.764  1.2032 -1.6552  0.8715
 4131SOL    HW223856   1.336   4.227  10.807 -0.7310 -0.0042  0.7835
 4132SOL     OW23857   2.331   2.494   8.197 -0.4663  0.6514  0.8640
 4132SOL    HW123858   2.308   2.411   8.240 -0.4697  0.9738  1.4802
 4132SOL    HW223859   2.286   2.562   8.247 -0.9438  1.1588 -0.2445
 4133SOL     OW23860   3.114   0.706   4.724 -0.5673  0.3956 -0.2913
 4133SOL    HW123861   3.136   0.622   4.765 -0.0647  0.1713 -1.0248
 4133SOL    HW223862   3.028   0.722   4.762 -0.4546 -0.0912  0.1703
 4134SOL     OW23863   4.264   2.643   5.340 -0.2877 -0.3696  0.4159
 4134SOL    HW123864   4.233   2.575   5.399 -1.4758 -2.4751 -2.6418
 4134SOL    HW223865   4.279   2.710   5.407 -2.3546  1.2427 -0.7659
 4135SOL     OW23866   3.753   0.824   9.817  0.1595 -0.9590  0.2969
 4135SOL    HW123867   3.679   0.847   9.873 -0.3698 -1.6421 -0.1251
 4135SOL    HW223868   3.800   0.761   9.872  2.1066  1.6236  1.5617
 4136SOL     OW23869   3.374   0.802  16.961  0.3663 -0.2224  0.3830
 4136SOL    HW123870   3.417   0.746  17.025 -0.4152  0.4131  1.4700
 4136SOL    HW223871   3.407   0.890  16.981  1.4419 -1.0654  2.2744
 4137SOL     OW23872   1.919   0.587   7.701  0.3389  0.7860  0.1384
 4137SOL    HW123873   1.989   0.529   7.670  0.9055  0.6554  1.6493
 4137SOL    HW223874   1.956   0.673   7.681  0.8253  0.2157 -1.4047
 4138SOL     OW23875   0.208   0.208   7.266  0.1887  0.3499 -0.3198
 4138SOL    HW123876   0.160   0.210   7.350  0.6808  1.9053 -0.0764
 4138SOL    HW223877   0.194   0.299   7.240 -0.9704  0.2075 -0.2200
 4139SOL     OW23878   1.176   3.152   4.840  0.0402  0.2462  0.4929
 4139SOL    HW123879   1.261   3.142   4.797 -1.0292  0.4876 -1.6793
 4139SOL    HW223880   1.208   3.207   4.911 -0.4658  0.9935  0.1437
 4140SOL     OW23881   1.614   0.056   7.933  0.1651  0.0220 -0.5913
 4140SOL    HW123882   1.546   0.000   7.970  1.1821 -1.3963 -0.8540
 4140SOL    HW223883   1.694   0.004   7.939  1.4789  2.1818  0.5794
 4141SOL     OW23884   2.396   1.678   9.253  0.2190  0.4877 -0.2545
 4141SOL    HW123885   2.395   1.690   9.348  2.5436 -0.4956 -0.1081
 4141SOL    HW223886   2.489   1.667   9.234 -0.2068  0.6974 -2.4396
 4142SOL     OW23887   0.832   0.453  17.141 -0.2138  0.2121 -0.3245
 4142SOL    HW123888   0.871   0.533  17.176  0.2654  0.2666 -0.9795
 4142SOL    HW223889   0.740   0.478  17.131 -0.4068 -0.7787 -1.0934
 4143SOL     OW23890   0.435   4.465   3.312 -0.2563  0.1211  0.5494
 4143SOL    HW123891   0.374   4.447   3.241  0.6314 -0.6499 -0.0172
 4143SOL    HW223892   0.463   4.378   3.341  1.7216  0.9102  0.9885
 4144SOL     OW23893   0.042   1.418   9.804 -0.3204  0.1449  0.5064
 4144SOL    HW123894   0.040   1.341   9.860  0.6519  0.5229  1.0476
 4144SOL    HW223895   0.133   1.407   9.777  0.1535  0.3794  2.0193
 4145SOL     OW23896   1.644   0.676   5.931 -0.1112  0.0683 -0.1304
 4145SOL    HW123897   1.696   0.733   5.988  0.9291 -0.1734 -0.8407
 4145SOL    HW223898   1.709   0.648   5.866  1.5073  0.5494  1.2648
 4146SOL     OW23899   2.453   3.790   2.251  0.1955 -0.4989  0.5558
 4146SOL    HW123900   2.488   3.730   2.186 -0.8717  0.4713 -0.9089
 4146SOL    HW223901   2.428   3.735   2.325  2.1952 -1.4113  0.5597
 4147SOL     OW23902   0.297   0.307  15.767 -0.1545  0.3273 -0.3048
 4147SOL    HW123903   0.203   0.322  15.773 -0.3798 -0.6049 -1.5308
 4147SOL    HW223904   0.306   0.295  15.672  1.3982 -0.6206 -0.0366
 4148SOL     OW23905   3.645   0.923  16.836 -0.1293  0.2924 -0.3193
 4148SOL    HW123906   3.677   0.859  16.899 -2.5135  0.0705  0.6754
 4148SOL    HW223907   3.666   1.007  16.878 -2.2384  0.6971 -0.0932
 4149SOL     OW23908   0.522   3.036  16.196  0.2617 -0.0492  0.0584
 4149SOL    HW123909   0.540   3.070  16.109  0.6805  4.7234  2.0194
 4149SOL    HW223910   0.429   3.055  16.208 -0.0235 -2.7906  2.1543
 4150SOL     OW23911   3.445   0.694   3.601 -0.6080  0.5409 -0.1674
 4150SOL    HW123912   3.373   0.676   3.540 -0.3291  1.6448 -0.8193
 4150SOL    HW223913   3.401   0.743   3.670  1.0707  2.3655 -0.4228
 4151SOL     OW23914   0.012   0.335  15.191  0.0145 -0.2826  0.0454
 4151SOL    HW123915   0.092   0.284  15.207 -0.7497 -1.1651  1.0587
 4151SOL    HW223916   4.670   0.272  15.221 -0.0726 -0.4462 -0.4825
 4152SOL     OW23917   4.606   4.227   6.946  0.5426  0.3925  0.5879
 4152SOL    HW123918   4.646   4.251   7.030 -2.0487 -0.9838  2.2203
 4152SOL    HW223919   4.627   4.298   6.886 -0.5554 -0.6748 -1.0466
 4153SOL     OW23920   3.764   4.635   6.226  0.2228  0.3944  0.0760
 4153SOL    HW123921   3.833   4.624   6.291 -0.9491 -3.4719  0.7081
 4153SOL    HW223922   3.701   4.682   6.280 -0.9769  1.2160 -2.0127
 4154SOL     OW23923   1.947   4.339   5.671 -0.2970  0.4485 -0.2646
 4154SOL    HW123924   1.880   4.274   5.651 -1.2103  1.6041 -0.9527
 4154SOL    HW223925   1.905   4.376   5.749  0.9217 -0.7395  0.9749
 4155SOL     OW23926   0.670   2.951   5.510  0.2993  0.4992 -0.3623
 4155SOL    HW123927   0.765   2.942   5.525  0.1610 -0.0584  0.1972
 4155SOL    HW223928   0.652   2.947   5.417 -2.1330 -0.2695  0.1386
 4156SOL     OW23929   2.154   1.801   9.962 -0.2593  0.2979  0.0402
 4156SOL    HW123930   2.227   1.744   9.987  0.5563  1.0650 -0.5661
 4156SOL    HW223931   2.193   1.886   9.984  0.6445  0.4152 -1.9898
 4157SOL     OW23932   2.702   4.014   2.662 -0.0228 -0.2705  0.6216
 4157SOL    HW123933   2.636   4.078   2.685  1.0521  0.5572  1.3855
 4157SOL    HW223934   2.672   3.992   2.573 -0.8419 -0.0217  0.8443
 4158SOL     OW23935   3.316   3.296   9.849  0.0089 -0.0087  0.1801
 4158SOL    HW123936   3.255   3.243   9.799 -1.6554  1.4948  0.6146
 4158SOL    HW223937   3.259   3.372   9.849 -0.7545 -0.5925 -1.8020
 4159SOL     OW23938   4.177   0.927   1.419  0.5149  0.1486  0.0204
 4159SOL    HW123939   4.111   0.966   1.476  0.4618 -1.6413  1.1712
 4159SOL    HW223940   4.244   0.994   1.409  1.8144 -0.8103  2.4903
 4160SOL     OW23941   0.206   2.481   6.148 -0.2299  0.1508  0.4222
 4160SOL    HW123942   0.242   2.495   6.236 -2.8905 -0.0002  1.5164
 4160SOL    HW223943   0.290   2.487   6.101 -0.9231 -0.0040 -0.8273
 4161SOL     OW23944   4.521   0.307  15.441  0.3493  0.1902  0.0125
 4161SOL    HW123945   4.477   0.367  15.381  1.0405  1.6242  0.9328
 4161SOL    HW223946   4.522   0.351  15.526 -3.0480 -0.2460  0.2629
 4162SOL     OW23947   0.901   2.994   0.962 -0.0474 -0.1364  0.2156
 4162SOL    HW123948   0.807   3.007   0.947 -0.3762 -0.9718  1.5367
 4162SOL    HW223949   0.942   3.053   0.900 -0.4962 -0.8184 -0.7350
 4163SOL     OW23950   1.178   0.016   8.630  0.2390  0.0509 -0.0417
 4163SOL    HW123951   1.213   4.715   8.716 -0.2387 -0.7059 -0.0705
 4163SOL    HW223952   1.253   0.008   8.572  1.2165 -1.8934  1.4880
 4164SOL     OW23953   3.665   3.771   8.162  0.5640 -0.0498 -0.0631
 4164SOL    HW123954   3.579   3.803   8.189  0.0645 -0.6739 -0.9093
 4164SOL    HW223955   3.643   3.693   8.110 -0.4236 -0.4911  1.0299
 4165SOL     OW23956   4.441   4.450   4.204 -0.7533 -1.7553 -0.4010
 4165SOL    HW123957   4.396   4.506   4.267  0.7314 -1.1040  0.0772
 4165SOL    HW223958   4.388   4.465   4.126 -0.4762 -0.3794 -0.3340
 4166SOL     OW23959   1.015   1.636   4.777 -0.2437 -0.1229 -0.2169
 4166SOL    HW123960   0.951   1.691   4.822 -0.1755 -0.3578  0.1687
 4166SOL    HW223961   1.099   1.670   4.809  0.5383 -1.2092 -1.0943
 4167SOL     OW23962   2.046   4.523   9.180  0.4072 -0.1418 -0.1814
 4167SOL    HW123963   2.045   4.531   9.275  1.7877  3.7333 -0.4858
 4167SOL    HW223964   2.011   4.610   9.158 -0.1849 -0.4803 -0.5824
 4168SOL     OW23965   0.585   1.988   6.967  0.4896 -0.4189  0.1395
 4168SOL    HW123966   0.497   2.026   6.965  0.7364  0.2398  1.9712
 4168SOL    HW223967   0.563   1.896   6.951 -1.4237 -0.3300  2.2070
 4169SOL     OW23968   3.321   3.348  10.565 -0.1923 -0.1846 -0.4952
 4169SOL    HW123969   3.313   3.443  10.552  2.9066 -0.0389 -1.2401
 4169SOL    HW223970   3.230   3.334  10.592  0.6166 -3.2184  0.5950
 4170SOL     OW23971   2.978   4.484   6.949  0.4859 -0.0138 -0.2708
 4170SOL    HW123972   3.054   4.461   7.003  1.4778  0.0315 -1.6582
 4170SOL    HW223973   2.991   4.579   6.938 -2.1984  0.8530  3.9490
 4171SOL     OW23974   2.258   4.115  15.777 -0.3265 -0.1411  0.3632
 4171SOL    HW123975   2.317   4.078  15.712 -0.3454  0.1444  0.1856
 4171SOL    HW223976   2.291   4.205  15.779  0.4599 -0.4399  0.9384
 4172SOL     OW23977   4.473   3.532   8.836 -0.0480  0.7746 -0.0720
 4172SOL    HW123978   4.479   3.461   8.900  1.1850  0.2274 -0.7833
 4172SOL    HW223979   4.471   3.600   8.903 -0.0319  1.1277 -0.4328
 4173SOL     OW23980   2.030   2.233   7.158 -0.2006  0.0682  0.5509
 4173SOL    HW123981   2.040   2.153   7.107 -0.9086  0.6206 -0.4545
 4173SOL    HW223982   2.051   2.201   7.246  2.2349  1.9062  0.6379
 4174SOL     OW23983   2.822   1.831   1.304  0.3946 -0.5426  0.0047
 4174SOL    HW123984   2.810   1.802   1.213 -0.0196  1.6967 -0.6510
 4174SOL    HW223985   2.828   1.748   1.351  0.4591 -0.8814 -0.6110
 4175SOL     OW23986   4.161   0.143   4.911  0.4190 -0.0666  0.6604
 4175SOL    HW123987   4.126   0.055   4.926  0.0164 -0.1041 -0.5106
 4175SOL    HW223988   4.148   0.191   4.992  2.1532  2.1754 -0.4161
 4176SOL     OW23989   0.539   2.624   2.468  0.1300  0.0942 -0.3143
 4176SOL    HW123990   0.545   2.530   2.455  0.2324  0.0667 -0.0697
 4176SOL    HW223991   0.517   2.624   2.562  2.8300  0.0719  0.3229
 4177SOL     OW23992   3.530   4.224   7.451  0.0414 -0.4903 -0.3874
 4177SOL    HW123993   3.532   4.235   7.546 -0.7850  0.1734 -0.4375
 4177SOL    HW223994   3.580   4.145   7.433  1.3273  0.5376 -1.3453
 4178SOL     OW23995   1.661   3.187   4.974 -0.2176 -0.0065 -0.0274
 4178SOL    HW123996   1.722   3.223   4.910 -2.8259  2.8926 -0.8928
 4178SOL    HW223997   1.632   3.273   5.006  1.4681  0.7092 -0.4484
 4179SOL     OW23998   1.740   1.239  15.707 -0.1769 -0.9897  0.4326
 4179SOL    HW123999   1.783   1.324  15.713 -2.6052  0.3384 -0.8216
 4179SOL    HW224000   1.667   1.243  15.769 -0.3080 -2.2141  0.3487
 4180SOL     OW24001   3.163   0.409   5.548  0.4433 -0.3671 -0.2374
 4180SOL    HW124002   3.149   0.433   5.456 -2.6613 -0.1252  0.3237
 4180SOL    HW224003   3.102   0.340   5.575 -0.9882  0.3828 -1.5576
 4181SOL     OW24004   1.291   1.092   7.432  0.6739 -0.4249  0.5306
 4181SOL    HW124005   1.239   1.014   7.449 -2.2243  1.0849 -1.4009
 4181SOL    HW224006   1.230   1.161   7.458  0.7474  1.0198 -3.1121
 4182SOL     OW24007   3.648   2.012  17.436 -0.0603 -0.0093  0.1036
 4182SOL    HW124008   3.573   1.976  17.388 -1.4270  0.1990  2.0849
 4182SOL    HW224009   3.726   1.973  17.396 -1.2392 -2.4863  0.2539
 4183SOL     OW24010   1.309   0.159   2.648 -0.1406 -0.2748 -0.0055
 4183SOL    HW124011   1.385   0.181   2.702 -0.6623 -0.4770  0.8214
 4183SOL    HW224012   1.243   0.146   2.716 -1.0413  0.5943 -0.7157
 4184SOL     OW24013   2.064   3.430   8.514 -0.2201  0.2812 -0.0101
 4184SOL    HW124014   1.979   3.446   8.557 -0.4970 -1.0277 -0.0752
 4184SOL    HW224015   2.112   3.502   8.555  2.4067  0.8076 -4.1393
 4185SOL     OW24016   3.679   0.632   6.275  0.1222  0.2235 -0.8063
 4185SOL    HW124017   3.676   0.677   6.191 -1.1302  2.5046  0.4456
 4185SOL    HW224018   3.630   0.688   6.335 -0.6564  0.1579 -1.3831
 4186SOL     OW24019   1.689   2.569   6.591  0.3913 -0.3907  0.1319
 4186SOL    HW124020   1.654   2.490   6.550 -1.9433  0.2516  0.8378
 4186SOL    HW224021   1.745   2.602   6.522  1.3479 -3.8965 -0.7258
 4187SOL     OW24022   1.411   2.026  12.754 -0.6658 -0.6559 -0.6855
 4187SOL    HW124023   1.468   2.026  12.678  1.8042 -0.5519  1.1639
 4187SOL    HW224024   1.462   1.983  12.824 -0.4729 -2.0336 -1.6707
 4188SOL     OW24025   1.397   2.548   4.053  0.1801  0.2803  0.0781
 4188SOL    HW124026   1.446   2.630   4.058 -0.4037  0.5224  1.6838
 4188SOL    HW224027   1.326   2.565   3.991 -0.5518 -0.7517  0.6457
 4189SOL     OW24028   3.892   0.160   1.594 -0.3487  0.5353  0.3823
 4189SOL    HW124029   3.853   0.073   1.580 -2.8088  1.6136  0.5012
 4189SOL    HW224030   3.966   0.149   1.654 -1.0239 -0.3626  1.0797
 4190SOL     OW24031   3.417   4.234   6.924  0.1252  0.2565  0.2924
 4190SOL    HW124032   3.420   4.140   6.943 -1.3978  0.8771  3.6527
 4190SOL    HW224033   3.332   4.263   6.957 -1.3762 -2.7042 -0.9632
 4191SOL     OW24034   0.910   2.097   3.898  0.0698 -0.6188  0.5999
 4191SOL    HW124035   0.841   2.102   3.963 -0.3491 -2.5567  0.3101
 4191SOL    HW224036   0.889   2.008   3.870  1.1965 -0.7805  0.2521
 4192SOL     OW24037   3.716   2.997  13.032  0.0724  0.4959 -0.5354
 4192SOL    HW124038   3.743   3.088  13.022  0.8938  0.5667  2.1577
 4192SOL    HW224039   3.638   3.008  12.978  0.1619  0.9417 -0.5700
 4193SOL     OW24040   0.196   3.872   3.485  0.0138 -0.0075  0.0021
 4193SOL    HW124041   0.152   3.909   3.408  0.2153  0.7394  0.2467
 4193SOL    HW224042   0.206   3.781   3.457  2.5511  0.4167 -0.4189
 4194SOL     OW24043   3.721   0.069   5.613  0.4037  0.1997  0.0078
 4194SOL    HW124044   3.774   0.113   5.680  0.5767  0.1302 -0.0847
 4194SOL    HW224045   3.673   0.142   5.574  1.9192  2.6438  2.7162
 4195SOL     OW24046   0.133   2.506  13.813  0.1027 -0.0883 -0.0198
 4195SOL    HW124047   0.047   2.525  13.777  0.2492  0.1125 -0.2590
 4195SOL    HW224048   0.113   2.516  13.906  0.4328 -1.4042  0.1961
 4196SOL     OW24049   0.686   3.262   7.591  0.1454  0.4147 -0.4464
 4196SOL    HW124050   0.779   3.276   7.608  0.5257 -2.5961 -0.0710
 4196SOL    HW224051   0.652   3.349   7.571 -0.2105  0.4897  0.4987
 4197SOL     OW24052   4.474   0.433   8.040 -0.3213 -0.4914  0.4343
 4197SOL    HW124053   4.426   0.512   8.014  1.8082  0.2246 -1.2981
 4197SOL    HW224054   4.538   0.472   8.099 -0.5207  1.7153 -0.7905
 4198SOL     OW24055   3.528   1.069   6.727 -0.1475  0.1733 -0.0134
 4198SOL    HW124056   3.489   1.139   6.780  1.7578 -0.6783  2.5381
 4198SOL    HW224057   3.458   1.047   6.666  1.1855 -1.4379 -0.9337
 4199SOL     OW24058   4.131   3.462  12.088  0.2817  0.0856  0.2900
 4199SOL    HW124059   4.039   3.460  12.060  0.8993 -3.5912 -1.5433
 4199SOL    HW224060   4.132   3.427  12.177 -0.7003 -1.0559 -0.1344
 4200SOL     OW24061   1.735   3.280   7.628  0.1022 -0.0642  0.1546
 4200SOL    HW124062   1.744   3.216   7.698  1.7708 -0.6498 -0.6088
 4200SOL    HW224063   1.721   3.223   7.552  1.6271 -1.3285  0.8385
 4201SOL     OW24064   3.354   2.660   7.736 -0.1108 -0.0315  0.4272
 4201SOL    HW124065   3.443   2.691   7.750  0.2426 -2.0618  2.7628
 4201SOL    HW224066   3.320   2.665   7.825  0.6278  3.1117  0.5232
 4202SOL     OW24067   2.418   3.513  14.891 -0.0687  0.2320  0.3173
 4202SOL    HW124068   2.345   3.541  14.946  1.3142  0.2820  2.1309
 4202SOL    HW224069   2.473   3.590  14.907  1.4618 -0.7298 -0.3074
 4203SOL     OW24070   3.890   0.933   6.581 -0.0783  0.5046 -0.3267
 4203SOL    HW124071   3.798   0.959   6.582 -0.3093 -0.4213  1.6269
 4203SOL    HW224072   3.931   1.019   6.593 -0.2213  0.5946 -0.4885
 4204SOL     OW24073   4.164   0.032  17.278 -0.0448  0.2038 -0.1659
 4204SOL    HW124074   4.161   0.106  17.339 -0.8489  2.0956 -2.4851
 4204SOL    HW224075   4.256   0.007  17.289  0.0917  1.8411  2.5336
 4205SOL     OW24076   2.690   2.512   9.938  0.1438  0.4633 -0.4793
 4205SOL    HW124077   2.764   2.451   9.943 -0.3169 -0.1023 -0.5908
 4205SOL    HW224078   2.697   2.541   9.847 -0.2545 -0.9871 -0.9777
 4206SOL     OW24079   4.011   3.403   6.894 -0.2138 -0.8472  0.4681
 4206SOL    HW124080   4.061   3.464   6.839 -3.1317 -0.1156 -1.3509
 4206SOL    HW224081   3.924   3.435   6.870  0.2533  0.1388  0.0764
 4207SOL     OW24082   2.106   1.969   1.243  0.5649 -0.2240 -0.6440
 4207SOL    HW124083   2.054   1.891   1.259  1.4838 -0.9904 -1.3752
 4207SOL    HW224084   2.106   1.962   1.147  1.9429  0.1233 -0.6685
 4208SOL     OW24085   3.304   1.374   3.085  0.3073 -0.1823 -0.0263
 4208SOL    HW124086   3.226   1.410   3.128 -0.9684 -2.7730 -0.1687
 4208SOL    HW224087   3.355   1.342   3.160 -1.0719 -2.9431 -0.2462
 4209SOL     OW24088   2.378   2.440   6.793 -0.1893 -0.0827  0.3809
 4209SOL    HW124089   2.340   2.514   6.744  1.3965 -0.4467 -1.3767
 4209SOL    HW224090   2.466   2.469   6.818 -0.3087 -1.7653  2.7613
 4210SOL     OW24091   0.666   1.806   0.833  0.3936  0.8435  0.1006
 4210SOL    HW124092   0.735   1.811   0.899 -0.2704  1.2668  0.7659
 4210SOL    HW224093   0.591   1.831   0.888  0.3672  1.4452 -0.2152
 4211SOL     OW24094   0.627   4.528   1.031 -0.3805  0.4651 -0.1105
 4211SOL    HW124095   0.711   4.525   1.077 -0.9571  1.2567  0.9836
 4211SOL    HW224096   0.564   4.498   1.097  0.0225  2.5036  1.2045
 4212SOL     OW24097   2.966   3.768   8.425  0.3635  0.2914 -0.2810
 4212SOL    HW124098   2.880   3.767   8.466  0.7936  0.0534  0.6219
 4212SOL    HW224099   2.956   3.719   8.344 -0.6199  0.3519 -0.1876
 4213SOL     OW24100   0.768   1.342  15.417 -0.0804 -0.2965  0.2573
 4213SOL    HW124101   0.701   1.354  15.350  0.4395 -1.0586 -0.3994
 4213SOL    HW224102   0.749   1.407  15.485  0.5864  1.9105 -1.6575
 4214SOL     OW24103   0.288   1.446   9.691  0.4931 -0.2422  0.2904
 4214SOL    HW124104   0.295   1.542   9.689  0.9272 -0.2812  0.1105
 4214SOL    HW224105   0.368   1.436   9.743 -0.0160 -0.5074  1.0300
 4215SOL     OW24106   1.685   0.114  12.898  0.7977 -0.9579  0.1264
 4215SOL    HW124107   1.693   0.207  12.873  2.5568 -1.2064 -0.2525
 4215SOL    HW224108   1.666   0.128  12.990  0.0075 -1.4649  0.0309
 4216SOL     OW24109   3.711   2.515   8.740  0.0047 -0.6183  0.1010
 4216SOL    HW124110   3.660   2.595   8.726  1.1953 -0.1432 -1.4091
 4216SOL    HW224111   3.665   2.480   8.817  2.0933 -0.3184  1.4683
 4217SOL     OW24112   0.258   4.429   3.982 -0.2061  0.0299 -0.0799
 4217SOL    HW124113   0.317   4.464   4.048 -0.3261 -0.3089  0.2080
 4217SOL    HW224114   0.317   4.403   3.911 -0.9849 -1.7780 -0.0827
 4218SOL     OW24115   4.317   3.381   8.042  0.0114  0.2131  0.1704
 4218SOL    HW124116   4.325   3.294   8.080 -1.3899 -0.1088 -0.2717
 4218SOL    HW224117   4.399   3.429   8.056 -0.5045  1.3039 -0.5759
 4219SOL     OW24118   2.500   1.682   4.133  0.0895  0.2616  0.7713
 4219SOL    HW124119   2.464   1.709   4.048  0.8614 -1.6854 -0.1800
 4219SOL    HW224120   2.591   1.711   4.133  0.0362  0.4556 -0.7527
 4220SOL     OW24121   1.140   0.155  12.186  0.2125 -0.0014  0.0990
 4220SOL    HW124122   1.072   0.089  12.171 -0.8138  1.1733 -0.4419
 4220SOL    HW224123   1.214   0.099  12.207  0.8771  0.5258 -0.8551
 4221SOL     OW24124   4.314   1.766   7.453  0.5275 -0.1838 -0.2642
 4221SOL    HW124125   4.367   1.687   7.469  1.4234  0.7235  1.3096
 4221SOL    HW224126   4.384   1.829   7.436 -1.7093  1.9625 -1.4303
 4222SOL     OW24127   4.608   3.633   7.299  0.7550  0.0100 -0.0957
 4222SOL    HW124128   4.666   3.703   7.271  1.9875 -0.7073  0.6253
 4222SOL    HW224129   4.542   3.681   7.348  0.4182 -1.1570  0.6006
 4223SOL     OW24130   0.792   2.470   3.976  0.4829 -0.6772 -0.2719
 4223SOL    HW124131   0.827   2.469   3.887  1.7160 -0.3054  0.2052
 4223SOL    HW224132   0.704   2.442   3.952  0.2109 -0.1736  0.1330
 4224SOL     OW24133   3.347   3.551  12.370  0.4356 -0.8210 -0.9589
 4224SOL    HW124134   3.317   3.642  12.372  0.7232 -0.6747 -2.9851
 4224SOL    HW224135   3.274   3.518  12.422 -0.1342  0.5211 -0.9144
 4225SOL     OW24136   4.674   4.516   9.673 -0.4510  0.4289 -0.2286
 4225SOL    HW124137   4.709   4.436   9.633 -0.8391  0.6352 -0.9845
 4225SOL    HW224138   4.642   4.489   9.759  1.4763  0.1734  0.4185
 4226SOL     OW24139   2.765   3.411   6.849 -0.2236  0.4047 -0.4367
 4226SOL    HW124140   2.787   3.432   6.758 -1.6818  0.4205 -0.7956
 4226SOL    HW224141   2.814   3.475   6.901 -1.9756  0.6982  0.8783
 4227SOL     OW24142   2.622   3.027   7.454 -0.3013 -0.1536  0.0649
 4227SOL    HW124143   2.607   3.106   7.401 -1.0468  0.2232  0.8309
 4227SOL    HW224144   2.555   2.970   7.417 -0.0188  0.1806 -0.9643
 4228SOL     OW24145   2.351   1.410  14.730 -0.4826 -0.5546 -0.3103
 4228SOL    HW124146   2.388   1.404  14.642 -0.4277  1.5503 -0.4229
 4228SOL    HW224147   2.302   1.492  14.727  2.0591  1.0077  1.3452
 4229SOL     OW24148   0.980   0.312  15.161  0.3949  0.0149  0.1115
 4229SOL    HW124149   0.974   0.216  15.156 -1.0818  0.2795 -3.3434
 4229SOL    HW224150   1.072   0.319  15.187  0.0615 -1.6330  1.8096
 4230SOL     OW24151   2.635   1.533   6.204  0.3008  0.1062  0.2010
 4230SOL    HW124152   2.676   1.496   6.126 -0.5655  0.2963 -0.3399
 4230SOL    HW224153   2.565   1.583   6.163 -0.4506 -0.8170  0.3577
 4231SOL     OW24154   4.317   1.614   5.594  0.4790  0.1944 -0.1821
 4231SOL    HW124155   4.375   1.623   5.669  1.2909 -0.5150 -0.7249
 4231SOL    HW224156   4.322   1.518   5.590  1.8793  0.2944 -0.5046
 4232SOL     OW24157   1.774   3.102  17.219 -0.1959  0.4440 -0.0861
 4232SOL    HW124158   1.748   3.111  17.311 -2.8147  1.7558 -0.9373
 4232SOL    HW224159   1.762   3.192  17.186 -2.7819 -0.4221 -1.5039
 4233SOL     OW24160   0.754   0.661  13.416 -0.1423 -0.1281  0.5150
 4233SOL    HW124161   0.766   0.633  13.507  1.3301 -1.2333 -0.0239
 4233SOL    HW224162   0.661   0.639  13.406 -0.4087  0.3817  1.7966
 4234SOL     OW24163   0.027   4.578   3.132 -0.2986 -0.6218  0.2692
 4234SOL    HW124164   0.080   4.502   3.107  1.0527 -0.0636  1.4041
 4234SOL    HW224165   4.707   4.542   3.210  0.1978  0.5730  1.0964
 4235SOL     OW24166   1.041   0.350  12.482 -0.5272 -0.1220  0.5515
 4235SOL    HW124167   1.091   0.272  12.458 -1.4546 -0.0209 -1.7483
 4235SOL    HW224168   0.956   0.333  12.441 -1.2893  2.3782  1.1136
 4236SOL     OW24169   0.575   3.930  10.098  0.2800  0.4670  0.0104
 4236SOL    HW124170   0.651   3.872  10.096  0.0153  0.1175  0.1858
 4236SOL    HW224171   0.504   3.871  10.122 -2.0033  2.3957 -2.0409
 4237SOL     OW24172   3.922   2.990   5.434  0.2170 -0.1841  0.8707
 4237SOL    HW124173   3.982   3.060   5.408 -1.1149  0.3067 -0.8243
 4237SOL    HW224174   3.906   3.018   5.524  0.5677  0.7709  0.6277
 4238SOL     OW24175   2.233   0.069   2.808 -0.1960  0.0796  0.2636
 4238SOL    HW124176   2.308   0.011   2.791 -2.5471 -2.4560 -1.4330
 4238SOL    HW224177   2.196   0.016   2.879  1.2104 -1.3044 -0.0232
 4239SOL     OW24178   2.355   1.773   1.602  0.1431  0.6225 -0.1757
 4239SOL    HW124179   2.373   1.866   1.593 -0.9303  0.6415 -2.0872
 4239SOL    HW224180   2.289   1.781   1.670  0.1167 -0.1905 -0.1010
 4240SOL     OW24181   2.393   1.110   7.983  0.2136  0.4597 -0.2296
 4240SOL    HW124182   2.308   1.097   8.026 -0.3463  0.2622 -1.4110
 4240SOL    HW224183   2.455   1.083   8.051 -0.8096 -1.5125 -0.0997
 4241SOL     OW24184   4.128   0.087   0.990 -0.0388 -0.1226  0.4323
 4241SOL    HW124185   4.215   0.070   1.026 -0.1535 -0.2747  0.6315
 4241SOL    HW224186   4.113   0.171   1.034  1.2142 -0.7359  2.0544
 4242SOL     OW24187   2.962   2.922   4.400  0.3902  0.0308 -0.0066
 4242SOL    HW124188   2.990   2.927   4.491 -1.9892 -0.7015  0.7457
 4242SOL    HW224189   2.970   2.827   4.400 -0.0775 -0.0064 -0.0958
 4243SOL     OW24190   0.743   3.500  17.188  0.1086 -0.7366 -0.1026
 4243SOL    HW124191   0.648   3.488  17.182  0.1360 -1.7452  1.6698
 4243SOL    HW224192   0.757   3.493  17.282  3.4371  3.1550 -0.3111
 4244SOL     OW24193   1.499   1.123   7.265 -0.0042 -0.1430 -0.8229
 4244SOL    HW124194   1.559   1.049   7.274  0.9979  0.5338 -1.9939
 4244SOL    HW224195   1.455   1.120   7.350 -1.7413 -0.5294 -1.7359
 4245SOL     OW24196   4.292   1.653   5.950 -0.0666 -0.2569  0.2098
 4245SOL    HW124197   4.319   1.658   6.042  0.4491  0.0299  0.0425
 4245SOL    HW224198   4.376   1.623   5.916  0.4953  1.3059  0.2314
 4246SOL     OW24199   3.805   1.536  13.742 -0.0881  0.5728 -0.5529
 4246SOL    HW124200   3.779   1.606  13.801 -1.4977 -2.2468  2.1251
 4246SOL    HW224201   3.843   1.585  13.669 -0.9896  2.0754 -0.0147
 4247SOL     OW24202   0.940   3.062   4.894 -0.8747 -0.6002  0.2201
 4247SOL    HW124203   1.022   3.108   4.875 -1.2210  0.3984  1.1158
 4247SOL    HW224204   0.970   2.974   4.917 -1.1009 -0.4922  0.9511
 4248SOL     OW24205   1.532   3.450   7.677  0.5829 -1.0599 -0.2594
 4248SOL    HW124206   1.529   3.519   7.611  1.8764  0.1846  0.9738
 4248SOL    HW224207   1.591   3.388   7.635 -0.7117 -0.9417 -2.2782
 4249SOL     OW24208   1.495   2.014   6.597 -0.0682  0.4002 -0.3900
 4249SOL    HW124209   1.447   1.969   6.667 -0.1526  1.2642  0.1112
 4249SOL    HW224210   1.473   2.107   6.601 -0.7101  0.2739 -1.0220
 4250SOL     OW24211   4.088   3.866  11.827  0.1577 -0.7451 -0.0938
 4250SOL    HW124212   4.085   3.946  11.775  0.2348 -0.8508 -0.2608
 4250SOL    HW224213   4.178   3.868  11.861 -0.6038  1.9172  1.7523
 4251SOL     OW24214   3.911   1.488   7.711  0.6777  0.2219  0.3530
 4251SOL    HW124215   3.891   1.571   7.666  2.5834  0.2914 -0.3649
 4251SOL    HW224216   3.949   1.445   7.634  3.5588  1.1427  1.2663
 4252SOL     OW24217   0.785   2.781  11.317 -0.1864  0.2503  0.4005
 4252SOL    HW124218   0.812   2.828  11.238 -0.1561  1.8239  1.3570
 4252SOL    HW224219   0.739   2.709  11.274 -1.2197 -0.1869  2.2350
 4253SOL     OW24220   2.808   1.024  17.188 -1.0841  0.6373 -0.0362
 4253SOL    HW124221   2.792   1.117  17.203 -0.3230  0.6843  0.4866
 4253SOL    HW224222   2.781   0.986  17.272  1.1691  0.9616  0.8155
 4254SOL     OW24223   0.337   2.067  11.286 -0.2224 -0.4163  0.0187
 4254SOL    HW124224   0.259   2.022  11.255 -0.0885  1.4665 -3.1067
 4254SOL    HW224225   0.373   2.096  11.202  0.6048  0.5645  0.7053
 4255SOL     OW24226   4.370   0.272   4.392  0.4540 -0.5673  0.0615
 4255SOL    HW124227   4.382   0.360   4.426  1.6126 -0.9960  0.7295
 4255SOL    HW224228   4.462   0.255   4.372 -0.3340 -1.2510 -3.0454
 4256SOL     OW24229   2.043   4.558   5.547 -0.1491 -0.2793 -0.4684
 4256SOL    HW124230   2.008   4.535   5.461 -1.8802 -3.6002  1.1306
 4256SOL    HW224231   2.020   4.476   5.592  1.2299 -0.9086 -0.9086
 4257SOL     OW24232   1.096   0.141   3.270  0.1170  0.4322  0.0500
 4257SOL    HW124233   1.035   0.086   3.221 -1.2366  3.7330 -1.9551
 4257SOL    HW224234   1.035   0.179   3.332 -0.2708 -1.3759  0.7717
 4258SOL     OW24235   0.024   2.759   0.335  0.0733 -0.5864  0.8781
 4258SOL    HW124236   0.043   2.782   0.426 -0.5521  1.2053  0.5537
 4258SOL    HW224237   0.072   2.676   0.325 -1.2938 -1.2809  0.0350
 4259SOL     OW24238   4.460   0.248   5.853  0.5802  0.0934  0.5800
 4259SOL    HW124239   4.547   0.281   5.876 -0.0499  0.8734  1.8074
 4259SOL    HW224240   4.407   0.281   5.924 -1.0277  1.2211 -1.1477
 4260SOL     OW24241   3.463   2.225  14.670  0.1000 -0.4698  0.7079
 4260SOL    HW124242   3.486   2.243  14.580 -0.9677 -1.4556  0.2290
 4260SOL    HW224243   3.371   2.252  14.677  1.2945  4.3454 -2.3411
 4261SOL     OW24244   2.791   1.175   5.615  0.1055  0.0541 -0.0210
 4261SOL    HW124245   2.751   1.218   5.540 -2.7434 -1.8870  0.4190
 4261SOL    HW224246   2.783   1.247   5.678  2.1923 -0.3159  0.6684
 4262SOL     OW24247   1.942   2.378   2.362  0.1799 -0.0564 -0.2464
 4262SOL    HW124248   1.875   2.438   2.395 -0.0907 -0.4324 -0.1107
 4262SOL    HW224249   1.907   2.364   2.274  1.6663 -0.8379 -0.7228
 4263SOL     OW24250   0.924   3.684   2.312 -0.3630  0.1635 -0.6753
 4263SOL    HW124251   0.854   3.628   2.278  0.5527 -1.2298 -0.2700
 4263SOL    HW224252   0.989   3.621   2.342 -0.4361  0.6861  0.5931
 4264SOL     OW24253   2.302   3.605  17.084  0.7531  0.7044 -0.2400
 4264SOL    HW124254   2.239   3.656  17.032  2.5874  1.7037 -1.4654
 4264SOL    HW224255   2.387   3.637  17.055  1.6289 -0.0175  1.5858
 4265SOL     OW24256   4.631   1.103   1.213  0.3995 -0.5344 -0.3584
 4265SOL    HW124257   4.598   1.192   1.203 -2.7645 -1.5425  1.0955
 4265SOL    HW224258   4.568   1.043   1.174 -1.6550  1.3386  0.0762
 4266SOL     OW24259   3.678   0.159   7.013 -0.2134  0.2845 -0.0851
 4266SOL    HW124260   3.725   0.210   6.947 -0.3873  1.8003  0.9768
 4266SOL    HW224261   3.628   0.092   6.965  0.7683 -0.6845  0.2401
 4267SOL     OW24262   1.548   0.316   4.589  0.2744  0.1710  0.8423
 4267SOL    HW124263   1.552   0.237   4.534  0.2575  1.9814 -1.7441
 4267SOL    HW224264   1.559   0.391   4.531 -1.8423  1.3997  2.0442
 4268SOL     OW24265   3.874   2.334   2.212 -0.1772 -0.4547 -0.3216
 4268SOL    HW124266   3.823   2.261   2.247  2.2678 -2.8116 -1.6828
 4268SOL    HW224267   3.863   2.392   2.288  1.3968  0.7142 -0.9856
 4269SOL     OW24268   1.563   3.976   3.133 -0.2871 -0.4086  0.4313
 4269SOL    HW124269   1.623   3.903   3.116  1.2219  0.7786  0.7032
 4269SOL    HW224270   1.500   3.952   3.065 -0.0586 -0.2989  0.1817
 4270SOL     OW24271   1.533   2.407   4.483 -0.4161 -0.4254 -0.1705
 4270SOL    HW124272   1.478   2.467   4.433 -1.6361  0.1009  1.8242
 4270SOL    HW224273   1.480   2.409   4.563 -1.2648  1.4826 -0.7787
 4271SOL     OW24274   1.625   1.149   5.555  0.4828 -0.0229 -0.0397
 4271SOL    HW124275   1.546   1.198   5.531  0.8034  1.6621  2.3621
 4271SOL    HW224276   1.634   1.177   5.646  1.0602  0.3791 -0.2240
 4272SOL     OW24277   2.827   1.303  12.352  0.2190  0.1006 -0.7527
 4272SOL    HW124278   2.831   1.216  12.311 -0.3529  0.2628 -1.1599
 4272SOL    HW224279   2.845   1.294  12.445  3.6079 -2.3590 -1.6312
 4273SOL     OW24280   0.368   2.611   4.147  0.1740 -0.1351 -0.5852
 4273SOL    HW124281   0.461   2.615   4.125  0.1589  2.5134 -0.1507
 4273SOL    HW224282   0.348   2.531   4.098  0.3920 -0.5459 -0.0049
 4274SOL     OW24283   1.013   2.560   5.120  0.4653 -0.5903 -0.5947
 4274SOL    HW124284   0.974   2.595   5.201 -0.9105 -0.5350 -1.2756
 4274SOL    HW224285   1.014   2.465   5.130  1.3536 -0.4706  0.3811
 4275SOL     OW24286   4.581   0.295   6.773  0.6824  0.2248 -0.1919
 4275SOL    HW124287   4.528   0.272   6.697 -1.7912  1.0228  1.2968
 4275SOL    HW224288   4.531   0.367   6.811  0.1729  0.9494 -2.2454
 4276SOL     OW24289   1.262   1.200  11.845 -0.1547 -0.0400 -0.6925
 4276SOL    HW124290   1.337   1.248  11.810 -0.1952  0.5482  0.0459
 4276SOL    HW224291   1.248   1.124  11.788  0.9298 -1.4224  0.9001
 4277SOL     OW24292   2.535   3.320  10.207  0.2285  0.2368 -0.5340
 4277SOL    HW124293   2.473   3.327  10.135 -1.5788  0.2647  1.0057
 4277SOL    HW224294   2.488   3.294  10.286  2.1478  0.7556  0.7758
 4278SOL     OW24295   1.401   2.507  15.645 -0.1776 -0.3370 -0.6383
 4278SOL    HW124296   1.342   2.556  15.588  3.0070  1.1106 -2.6420
 4278SOL    HW224297   1.475   2.565  15.629  0.5075 -1.0474 -0.0534
 4279SOL     OW24298   1.388   2.591   7.229 -0.0918 -0.2736 -0.1190
 4279SOL    HW124299   1.451   2.560   7.164 -1.0357 -2.2473 -0.0794
 4279SOL    HW224300   1.432   2.561   7.309  2.0935 -0.7950 -1.5265
 4280SOL     OW24301   1.063   0.405   8.801  0.2089  0.9059 -0.2399
 4280SOL    HW124302   1.038   0.443   8.886  0.6238 -1.4929  0.9604
 4280SOL    HW224303   0.980   0.405   8.752 -0.2776 -1.1930  0.5805
 4281SOL     OW24304   2.104   2.266  13.604  0.4972 -0.5162 -0.1905
 4281SOL    HW124305   2.062   2.339  13.558 -0.5761 -0.5455  0.7428
 4281SOL    HW224306   2.040   2.195  13.604 -0.5646  0.4290 -0.3679
 4282SOL     OW24307   4.247   3.216   5.790 -0.4285 -0.3939 -0.2139
 4282SOL    HW124308   4.333   3.194   5.754 -0.3981 -0.3855 -0.1472
 4282SOL    HW224309   4.220   3.284   5.728 -1.6766  0.6841  1.5158
 4283SOL     OW24310   2.999   3.197   7.770 -0.1061 -0.8669 -0.2696
 4283SOL    HW124311   2.936   3.166   7.835  1.1556 -3.1542 -0.1298
 4283SOL    HW224312   3.062   3.125   7.763  1.3223  0.2568  1.0399
 4284SOL     OW24313   2.083   0.882   2.586  0.2796 -0.1215  0.0922
 4284SOL    HW124314   2.102   0.937   2.509 -0.7958  2.2943  1.5331
 4284SOL    HW224315   2.169   0.871   2.625  0.5454  0.3078 -0.3594
 4285SOL     OW24316   1.700   4.256   3.737  0.1478  0.1330 -0.1997
 4285SOL    HW124317   1.645   4.178   3.747  1.8716 -0.9756  0.5733
 4285SOL    HW224318   1.708   4.253   3.642  0.8239 -0.5251 -0.1220
 4286SOL     OW24319   2.872   3.651   6.939 -0.6029  1.0022  0.1874
 4286SOL    HW124320   2.844   3.657   7.030  0.3228 -0.2292  0.5548
 4286SOL    HW224321   2.822   3.720   6.896  1.6136  1.7629 -1.1509
 4287SOL     OW24322   4.358   0.252   6.604 -0.4488 -0.3272  0.1098
 4287SOL    HW124323   4.315   0.328   6.565 -1.8847 -0.1026  2.1504
 4287SOL    HW224324   4.364   0.198   6.525  1.9741  1.1074 -0.6564
 4288SOL     OW24325   1.755   3.631   6.632  0.1663 -0.0318  0.2221
 4288SOL    HW124326   1.841   3.603   6.602 -0.8962 -1.2289 -1.7259
 4288SOL    HW224327   1.724   3.681   6.557 -1.8759  0.7110  1.5449
 4289SOL     OW24328   3.174   0.292  14.348 -0.2528  0.2908  0.3345
 4289SOL    HW124329   3.223   0.231  14.403 -3.3596 -2.0747  0.4725
 4289SOL    HW224330   3.102   0.238  14.315  0.5101 -1.5089  1.5850
 4290SOL     OW24331   2.301   2.359   7.953  0.5156 -0.0444  0.1819
 4290SOL    HW124332   2.272   2.423   8.017  1.9403  0.0507  0.7156
 4290SOL    HW224333   2.238   2.291   7.978  0.3037  0.2025  0.3183
 4291SOL     OW24334   3.481   0.740   2.808  0.1746 -0.3816 -0.3870
 4291SOL    HW124335   3.489   0.807   2.741  0.9658 -0.7122 -0.6214
 4291SOL    HW224336   3.513   0.663   2.761  0.5405  0.1920 -1.0710
 4292SOL     OW24337   0.813   1.086   3.757  0.0944 -0.2027 -0.0518
 4292SOL    HW124338   0.719   1.098   3.774  0.3969  1.5810  0.3528
 4292SOL    HW224339   0.846   1.070   3.845 -0.4124 -0.4669  0.0878
 4293SOL     OW24340   0.655   4.014   5.032 -0.4475 -0.0487 -0.3799
 4293SOL    HW124341   0.588   3.954   5.066  1.3277 -1.2491  1.0474
 4293SOL    HW224342   0.640   4.090   5.088 -1.3563  0.6457 -1.5842
 4294SOL     OW24343   2.450   0.044   4.449  0.3311  0.0835 -0.2910
 4294SOL    HW124344   2.444   0.057   4.543  3.4554 -4.0351  0.4677
 4294SOL    HW224345   2.365   0.074   4.417  1.2592  2.0415 -0.8965
 4295SOL     OW24346   0.879   4.515   1.142  0.2200 -0.1148  0.1378
 4295SOL    HW124347   0.934   4.483   1.070 -1.9370 -0.4495 -1.3515
 4295SOL    HW224348   0.947   4.536   1.206  0.5205 -0.1571 -0.1693
 4296SOL     OW24349   1.815   4.154   4.974 -0.6365 -0.2644  0.6483
 4296SOL    HW124350   1.767   4.221   4.927 -1.1700 -2.4188 -1.8733
 4296SOL    HW224351   1.771   4.144   5.059 -1.0790 -3.3554  0.0656
 4297SOL     OW24352   2.431   0.198  14.647  0.0195 -0.2983  0.0974
 4297SOL    HW124353   2.367   0.161  14.708  0.0039  0.5799  0.5993
 4297SOL    HW224354   2.385   0.262  14.593 -1.3417  1.2546  3.1032
 4298SOL     OW24355   1.450   3.998  17.197 -0.1259  0.3120 -0.3464
 4298SOL    HW124356   1.456   3.999  17.293 -1.4812  1.4069 -0.2810
 4298SOL    HW224357   1.452   4.093  17.181  1.7719  0.7896  2.6772
 4299SOL     OW24358   1.934   2.483  15.712 -0.1393 -0.2388  0.3800
 4299SOL    HW124359   1.931   2.404  15.658 -0.3457  0.3020 -0.3895
 4299SOL    HW224360   1.977   2.439  15.786 -0.9978  2.4939  2.5120
 4300SOL     OW24361   3.315   4.337   0.363 -0.1147  0.3206 -0.0031
 4300SOL    HW124362   3.383   4.391   0.324  0.2745 -1.8229 -2.3039
 4300SOL    HW224363   3.359   4.255   0.384 -2.0732 -0.8631 -0.5540
 4301SOL     OW24364   4.116   2.269   4.642  0.0562  0.2128 -0.2591
 4301SOL    HW124365   4.056   2.221   4.700  1.1494 -0.0736  0.6540
 4301SOL    HW224366   4.190   2.259   4.703 -1.2605  2.7080  1.7412
 4302SOL     OW24367   4.146   0.473   9.752 -0.4179  0.0142 -0.5777
 4302SOL    HW124368   4.152   0.430   9.667  2.4936 -3.0892  1.1521
 4302SOL    HW224369   4.114   0.560   9.728  1.6289  0.8165 -0.3652
 4303SOL     OW24370   0.731   3.085   4.728  0.0680 -0.0284  0.3218
 4303SOL    HW124371   0.714   3.179   4.721  0.4233  0.1502  1.9039
 4303SOL    HW224372   0.802   3.087   4.792 -0.5021  0.4476  0.9416
 4304SOL     OW24373   3.166   2.950  13.519 -0.1089  0.1119 -0.3746
 4304SOL    HW124374   3.250   2.909  13.537  0.7779  2.1708  0.1546
 4304SOL    HW224375   3.104   2.878  13.528  0.9266 -0.9847 -2.1623
 4305SOL     OW24376   2.163   3.404   1.412 -0.4886  0.9166  0.2568
 4305SOL    HW124377   2.090   3.410   1.349 -2.0015  0.4690  1.9691
 4305SOL    HW224378   2.152   3.317   1.451 -1.4708  1.7968  1.9145
 4306SOL     OW24379   4.255   0.494   7.384  0.0305  0.0531 -0.0303
 4306SOL    HW124380   4.168   0.531   7.368 -0.3925 -1.4127 -1.0788
 4306SOL    HW224381   4.231   0.406   7.355  0.2917 -0.3728  1.0437
 4307SOL     OW24382   1.384   1.553  14.201  0.1777  0.6793 -0.2585
 4307SOL    HW124383   1.402   1.540  14.294 -1.0674 -1.3609 -0.3223
 4307SOL    HW224384   1.290   1.568  14.209  0.0373 -0.5579  0.4149
 4308SOL     OW24385   0.587   0.664   9.544 -0.0364  0.7420 -1.3558
 4308SOL    HW124386   0.575   0.658   9.639 -0.7064 -1.8258 -1.6079
 4308SOL    HW224387   0.616   0.574   9.526 -2.9279 -0.0107 -2.2335
 4309SOL     OW24388   1.552   2.970   6.925  0.1039  0.0331 -0.3107
 4309SOL    HW124389   1.580   3.060   6.940 -0.9120  0.2871  0.0370
 4309SOL    HW224390   1.617   2.930   6.983  0.6116  0.4973 -0.5584
 4310SOL     OW24391   1.649   4.365  13.727  0.0562 -0.0189  0.3512
 4310SOL    HW124392   1.745   4.366  13.728  0.0938  0.1169 -3.1681
 4310SOL    HW224393   1.628   4.283  13.682 -1.7559  0.0907  1.0139
 4311SOL     OW24394   1.310   0.359   5.700  0.5807  0.5670  0.1597
 4311SOL    HW124395   1.222   0.352   5.736  0.0535 -0.3430 -1.3507
 4311SOL    HW224396   1.299   0.450   5.672  2.4124  1.1612  1.3467
 4312SOL     OW24397   1.937   1.241  11.708  0.1778 -0.0043  0.1508
 4312SOL    HW124398   1.880   1.191  11.650  0.1479 -0.0282  0.2008
 4312SOL    HW224399   2.018   1.244  11.657 -0.5463 -4.0703 -1.2448
 4313SOL     OW24400   0.169   2.075   4.593 -0.1871  0.3076 -0.2980
 4313SOL    HW124401   0.219   2.126   4.530  1.5738  0.7169  1.4300
 4313SOL    HW224402   0.240   2.036   4.644 -1.0257 -2.7094 -1.4447
 4314SOL     OW24403   1.126   2.930  15.271  0.1539  0.0330  0.7008
 4314SOL    HW124404   1.035   2.913  15.246  0.6482 -0.0140 -1.1071
 4314SOL    HW224405   1.152   2.843  15.302  1.6455  0.0784 -0.4162
 4315SOL     OW24406   0.890   1.430   7.791 -0.2929 -0.5961  0.6766
 4315SOL    HW124407   0.969   1.375   7.789  0.0258 -0.1644  1.6402
 4315SOL    HW224408   0.929   1.516   7.802  2.1970 -1.6158  0.0027
 4316SOL     OW24409   3.771   0.612   8.828  0.1297  0.3728 -0.5229
 4316SOL    HW124410   3.847   0.651   8.784  3.1910 -1.4204  3.1701
 4316SOL    HW224411   3.801   0.582   8.914  0.0027  1.2347 -0.1717
 4317SOL     OW24412   2.949   1.468   7.903 -0.4129 -0.1307 -0.2065
 4317SOL    HW124413   3.031   1.513   7.923 -1.1742  0.7114  1.0387
 4317SOL    HW224414   2.980   1.379   7.888 -1.5457 -0.5157 -0.3199
 4318SOL     OW24415   4.507   2.877   6.622 -0.1205  0.7595 -0.0576
 4318SOL    HW124416   4.543   2.789   6.624 -0.0941  0.7517 -1.1412
 4318SOL    HW224417   4.479   2.886   6.713 -1.4415  2.2394 -0.6044
 4319SOL     OW24418   4.011   4.059   6.558 -0.2217  0.5741 -0.3219
 4319SOL    HW124419   3.963   3.999   6.501 -1.5187  1.4471 -0.1537
 4319SOL    HW224420   4.085   4.078   6.502 -0.2139  0.3430 -0.3920
 4320SOL     OW24421   2.225   1.279   4.084  0.0547  0.6927 -0.2186
 4320SOL    HW124422   2.317   1.266   4.104 -0.4803 -2.0007  0.5398
 4320SOL    HW224423   2.233   1.278   3.988  0.3257 -0.4556 -0.1892
 4321SOL     OW24424   0.529   2.502   6.903  0.7868  0.1618  1.0656
 4321SOL    HW124425   0.580   2.557   6.962  0.3014  0.7278  0.9540
 4321SOL    HW224426   0.475   2.458   6.968 -0.7378  1.9664  0.9994
 4322SOL     OW24427   3.439   2.561   1.719  0.0703  0.0314 -0.5403
 4322SOL    HW124428   3.518   2.586   1.671 -1.4404  1.4914 -2.2502
 4322SOL    HW224429   3.467   2.489   1.775 -0.1701 -0.5064 -1.1088
 4323SOL     OW24430   0.057   0.395   9.463 -0.2927  0.3489 -0.6081
 4323SOL    HW124431   0.003   0.408   9.385 -0.6148 -2.0069 -0.8019
 4323SOL    HW224432   0.043   0.474   9.515 -0.6184 -0.2426  0.2173
 4324SOL     OW24433   1.784   3.287   6.304  0.3616 -0.4533  0.1861
 4324SOL    HW124434   1.764   3.197   6.327 -0.7818 -0.4497 -0.7645
 4324SOL    HW224435   1.734   3.337   6.368  1.0493 -0.4774  0.7400
 4325SOL     OW24436   2.570   0.693   7.714 -0.0670  0.0765  0.2022
 4325SOL    HW124437   2.614   0.777   7.712  2.2131 -1.1396 -0.4624
 4325SOL    HW224438   2.485   0.721   7.750  0.2386  0.7895  0.3623
 4326SOL     OW24439   3.658   1.916   7.807 -0.5887  0.0482  0.4064
 4326SOL    HW124440   3.625   1.994   7.852  0.9602  0.2297  1.2587
 4326SOL    HW224441   3.590   1.911   7.741 -0.6983  5.5602  0.1037
 4327SOL     OW24442   4.573   3.249   3.354  0.3374 -0.3792  0.2864
 4327SOL    HW124443   4.506   3.309   3.390 -0.2224 -0.0854 -1.2616
 4327SOL    HW224444   4.581   3.181   3.421  1.0029 -1.0935 -0.5198
 4328SOL     OW24445   3.435   3.324   0.770  0.3341 -0.3015  0.5557
 4328SOL    HW124446   3.488   3.354   0.844 -0.1296  1.4273  0.1749
 4328SOL    HW224447   3.387   3.253   0.813 -1.8975 -0.2518 -1.8414
 4329SOL     OW24448   2.150   0.833  13.776  0.1971  0.2236  0.3446
 4329SOL    HW124449   2.168   0.893  13.848  1.0918 -0.5884  0.8018
 4329SOL    HW224450   2.234   0.790  13.760 -0.7400 -1.6679  0.5086
 4330SOL     OW24451   0.265   0.674   6.032 -0.1824  0.2207  0.0802
 4330SOL    HW124452   0.268   0.642   5.942 -0.0815  1.8988 -0.5071
 4330SOL    HW224453   0.194   0.738   6.025 -0.6082 -0.0250  2.0887
 4331SOL     OW24454   2.320   1.946  12.479 -0.6892  0.1725 -0.6910
 4331SOL    HW124455   2.247   2.008  12.483  0.6218  1.8373 -2.9730
 4331SOL    HW224456   2.377   1.996  12.537  0.1128 -1.4473 -0.0574
 4332SOL     OW24457   1.166   0.450   6.973  0.4982  0.4431  0.0723
 4332SOL    HW124458   1.085   0.471   6.927 -0.2932 -0.7533  0.9290
 4332SOL    HW224459   1.223   0.479   6.901 -2.0304 -0.4681 -2.2741
 4333SOL     OW24460   2.501   4.494   8.862 -0.7412 -0.1696  0.1920
 4333SOL    HW124461   2.438   4.543   8.914 -1.2733  0.6406 -1.2232
 4333SOL    HW224462   2.472   4.410   8.897  1.6273 -0.4179  1.6066
 4334SOL     OW24463   2.120   3.137   2.250  0.5587 -0.6300  0.2444
 4334SOL    HW124464   2.147   3.116   2.160 -2.6352 -0.8910 -0.6696
 4334SOL    HW224465   2.032   3.101   2.243  0.2809  0.3661 -1.5980
 4335SOL     OW24466   4.307   1.885  17.282 -0.3282 -0.5240  0.1056
 4335SOL    HW124467   4.302   1.827  17.359  0.4643 -0.5914  0.0986
 4335SOL    HW224468   4.234   1.941  17.308  0.3619  1.3811 -2.1137
 4336SOL     OW24469   0.112   1.334  15.362  0.6310  0.3810 -0.0130
 4336SOL    HW124470   0.104   1.395  15.290  0.3811 -1.2420 -1.3516
 4336SOL    HW224471   0.170   1.389  15.416  1.7951 -0.5962 -0.2601
 4337SOL     OW24472   3.022   0.110  13.917 -0.2456  0.3425 -0.0826
 4337SOL    HW124473   3.050   0.199  13.899  0.4383 -0.2818 -2.1435
 4337SOL    HW224474   3.078   0.080  13.988 -0.8059  2.0731  1.0778
 4338SOL     OW24475   0.925   4.134  11.396  0.1670 -0.2533 -0.0803
 4338SOL    HW124476   0.878   4.189  11.459  2.0333 -1.8833  2.7077
 4338SOL    HW224477   0.852   4.115  11.338 -1.1230  0.5617  1.2873
 4339SOL     OW24478   3.584   0.569   4.793  0.3146  0.3256  0.3152
 4339SOL    HW124479   3.496   0.600   4.812  0.3668  0.6841 -0.0287
 4339SOL    HW224480   3.627   0.575   4.879 -1.6985  0.7356  1.2921
 4340SOL     OW24481   2.735   0.653   7.320 -0.1369  0.1243  0.4484
 4340SOL    HW124482   2.762   0.679   7.409  0.5877 -3.8335  1.3913
 4340SOL    HW224483   2.704   0.563   7.332 -1.0857  0.2587 -1.0657
 4341SOL     OW24484   0.475   3.943   4.811 -0.3572 -0.2431  0.3902
 4341SOL    HW124485   0.528   3.972   4.885  0.0411  1.7076 -0.6630
 4341SOL    HW224486   0.392   3.969   4.850 -0.4632 -2.2483  1.4878
 4342SOL     OW24487   0.911   0.482   9.017  0.6719  0.3089  0.3137
 4342SOL    HW124488   0.950   0.481   9.105 -0.5240 -1.7709  0.8097
 4342SOL    HW224489   0.829   0.527   9.037  1.6337  2.9884 -1.8852
 4343SOL     OW24490   2.320   0.830   8.465 -0.3574 -0.7177  0.1294
 4343SOL    HW124491   2.230   0.842   8.495 -0.3883  2.7598 -1.4036
 4343SOL    HW224492   2.303   0.763   8.398  1.3128 -0.8209 -0.1900
 4344SOL     OW24493   4.485   0.145   4.072  0.1324 -0.7388 -0.0626
 4344SOL    HW124494   4.521   0.194   3.998  0.5750 -0.8392  0.0819
 4344SOL    HW224495   4.402   0.192   4.071  0.6159  0.1676  2.3363
 4345SOL     OW24496   3.413   4.690   3.933  0.5057 -0.0681  0.1704
 4345SOL    HW124497   3.435   0.026   4.004  0.2420  2.7492 -2.0790
 4345SOL    HW224498   3.447   0.017   3.858  1.6228  1.1460  1.4754
 4346SOL     OW24499   2.761   3.530   7.897  0.1547  0.5523  0.6643
 4346SOL    HW124500   2.842   3.581   7.891  0.6033 -0.5094 -1.9326
 4346SOL    HW224501   2.769   3.467   7.969 -0.8747 -0.1300  0.1654
 4347SOL     OW24502   2.481   0.194   8.953 -0.2626 -0.0953 -0.3551
 4347SOL    HW124503   2.556   0.203   8.894  0.3656  2.4844  0.8805
 4347SOL    HW224504   2.516   0.219   9.039 -1.6345 -0.7447  0.3923
 4348SOL     OW24505   3.263   2.132  15.953  0.4733  0.0633 -0.2596
 4348SOL    HW124506   3.177   2.173  15.947  0.2232 -0.1667  1.8125
 4348SOL    HW224507   3.298   2.150  15.866  1.7903  2.4878  0.7598
 4349SOL     OW24508   2.220   0.859   5.473  0.1206  0.2300 -0.1803
 4349SOL    HW124509   2.140   0.846   5.422  0.2546 -0.4091 -0.2307
 4349SOL    HW224510   2.254   0.770   5.483  0.5483  0.1588 -2.2386
 4350SOL     OW24511   1.235   3.828   8.922 -0.4465  0.1586  0.6695
 4350SOL    HW124512   1.190   3.838   9.006 -0.5050 -0.0373  0.6605
 4350SOL    HW224513   1.285   3.748   8.935 -0.7045 -0.2879 -1.0678
 4351SOL     OW24514   1.951   0.620  15.190 -0.6460  0.0316 -0.0170
 4351SOL    HW124515   2.009   0.576  15.252  0.3851  0.1829 -0.8771
 4351SOL    HW224516   1.967   0.709  15.222  0.8195 -1.1038  2.4083
 4352SOL     OW24517   3.532   3.748   2.092  0.6377 -0.4128 -0.4159
 4352SOL    HW124518   3.493   3.662   2.073  1.6213 -0.4805 -2.0906
 4352SOL    HW224519   3.555   3.796   2.013  1.7287  1.6570  1.1670
 4353SOL     OW24520   2.788   4.246  12.490  0.9195 -0.2719  0.6276
 4353SOL    HW124521   2.705   4.256  12.537 -0.0725 -0.5169 -1.0948
 4353SOL    HW224522   2.859   4.282  12.543  2.5668 -3.1705  0.4167
 4354SOL     OW24523   3.617   2.396   4.683  0.9906  0.2813 -0.0215
 4354SOL    HW124524   3.677   2.409   4.609  0.1754 -2.0666 -1.1117
 4354SOL    HW224525   3.659   2.325   4.731  1.2515  0.6909  0.3518
 4355SOL     OW24526   3.607   4.132   8.463 -0.2540  0.4462 -0.3804
 4355SOL    HW124527   3.622   4.226   8.475 -1.6384  0.2179  3.1154
 4355SOL    HW224528   3.584   4.110   8.553 -0.9934 -1.6310 -1.0794
 4356SOL     OW24529   1.599   3.002   8.136  0.0511 -0.2813  0.2778
 4356SOL    HW124530   1.658   2.950   8.082  1.0586 -0.3934  1.4877
 4356SOL    HW224531   1.615   3.087   8.096  0.9810 -0.6274 -0.0887
 4357SOL     OW24532   3.862   2.379   7.447 -0.6795  0.1337  0.3382
 4357SOL    HW124533   3.868   2.294   7.491 -1.6233  0.8876  1.9120
 4357SOL    HW224534   3.912   2.442   7.498  0.2306 -0.5815  0.3418
 4358SOL     OW24535   0.010   3.000  12.598  0.7469 -0.0632  0.2478
 4358SOL    HW124536   4.657   2.995  12.654  0.4771  2.8301  0.1150
 4358SOL    HW224537   0.047   3.085  12.624  0.4084 -0.0524  0.6870
 4359SOL     OW24538   2.688   4.166   8.792 -0.0116 -0.4396  0.3886
 4359SOL    HW124539   2.744   4.206   8.726  0.8870 -2.8473 -0.2933
 4359SOL    HW224540   2.734   4.169   8.876  1.9925 -0.7341 -0.7002
 4360SOL     OW24541   2.715   2.492  15.586  0.7920 -1.2525  0.1567
 4360SOL    HW124542   2.761   2.408  15.582  1.3752 -0.9143 -0.1848
 4360SOL    HW224543   2.634   2.482  15.636  1.8405 -0.4804  2.0423
 4361SOL     OW24544   0.456   1.843  10.219 -0.5911  0.1729  0.7319
 4361SOL    HW124545   0.499   1.890  10.290 -2.8975 -1.2343  3.0784
 4361SOL    HW224546   0.528   1.817  10.162  0.9262  1.2177  2.2045
 4362SOL     OW24547   2.284   2.271   8.308  0.0702 -1.0862  0.4366
 4362SOL    HW124548   2.194   2.261   8.340  0.2376  3.3875  2.2320
 4362SOL    HW224549   2.327   2.195   8.345 -0.5889 -0.9979  1.3836
 4363SOL     OW24550   0.735   1.433  17.080  1.3821 -0.3203  0.3215
 4363SOL    HW124551   0.748   1.516  17.125  0.5046  0.9535 -1.7690
 4363SOL    HW224552   0.808   1.424  17.019  0.4905 -1.5697 -0.5594
 4364SOL     OW24553   1.711   3.372  17.506 -0.4864  0.0015 -0.0715
 4364SOL    HW124554   1.704   3.295  17.450 -1.0652 -1.5452  2.1355
 4364SOL    HW224555   1.624   3.412  17.500 -1.1140 -1.3826 -0.1502
 4365SOL     OW24556   0.225   1.036  14.299 -0.2845  0.3826  0.2948
 4365SOL    HW124557   0.319   1.016  14.306 -0.2134  0.4332 -0.4502
 4365SOL    HW224558   0.193   1.024  14.388  2.7587  0.5176  1.3950
 4366SOL     OW24559   2.332   2.104   0.989 -0.0554  0.5953  0.1097
 4366SOL    HW124560   2.361   2.107   1.080  1.7795 -1.2216 -0.4139
 4366SOL    HW224561   2.252   2.152   1.010  1.0469  1.9698  1.2125
 4367SOL     OW24562   0.471   0.844   4.843  0.5705 -0.5307  0.3152
 4367SOL    HW124563   0.395   0.834   4.901 -1.9575  2.0105 -2.5875
 4367SOL    HW224564   0.460   0.762   4.795  1.7150 -0.5034  0.0196
 4368SOL     OW24565   0.757   1.887   5.678  0.1752 -0.7034  0.2539
 4368SOL    HW124566   0.719   1.973   5.696  0.0698 -0.7929  0.4715
 4368SOL    HW224567   0.840   1.899   5.724  0.4647 -1.8306  0.0363
 4369SOL     OW24568   3.830   3.169   4.637  0.4707 -0.0693  0.4168
 4369SOL    HW124569   3.743   3.202   4.660 -0.1841 -0.8731 -0.8946
 4369SOL    HW224570   3.873   3.249   4.606 -1.7391  1.0028  0.1282
 4370SOL     OW24571   2.044   1.264  14.679  0.4081 -0.1264  0.0428
 4370SOL    HW124572   2.038   1.354  14.647  1.6010  0.6519  2.0114
 4370SOL    HW224573   1.978   1.214  14.631 -2.4158  1.6508  2.1133
 4371SOL     OW24574   3.941   1.806   3.693  0.2174 -0.0136 -0.1754
 4371SOL    HW124575   3.961   1.750   3.768  2.1653 -0.9417 -1.3667
 4371SOL    HW224576   3.902   1.877   3.744 -0.0266 -0.1529 -0.1696
 4372SOL     OW24577   1.001   3.251   1.253 -0.5106 -0.3305  0.0068
 4372SOL    HW124578   1.077   3.305   1.273 -0.0029 -1.3716  0.9107
 4372SOL    HW224579   1.032   3.161   1.265  2.4858  0.7656  0.4824
 4373SOL     OW24580   0.306   0.231  15.508 -0.3709 -0.3638  0.6054
 4373SOL    HW124581   0.311   0.193  15.420  0.0855 -0.7722  0.8068
 4373SOL    HW224582   0.249   0.306  15.488 -0.4711 -0.8940 -1.0732
 4374SOL     OW24583   3.772   2.595   1.193  0.4233  0.0418  0.0790
 4374SOL    HW124584   3.712   2.643   1.250  2.2030  1.0400  1.0935
 4374SOL    HW224585   3.850   2.633   1.232 -0.4493  0.4837  1.3929
 4375SOL     OW24586   2.453   3.038   2.182 -0.4534 -0.7921 -0.0016
 4375SOL    HW124587   2.531   2.984   2.167 -0.1440 -0.3531  0.0289
 4375SOL    HW224588   2.489   3.076   2.263  0.2957 -2.3406  0.4078
 4376SOL     OW24589   1.389   0.143   1.837  0.1456 -0.0881  0.0073
 4376SOL    HW124590   1.450   0.213   1.813  1.0485 -1.3760 -1.4864
 4376SOL    HW224591   1.318   0.150   1.774  0.0390  1.4032  0.2940
 4377SOL     OW24592   3.310   3.185   3.578 -0.1538 -0.3790 -0.7661
 4377SOL    HW124593   3.303   3.215   3.488  2.1100  1.7041 -0.2561
 4377SOL    HW224594   3.218   3.189   3.603 -0.0864  1.9945 -0.8695
 4378SOL     OW24595   1.107   2.033   3.153  0.2389 -0.1965 -0.2527
 4378SOL    HW124596   1.110   1.990   3.067  1.0503  0.0308 -0.3427
 4378SOL    HW224597   1.028   2.086   3.147  0.7722  0.9729  3.2444
 4379SOL     OW24598   2.926   0.519  12.556 -0.5347  0.0370 -0.5934
 4379SOL    HW124599   2.982   0.509  12.633 -0.2813 -1.3213 -0.9547
 4379SOL    HW224600   2.837   0.501  12.587 -0.4124 -1.1144 -0.8939
 4380SOL     OW24601   2.065   2.131   3.810  0.5917 -0.0206 -0.1805
 4380SOL    HW124602   2.076   2.171   3.896 -0.2116  0.1322 -0.1404
 4380SOL    HW224603   2.143   2.144   3.758 -0.3972  1.5874 -1.2597
 4381SOL     OW24604   4.451   1.802   3.614 -0.0656  0.1479 -0.1552
 4381SOL    HW124605   4.527   1.781   3.668  1.2419 -0.5901 -2.2961
 4381SOL    HW224606   4.404   1.858   3.676 -1.1111  0.0825 -0.8985
 4382SOL     OW24607   4.163   2.396  14.841  0.2208  0.2018  0.4672
 4382SOL    HW124608   4.196   2.306  14.844 -1.5575 -0.3803  2.9453
 4382SOL    HW224609   4.128   2.404  14.930  1.9229 -1.1461  1.2522
 4383SOL     OW24610   4.420   0.944   1.140  0.1118 -0.3100 -0.8745
 4383SOL    HW124611   4.326   0.952   1.156  0.1124 -1.1656 -0.4030
 4383SOL    HW224612   4.420   0.939   1.045  1.6896  4.7834 -1.1289
 4384SOL     OW24613   0.519   3.926  17.523 -0.2364  0.0390  0.4377
 4384SOL    HW124614   0.582   3.946  17.455 -0.4209  1.6090  0.7181
 4384SOL    HW224615   0.505   4.019  17.542  0.2829 -0.0741  1.3971
 4385SOL     OW24616   0.873   2.564  13.975 -0.7780  0.2168  0.3030
 4385SOL    HW124617   0.826   2.592  13.897  0.1435 -2.6279 -1.2787
 4385SOL    HW224618   0.855   2.470  13.979  1.1700 -0.2148 -0.8389
 4386SOL     OW24619   2.674   4.129  13.096  0.1463 -0.0427 -0.3421
 4386SOL    HW124620   2.648   4.215  13.061  1.1027  0.4060  0.0397
 4386SOL    HW224621   2.641   4.125  13.186  1.0613  0.7181  0.0345
 4387SOL     OW24622   4.044   0.949   5.888  0.0341  0.6482  0.3481
 4387SOL    HW124623   3.991   0.887   5.838  0.7052 -0.4861  1.0342
 4387SOL    HW224624   4.127   0.905   5.905  0.1667  0.0094 -1.9297
 4388SOL     OW24625   0.654   2.056   9.455 -0.0577 -0.3529  0.2961
 4388SOL    HW124626   0.617   2.138   9.489  0.8613  0.7556 -1.3433
 4388SOL    HW224627   0.624   1.995   9.523 -1.8289  0.7896  0.5263
 4389SOL     OW24628   3.924   4.182   3.832 -0.1292 -0.5444  0.2039
 4389SOL    HW124629   3.955   4.266   3.800 -3.5668  1.1485  1.3729
 4389SOL    HW224630   3.831   4.194   3.850  0.0561  0.9522  0.0986
 4390SOL     OW24631   3.518   0.689  17.505  0.0997  0.0754 -0.1179
 4390SOL    HW124632   3.573   0.687  17.584 -0.6219  0.1709  0.3898
 4390SOL    HW224633   3.514   0.782  17.482  0.7033  0.2240  0.3414
 4391SOL     OW24634   4.561   4.047  12.212  0.1382 -0.3833 -0.4879
 4391SOL    HW124635   4.577   3.957  12.181 -0.3610 -1.7016  3.0742
 4391SOL    HW224636   4.596   4.099  12.140  0.5904 -0.5679 -0.3977
 4392SOL     OW24637   1.052   4.149   3.509  0.0989  0.2583  0.0879
 4392SOL    HW124638   0.962   4.180   3.495  0.5975  0.9015 -1.6756
 4392SOL    HW224639   1.039   4.058   3.481 -1.8689  0.8729 -0.9926
 4393SOL     OW24640   0.341   1.257  13.098 -0.3504  0.4470 -0.7301
 4393SOL    HW124641   0.291   1.221  13.171 -1.1642 -0.5278 -1.7624
 4393SOL    HW224642   0.338   1.185  13.035  0.4444 -0.3172  0.1074
 4394SOL     OW24643   2.330   1.101  15.564 -0.2974  0.0472 -0.2785
 4394SOL    HW124644   2.290   1.183  15.537 -2.4764 -0.3223  1.7831
 4394SOL    HW224645   2.378   1.090  15.481  0.2605  0.3629  0.0041
 4395SOL     OW24646   1.963   3.391   8.819 -0.3179  0.2148  0.3160
 4395SOL    HW124647   2.050   3.409   8.782 -0.8206 -0.0546 -1.0195
 4395SOL    HW224648   1.963   3.436   8.903 -0.2822 -0.2984  0.5957
 4396SOL     OW24649   4.235   2.678  15.486 -0.4832 -0.4678  0.3171
 4396SOL    HW124650   4.144   2.661  15.461 -0.0309  2.1409 -3.1811
 4396SOL    HW224651   4.250   2.748  15.421 -0.6199 -0.5740  0.1724
 4397SOL     OW24652   2.026   0.917   2.230 -0.3179 -0.0859  0.3180
 4397SOL    HW124653   2.083   0.991   2.209 -0.3772  0.3590  1.7092
 4397SOL    HW224654   1.955   0.919   2.166  0.3988  1.0480 -0.4408
 4398SOL     OW24655   1.475   2.116  12.503 -0.0508  0.0075 -0.6302
 4398SOL    HW124656   1.487   2.210  12.518  1.5952 -0.4211  0.7873
 4398SOL    HW224657   1.398   2.119  12.447  0.1985 -1.5406 -1.0692
 4399SOL     OW24658   0.485   1.705   9.184  0.0712 -0.4980  0.1052
 4399SOL    HW124659   0.574   1.741   9.183 -0.0293 -0.1721  3.6721
 4399SOL    HW224660   0.486   1.622   9.232  0.7991 -1.3426 -1.3739
 4400SOL     OW24661   0.842   3.781  11.776  0.2482  0.1977 -0.4004
 4400SOL    HW124662   0.780   3.846  11.811  2.5939  0.0520  3.9547
 4400SOL    HW224663   0.886   3.831  11.708  1.5267 -1.4248 -0.7627
 4401SOL     OW24664   0.550   2.316  10.190  0.3845 -0.5176  0.5892
 4401SOL    HW124665   0.548   2.249  10.259 -1.4216 -1.4172 -0.3302
 4401SOL    HW224666   0.588   2.261  10.122  1.9730 -2.2282  2.8649
 4402SOL     OW24667   1.588   3.233   7.957  0.1307 -0.2406 -0.1747
 4402SOL    HW124668   1.541   3.191   7.886  1.7069 -3.4453  0.6858
 4402SOL    HW224669   1.673   3.196   7.934 -0.4999 -0.5656 -1.9475
 4403SOL     OW24670   3.639   2.414   5.618 -0.5453 -0.2761 -0.2571
 4403SOL    HW124671   3.715   2.454   5.660 -1.2722  0.2873  0.5206
 4403SOL    HW224672   3.585   2.381   5.689  0.2948 -0.9381  0.0781
 4404SOL     OW24673   1.266   1.291   5.160 -0.1841 -0.1135 -0.3960
 4404SOL    HW124674   1.328   1.237   5.109  0.1491  0.5585 -0.6964
 4404SOL    HW224675   1.191   1.291   5.100 -1.1298  1.6961  0.8024
 4405SOL     OW24676   4.130   0.253   7.259  0.3925  0.0490  0.7249
 4405SOL    HW124677   4.113   0.223   7.169 -0.4655  2.3190  0.1203
 4405SOL    HW224678   4.041   0.264   7.292 -0.0299 -0.2628 -0.2914
 4406SOL     OW24679   2.031   3.173   5.634 -0.5591  0.0767  0.3343
 4406SOL    HW124680   2.040   3.214   5.720  1.2117  1.8780 -0.7013
 4406SOL    HW224681   2.041   3.251   5.580 -0.6599 -0.9823 -1.2048
 4407SOL     OW24682   4.058   0.404  17.201  0.5158 -0.4453  0.1878
 4407SOL    HW124683   4.003   0.428  17.126 -0.9660 -0.1756  1.3464
 4407SOL    HW224684   4.014   0.444  17.276 -0.4196  1.7551 -1.5281
 4408SOL     OW24685   1.269   0.295   6.507  0.4032  0.2284  0.0242
 4408SOL    HW124686   1.219   0.249   6.574  0.7117  1.3757  1.0236
 4408SOL    HW224687   1.340   0.318   6.566 -0.0708  0.4731  0.4990
 4409SOL     OW24688   4.632   3.219   5.277 -0.3689  0.2904  0.0242
 4409SOL    HW124689   4.679   3.257   5.203 -0.5483 -2.1303 -1.3313
 4409SOL    HW224690   4.584   3.154   5.227 -1.0985  1.6923 -1.0968
 4410SOL     OW24691   0.736   0.249   4.589  0.1537 -0.2410 -0.1808
 4410SOL    HW124692   0.750   0.264   4.683 -0.7742 -0.6118  0.0214
 4410SOL    HW224693   0.826   0.249   4.557 -0.1236 -0.0013 -0.9465
 4411SOL     OW24694   2.843   2.255  16.658 -0.0709  0.2642 -0.3180
 4411SOL    HW124695   2.859   2.273  16.565  1.0315  1.1009  0.0329
 4411SOL    HW224696   2.839   2.160  16.661 -1.0487  0.3384  0.6230
 4412SOL     OW24697   1.571   0.074   7.644  0.5254  0.3967  0.2891
 4412SOL    HW124698   1.585   0.067   7.738  0.7773 -0.1761  0.2124
 4412SOL    HW224699   1.632   0.006   7.613  1.1447  1.1377 -0.1260
 4413SOL     OW24700   3.663   0.841   3.022 -0.1561  0.3530  0.5488
 4413SOL    HW124701   3.733   0.874   2.965  0.6402 -1.1274  0.6734
 4413SOL    HW224702   3.620   0.788   2.955  1.4209 -0.5543  0.2741
 4414SOL     OW24703   2.960   2.217  15.431  0.3818 -0.2133  0.2965
 4414SOL    HW124704   2.933   2.214  15.522  1.6889 -0.6820  0.6816
 4414SOL    HW224705   3.001   2.304  15.430  1.7627 -0.8850 -1.5912
 4415SOL     OW24706   2.243   2.392  10.663 -0.0572  0.1819  0.3910
 4415SOL    HW124707   2.240   2.355  10.574  0.7846  0.3770  0.2832
 4415SOL    HW224708   2.280   2.478  10.641  0.6972 -0.1756  0.2816
 4416SOL     OW24709   3.272   2.062  15.420  0.8540 -0.0470  0.8539
 4416SOL    HW124710   3.321   1.981  15.404  0.4599 -0.2864  0.8732
 4416SOL    HW224711   3.190   2.032  15.382  0.9670  0.8558 -0.0972
 4417SOL     OW24712   1.212   2.664   4.631 -0.3236  0.1787  0.6852
 4417SOL    HW124713   1.118   2.651   4.633 -0.3608  0.3658  0.1848
 4417SOL    HW224714   1.214   2.711   4.548  0.7563  0.6167  0.9531
 4418SOL     OW24715   4.239   0.148  10.011 -0.3521  0.0428  0.0788
 4418SOL    HW124716   4.212   0.105   9.930  0.8501 -0.3932 -0.0862
 4418SOL    HW224717   4.329   0.118  10.007  0.1699  1.4389  1.2021
 4419SOL     OW24718   2.145   1.869   8.294  0.9919 -0.0926  0.1981
 4419SOL    HW124719   2.090   1.829   8.361 -1.7230  0.2468 -1.8173
 4419SOL    HW224720   2.083   1.938   8.270  0.5782 -0.5274  0.0032
 4420SOL     OW24721   0.879   1.395   3.738 -0.3376  0.3572 -0.6020
 4420SOL    HW124722   0.942   1.413   3.809 -0.9753  0.5307 -0.0785
 4420SOL    HW224723   0.850   1.304   3.748 -0.3510  0.1256 -2.8625
 4421SOL     OW24724   3.344   0.432  12.078  0.2776 -0.1395  0.5525
 4421SOL    HW124725   3.368   0.422  11.986 -0.1238 -2.3005  0.6676
 4421SOL    HW224726   3.283   0.505  12.070 -0.3907 -0.7337  0.1902
 4422SOL     OW24727   0.017   0.785   6.730  0.3797 -0.1616  0.2272
 4422SOL    HW124728   4.685   0.718   6.770 -1.1800  0.0606 -1.5891
 4422SOL    HW224729   4.688   0.799   6.652  2.2620 -1.1696 -1.2463
 4423SOL     OW24730   3.267   2.470   5.539 -0.2409 -0.1915 -0.2389
 4423SOL    HW124731   3.221   2.554   5.541 -1.5675 -0.8917 -1.3047
 4423SOL    HW224732   3.276   2.468   5.634 -0.2855  2.4604 -0.1736
 4424SOL     OW24733   2.225   4.504   3.351 -0.0424 -0.3833  0.2491
 4424SOL    HW124734   2.235   4.497   3.446  0.1034 -0.7564  0.2058
 4424SOL    HW224735   2.144   4.554   3.342 -0.6066 -1.7648 -2.2180
 4425SOL     OW24736   3.540   2.691   4.177 -0.1499 -0.3756  0.0336
 4425SOL    HW124737   3.526   2.785   4.184  2.4657 -0.2249  3.6013
 4425SOL    HW224738   3.540   2.668   4.271 -1.5249  2.1117  0.6229
 4426SOL     OW24739   0.951   3.276   7.890 -0.2011  0.1024  0.8893
 4426SOL    HW124740   0.990   3.361   7.910  1.6389 -0.8143  1.1697
 4426SOL    HW224741   0.960   3.271   7.795  0.6167  0.3633  0.9568
 4427SOL     OW24742   1.902   4.535  12.787  0.1309 -0.3316 -0.6338
 4427SOL    HW124743   1.945   4.506  12.707  1.9975  0.4696  0.0701
 4427SOL    HW224744   1.812   4.517  12.760 -0.2866  0.7062  0.0365
 4428SOL     OW24745   1.040   0.026   0.968  0.7155  0.4896  0.6758
 4428SOL    HW124746   1.074   0.089   0.905 -1.2797  1.2290  0.3519
 4428SOL    HW224747   0.968   0.076   1.006 -0.2609 -0.4210  0.0285
 4429SOL     OW24748   1.178   4.173  13.199 -0.3069  0.0478  0.2526
 4429SOL    HW124749   1.160   4.217  13.282  0.3344  0.1023  0.3588
 4429SOL    HW224750   1.116   4.220  13.143  3.3976  2.0125 -2.1848
 4430SOL     OW24751   3.622   1.914   3.431  0.5227 -0.0281 -0.5700
 4430SOL    HW124752   3.608   1.847   3.364 -0.2832  1.7162 -2.1589
 4430SOL    HW224753   3.699   1.868   3.464  0.0892 -0.6567 -0.4224
 4431SOL     OW24754   1.219   0.776   3.507 -0.1325  0.3494 -0.2825
 4431SOL    HW124755   1.213   0.831   3.429  1.6280 -1.2016 -1.5139
 4431SOL    HW224756   1.155   0.822   3.562  1.5966  2.1852  0.2018
 4432SOL     OW24757   4.351   0.855  17.533 -0.5528  0.4073 -0.4870
 4432SOL    HW124758   4.354   0.797  17.457  1.9657 -1.1939  0.8438
 4432SOL    HW224759   4.388   0.935  17.496 -0.0459  0.6071  0.4642
 4433SOL     OW24760   0.198   3.583  13.469  0.4036  0.2480 -0.1513
 4433SOL    HW124761   0.287   3.615  13.484  0.8841 -1.2281  0.1569
 4433SOL    HW224762   0.201   3.500  13.516 -2.0139  0.0131 -0.3846
 4434SOL     OW24763   0.275   0.795   3.985  0.2098 -0.1259 -0.5296
 4434SOL    HW124764   0.345   0.791   4.050  0.7638  0.1793 -1.1070
 4434SOL    HW224765   0.276   0.710   3.941 -0.2550 -0.5437  0.2808
 4435SOL     OW24766   3.384   2.055  11.622  0.0563  0.5289 -0.5890
 4435SOL    HW124767   3.342   1.980  11.664  0.0375  0.3974 -0.8392
 4435SOL    HW224768   3.478   2.035  11.622  0.1403  0.9210 -0.9357
 4436SOL     OW24769   3.057   0.039  11.504  0.4909 -0.2832  0.2560
 4436SOL    HW124770   2.980   0.005  11.458  1.1502 -1.0419 -0.2735
 4436SOL    HW224771   3.117   4.688  11.509  0.8688  0.1633  2.3913
 4437SOL     OW24772   1.919   3.928  11.088 -0.1264  0.1717 -0.5381
 4437SOL    HW124773   1.902   3.929  10.994  1.9295 -0.6225 -0.9220
 4437SOL    HW224774   1.878   3.848  11.123 -0.8760  0.3756 -0.9482
 4438SOL     OW24775   3.604   4.453   4.812 -0.4239  0.3411  0.2973
 4438SOL    HW124776   3.538   4.490   4.870 -1.0537  0.9336 -0.8144
 4438SOL    HW224777   3.559   4.451   4.728 -0.9010 -1.1559  0.5859
 4439SOL     OW24778   4.434   0.571   0.724 -0.1949 -0.3851 -0.6577
 4439SOL    HW124779   4.468   0.525   0.648  1.6994 -0.5425  0.2840
 4439SOL    HW224780   4.424   0.509   0.796  0.3642 -1.2225 -1.3205
 4440SOL     OW24781   0.898   4.332   8.092 -0.3142 -0.0466  0.4947
 4440SOL    HW124782   0.993   4.318   8.087 -0.5291 -1.2803 -0.0037
 4440SOL    HW224783   0.881   4.260   8.152 -1.7300 -1.0600 -1.1273
 4441SOL     OW24784   0.559   3.472   7.060 -0.0873 -0.1301  0.5047
 4441SOL    HW124785   0.630   3.408   7.066 -0.3565 -0.3308  1.4359
 4441SOL    HW224786   0.553   3.486   6.965  1.1695 -1.8684  0.1722
 4442SOL     OW24787   1.003   3.898  11.593 -0.0719 -0.2936 -0.3487
 4442SOL    HW124788   0.956   3.953  11.531 -0.4248  1.8473  1.7943
 4442SOL    HW224789   1.041   3.949  11.665 -1.6064  2.4995 -1.5254
 4443SOL     OW24790   1.949   1.865  12.566  0.3406  0.2955  0.2272
 4443SOL    HW124791   1.874   1.908  12.525 -0.3460 -1.7208 -0.6341
 4443SOL    HW224792   1.924   1.774  12.575  0.0113  0.3744  0.1046
 4444SOL     OW24793   3.215   3.354   5.636  0.0161  0.5477  0.0968
 4444SOL    HW124794   3.156   3.283   5.662  0.8988 -1.2013 -2.6175
 4444SOL    HW224795   3.268   3.368   5.714  0.1292 -0.9293  0.2869
 4445SOL     OW24796   0.301   3.582   6.507 -0.1945 -0.0394 -0.0328
 4445SOL    HW124797   0.370   3.648   6.516  0.9276 -1.4482  1.5916
 4445SOL    HW224798   0.345   3.498   6.519 -0.3326 -0.1757 -0.4824
 4446SOL     OW24799   4.147   2.254   7.566  0.2115  0.3830 -0.1477
 4446SOL    HW124800   4.200   2.300   7.631 -0.5740  0.1392  0.6833
 4446SOL    HW224801   4.200   2.179   7.539  1.9817  1.2866  0.8440
 4447SOL     OW24802   3.804   2.308   7.976 -0.2048 -0.3034 -0.3458
 4447SOL    HW124803   3.866   2.380   7.968  0.5854 -1.1579 -2.0387
 4447SOL    HW224804   3.730   2.337   7.924  0.8613 -2.0468 -2.8194
 4448SOL     OW24805   3.803   4.022   7.047  0.1861 -0.8616 -0.0435
 4448SOL    HW124806   3.750   3.958   7.095 -1.0794  0.1473 -0.0939
 4448SOL    HW224807   3.871   3.955   7.031  1.6195  0.0643  2.2523
 4449SOL     OW24808   4.110   4.037   6.797 -0.3720  0.2433  0.0624
 4449SOL    HW124809   4.172   4.110   6.798  0.4974 -0.5022  1.0429
 4449SOL    HW224810   4.073   4.043   6.709  1.2179 -0.0659 -0.6266
 4450SOL     OW24811   4.431   0.339   9.655 -0.1902  0.4627 -0.3532
 4450SOL    HW124812   4.524   0.318   9.644 -0.6871 -1.5417 -0.7056
 4450SOL    HW224813   4.407   0.308   9.568 -0.7241 -0.2197  0.0439
 4451SOL     OW24814   2.852   0.262   4.973  0.1463 -0.1928 -0.4044
 4451SOL    HW124815   2.856   0.281   4.879  1.7566  1.1677 -0.0645
 4451SOL    HW224816   2.946   0.270   4.986  0.0143 -1.7607  1.4631
 4452SOL     OW24817   1.707   2.945   0.699  0.0660  0.0989  0.0485
 4452SOL    HW124818   1.670   2.972   0.783 -1.0004  0.1169 -0.4148
 4452SOL    HW224819   1.627   2.901   0.670  0.3111 -1.3324  1.5543
 4453SOL     OW24820   1.273   0.968   5.574  0.1318 -0.8209  0.5091
 4453SOL    HW124821   1.307   1.032   5.511 -2.2098  0.7958  0.9263
 4453SOL    HW224822   1.222   0.907   5.521 -0.8536 -0.0639  0.5839
 4454SOL     OW24823   2.101   2.102  14.093 -0.0705 -0.0591 -0.1331
 4454SOL    HW124824   2.158   2.165  14.048  1.1580  0.6827  2.4145
 4454SOL    HW224825   2.070   2.055  14.016  2.1459 -1.2079 -0.3312
 4455SOL     OW24826   2.727   1.540   4.905 -0.1696 -0.4255 -0.0222
 4455SOL    HW124827   2.664   1.601   4.943 -1.8825 -0.9707 -2.0119
 4455SOL    HW224828   2.691   1.461   4.945  0.9572 -0.9497 -0.0239
 4456SOL     OW24829   1.087   2.722   2.817 -0.5705  0.1433 -0.1261
 4456SOL    HW124830   1.003   2.689   2.786 -0.2706 -0.3948 -0.3840
 4456SOL    HW224831   1.139   2.740   2.738  0.7828 -0.1404  0.6968
 4457SOL     OW24832   3.995   2.311  13.811 -0.2754  0.1321  0.0168
 4457SOL    HW124833   4.042   2.379  13.763 -1.2925  0.6184 -0.2858
 4457SOL    HW224834   3.912   2.317  13.764  1.1249  1.6618 -2.2711
 4458SOL     OW24835   1.263   1.317   6.743 -0.6539 -0.0229 -0.5075
 4458SOL    HW124836   1.285   1.233   6.783 -0.4559 -0.3310 -1.2687
 4458SOL    HW224837   1.316   1.314   6.664  0.3843  1.4169  0.1282
 4459SOL     OW24838   4.524   2.588  15.984 -0.8970  0.0475  0.3138
 4459SOL    HW124839   4.615   2.611  16.001  0.1435 -2.6532 -1.5984
 4459SOL    HW224840   4.516   2.606  15.891  0.9360  2.5887  0.6601
 4460SOL     OW24841   3.733   2.964  12.532  0.0350 -0.0482  0.3289
 4460SOL    HW124842   3.735   3.057  12.512  1.6107 -0.3903 -1.1378
 4460SOL    HW224843   3.802   2.974  12.597 -1.7144 -0.5712  2.2686
 4461SOL     OW24844   0.294   0.502   3.086  0.2609  0.0616  0.0747
 4461SOL    HW124845   0.279   0.521   2.993  1.2137  0.4385 -0.0105
 4461SOL    HW224846   0.390   0.506   3.089  0.3910 -2.1817 -1.0480
 4462SOL     OW24847   3.548   4.466   6.082 -0.4130  0.1157 -0.3815
 4462SOL    HW124848   3.630   4.511   6.101 -0.0623 -1.0578  0.9190
 4462SOL    HW224849   3.585   4.396   6.027 -0.5783 -0.2141 -0.0701
 4463SOL     OW24850   0.966   1.794   7.019 -0.5177 -0.1536  0.2797
 4463SOL    HW124851   0.893   1.732   7.018  0.2399 -1.0624  1.2901
 4463SOL    HW224852   0.945   1.836   7.102 -1.3035  1.4236 -0.7098
 4464SOL     OW24853   4.458   1.833   3.336  0.1746 -0.6406 -0.2098
 4464SOL    HW124854   4.496   1.800   3.417 -0.5111 -0.2212  0.2756
 4464SOL    HW224855   4.388   1.886   3.374  0.4916 -1.2419  1.2094
 4465SOL     OW24856   4.514   2.032   4.866  0.5344  0.5123 -0.5777
 4465SOL    HW124857   4.496   1.943   4.833 -0.9997 -0.3814  2.6624
 4465SOL    HW224858   4.606   2.044   4.842  1.2035 -0.7567  1.3170
 4466SOL     OW24859   1.031   2.484   8.873 -0.2851  0.1830 -0.3690
 4466SOL    HW124860   1.036   2.510   8.781  1.1425 -2.5322 -1.0765
 4466SOL    HW224861   1.126   2.489   8.885 -0.4855  2.2407  0.2098
 4467SOL     OW24862   0.337   0.746   7.952  0.1199  0.4307  0.4648
 4467SOL    HW124863   0.388   0.688   8.007 -0.2461  0.9690  1.3717
 4467SOL    HW224864   0.315   0.805   8.024 -1.1257  1.5404 -0.8188
 4468SOL     OW24865   0.636   2.264  13.727  0.0129 -0.3990  0.1366
 4468SOL    HW124866   0.640   2.171  13.706  1.5994  0.3045 -2.7105
 4468SOL    HW224867   0.546   2.281  13.699 -0.0169  1.5329  1.3977
 4469SOL     OW24868   2.125   1.232   9.317 -0.0936 -0.0196  0.4713
 4469SOL    HW124869   2.202   1.182   9.344 -0.0882  1.6161  3.4517
 4469SOL    HW224870   2.154   1.306   9.263  0.7799  0.1465  1.1752
 4470SOL     OW24871   1.479   4.507  12.256 -0.2115  0.0567 -0.8334
 4470SOL    HW124872   1.445   4.575  12.198  0.4820  2.0601  1.0947
 4470SOL    HW224873   1.397   4.488  12.302  0.0347  0.6223 -0.1507
 4471SOL     OW24874   3.850   1.215   5.643  0.6266 -0.2895 -0.5380
 4471SOL    HW124875   3.894   1.280   5.589  1.3814  0.2714  0.7613
 4471SOL    HW224876   3.792   1.173   5.579 -0.8496  0.1953  0.4850
 4472SOL     OW24877   3.462   1.607   1.169  0.2312 -0.2781  0.7664
 4472SOL    HW124878   3.461   1.605   1.265  2.0781  2.2198  0.8327
 4472SOL    HW224879   3.431   1.697   1.156 -1.0869 -0.6466  1.3004
 4473SOL     OW24880   0.026   2.449   4.546 -0.1494  0.2494  0.2906
 4473SOL    HW124881   4.704   2.514   4.492 -0.9627 -1.8127 -1.5395
 4473SOL    HW224882   0.064   2.507   4.612 -1.6805  0.1153  1.2728
 4474SOL     OW24883   0.355   0.158   6.808  0.4284  0.0966 -0.0273
 4474SOL    HW124884   0.317   0.070   6.814 -0.3201  0.5200  1.4447
 4474SOL    HW224885   0.396   0.153   6.722 -0.7935 -0.9796 -0.5415
 4475SOL     OW24886   2.546   0.070   8.227 -0.4509 -0.2757 -0.1684
 4475SOL    HW124887   2.639   0.093   8.231 -0.4771  0.1218 -1.8233
 4475SOL    HW224888   2.545   4.699   8.242 -2.5477 -0.2529 -0.2712
 4476SOL     OW24889   4.063   0.652   8.548 -0.3960  0.1500 -0.2111
 4476SOL    HW124890   4.050   0.564   8.583 -3.3046  1.1700  1.2551
 4476SOL    HW224891   4.038   0.704   8.625  0.0748  0.1142 -0.0324
 4477SOL     OW24892   2.145   4.057  17.274  0.3701  0.1025 -0.1349
 4477SOL    HW124893   2.190   4.120  17.218 -1.4831  1.6132  0.1074
 4477SOL    HW224894   2.188   3.976  17.246  0.6525  0.9080 -2.0475
 4478SOL     OW24895   2.444   0.832  13.863 -0.2297  0.3727 -1.1742
 4478SOL    HW124896   2.424   0.926  13.870  1.0436  0.5187  0.5378
 4478SOL    HW224897   2.530   0.836  13.904 -0.3925  1.5359 -0.9218
 4479SOL     OW24898   3.706   1.527   7.396 -0.6231 -0.1925 -0.5042
 4479SOL    HW124899   3.696   1.588   7.323 -1.3924  0.0169 -0.2250
 4479SOL    HW224900   3.724   1.448   7.346 -1.3185 -0.1532 -0.8153
 4480SOL     OW24901   4.151   1.167   5.108  0.0614 -0.6730  0.0170
 4480SOL    HW124902   4.176   1.075   5.114  0.7379 -0.4741  0.2223
 4480SOL    HW224903   4.228   1.197   5.059 -0.5139  0.6015 -0.1160
 4481SOL     OW24904   4.111   0.613  10.232 -0.0008 -0.4474 -0.2965
 4481SOL    HW124905   4.205   0.629  10.225 -0.4393  1.5269 -1.5766
 4481SOL    HW224906   4.100   0.552  10.158  0.5871  0.9130 -1.4929
 4482SOL     OW24907   4.627   4.021  10.594  0.7909 -0.0634  0.0723
 4482SOL    HW124908   4.583   3.953  10.644 -1.2877 -0.3025 -2.0450
 4482SOL    HW224909   4.574   4.098  10.618 -0.5776  0.8561 -5.9474
 4483SOL     OW24910   0.348   2.271   5.323  0.0289 -0.0418  0.4125
 4483SOL    HW124911   0.389   2.188   5.345 -0.8730 -0.6089 -0.0421
 4483SOL    HW224912   0.422   2.330   5.339  1.1517 -1.5440  0.7318
 4484SOL     OW24913   4.654   0.706  16.435  0.4011 -0.4432  0.1762
 4484SOL    HW124914   4.600   0.627  16.428  0.0716 -0.2226  0.2333
 4484SOL    HW224915   4.644   0.734  16.526 -2.5265  0.9591 -0.5527
 4485SOL     OW24916   3.274   4.269   1.951  0.1087 -0.1778 -0.0121
 4485SOL    HW124917   3.298   4.358   1.979  2.6395 -0.9352  0.2371
 4485SOL    HW224918   3.357   4.224   1.939  0.9234  0.6762  2.2862
 4486SOL     OW24919   0.855   2.724   3.905 -0.0634 -0.5198 -0.4629
 4486SOL    HW124920   0.813   2.639   3.908  1.9199 -1.4457  1.4134
 4486SOL    HW224921   0.800   2.776   3.963  0.6905 -0.6847  0.3994
 4487SOL     OW24922   0.172   3.217  12.167  0.7107 -0.0681 -0.2317
 4487SOL    HW124923   0.113   3.280  12.208  0.8862 -1.3249  2.0111
 4487SOL    HW224924   0.255   3.265  12.160  1.1753 -0.5869  1.5667
 4488SOL     OW24925   4.464   0.791  16.739 -0.6605  0.1108  0.4641
 4488SOL    HW124926   4.522   0.755  16.807  1.2962  3.2020  0.4467
 4488SOL    HW224927   4.424   0.711  16.705  1.5678 -0.7493 -0.1580
 4489SOL     OW24928   3.048   0.887   8.791 -0.2260  0.2094 -0.2464
 4489SOL    HW124929   3.099   0.953   8.836  1.0163 -1.3655  0.6577
 4489SOL    HW224930   3.097   0.809   8.816 -1.3260  0.1420  1.6395
 4490SOL     OW24931   4.069   0.945  17.144 -0.0836 -0.4640  0.1352
 4490SOL    HW124932   4.105   0.903  17.066 -0.0449  0.1259 -0.1681
 4490SOL    HW224933   4.085   1.039  17.129  0.9379 -0.7013 -0.2986
 4491SOL     OW24934   1.359   4.367   7.840  0.1648 -0.4838 -0.4796
 4491SOL    HW124935   1.314   4.389   7.922  1.5666  0.6046  0.0002
 4491SOL    HW224936   1.366   4.458   7.811 -0.2540 -0.3466 -0.1682
 4492SOL     OW24937   0.365   0.764   9.002  0.5629  0.3181  0.2524
 4492SOL    HW124938   0.374   0.817   9.081  0.1905  0.3492  0.2722
 4492SOL    HW224939   0.278   0.730   9.023  0.9646 -1.8165 -1.4586
 4493SOL     OW24940   0.946   4.097  17.259 -0.1985  0.8688  0.0009
 4493SOL    HW124941   0.930   4.019  17.205 -2.2035  2.4935 -1.7620
 4493SOL    HW224942   1.026   4.073  17.305 -0.3936 -0.5413 -0.3768
 4494SOL     OW24943   3.963   2.518   7.983  0.6086  0.3606  0.1548
 4494SOL    HW124944   4.034   2.485   8.037  0.1951  0.1041  0.5394
 4494SOL    HW224945   3.906   2.554   8.051  1.6086  0.2817  1.0177
 4495SOL     OW24946   3.369   3.214   3.070 -0.0888  0.8932 -0.0897
 4495SOL    HW124947   3.377   3.130   3.025 -3.5494  1.4638 -1.7597
 4495SOL    HW224948   3.398   3.271   2.999  0.3974  2.1597  1.1356
 4496SOL     OW24949   2.598   1.535  11.081 -0.0210  0.0525  0.5449
 4496SOL    HW124950   2.615   1.629  11.075  2.0190 -0.4366 -1.3332
 4496SOL    HW224951   2.669   1.498  11.028 -0.1904  0.8448 -0.2440
 4497SOL     OW24952   0.927   4.716  12.116 -0.1333  0.1220 -0.2260
 4497SOL    HW124953   0.876   0.022  12.040 -2.0590 -1.7549  0.3607
 4497SOL    HW224954   0.949   4.633  12.074  0.0709 -0.9839  2.0460
 4498SOL     OW24955   4.222   1.950   6.605 -0.9966  0.1337 -0.4647
 4498SOL    HW124956   4.203   2.023   6.545 -0.4794  1.9301  1.5799
 4498SOL    HW224957   4.307   1.982   6.633 -1.3408  1.4792 -0.9675
 4499SOL     OW24958   1.181   4.587   1.823 -0.5972 -0.0714  1.1693
 4499SOL    HW124959   1.240   4.516   1.799 -2.2498 -1.5081  1.3811
 4499SOL    HW224960   1.206   4.653   1.759 -1.2478 -0.7636  0.2169
 4500SOL     OW24961   2.460   2.163  12.626  0.9811  0.4064  0.1670
 4500SOL    HW124962   2.538   2.212  12.651 -0.2653  1.9666  1.0519
 4500SOL    HW224963   2.402   2.237  12.645  2.0077  1.5317 -1.1457
 4501SOL     OW24964   3.040   0.099   8.376 -0.1626 -0.1667  0.1739
 4501SOL    HW124965   3.071   0.096   8.466 -0.5711  1.1349  0.3649
 4501SOL    HW224966   3.126   0.105   8.333 -0.7160  1.9159 -0.6918
 4502SOL     OW24967   0.433   2.132   7.363 -0.1969  0.3171  0.2687
 4502SOL    HW124968   0.510   2.163   7.315 -0.2867  0.8006  0.4298
 4502SOL    HW224969   0.414   2.214   7.410 -2.2716  0.4453 -0.8214
 4503SOL     OW24970   3.847   1.409   2.942 -0.5574  0.7330 -0.2309
 4503SOL    HW124971   3.834   1.318   2.912  1.0545  0.6080 -0.5179
 4503SOL    HW224972   3.792   1.399   3.020  0.8073 -1.1778  0.4768
 4504SOL     OW24973   3.050   0.988  11.598 -0.7294 -0.0483 -0.0929
 4504SOL    HW124974   3.108   1.036  11.658 -0.0158 -2.9035  1.5175
 4504SOL    HW224975   3.050   1.047  11.523 -1.3110 -1.6730 -1.3923
 4505SOL     OW24976   4.323   4.187   7.732  0.1420 -0.1169 -0.3442
 4505SOL    HW124977   4.242   4.231   7.756 -0.1158 -0.6490 -0.2482
 4505SOL    HW224978   4.316   4.196   7.637 -0.0082  1.0224 -0.2281
 4506SOL     OW24979   2.378   4.348  15.661 -0.8997  0.2867  0.7816
 4506SOL    HW124980   2.348   4.415  15.600 -2.3391  0.3399  1.5558
 4506SOL    HW224981   2.409   4.289  15.592 -0.3385 -1.1979  2.3089
 4507SOL     OW24982   4.551   1.907   6.549 -0.3235  0.3079 -0.3263
 4507SOL    HW124983   4.541   1.979   6.611 -1.9284  1.7134 -2.1675
 4507SOL    HW224984   4.550   1.834   6.610 -0.9224  0.4972 -0.1066
 4508SOL     OW24985   3.855   1.663  10.709 -0.1475  0.2324 -0.0047
 4508SOL    HW124986   3.855   1.692  10.618 -0.9550 -0.0789 -0.0997
 4508SOL    HW224987   3.795   1.589  10.702 -1.2680  1.1785 -0.3027
 4509SOL     OW24988   1.724   3.169   6.671 -0.1501  0.4296 -0.0004
 4509SOL    HW124989   1.745   3.106   6.602 -0.6856  0.0522  0.1789
 4509SOL    HW224990   1.661   3.221   6.622 -0.5801 -0.7731 -0.7039
 4510SOL     OW24991   1.753   2.526  11.532 -0.1280  0.0073 -0.3644
 4510SOL    HW124992   1.825   2.543  11.592 -0.3156  1.5941 -0.5980
 4510SOL    HW224993   1.672   2.536  11.582 -0.5196 -0.7144 -0.8394
 4511SOL     OW24994   4.686   2.840   6.252  0.3091  0.8221 -0.4109
 4511SOL    HW124995   4.688   2.817   6.345  0.9956  1.4955 -0.2576
 4511SOL    HW224996   0.053   2.863   6.232  1.2688 -1.6112  1.1123
 4512SOL     OW24997   2.322   4.333  15.318  0.8446 -0.1566  0.0216
 4512SOL    HW124998   2.378   4.404  15.350  0.6580 -0.3685  0.8436
 4512SOL    HW224999   2.369   4.312  15.238  1.8221  0.1130  0.5183
 4513SOL     OW25000   2.778   3.532   3.417  0.3749 -0.0762 -0.4653
 4513SOL    HW125001   2.774   3.626   3.434 -1.4624 -0.2305 -0.0238
 4513SOL    HW225002   2.800   3.519   3.325  1.7767  0.4840 -0.1974
 4514SOL     OW25003   2.516   2.059   7.452  0.4047 -0.4156 -0.4017
 4514SOL    HW125004   2.560   2.143   7.466  0.3207 -0.3756 -0.3792
 4514SOL    HW225005   2.480   2.070   7.364 -0.8134 -1.2612 -0.0134
 4515SOL     OW25006   2.980   2.707   5.784  0.3539 -0.4965 -0.3165
 4515SOL    HW125007   3.054   2.702   5.724  0.2746  0.2505 -0.4809
 4515SOL    HW225008   2.965   2.613   5.790  0.3008 -0.4089  0.9612
 4516SOL     OW25009   1.684   1.853   1.349  0.1517 -0.1140  0.3216
 4516SOL    HW125010   1.755   1.808   1.302  0.9607  1.5334 -0.0413
 4516SOL    HW225011   1.644   1.784   1.403 -0.2235 -0.7716 -0.7880
 4517SOL     OW25012   4.704   3.919   3.303 -0.1997 -0.5310 -0.2492
 4517SOL    HW125013   0.036   3.892   3.230  1.8409  0.0543  1.0886
 4517SOL    HW225014   4.686   3.834   3.343 -0.4450 -0.5354 -0.3710
 4518SOL     OW25015   2.666   3.665   6.051 -0.5209 -0.5270 -0.1122
 4518SOL    HW125016   2.600   3.637   5.988  0.5098  1.5084 -2.0948
 4518SOL    HW225017   2.668   3.760   6.050  0.6243 -0.5519 -1.2298
 4519SOL     OW25018   3.405   3.100   6.675  0.3857  0.2359  0.2314
 4519SOL    HW125019   3.477   3.048   6.641 -0.7255 -1.1832  0.0010
 4519SOL    HW225020   3.392   3.060   6.762  0.1259 -0.9075 -0.3257
 4520SOL     OW25021   2.683   4.379   0.852  0.1104  0.6393 -0.1039
 4520SOL    HW125022   2.724   4.440   0.792  1.9168 -0.9307 -0.4649
 4520SOL    HW225023   2.649   4.312   0.793  0.2433  0.0249  0.5071
 4521SOL     OW25024   1.995   4.658   4.114  0.3212  0.1193 -0.3032
 4521SOL    HW125025   1.962   4.673   4.026 -1.0400  0.2806  0.2364
 4521SOL    HW225026   2.043   0.017   4.122  3.7661 -1.8643 -0.5578
 4522SOL     OW25027   1.709   3.146  13.199  0.0356  0.3383  0.0044
 4522SOL    HW125028   1.649   3.157  13.125  3.0228 -2.4653 -2.8764
 4522SOL    HW225029   1.788   3.198  13.183 -0.6123  0.8171 -1.7169
 4523SOL     OW25030   0.291   4.663   7.449  0.1471 -0.3410 -0.0306
 4523SOL    HW125031   0.233   0.015   7.453 -1.5707 -1.7735  1.8051
 4523SOL    HW225032   0.321   4.639   7.537  0.5149 -0.3766 -0.1639
 4524SOL     OW25033   1.807   1.717   7.361  0.2199  0.0264 -0.2219
 4524SOL    HW125034   1.803   1.679   7.273  0.7478  1.0587 -0.6965
 4524SOL    HW225035   1.816   1.643   7.421 -1.8927 -0.5117 -0.5724
 4525SOL     OW25036   1.336   0.711   2.281  0.1720 -0.1208  0.1314
 4525SOL    HW125037   1.317   0.777   2.347 -0.8755  0.8504 -1.1415
 4525SOL    HW225038   1.425   0.696   2.313  0.5801 -0.6279 -1.2362
 4526SOL     OW25039   3.083   1.464   3.184  0.1984 -0.2117  0.3918
 4526SOL    HW125040   3.019   1.399   3.214 -0.7018  0.3459 -0.3138
 4526SOL    HW225041   3.024   1.516   3.129  0.6964 -0.9328 -0.8092
 4527SOL     OW25042   2.859   2.669   6.726  0.5599  0.8266 -0.3393
 4527SOL    HW125043   2.890   2.581   6.748 -0.0233  0.8402  0.5535
 4527SOL    HW225044   2.896   2.714   6.803  1.0859 -0.4206  0.1398
 4528SOL     OW25045   1.618   2.533   7.067 -0.1690 -0.3285 -0.0890
 4528SOL    HW125046   1.606   2.504   6.977  1.2148  0.2373 -0.4402
 4528SOL    HW225047   1.689   2.479   7.102 -0.8847 -1.6709 -0.6707
 4529SOL     OW25048   0.107   1.375   7.004  0.0421 -0.1989 -0.2640
 4529SOL    HW125049   0.174   1.444   7.007 -0.6807  0.5062 -0.4117
 4529SOL    HW225050   0.151   1.323   6.937 -0.8459  0.1598 -1.1256
 4530SOL     OW25051   2.720   2.307   5.295  0.4520 -0.2626 -0.3864
 4530SOL    HW125052   2.795   2.332   5.242 -0.1710  0.4836 -0.9219
 4530SOL    HW225053   2.648   2.353   5.251  0.9180  0.8656  0.0360
 4531SOL     OW25054   3.498   2.538   2.905  0.3033  0.0576 -0.1830
 4531SOL    HW125055   3.430   2.497   2.851  0.6047  1.5150 -1.6659
 4531SOL    HW225056   3.567   2.508   2.847 -0.1156  0.7067 -1.0094
 4532SOL     OW25057   2.096   2.935   3.304  0.7185 -0.1289  0.8554
 4532SOL    HW125058   2.012   2.975   3.328 -0.6665 -3.1998  1.1715
 4532SOL    HW225059   2.062   2.872   3.240  1.2598  3.8587 -3.3292
 4533SOL     OW25060   1.714   3.397   1.438 -0.6283 -0.1553 -0.2059
 4533SOL    HW125061   1.732   3.348   1.519 -0.2830  0.2341 -0.0493
 4533SOL    HW225062   1.764   3.478   1.446 -0.4368 -0.2094 -0.8617
 4534SOL     OW25063   4.636   0.306   4.253  0.3319  0.2444 -0.1028
 4534SOL    HW125064   4.699   0.303   4.181  0.2964 -0.4254 -0.1066
 4534SOL    HW225065   4.623   0.215   4.277  0.9823  1.0612  3.2636
 4535SOL     OW25066   2.278   3.561   0.553 -0.3556 -0.3316 -0.0901
 4535SOL    HW125067   2.368   3.531   0.537  0.2978  0.7320  1.5537
 4535SOL    HW225068   2.228   3.495   0.505 -1.8212  2.5679 -2.5177
 4536SOL     OW25069   0.627   2.552   9.489 -0.5692 -0.2012 -0.2332
 4536SOL    HW125070   0.601   2.527   9.400 -1.4788  0.3084 -0.1106
 4536SOL    HW225071   0.558   2.611   9.518 -0.9008  0.3320 -2.0749
 4537SOL     OW25072   0.623   4.241   5.862  0.6139  0.1959  0.1076
 4537SOL    HW125073   0.576   4.244   5.945  1.1118 -1.4905  0.4470
 4537SOL    HW225074   0.668   4.156   5.865 -0.7541 -0.6005 -1.6791
 4538SOL     OW25075   4.696   0.911   6.225 -0.0950 -0.7041 -0.1151
 4538SOL    HW125076   0.012   0.884   6.142 -2.9696 -1.1410 -1.3015
 4538SOL    HW225077   4.710   1.006   6.226 -1.5204 -0.5138  4.2343
 4539SOL     OW25078   2.311   1.090  14.639 -0.1659 -0.3755  0.2517
 4539SOL    HW125079   2.386   1.039  14.608  0.3000  1.0157 -0.9453
 4539SOL    HW225080   2.294   1.146  14.563 -2.2654 -1.4063 -0.0561
 4540SOL     OW25081   1.180   4.586   8.280  0.1083  0.2222 -0.0217
 4540SOL    HW125082   1.242   4.520   8.312 -0.4415 -0.0743  0.4212
 4540SOL    HW225083   1.176   4.560   8.188  2.2723 -0.3615  0.0463
 4541SOL     OW25084   4.650   4.642   6.315 -0.0393  0.0572  0.5674
 4541SOL    HW125085   4.679   4.640   6.223  0.6502 -1.7211  0.8120
 4541SOL    HW225086   4.665   4.551   6.341  1.8744  0.3064  0.3445
 4542SOL     OW25087   1.232   4.717   7.063 -0.1301 -0.4836 -0.5259
 4542SOL    HW125088   1.258   4.627   7.078 -0.0483 -0.2256  0.9516
 4542SOL    HW225089   1.294   0.017   6.994 -0.0128  0.4480 -0.1098
 4543SOL     OW25090   1.744   1.274   7.278  0.2683 -0.0070 -0.4084
 4543SOL    HW125091   1.668   1.217   7.281  1.1765 -1.2035  0.1581
 4543SOL    HW225092   1.721   1.334   7.208 -0.5359 -1.5443 -1.4550
 4544SOL     OW25093   4.049   0.588   6.844 -0.1599 -0.3730 -0.5270
 4544SOL    HW125094   4.090   0.614   6.761 -0.2673  0.2736 -0.3785
 4544SOL    HW225095   3.980   0.655   6.845  1.4562  1.2310  2.6668
 4545SOL     OW25096   3.462   0.539   1.415  0.0259  0.1013  0.1319
 4545SOL    HW125097   3.388   0.585   1.457  1.4667  1.9276  0.6796
 4545SOL    HW225098   3.525   0.546   1.487  1.2211  0.4231 -0.9447
 4546SOL     OW25099   3.168   0.814   6.325 -0.4283  0.1671 -0.2957
 4546SOL    HW125100   3.259   0.813   6.294  0.5599  0.6273  2.5960
 4546SOL    HW225101   3.136   0.898   6.292 -0.3382  0.2502 -0.1737
 4547SOL     OW25102   2.196   4.459   2.827  0.7255  0.1904  0.2014
 4547SOL    HW125103   2.172   4.371   2.857 -0.7568  0.9664  1.2312
 4547SOL    HW225104   2.106   4.492   2.831  0.3122 -0.5090 -2.8647
 4548SOL     OW25105   1.735   1.192   5.101 -0.0723  0.1263 -0.0356
 4548SOL    HW125106   1.801   1.138   5.146  1.0242 -0.2243 -2.0730
 4548SOL    HW225107   1.719   1.147   5.018 -1.2918  0.4142  0.0402
 4549SOL     OW25108   3.582   0.277   7.782  0.1732 -0.2959  0.4165
 4549SOL    HW125109   3.660   0.309   7.736 -0.1790 -0.7152 -0.4573
 4549SOL    HW225110   3.540   0.362   7.798 -1.7918 -1.2176  0.1540
 4550SOL     OW25111   0.262   3.197  14.427  0.1386 -0.1850 -0.4786
 4550SOL    HW125112   0.178   3.235  14.453  0.3370  0.7053 -1.1427
 4550SOL    HW225113   0.260   3.217  14.334  2.2159  0.1670 -0.4587
 4551SOL     OW25114   1.411   2.880   1.418  0.2375  0.3630 -0.3393
 4551SOL    HW125115   1.380   2.895   1.328 -1.0379 -0.0886  0.0227
 4551SOL    HW225116   1.338   2.826   1.451  0.9934 -0.1197  0.5274
 4552SOL     OW25117   0.510   4.326   7.542 -0.1351 -0.0595 -0.0607
 4552SOL    HW125118   0.437   4.341   7.602  0.8809 -1.9096  1.6309
 4552SOL    HW225119   0.473   4.277   7.468  1.1149 -1.8870  0.5208
 4553SOL     OW25120   3.427   0.354   9.206  0.3346 -0.4568 -0.1115
 4553SOL    HW125121   3.480   0.369   9.284  0.3947  0.2452 -0.2811
 4553SOL    HW225122   3.454   0.264   9.188  1.7278  0.0709 -0.6895
 4554SOL     OW25123   3.970   1.094  13.186  0.4138 -0.4655  0.1143
 4554SOL    HW125124   4.002   1.113  13.274 -0.0683  3.5523 -0.5919
 4554SOL    HW225125   3.892   1.044  13.212 -0.6331  1.4284  0.6225
 4555SOL     OW25126   2.414   1.197  11.413  0.1952  0.0043 -0.0943
 4555SOL    HW125127   2.435   1.128  11.350 -1.3706  1.7411 -2.5198
 4555SOL    HW225128   2.454   1.277  11.377 -0.3730 -0.3560 -1.5254
 4556SOL     OW25129   4.192   2.680   2.367 -0.3928 -0.4071  0.3269
 4556SOL    HW125130   4.242   2.761   2.375  2.3387 -1.8732 -1.9899
 4556SOL    HW225131   4.125   2.698   2.433 -1.1276  0.1393 -0.5641
 4557SOL     OW25132   2.050   1.956   4.939  0.1675  0.0508 -0.0098
 4557SOL    HW125133   2.075   1.997   4.856 -0.8487 -0.5552 -0.6198
 4557SOL    HW225134   1.976   1.904   4.909  0.5938 -0.4083 -0.2716
 4558SOL     OW25135   4.182   3.423   2.041 -0.0498  0.4341  0.1615
 4558SOL    HW125136   4.213   3.509   2.069  3.3607 -1.4628  2.1133
 4558SOL    HW225137   4.095   3.439   2.003  0.8535 -0.8208 -2.3764
 4559SOL     OW25138   0.975   2.138  16.356 -0.1370 -0.0950 -0.0834
 4559SOL    HW125139   0.905   2.102  16.301  0.6976  1.7142 -2.3708
 4559SOL    HW225140   0.985   2.229  16.325  1.1578 -0.0239  0.5501
 4560SOL     OW25141   2.959   0.608   6.839  0.2362 -0.1590 -0.1092
 4560SOL    HW125142   3.031   0.550   6.864  1.5554  0.2251 -3.0339
 4560SOL    HW225143   3.007   0.680   6.798  0.8066  0.5236  1.7551
 4561SOL     OW25144   4.685   4.619  11.543  0.3769 -0.2310 -0.1731
 4561SOL    HW125145   4.611   4.670  11.575 -0.1386 -1.3541  0.4461
 4561SOL    HW225146   0.021   4.633  11.617  0.5045  1.5791 -0.6202
 4562SOL     OW25147   0.178   3.510   2.669  0.2884 -0.4781 -0.1310
 4562SOL    HW125148   0.125   3.435   2.646 -0.0510 -0.3500  0.2289
 4562SOL    HW225149   0.237   3.474   2.735 -0.4713 -0.1350  0.7373
 4563SOL     OW25150   4.507   2.493   6.027 -0.3627  0.0337  0.1029
 4563SOL    HW125151   4.413   2.482   6.036 -0.8515  1.2345 -3.7431
 4563SOL    HW225152   4.526   2.503   6.120 -2.7694 -0.6972  0.6641
 4564SOL     OW25153   3.086   0.373   5.257  0.1383  0.3724  0.4615
 4564SOL    HW125154   3.047   0.292   5.224 -0.2522  0.6230  0.3112
 4564SOL    HW225155   3.040   0.437   5.204 -2.2793  0.4744  2.6810
 4565SOL     OW25156   0.331   1.282  11.278 -0.6569 -0.0975  0.0051
 4565SOL    HW125157   0.397   1.218  11.306 -0.1886  0.3590 -0.0533
 4565SOL    HW225158   0.341   1.287  11.183  2.4423 -2.3725  0.2226
 4566SOL     OW25159   3.371   1.310   5.534  0.1827 -0.4265  0.0983
 4566SOL    HW125160   3.439   1.378   5.527 -0.2517  0.0281  0.3274
 4566SOL    HW225161   3.403   1.245   5.471  0.3867 -1.8337  1.6554
 4567SOL     OW25162   3.708   3.093   2.481  0.3269  0.0964  0.2636
 4567SOL    HW125163   3.699   3.076   2.575  0.7431  1.4221  0.5330
 4567SOL    HW225164   3.703   3.001   2.454  0.8018 -0.4021  1.8327
 4568SOL     OW25165   4.614   1.437  16.968  0.0478  0.1593  0.0153
 4568SOL    HW125166   4.653   1.475  16.890 -1.4986 -0.6039 -1.1232
 4568SOL    HW225167   4.694   1.394  17.000  1.3780  1.0536 -2.1131
 4569SOL     OW25168   0.373   1.680   0.786  0.5219 -0.2001  0.0970
 4569SOL    HW125169   0.282   1.657   0.772  0.5556  0.3178 -0.9575
 4569SOL    HW225170   0.378   1.760   0.734 -0.5733  0.0813  0.4212
 4570SOL     OW25171   3.934   3.230   8.292  0.3417  0.4051  0.1596
 4570SOL    HW125172   3.964   3.306   8.341 -0.5657  1.4999 -0.9661
 4570SOL    HW225173   3.931   3.160   8.357  2.9586 -0.5177 -0.7099
 4571SOL     OW25174   0.623   3.185  15.984 -0.0478  0.4536 -0.2899
 4571SOL    HW125175   0.700   3.228  16.021  0.5020 -0.5496 -0.2848
 4571SOL    HW225176   0.648   3.179  15.892  0.3784 -0.6318 -0.1034
 4572SOL     OW25177   1.546   3.370   7.291  0.1265  0.2212 -1.3741
 4572SOL    HW125178   1.487   3.388   7.218  0.3584  1.3474 -1.2768
 4572SOL    HW225179   1.630   3.360   7.247  0.4481 -1.6724 -0.3294
 4573SOL     OW25180   0.900   2.373  16.218 -0.2524 -0.1931 -0.1874
 4573SOL    HW125181   0.877   2.395  16.308 -1.8869 -1.8152 -0.2038
 4573SOL    HW225182   0.959   2.447  16.203 -2.8369  1.7293 -0.7984
 4574SOL     OW25183   3.872   4.445   0.743 -0.7077  0.0633  1.1339
 4574SOL    HW125184   3.830   4.510   0.798 -2.2040  0.4667 -0.4802
 4574SOL    HW225185   3.926   4.500   0.686 -0.4797 -0.0609  1.2298
 4575SOL     OW25186   1.057   3.956   6.395  0.2130 -0.3360  0.0778
 4575SOL    HW125187   1.124   4.001   6.446 -0.1430 -0.1198  0.3540
 4575SOL    HW225188   1.029   4.030   6.341  0.3607  0.4009  0.9991
 4576SOL     OW25189   2.348   3.274   3.585  0.0742  0.8580  0.3122
 4576SOL    HW125190   2.375   3.200   3.532 -1.6398  0.5063 -0.0755
 4576SOL    HW225191   2.429   3.281   3.635 -1.0819  2.4510  1.9663
 4577SOL     OW25192   0.755   1.092   6.765  0.1838  0.4184 -0.1681
 4577SOL    HW125193   0.695   1.031   6.807 -1.8904  1.2851 -1.8874
 4577SOL    HW225194   0.692   1.148   6.721 -0.8368 -1.9225 -1.7081
 4578SOL     OW25195   4.052   3.908  13.870 -0.6468 -0.0619  0.0877
 4578SOL    HW125196   3.995   3.985  13.862 -1.1965 -0.2356  2.2907
 4578SOL    HW225197   4.124   3.945  13.921 -0.2905  0.5659 -0.8762
 4579SOL     OW25198   3.835   3.869   3.294  0.3916  0.3345 -0.0769
 4579SOL    HW125199   3.879   3.784   3.285  0.4948  0.3840 -0.0302
 4579SOL    HW225200   3.905   3.934   3.300  1.8842 -1.4058  1.3795
 4580SOL     OW25201   0.710   4.040   6.961 -0.5448 -0.2085 -0.3468
 4580SOL    HW125202   0.758   4.036   7.044 -1.5878 -0.0302  0.2767
 4580SOL    HW225203   0.751   4.109   6.910  0.5041 -0.8151 -0.3130
 4581SOL     OW25204   0.116   0.629   0.021  0.2296  0.3715 -0.2182
 4581SOL    HW125205   0.103   0.658  17.626 -0.7027  0.5278 -0.0396
 4581SOL    HW225206   0.180   0.560   0.002  0.5252  0.4051  0.6619
 4582SOL     OW25207   2.177   1.994   6.696  0.9028  0.2851 -0.3560
 4582SOL    HW125208   2.091   1.963   6.667  1.6926 -0.8075 -1.5547
 4582SOL    HW225209   2.232   1.917   6.682  2.0759  1.5598 -2.8970
 4583SOL     OW25210   2.699   2.067   4.541 -0.0843 -0.2724 -0.1132
 4583SOL    HW125211   2.615   2.023   4.531 -1.4982  1.9940  1.6139
 4583SOL    HW225212   2.669   2.155   4.564 -0.0271  0.4223 -2.7444
 4584SOL     OW25213   4.347   2.493   0.353 -0.0438  0.1950 -0.2396
 4584SOL    HW125214   4.405   2.438   0.405  0.5801 -0.3564 -1.5258
 4584SOL    HW225215   4.397   2.574   0.353 -2.3294  1.6241  0.8429
 4585SOL     OW25216   4.076   0.154   4.656 -0.1412  0.3252  0.4671
 4585SOL    HW125217   4.093   0.169   4.749 -1.9766 -2.6024  1.2923
 4585SOL    HW225218   4.100   0.062   4.651  0.8673  0.7145 -1.4292
 4586SOL     OW25219   4.713   2.793   4.970  0.2464  0.3310  0.0432
 4586SOL    HW125220   0.071   2.834   4.941 -0.4631  1.8487  0.1863
 4586SOL    HW225221   4.649   2.854   4.933 -0.7576 -0.4837  0.4363
 4587SOL     OW25222   4.017   3.234   5.445 -0.1313  0.4541  0.0588
 4587SOL    HW125223   3.966   3.280   5.378 -0.1788 -3.2762 -2.4815
 4587SOL    HW225224   4.063   3.309   5.483 -1.3074  0.7040  0.9901
 4588SOL     OW25225   0.244   1.686   6.601 -0.0078  0.1834 -0.1875
 4588SOL    HW125226   0.207   1.743   6.669  1.0864  2.4154 -1.4420
 4588SOL    HW225227   0.339   1.692   6.615  0.1348 -1.5167 -0.4415
 4589SOL     OW25228   2.541   1.218  15.715 -0.2071  0.0364  0.1565
 4589SOL    HW125229   2.490   1.291  15.751  0.8625  0.6000  0.5359
 4589SOL    HW225230   2.471   1.169  15.673  1.5840 -1.1678 -1.4370
 4590SOL     OW25231   3.186   3.126   8.099 -0.2951 -0.0200 -0.2398
 4590SOL    HW125232   3.183   3.193   8.031 -0.2458  1.0030  0.7716
 4590SOL    HW225233   3.191   3.049   8.041  0.2011 -0.2483  0.1097
 4591SOL     OW25234   3.766   0.773   0.499  0.1174  0.4740 -0.1113
 4591SOL    HW125235   3.727   0.833   0.436 -0.7878 -0.3513 -0.3450
 4591SOL    HW225236   3.858   0.768   0.475  0.1748 -2.2014  0.6711
 4592SOL     OW25237   4.637   2.895  15.263  0.8799 -0.3186 -0.3508
 4592SOL    HW125238   4.605   2.895  15.173  0.6465 -0.1704 -0.2662
 4592SOL    HW225239   0.002   2.858  15.254  0.7605 -0.1675 -2.0975
 4593SOL     OW25240   1.379   2.238   6.905 -0.9450  0.8102  0.0964
 4593SOL    HW125241   1.475   2.235   6.901 -0.9972 -1.2086  0.3271
 4593SOL    HW225242   1.357   2.241   6.998  1.3834  0.4673  0.6710
 4594SOL     OW25243   2.667   1.722  12.485  0.2346  0.3952 -0.4747
 4594SOL    HW125244   2.757   1.695  12.504 -0.2904 -1.6140 -0.8670
 4594SOL    HW225245   2.632   1.633  12.479 -0.0731  0.6701 -2.5036
 4595SOL     OW25246   1.810   2.319   3.250  0.1802 -0.2284  0.2383
 4595SOL    HW125247   1.849   2.232   3.250  0.8439  0.0824 -1.1030
 4595SOL    HW225248   1.765   2.319   3.335  0.0985 -0.6431  0.1959
 4596SOL     OW25249   1.503   2.891  13.726 -0.0541  0.4070 -0.7449
 4596SOL    HW125250   1.572   2.844  13.773 -0.5938  0.4130  0.0387
 4596SOL    HW225251   1.549   2.943  13.660  1.3925  0.5433  0.3533
 4597SOL     OW25252   0.861   3.109  13.709  0.3899 -0.0574  0.1673
 4597SOL    HW125253   0.859   3.014  13.720 -1.9253  0.0622  0.9296
 4597SOL    HW225254   0.892   3.135  13.795  0.5670  1.0819 -0.2303
 4598SOL     OW25255   4.077   3.330  13.050  0.1388  0.1444  0.2743
 4598SOL    HW125256   4.084   3.420  13.017 -1.1882 -0.2670 -1.1308
 4598SOL    HW225257   3.985   3.307  13.041 -0.2754  1.4861  1.1226
 4599SOL     OW25258   0.291   1.591   3.036  0.2432  0.2764  0.6430
 4599SOL    HW125259   0.239   1.511   3.028  1.5645 -0.2122 -3.0342
 4599SOL    HW225260   0.362   1.563   3.094  1.8642 -0.2597 -1.6033
 4600SOL     OW25261   2.478   3.283   8.664  0.4296 -0.2021 -0.9047
 4600SOL    HW125262   2.565   3.243   8.675 -0.1298 -0.6979  1.8282
 4600SOL    HW225263   2.496   3.375   8.683 -0.1048 -0.7203  2.1015
 4601SOL     OW25264   1.169   2.145   2.840 -0.8572 -0.6886 -0.2312
 4601SOL    HW125265   1.200   2.120   2.753 -1.8607 -0.7967 -0.5606
 4601SOL    HW225266   1.111   2.075   2.868 -2.3450  0.2026 -1.0587
 4602SOL     OW25267   3.162   3.020   2.103  0.0414  0.7905 -0.3678
 4602SOL    HW125268   3.256   3.035   2.107 -0.0241  0.6419  1.8544
 4602SOL    HW225269   3.160   2.964   2.025  1.5545  1.6062 -0.9940
 4603SOL     OW25270   2.133   3.260  12.257 -0.0495 -0.5674  0.3876
 4603SOL    HW125271   2.105   3.341  12.213 -3.6895 -1.4987  1.0030
 4603SOL    HW225272   2.146   3.206  12.179  0.5756  1.7258 -1.0840
 4604SOL     OW25273   3.505   0.780   6.432 -0.2129  0.3372 -0.9158
 4604SOL    HW125274   3.559   0.759   6.508 -0.0424 -2.6456 -1.8275
 4604SOL    HW225275   3.520   0.874   6.428  1.0129  0.1428 -0.7037
 4605SOL     OW25276   2.134   3.839   5.040 -0.0999 -0.4301  0.1682
 4605SOL    HW125277   2.161   3.929   5.023 -1.4770  0.1415  1.0192
 4605SOL    HW225278   2.122   3.802   4.952  1.6787 -0.9014  0.1169
 4606SOL     OW25279   3.744   2.481  15.452 -0.4271  0.2841 -0.6452
 4606SOL    HW125280   3.666   2.426  15.441 -1.3702  1.0387  2.2274
 4606SOL    HW225281   3.705   2.565  15.473  0.8694  0.0432  2.7178
 4607SOL     OW25282   0.070   0.008  13.258  0.1688 -0.0409  0.2166
 4607SOL    HW125283   0.037   4.657  13.209  2.6680 -1.1154  0.1479
 4607SOL    HW225284   0.164   4.711  13.254 -0.2486 -1.8404 -0.4821
 4608SOL     OW25285   1.862   1.744   8.837 -0.4148 -0.1656  0.4431
 4608SOL    HW125286   1.899   1.771   8.922 -0.7586 -0.4450  0.6796
 4608SOL    HW225287   1.803   1.678   8.873 -0.3406  0.3712  1.5745
 4609SOL     OW25288   4.528   2.292  10.984  0.0634 -0.4941  0.1314
 4609SOL    HW125289   4.589   2.272  10.913  2.0166  1.7183  1.1420
 4609SOL    HW225290   4.456   2.329  10.934  2.3257  1.7875 -1.4531
 4610SOL     OW25291   0.954   0.796   7.226  0.1476  0.2565  0.1307
 4610SOL    HW125292   0.873   0.745   7.227 -0.1194  0.7086  1.2737
 4610SOL    HW225293   1.007   0.717   7.213 -1.9918 -0.3462 -4.9030
 4611SOL     OW25294   3.191   0.688   7.526  0.0476  0.1315  0.0437
 4611SOL    HW125295   3.205   0.687   7.431 -0.3304 -0.7719 -0.0026
 4611SOL    HW225296   3.280   0.690   7.561  0.6795  0.0345 -1.5340
 4612SOL     OW25297   0.138   3.190   8.494 -0.0682  0.0028  0.1899
 4612SOL    HW125298   0.143   3.176   8.399 -1.4054  3.5751 -0.3889
 4612SOL    HW225299   0.179   3.109   8.525  0.8731  0.1416 -0.6678
 4613SOL     OW25300   3.051   4.538   4.962 -0.3878 -0.0410 -0.1700
 4613SOL    HW125301   3.054   4.521   5.056  0.5146  0.1918 -0.1628
 4613SOL    HW225302   3.014   4.462   4.917  1.0147 -1.4983  1.1525
 4614SOL     OW25303   3.678   2.399   3.725  0.2272  0.5278 -0.2951
 4614SOL    HW125304   3.612   2.416   3.792 -0.4400 -1.2628 -0.4993
 4614SOL    HW225305   3.754   2.427   3.776  0.2590 -2.5730  1.3554
 4615SOL     OW25306   1.831   0.530   4.900  0.3309 -0.2493  0.4889
 4615SOL    HW125307   1.890   0.584   4.953 -0.2855 -0.0511  0.9634
 4615SOL    HW225308   1.821   0.443   4.937  0.7147 -0.5261 -0.0524
 4616SOL     OW25309   3.712   1.908   8.283 -0.3100  0.5032  0.3534
 4616SOL    HW125310   3.717   1.994   8.241 -0.8627  0.6120  0.5243
 4616SOL    HW225311   3.665   1.940   8.359  0.4795  0.8524  0.7020
 4617SOL     OW25312   0.266   0.910   6.710 -0.8091 -0.2945  0.7233
 4617SOL    HW125313   0.239   0.944   6.624 -1.6266  1.7947  1.7996
 4617SOL    HW225314   0.188   0.867   6.747  0.6820 -1.5890  2.3536
 4618SOL     OW25315   0.684   2.556  15.321 -0.8289 -0.0022  0.0034
 4618SOL    HW125316   0.665   2.575  15.412 -1.0999 -0.6442  0.0846
 4618SOL    HW225317   0.723   2.469  15.334 -0.8336 -0.0557 -0.3401
 4619SOL     OW25318   4.622   3.602   2.224 -0.4591 -0.2649 -0.2675
 4619SOL    HW125319   4.713   3.608   2.193  0.5804 -0.8956  2.6855
 4619SOL    HW225320   4.616   3.507   2.217  1.1416 -0.5508  2.1932
 4620SOL     OW25321   3.890   1.716   7.516 -0.5649  0.5487 -0.2578
 4620SOL    HW125322   3.827   1.650   7.487  0.6665 -0.9567  0.5204
 4620SOL    HW225323   3.966   1.704   7.460 -0.2516  1.2642  0.0196
 4621SOL     OW25324   0.445   4.031  12.485  0.5733 -0.1604  0.0579
 4621SOL    HW125325   0.469   3.942  12.510 -0.6188 -0.8996 -1.4250
 4621SOL    HW225326   0.522   4.055  12.434  1.9709 -1.6555  1.4663
 4622SOL     OW25327   4.046   3.252   4.291  0.0024  0.0549  0.3662
 4622SOL    HW125328   4.078   3.340   4.271 -0.2250  0.2751  0.9670
 4622SOL    HW225329   3.964   3.259   4.241 -0.4423 -1.0740  0.9246
 4623SOL     OW25330   1.745   1.339  11.373  0.2636 -0.4688 -0.9330
 4623SOL    HW125331   1.813   1.404  11.389 -1.4735  1.4291 -1.3634
 4623SOL    HW225332   1.686   1.352  11.447 -0.5829  2.3386 -2.1076
 4624SOL     OW25333   0.421   0.855   0.011 -0.5116  0.0930 -0.0122
 4624SOL    HW125334   0.387   0.781  17.657 -1.9558 -0.4361  1.7540
 4624SOL    HW225335   0.512   0.845  17.681 -0.5851 -1.8456  0.5600
 4625SOL     OW25336   3.136   3.868   3.461  0.2568  0.5960  0.4456
 4625SOL    HW125337   3.131   3.963   3.448 -0.7631  0.3569 -0.9037
 4625SOL    HW225338   3.172   3.843   3.376 -1.8235 -0.9832  0.0384
 4626SOL     OW25339   3.450   1.860   1.352  0.1290  0.2897  0.1731
 4626SOL    HW125340   3.389   1.869   1.426  0.5105  0.4273  0.4701
 4626SOL    HW225341   3.386   1.856   1.281  0.1413  0.4233  0.1550
 4627SOL     OW25342   3.809   1.764   2.797  0.1058  0.0953 -0.3000
 4627SOL    HW125343   3.769   1.759   2.884  0.0357  0.6009 -0.3041
 4627SOL    HW225344   3.902   1.753   2.818  0.0718 -0.0153 -0.2067
 4628SOL     OW25345   1.058   2.569   1.250 -0.2735  0.2732  0.3729
 4628SOL    HW125346   1.109   2.600   1.325 -0.7395 -0.4969  1.0110
 4628SOL    HW225347   0.976   2.549   1.295  0.0871 -0.9820  0.4861
 4629SOL     OW25348   2.572   2.650   3.802 -0.5510  0.3135  0.2115
 4629SOL    HW125349   2.494   2.595   3.814 -0.0515 -0.4560 -0.0010
 4629SOL    HW225350   2.619   2.619   3.879  0.0655 -2.1962 -1.1398
 4630SOL     OW25351   1.862   0.106   6.006 -0.3999 -0.3087  0.3266
 4630SOL    HW125352   1.901   0.030   5.962 -1.3680  0.8483 -2.5610
 4630SOL    HW225353   1.786   0.060   6.042 -1.1983  0.7852  0.0604
 4631SOL     OW25354   1.769   0.695   5.265 -0.1009  0.2051  0.0029
 4631SOL    HW125355   1.716   0.615   5.257 -0.0991  0.2203 -0.1502
 4631SOL    HW225356   1.708   0.765   5.244  1.5594  0.8031 -2.7254
 4632SOL     OW25357   0.728   3.187   5.028 -0.1977 -0.1987  0.0252
 4632SOL    HW125358   0.722   3.176   5.122  0.1936 -2.3169 -0.2069
 4632SOL    HW225359   0.793   3.120   5.004  0.9416  0.4448  1.3273
 4633SOL     OW25360   3.815   3.559   8.649  0.1230 -0.1792 -0.1696
 4633SOL    HW125361   3.875   3.495   8.609  0.4995 -0.4336  0.7956
 4633SOL    HW225362   3.847   3.645   8.623 -1.9249  0.3687 -0.8791
 4634SOL     OW25363   2.135   0.650   9.299  0.1908 -0.1896  0.1057
 4634SOL    HW125364   2.069   0.630   9.233 -1.6622  1.0717  1.5755
 4634SOL    HW225365   2.188   0.571   9.285 -0.0384 -0.0377 -1.5833
 4635SOL     OW25366   1.375   3.223   6.569 -0.1505  0.1769 -0.1801
 4635SOL    HW125367   1.285   3.252   6.567  0.1122  1.1467  1.9458
 4635SOL    HW225368   1.372   3.152   6.634  2.2082 -0.4048 -0.6807
 4636SOL     OW25369   1.641   4.537   3.223 -0.1368 -0.0795 -0.1784
 4636SOL    HW125370   1.623   4.565   3.133 -0.9674  2.2188  0.7045
 4636SOL    HW225371   1.646   4.443   3.206 -0.8762 -0.5034  1.9321
 4637SOL     OW25372   4.361   3.785   6.493 -0.4625  0.2985 -0.5965
 4637SOL    HW125373   4.418   3.823   6.426 -0.1659 -0.6660 -0.8768
 4637SOL    HW225374   4.281   3.804   6.444 -2.3188 -1.7694  1.6722
 4638SOL     OW25375   1.674   3.510  16.314  0.2325  0.4135 -0.0679
 4638SOL    HW125376   1.723   3.536  16.392  0.9402  1.5519 -0.8971
 4638SOL    HW225377   1.749   3.500  16.256  0.8148 -4.4326  1.5834
 4639SOL     OW25378   2.603   1.498   1.847 -0.1428 -0.0194  0.3948
 4639SOL    HW125379   2.556   1.501   1.764 -0.4441  2.5850  0.6623
 4639SOL    HW225380   2.629   1.406   1.856  2.0666  0.6959  1.2240
 4640SOL     OW25381   2.523   2.450   3.543  0.1216  0.3169  0.0901
 4640SOL    HW125382   2.432   2.433   3.566  0.3686 -0.1561  0.7127
 4640SOL    HW225383   2.564   2.371   3.578  2.8350  1.5068 -0.4083
 4641SOL     OW25384   2.122   3.810   7.838 -0.7315 -0.2974 -0.1339
 4641SOL    HW125385   2.136   3.721   7.873 -0.6207 -0.0870  0.3531
 4641SOL    HW225386   2.167   3.864   7.902 -1.5394  1.2284 -0.8539
 4642SOL     OW25387   2.657   3.912   9.941 -0.2129 -0.0336 -0.4882
 4642SOL    HW125388   2.725   3.847   9.960 -0.5975 -0.1132  0.5755
 4642SOL    HW225389   2.639   3.898   9.848 -1.7344  1.2829 -0.3969
 4643SOL     OW25390   3.144   3.157   2.809  0.0102 -0.1780 -0.6476
 4643SOL    HW125391   3.158   3.073   2.765  0.0327  0.1491 -1.2636
 4643SOL    HW225392   3.121   3.124   2.896  3.1651 -3.1767 -0.9597
 4644SOL     OW25393   1.163   1.748   6.354 -0.1768  0.2162 -0.0374
 4644SOL    HW125394   1.223   1.687   6.310 -0.4949  0.5473 -0.9323
 4644SOL    HW225395   1.214   1.799   6.416  1.0700 -1.3738  0.2632
 4645SOL     OW25396   0.546   0.953   5.887 -0.1389 -0.8953  0.3372
 4645SOL    HW125397   0.589   0.872   5.862  0.5021 -0.0188 -1.3840
 4645SOL    HW225398   0.538   0.944   5.982 -2.3442  1.3959  0.3629
 4646SOL     OW25399   0.029   2.123   2.345 -0.5812 -0.2280  0.0332
 4646SOL    HW125400   0.035   2.039   2.298 -1.6685 -1.2889  1.7884
 4646SOL    HW225401   0.073   2.183   2.284  1.3013 -0.2771  1.3489
 4647SOL     OW25402   1.437   3.349   5.569 -0.0302 -0.1178 -0.2361
 4647SOL    HW125403   1.496   3.424   5.564  1.1242 -1.1638 -2.5653
 4647SOL    HW225404   1.380   3.365   5.644  1.6163  0.0148  0.9873
 4648SOL     OW25405   1.610   3.330   3.375 -0.5525  0.0485 -0.2179
 4648SOL    HW125406   1.546   3.265   3.403 -0.9094  0.6100  0.2782
 4648SOL    HW225407   1.576   3.342   3.286  0.4881  0.7909 -0.5086
 4649SOL     OW25408   1.792   2.652  12.280  0.4703 -0.7589 -0.1200
 4649SOL    HW125409   1.725   2.586  12.260 -0.0229 -0.0796 -0.6663
 4649SOL    HW225410   1.791   2.665  12.375  0.3927  0.8644 -0.3572
 4650SOL     OW25411   0.314   3.059  13.602  0.1110  0.1285 -0.4905
 4650SOL    HW125412   0.367   3.006  13.543  0.0132  1.1872 -1.5496
 4650SOL    HW225413   0.240   3.000  13.615  1.1446 -1.2668 -0.9655
 4651SOL     OW25414   0.762   4.635   8.358  0.5874  0.3057  0.2788
 4651SOL    HW125415   0.838   4.608   8.410 -0.8010 -1.5465  1.3476
 4651SOL    HW225416   0.689   4.635   8.420  2.0445 -2.2947  2.0487
 4652SOL     OW25417   3.338   3.707  14.028  0.2553  0.1557  0.0225
 4652SOL    HW125418   3.355   3.618  14.062 -0.4781  0.3369  0.8747
 4652SOL    HW225419   3.246   3.719  14.052  0.3069  0.2021  0.1991
 4653SOL     OW25420   2.718   3.873   1.084  0.0093  0.1401 -0.2277
 4653SOL    HW125421   2.625   3.886   1.101 -0.2350 -1.6857 -0.1673
 4653SOL    HW225422   2.750   3.952   1.126  0.1906 -0.8140  1.4169
 4654SOL     OW25423   4.539   4.048   6.716 -0.4467  0.0198  0.2406
 4654SOL    HW125424   4.542   4.133   6.761  3.2776  0.6208 -1.1618
 4654SOL    HW225425   4.452   4.012   6.735  0.9761 -2.6006  1.6669
 4655SOL     OW25426   0.708   1.425   7.996 -0.4321 -0.6123 -0.2509
 4655SOL    HW125427   0.731   1.515   8.022  0.4584 -0.4444 -1.6740
 4655SOL    HW225428   0.785   1.395   7.949 -1.0225  1.3956 -2.4774
 4656SOL     OW25429   1.468   4.097   8.524 -0.2324 -0.1182  0.3262
 4656SOL    HW125430   1.535   4.159   8.498 -1.0882  0.3156 -0.8718
 4656SOL    HW225431   1.474   4.095   8.619 -0.8241  0.7586  0.3788
 4657SOL     OW25432   3.414   3.337  16.119 -0.0970  0.3786  0.1535
 4657SOL    HW125433   3.346   3.272  16.138 -1.5520  1.6810 -0.5395
 4657SOL    HW225434   3.485   3.304  16.174  0.6301 -0.8354 -1.5297
 4658SOL     OW25435   3.337   3.070   5.801  0.3176 -0.0839  0.0837
 4658SOL    HW125436   3.422   3.113   5.788  0.4382 -0.0652  0.9133
 4658SOL    HW225437   3.313   3.039   5.713 -1.6613 -0.9012  0.9112
 4659SOL     OW25438   1.872   3.737   7.725  0.0683  0.2927 -0.5386
 4659SOL    HW125439   1.956   3.767   7.759  0.0330  0.2214 -0.3905
 4659SOL    HW225440   1.896   3.661   7.672  0.4397  0.4004 -0.5257
 4660SOL     OW25441   0.455   2.658   5.486  0.2159 -0.6332  0.1981
 4660SOL    HW125442   0.491   2.588   5.432  1.9462  0.0219  0.4976
 4660SOL    HW225443   0.374   2.680   5.439  0.3923 -0.0239  0.1769
 4661SOL     OW25444   4.691   3.055  14.641 -0.3836 -0.1767  0.0748
 4661SOL    HW125445   0.024   3.000  14.587  1.2634  3.1304 -1.6013
 4661SOL    HW225446   4.631   3.082  14.571 -1.6657 -3.4913 -0.0766
 4662SOL     OW25447   2.182   2.268   2.822  0.3213 -0.1732 -0.0866
 4662SOL    HW125448   2.093   2.267   2.856  1.0034  1.1501  1.7474
 4662SOL    HW225449   2.202   2.174   2.819 -1.2302 -0.4717 -0.9711
 4663SOL     OW25450   2.439   1.358   0.954 -0.4341 -0.2402 -0.0282
 4663SOL    HW125451   2.428   1.392   1.043 -0.0602  0.1144 -0.1218
 4663SOL    HW225452   2.446   1.263   0.967  0.8920 -0.1377 -0.0692
 4664SOL     OW25453   4.468   1.691  16.892 -0.9185 -0.5310  0.5051
 4664SOL    HW125454   4.545   1.664  16.841 -1.0371  2.2803 -1.1215
 4664SOL    HW225455   4.395   1.648  16.848 -0.3204  0.7335 -1.7219
 4665SOL     OW25456   3.698   1.994   3.098  0.0843  0.5577  0.3072
 4665SOL    HW125457   3.744   1.912   3.083  0.5662  0.9810 -0.5471
 4665SOL    HW225458   3.610   1.963   3.116 -0.0374  0.2016 -0.9006
 4666SOL     OW25459   0.640   0.712  17.319 -0.0876 -0.6316  0.1512
 4666SOL    HW125460   0.606   0.655  17.250  1.0979 -0.0708 -0.9112
 4666SOL    HW225461   0.733   0.716  17.294 -0.2420  1.6414 -0.1072
 4667SOL     OW25462   1.341   3.675  11.287  0.9154  0.1320 -0.5084
 4667SOL    HW125463   1.277   3.683  11.357  0.4615  0.8344 -1.0015
 4667SOL    HW225464   1.289   3.635  11.217  0.2156  1.5464 -0.7928
 4668SOL     OW25465   4.602   1.461  10.550 -0.3753  0.0118  0.0606
 4668SOL    HW125466   4.617   1.368  10.530  0.9104 -0.1208  1.6030
 4668SOL    HW225467   4.648   1.505  10.478 -0.7756 -0.7585 -0.6731
 4669SOL     OW25468   3.630   2.484   6.715  0.5599  0.5186 -0.2038
 4669SOL    HW125469   3.661   2.408   6.763  0.1013  0.0523 -0.6501
 4669SOL    HW225470   3.558   2.500   6.777  1.2140 -1.1563  0.9698
 4670SOL     OW25471   4.007   4.541  11.442 -0.0687 -0.4047 -0.1916
 4670SOL    HW125472   3.923   4.524  11.486  0.3262 -2.1509 -0.1367
 4670SOL    HW225473   4.030   4.449  11.437  2.9369  0.4137 -1.4067
 4671SOL     OW25474   1.717   3.063  17.518 -0.2420  0.7182 -0.2334
 4671SOL    HW125475   1.808   3.077  17.546 -0.0072  0.2731 -0.7657
 4671SOL    HW225476   1.671   3.129  17.569  0.4740  0.7482  0.3631
 4672SOL     OW25477   2.938   3.780  16.152 -0.2755  0.2130  0.3221
 4672SOL    HW125478   2.852   3.752  16.182 -1.5672  3.2009 -0.5950
 4672SOL    HW225479   2.934   3.875  16.158  4.1422  0.3860  0.4989
 4673SOL     OW25480   1.786   2.377   3.937 -0.6280  0.0650  0.8069
 4673SOL    HW125481   1.734   2.401   4.015 -1.7576  0.9625 -0.2190
 4673SOL    HW225482   1.722   2.313   3.904 -0.1860  0.2555 -0.3910
 4674SOL     OW25483   4.177   3.053   8.833 -0.2889  0.5489  0.2539
 4674SOL    HW125484   4.263   3.092   8.816 -0.9182  1.0765 -1.7197
 4674SOL    HW225485   4.192   2.959   8.820  1.3493  0.5603  2.0720
 4675SOL     OW25486   3.080   0.686   1.177  0.0444  0.2901 -0.4763
 4675SOL    HW125487   3.108   0.724   1.094 -0.6127  1.8297  0.0110
 4675SOL    HW225488   3.109   0.596   1.160 -1.0534 -0.5570  2.1802
 4676SOL     OW25489   1.326   3.054  13.074  0.2852 -0.3514  0.0053
 4676SOL    HW125490   1.324   3.139  13.119  0.2975 -0.5773  0.4364
 4676SOL    HW225491   1.409   3.072  13.030  0.1014  0.5415  0.0168
 4677SOL     OW25492   0.355   2.027   3.556  0.4603  0.7613  0.3401
 4677SOL    HW125493   0.446   2.051   3.542  0.7043 -0.0713  0.5020
 4677SOL    HW225494   0.320   2.067   3.477 -1.8863  3.2661  2.6402
 4678SOL     OW25495   4.407   3.766  15.068 -0.1668 -0.0570 -0.8197
 4678SOL    HW125496   4.391   3.766  14.973  1.7037 -0.9191 -1.1353
 4678SOL    HW225497   4.440   3.677  15.077 -0.8183 -0.0502  1.4862
 4679SOL     OW25498   3.039   1.036   5.640  1.2503 -0.1047 -0.5094
 4679SOL    HW125499   3.042   0.951   5.684 -0.7008 -1.3284 -2.7072
 4679SOL    HW225500   2.946   1.061   5.642  1.1689 -0.3613 -1.1953
 4680SOL     OW25501   2.413   0.635   5.533 -0.8006 -0.4472 -0.3841
 4680SOL    HW125502   2.485   0.629   5.469 -1.2495  0.8541 -1.0117
 4680SOL    HW225503   2.436   0.561   5.590  2.8036 -1.1133 -2.6503
 4681SOL     OW25504   1.388   0.599   5.955 -0.2289 -0.0125 -0.8157
 4681SOL    HW125505   1.472   0.644   5.956 -0.0710 -0.2679 -2.8333
 4681SOL    HW225506   1.362   0.655   5.881  0.7936 -0.7410 -1.7297
 4682SOL     OW25507   1.258   1.589   5.352 -0.0211 -0.1269  0.1160
 4682SOL    HW125508   1.350   1.574   5.375  0.1054  0.4473 -0.0066
 4682SOL    HW225509   1.257   1.571   5.258 -0.1329 -3.0284  0.6560
 4683SOL     OW25510   2.487   1.051   5.158  0.1202  0.2552 -0.1868
 4683SOL    HW125511   2.486   1.141   5.127  2.0084  0.3993  0.1754
 4683SOL    HW225512   2.490   1.058   5.254  2.3440  0.8140 -0.2812
 4684SOL     OW25513   2.858   0.926  13.648 -0.7008  0.2748 -0.7527
 4684SOL    HW125514   2.821   0.913  13.735  2.4364 -2.7547  0.1232
 4684SOL    HW225515   2.951   0.913  13.668 -0.8961 -1.6241 -1.1252
 4685SOL     OW25516   3.738   3.158   5.216 -0.2913 -0.0072  0.0350
 4685SOL    HW125517   3.816   3.120   5.176  0.4061  0.3484  1.0403
 4685SOL    HW225518   3.675   3.085   5.218 -1.7764  1.3194  2.0070
 4686SOL     OW25519   0.419   0.537  15.634  0.1757 -0.3869  0.0757
 4686SOL    HW125520   0.370   0.486  15.570 -0.4414  0.3176 -0.0064
 4686SOL    HW225521   0.369   0.617  15.649 -0.9262 -0.7374 -1.7203
 4687SOL     OW25522   3.238   3.598   6.237  0.5227  0.4886 -0.2338
 4687SOL    HW125523   3.268   3.674   6.287  0.5257  0.9379 -0.9181
 4687SOL    HW225524   3.316   3.543   6.235 -2.2916 -3.4998 -0.5003
 4688SOL     OW25525   2.608   3.999   2.395 -0.1216  0.3681  0.4965
 4688SOL    HW125526   2.637   4.064   2.331  1.7129  0.0614  1.0325
 4688SOL    HW225527   2.546   3.950   2.339 -0.7651  1.5761  0.1484
 4689SOL     OW25528   1.090   1.541   7.530  0.2995  0.4624  0.0308
 4689SOL    HW125529   1.134   1.597   7.593  0.0408  1.9218 -1.0808
 4689SOL    HW225530   1.110   1.457   7.573  1.1345  1.2492  1.1753
 4690SOL     OW25531   1.015   4.192   9.540 -0.2136  0.3086 -0.3129
 4690SOL    HW125532   0.965   4.237   9.607 -1.3080 -0.0594 -0.8900
 4690SOL    HW225533   0.950   4.129   9.509 -1.3795  1.9928 -1.2186
 4691SOL     OW25534   2.824   1.666  11.787  0.0704 -0.4042  0.3406
 4691SOL    HW125535   2.818   1.733  11.855 -1.4493  1.7538 -1.9630
 4691SOL    HW225536   2.871   1.716  11.721  1.0178  0.2388  1.4849
 4692SOL     OW25537   1.359   4.129   1.612  0.2915  0.2143  0.6286
 4692SOL    HW125538   1.311   4.126   1.694  0.4740  1.0626  0.7692
 4692SOL    HW225539   1.421   4.058   1.619 -0.2382 -0.5381 -2.3370
 4693SOL     OW25540   1.326   0.036   9.451 -0.6147 -0.0433  0.5831
 4693SOL    HW125541   1.405   4.707   9.467 -0.8163 -0.2582  0.8781
 4693SOL    HW225542   1.344   0.101   9.519  1.2219 -0.8797  0.9129
 4694SOL     OW25543   3.614   1.684   6.558 -0.1583 -0.1948 -0.4911
 4694SOL    HW125544   3.519   1.692   6.568 -0.1834 -1.2018  0.0103
 4694SOL    HW225545   3.625   1.658   6.467  0.2617  0.2081 -0.5553
 4695SOL     OW25546   2.298   0.661   8.267  0.9317 -0.1320  0.1443
 4695SOL    HW125547   2.362   0.603   8.226 -0.2517 -1.2095 -0.1666
 4695SOL    HW225548   2.227   0.646   8.204 -1.6112  0.3605  2.9141
 4696SOL     OW25549   0.026   0.994  12.268 -0.1079 -0.7442 -0.4142
 4696SOL    HW125550   0.023   0.932  12.195  1.5304  0.1516 -1.2336
 4696SOL    HW225551   0.020   0.930  12.338 -1.5872  1.0893  1.1387
 4697SOL     OW25552   3.474   2.072   5.457  0.1890  0.1903 -0.1142
 4697SOL    HW125553   3.564   2.064   5.426 -0.9635 -1.9723 -2.9010
 4697SOL    HW225554   3.452   2.164   5.441  1.1021  0.3486 -0.4596
 4698SOL     OW25555   3.557   4.659   1.239  0.4803 -0.4297 -0.3451
 4698SOL    HW125556   3.622   0.005   1.246  2.2703 -1.7227 -3.7613
 4698SOL    HW225557   3.535   4.658   1.146 -0.2540 -2.0537 -0.1566
 4699SOL     OW25558   1.451   0.003   4.061  0.6131  0.3164  0.8985
 4699SOL    HW125559   1.522   0.053   4.020  0.6227  0.9619  1.7130
 4699SOL    HW225560   1.413   4.698   3.978 -0.1433  0.9159  1.0406
 4700SOL     OW25561   3.756   4.623   0.451 -0.3671  0.1292  0.0895
 4700SOL    HW125562   3.747   4.544   0.399  3.7398 -0.6482  0.5205
 4700SOL    HW225563   3.713   4.686   0.394 -1.6036 -0.4556  0.3927
 4701SOL     OW25564   4.487   3.046   5.128  0.4738 -0.2395  0.0085
 4701SOL    HW125565   4.525   3.014   5.045  0.2494  0.3341 -0.3169
 4701SOL    HW225566   4.442   2.966   5.154 -0.0289 -0.9069 -2.8369
 4702SOL     OW25567   0.072   1.233   9.144  0.0555  0.1392 -0.0844
 4702SOL    HW125568   0.117   1.317   9.141  0.0270  0.0696 -2.1230
 4702SOL    HW225569   0.120   1.202   9.221  0.1468 -0.1358 -0.2507
 4703SOL     OW25570   4.534   1.268   4.893 -0.0147 -0.0365 -0.1786
 4703SOL    HW125571   4.607   1.329   4.887 -0.6450  0.8560  1.0391
 4703SOL    HW225572   4.525   1.264   4.989  2.5571 -3.0878 -0.0772
 4704SOL     OW25573   2.414   2.407   2.800  0.4343 -0.1421  0.2819
 4704SOL    HW125574   2.331   2.375   2.836 -0.2171  0.4342 -0.7290
 4704SOL    HW225575   2.386   2.487   2.758 -1.3424  0.4664  2.6197
 4705SOL     OW25576   1.442   1.259   0.904  0.1343 -0.0297 -0.1337
 4705SOL    HW125577   1.373   1.308   0.948  0.5709  0.8422 -0.4053
 4705SOL    HW225578   1.419   1.167   0.901  0.2491 -0.0670  0.1654
 4706SOL     OW25579   2.229   3.648   2.807 -0.0149 -0.1952 -0.7797
 4706SOL    HW125580   2.204   3.718   2.747 -2.0436 -0.4448 -0.2364
 4706SOL    HW225581   2.296   3.690   2.861 -1.9063  1.7875  0.0387
 4707SOL     OW25582   0.980   1.512   8.939 -0.4076 -0.4541  0.3213
 4707SOL    HW125583   1.038   1.556   8.877  0.8310 -0.0580  1.7559
 4707SOL    HW225584   0.995   1.421   8.913 -0.2001 -0.4272  0.3488
 4708SOL     OW25585   2.003   3.070   3.008  0.4040  0.0524 -0.1484
 4708SOL    HW125586   2.098   3.081   2.999  0.2318  0.2421 -1.6789
 4708SOL    HW225587   2.011   2.976   3.023 -0.5080  0.1508  1.0365
 4709SOL     OW25588   0.469   1.794   3.736 -0.0703  0.4518 -0.3294
 4709SOL    HW125589   0.396   1.839   3.693  1.1315  0.8818 -1.9137
 4709SOL    HW225590   0.439   1.797   3.827  0.7226  2.4689 -0.1455
 4710SOL     OW25591   0.858   3.874   0.495  0.1727  0.0255 -0.4716
 4710SOL    HW125592   0.802   3.847   0.568  0.9347 -0.9900 -0.2577
 4710SOL    HW225593   0.934   3.894   0.549  0.7491 -0.1993 -1.2003
 4711SOL     OW25594   0.478   0.839  13.479  0.0350  0.0319 -0.6605
 4711SOL    HW125595   0.440   0.755  13.456 -1.5225  0.4423  0.4368
 4711SOL    HW225596   0.537   0.804  13.546  1.7226  3.1365 -0.4990
 4712SOL     OW25597   1.167   3.884   7.739 -0.3762 -0.1840  0.2599
 4712SOL    HW125598   1.201   3.807   7.784  0.6081  0.7407  1.1122
 4712SOL    HW225599   1.108   3.839   7.678  1.5861  0.1898 -1.8748
 4713SOL     OW25600   0.607   0.323   4.056  0.1503  0.2699  0.2283
 4713SOL    HW125601   0.578   0.387   3.991  0.0161  0.1340  0.1551
 4713SOL    HW225602   0.701   0.334   4.043  0.4719 -1.5645  1.0847
 4714SOL     OW25603   3.274   2.662   3.631 -0.7628  0.4070  0.0506
 4714SOL    HW125604   3.242   2.740   3.676 -1.7019 -0.3211  0.6417
 4714SOL    HW225605   3.187   2.627   3.615 -0.7930  0.0664  0.9511
 4715SOL     OW25606   0.786   3.250  10.456 -0.1440 -0.1310 -0.3946
 4715SOL    HW125607   0.765   3.257  10.548  3.0062  0.1714  0.3219
 4715SOL    HW225608   0.734   3.172  10.436 -2.1190  1.4552 -1.4516
 4716SOL     OW25609   0.185   0.758  16.179 -0.4364 -0.2376 -0.7433
 4716SOL    HW125610   0.224   0.747  16.266 -0.2167  1.8246 -0.5743
 4716SOL    HW225611   0.216   0.680  16.133 -1.0874 -0.6212 -0.5302
 4717SOL     OW25612   2.074   3.165   8.956  0.5907  0.2081  0.0819
 4717SOL    HW125613   2.024   3.085   8.974 -0.2281  0.3692 -1.4422
 4717SOL    HW225614   2.007   3.219   8.913 -0.3761 -1.5202 -0.6138
 4718SOL     OW25615   4.639   3.093  16.774  0.0444  0.1220 -0.4956
 4718SOL    HW125616   4.682   3.130  16.697 -1.7832 -1.4651 -2.2621
 4718SOL    HW225617   4.613   3.008  16.738 -1.5055 -0.4498  1.9493
 4719SOL     OW25618   4.470   3.408   7.598 -0.3419 -0.5800  0.7587
 4719SOL    HW125619   4.501   3.360   7.521 -1.2564 -0.1746  0.1474
 4719SOL    HW225620   4.387   3.440   7.564 -0.8030  0.8556  3.1835
 4720SOL     OW25621   4.059   4.434  15.322 -0.0735  0.1562  0.3185
 4720SOL    HW125622   4.152   4.412  15.315  0.2487  1.2956  0.9504
 4720SOL    HW225623   4.046   4.437  15.417 -1.2433 -1.5012  0.2076
 4721SOL     OW25624   0.710   4.050   2.782 -0.2723 -0.0479  0.4721
 4721SOL    HW125625   0.772   4.019   2.848  0.9181 -0.7580 -0.9536
 4721SOL    HW225626   0.742   4.009   2.701  2.2635  1.1858  0.8697
 4722SOL     OW25627   1.609   0.873  11.666  0.5143 -0.2537 -0.8629
 4722SOL    HW125628   1.551   0.854  11.739  0.9609 -1.9846 -0.9539
 4722SOL    HW225629   1.549   0.878  11.591  1.2327 -1.9981 -1.5718
 4723SOL     OW25630   1.712   2.111  11.504  0.4072  0.4720  0.4886
 4723SOL    HW125631   1.741   2.159  11.427 -0.5295  3.3655  1.9557
 4723SOL    HW225632   1.733   2.159  11.584  0.0434 -0.8162  1.3569
 4724SOL     OW25633   0.048   2.079  16.129 -0.2318  0.2206  0.0237
 4724SOL    HW125634   0.013   1.991  16.115 -1.7643  0.8237  0.0552
 4724SOL    HW225635   0.005   2.127  16.058  1.3838  3.0150  0.9600
 4725SOL     OW25636   0.180   1.781   5.411  0.3434  0.3100  0.1426
 4725SOL    HW125637   0.232   1.734   5.346  0.3441 -1.2288  1.2474
 4725SOL    HW225638   0.206   1.733   5.490 -0.2837 -0.8354 -0.3332
 4726SOL     OW25639   1.085   2.602  16.262  0.1974 -0.4265 -0.3154
 4726SOL    HW125640   1.176   2.597  16.233  0.7692  1.7286  1.1162
 4726SOL    HW225641   1.085   2.692  16.295 -0.7025 -0.0041 -1.4913
 4727SOL     OW25642   1.077   4.562  13.220  0.3243 -0.4341 -0.3170
 4727SOL    HW125643   1.067   4.479  13.267  0.3863 -0.5553 -0.5167
 4727SOL    HW225644   0.991   4.602  13.231  0.4762 -0.1164 -0.2717
 4728SOL     OW25645   3.706   0.338   0.493 -0.1940  0.4882  0.4347
 4728SOL    HW125646   3.797   0.368   0.486  0.5925 -1.3304  2.5728
 4728SOL    HW225647   3.701   0.310   0.585  0.2133  0.3316  0.4085
 4729SOL     OW25648   2.548   2.853   1.611  0.1149 -0.1318  0.3397
 4729SOL    HW125649   2.593   2.873   1.529 -1.5237  0.3513 -0.4483
 4729SOL    HW225650   2.605   2.806   1.671  0.7231  0.5259  0.2667
 4730SOL     OW25651   4.363   4.396   9.696  0.1876  0.3118 -0.1262
 4730SOL    HW125652   4.455   4.416   9.711  0.0682 -0.2872  1.4086
 4730SOL    HW225653   4.348   4.307   9.730  0.6785  0.2942  0.0445
 4731SOL     OW25654   3.773   1.720   3.091  0.2692  0.0373  0.0799
 4731SOL    HW125655   3.864   1.689   3.097  0.4696  0.8385  1.0865
 4731SOL    HW225656   3.716   1.645   3.105 -1.6532  1.5606  0.4438
 4732SOL     OW25657   1.143   1.670  14.198 -0.0427  0.9886 -0.6475
 4732SOL    HW125658   1.050   1.673  14.222 -0.7272  0.4377 -3.2385
 4732SOL    HW225659   1.158   1.764  14.190  0.9450  0.8868  0.0244
 4733SOL     OW25660   3.935   3.953   5.778  0.3303  0.0934 -0.6556
 4733SOL    HW125661   4.001   4.022   5.789  1.8617 -1.4672 -0.0048
 4733SOL    HW225662   3.867   3.979   5.839  0.6764 -2.6338  0.8731
 4734SOL     OW25663   3.771   4.428   2.342  0.2117 -0.0589  0.4155
 4734SOL    HW125664   3.745   4.453   2.254 -1.4893  0.8635  1.1742
 4734SOL    HW225665   3.841   4.493   2.345  1.3324 -1.1620 -1.8391
 4735SOL     OW25666   1.174   0.800   5.024 -0.4808 -0.4401 -0.0961
 4735SOL    HW125667   1.256   0.829   5.065  0.2741 -1.6918 -0.7275
 4735SOL    HW225668   1.181   0.855   4.947 -0.6397 -1.6939 -1.0062
 4736SOL     OW25669   1.039   3.859   6.758  0.0722  0.1718  0.0289
 4736SOL    HW125670   1.127   3.861   6.795 -1.3823 -2.9612  3.6320
 4736SOL    HW225671   0.992   3.879   6.839 -1.5762 -0.7961 -0.7011
 4737SOL     OW25672   0.472   3.636  13.454  0.0633 -0.3184  0.0072
 4737SOL    HW125673   0.532   3.674  13.390  0.6973 -0.9863  0.2075
 4737SOL    HW225674   0.480   3.693  13.531  3.1524 -1.9222  0.8647
 4738SOL     OW25675   2.785   1.845   5.880  0.5297  0.0414  0.4042
 4738SOL    HW125676   2.824   1.802   5.956 -2.2024  0.2550  1.9185
 4738SOL    HW225677   2.866   1.862   5.831 -0.5375 -1.1846 -1.8039
 4739SOL     OW25678   3.069   4.239   2.168 -0.0351 -0.2254 -0.0135
 4739SOL    HW125679   3.102   4.161   2.214  0.4552 -0.4986 -0.8332
 4739SOL    HW225680   3.092   4.215   2.078  0.6764  2.1677 -0.4619
 4740SOL     OW25681   1.588   0.654  16.811  0.6618 -0.0367 -0.0659
 4740SOL    HW125682   1.602   0.673  16.719  1.1603  0.3345  0.0854
 4740SOL    HW225683   1.633   0.570  16.816 -0.6777 -0.7463 -0.1342
 4741SOL     OW25684   4.351   0.031   9.588 -0.3824 -0.3850  0.2279
 4741SOL    HW125685   4.330   0.076   9.670  0.4211  1.7165 -0.7359
 4741SOL    HW225686   4.298   4.674   9.594  0.9241 -1.1904  0.8392
 4742SOL     OW25687   0.828   0.470  11.601  1.0527 -0.1017 -0.1901
 4742SOL    HW125688   0.835   0.427  11.686  2.2860  1.4014  0.4859
 4742SOL    HW225689   0.889   0.415  11.552  1.4046  1.5295 -1.5681
 4743SOL     OW25690   0.006   4.313   5.320 -0.5572  0.6494 -0.0277
 4743SOL    HW125691   0.063   4.303   5.397 -0.4105 -1.2248 -0.4007
 4743SOL    HW225692   4.665   4.243   5.326 -0.4396  0.5105 -0.4262
 4744SOL     OW25693   3.177   0.081   1.865  0.3598 -0.1826 -0.2228
 4744SOL    HW125694   3.175   0.138   1.942  0.6561  0.8067 -0.9474
 4744SOL    HW225695   3.237   0.129   1.808 -1.4881 -2.0915 -3.7585
 4745SOL     OW25696   3.501   0.119   9.085  0.2245  0.4843 -0.2054
 4745SOL    HW125697   3.574   0.112   9.146  0.2326 -0.0501 -0.2745
 4745SOL    HW225698   3.496   0.029   9.052  1.2619 -0.2936  1.7624
 4746SOL     OW25699   0.142   1.122  11.080 -0.1513 -0.5052 -0.2774
 4746SOL    HW125700   0.062   1.078  11.052  0.0689  0.0335 -1.7621
 4746SOL    HW225701   0.178   1.043  11.121 -0.9461  0.7519  2.7917
 4747SOL     OW25702   4.467   0.021  15.764 -0.5472 -0.2738  0.4817
 4747SOL    HW125703   4.561   0.014  15.779 -0.4121 -1.7763 -0.9298
 4747SOL    HW225704   4.423   4.694  15.832 -0.2265 -0.0653  0.8389
 4748SOL     OW25705   2.801   1.269  11.013 -0.2524 -0.2736  0.5809
 4748SOL    HW125706   2.798   1.297  11.104  1.9914  1.7933  0.0238
 4748SOL    HW225707   2.813   1.349  10.963 -3.0240  0.7645  1.6246
 4749SOL     OW25708   2.934   3.314  16.079 -0.8929  0.0308 -0.2415
 4749SOL    HW125709   2.943   3.346  15.989 -2.0362 -0.4979 -0.5501
 4749SOL    HW225710   2.950   3.386  16.140  1.2862  1.3057 -2.3610
 4750SOL     OW25711   1.773   2.151   7.518  0.4954 -0.3215  0.0602
 4750SOL    HW125712   1.740   2.115   7.436 -0.3306  1.7738 -0.5341
 4750SOL    HW225713   1.820   2.231   7.493 -1.1402  1.0251  1.3221
 4751SOL     OW25714   2.321   2.362  17.508  0.4843 -0.4557 -0.1782
 4751SOL    HW125715   2.389   2.429  17.508 -0.2568  0.3124 -0.9036
 4751SOL    HW225716   2.325   2.330  17.418  0.0541  1.1824 -0.7735
 4752SOL     OW25717   4.723   0.070  15.710 -0.2423 -0.2924 -0.0065
 4752SOL    HW125718   0.007   0.161  15.682 -0.8897  0.1325  1.2135
 4752SOL    HW225719   0.022   0.023  15.629  0.4557 -0.9478  0.5777
 4753SOL     OW25720   0.506   3.963   4.548 -0.3028  0.3362  0.5729
 4753SOL    HW125721   0.476   3.947   4.637 -1.4755  1.3814  0.3652
 4753SOL    HW225722   0.432   4.009   4.507  1.3021 -0.2236 -2.9272
 4754SOL     OW25723   1.093   3.736   8.649 -0.3025  0.2047 -0.2134
 4754SOL    HW125724   1.003   3.747   8.679 -0.2787 -0.6029  0.1470
 4754SOL    HW225725   1.130   3.800   8.710  0.7378 -1.2749  0.6933
 4755SOL     OW25726   3.639   3.025   6.970 -0.0716 -0.0072 -0.2880
 4755SOL    HW125727   3.593   2.945   6.944  1.3327 -1.2421  1.0239
 4755SOL    HW225728   3.715   2.997   7.021 -1.0591 -1.0639  0.6001
 4756SOL     OW25729   4.175   2.795   5.875 -0.0270 -0.1463 -0.2299
 4756SOL    HW125730   4.263   2.758   5.883 -0.5516 -1.1354  0.9224
 4756SOL    HW225731   4.187   2.859   5.945  1.5282 -2.2020  1.3911
 4757SOL     OW25732   3.752   3.874  13.070 -0.2754  0.4061 -0.6281
 4757SOL    HW125733   3.822   3.882  13.135  0.9793 -2.3113 -1.6614
 4757SOL    HW225734   3.772   3.790  13.030 -1.0449 -0.0413 -0.0775
 4758SOL     OW25735   2.987   2.588   2.581  0.0461 -0.0269  0.3210
 4758SOL    HW125736   2.942   2.557   2.659 -0.4714 -3.3107 -1.2969
 4758SOL    HW225737   2.957   2.679   2.572  0.3368 -0.1089 -1.5400
 4759SOL     OW25738   2.723   0.954   7.810  0.3483  0.0051 -0.1603
 4759SOL    HW125739   2.716   1.002   7.727  0.3830 -0.1178 -0.2356
 4759SOL    HW225740   2.810   0.914   7.806 -0.4713 -1.8580  0.7121
 4760SOL     OW25741   3.122   2.311  13.066  1.0448 -0.5567 -0.3474
 4760SOL    HW125742   3.185   2.244  13.096  3.3205  0.7305 -2.2244
 4760SOL    HW225743   3.163   2.396  13.078 -0.7253  0.4924 -1.9270
 4761SOL     OW25744   0.955   2.383   5.542  0.1396 -0.3577  0.7142
 4761SOL    HW125745   1.030   2.441   5.555 -0.1334  0.3617 -0.9430
 4761SOL    HW225746   1.000   2.299   5.534 -0.2099 -0.4442 -0.3577
 4762SOL     OW25747   2.832   0.823   4.588 -0.5045  0.3660  0.3368
 4762SOL    HW125748   2.867   0.802   4.501 -0.6758  0.1568  0.3178
 4762SOL    HW225749   2.764   0.757   4.604 -0.8582  0.4070 -0.9885
 4763SOL     OW25750   0.007   3.852   2.425  0.2511 -0.7106 -0.5980
 4763SOL    HW125751   4.691   3.802   2.353 -3.5121  1.5762 -0.1267
 4763SOL    HW225752   0.015   3.940   2.388  0.9156  1.1906  4.1203
 4764SOL     OW25753   2.029   3.154   6.129 -0.9144 -0.2856 -0.3256
 4764SOL    HW125754   1.967   3.221   6.156  0.6316  0.5015  1.3207
 4764SOL    HW225755   2.078   3.208   6.067 -1.1692 -0.3246 -0.5620
 4765SOL     OW25756   4.099   0.268   4.406 -0.9083 -0.3098  0.1163
 4765SOL    HW125757   4.193   0.282   4.418 -0.7636 -2.4796  1.6271
 4765SOL    HW225758   4.073   0.244   4.495  2.5070 -1.0019  0.9014
 4766SOL     OW25759   0.379   1.947   7.741 -0.2121 -0.4649 -0.2430
 4766SOL    HW125760   0.471   1.946   7.716 -0.1158  0.9563  0.0641
 4766SOL    HW225761   0.390   1.906   7.826  1.7189  2.8391  1.1122
 4767SOL     OW25762   1.623   3.948   3.955 -0.0560  0.1899 -0.3803
 4767SOL    HW125763   1.620   3.894   3.876  0.7588 -0.4575  0.0333
 4767SOL    HW225764   1.560   3.905   4.013  1.1321 -2.0499 -0.7523
 4768SOL     OW25765   3.190   4.182   6.585 -0.2657 -0.0303  0.0544
 4768SOL    HW125766   3.153   4.109   6.636 -0.6725  0.7836  0.9168
 4768SOL    HW225767   3.120   4.247   6.583 -0.9606 -0.7873 -0.2754
 4769SOL     OW25768   0.476   2.987   2.442  0.6699 -0.4485  0.0838
 4769SOL    HW125769   0.424   2.937   2.379  1.1613 -0.9005  0.0395
 4769SOL    HW225770   0.559   2.963   2.400  0.5315 -1.8483  0.6025
 4770SOL     OW25771   0.957   1.996   7.234 -0.6134 -0.2003  0.3378
 4770SOL    HW125772   1.041   2.022   7.196  0.9019 -0.9018  3.2282
 4770SOL    HW225773   0.977   1.986   7.327  0.4897  1.3780  0.2634
 4771SOL     OW25774   2.928   4.632   6.509  0.0369 -0.0375  0.6602
 4771SOL    HW125775   3.017   4.607   6.534  0.8342  0.8747 -1.2265
 4771SOL    HW225776   2.917   4.718   6.551  1.8144  0.1425  0.7617
 4772SOL     OW25777   3.511   3.162  14.567  0.1390 -0.1478 -0.4119
 4772SOL    HW125778   3.582   3.216  14.532  0.0281  0.3173  0.0677
 4772SOL    HW225779   3.460   3.230  14.612  0.7662  1.1477 -1.6932
 4773SOL     OW25780   0.282   3.040   8.695  0.7075  0.5113 -1.3267
 4773SOL    HW125781   0.261   2.953   8.730  0.6672  0.6483 -1.0132
 4773SOL    HW225782   0.299   3.080   8.780  1.8828 -1.6512 -0.5308
 4774SOL     OW25783   4.683   1.055   8.598  0.0408  0.1152 -0.2225
 4774SOL    HW125784   0.010   1.026   8.674 -0.4907 -0.5898 -0.1298
 4774SOL    HW225785   0.025   1.074   8.532  1.4297  1.9497  1.6637
 4775SOL     OW25786   2.390   4.169  16.129 -0.2316  0.2168 -0.7714
 4775SOL    HW125787   2.476   4.171  16.086  0.8018 -0.2153  1.2832
 4775SOL    HW225788   2.397   4.101  16.196  1.6520  0.5938 -0.6002
 4776SOL     OW25789   3.300   2.957   5.071 -0.0680 -0.3336  0.0176
 4776SOL    HW125790   3.269   2.961   4.980  0.8785 -0.9296 -0.3412
 4776SOL    HW225791   3.353   2.880   5.049  0.0256 -0.3808  0.4106
 4777SOL     OW25792   2.157   0.139   8.421  0.3788  0.6080 -0.2463
 4777SOL    HW125793   2.240   0.160   8.379  2.0516  0.2130  2.8565
 4777SOL    HW225794   2.185   0.175   8.505  2.1877  2.0012 -1.4500
 4778SOL     OW25795   4.074   0.728   2.105  0.1344  0.2841 -0.3066
 4778SOL    HW125796   3.994   0.733   2.053 -0.3542 -0.2691  0.3893
 4778SOL    HW225797   4.131   0.797   2.072  2.5712 -0.8464  1.5311
 4779SOL     OW25798   2.564   0.224   8.016  0.0231  0.4531  0.3050
 4779SOL    HW125799   2.577   0.299   8.074  0.1112  0.9409 -0.3489
 4779SOL    HW225800   2.551   0.153   8.078  0.8612  1.0719  1.1837
 4780SOL     OW25801   0.972   3.677   4.790  0.3729 -0.3489 -0.4107
 4780SOL    HW125802   0.970   3.581   4.786 -1.9516 -0.3289  0.0214
 4780SOL    HW225803   1.066   3.694   4.791  0.5342 -1.2583  0.3571
 4781SOL     OW25804   0.078   3.567   7.866 -0.2454  0.2569  0.7922
 4781SOL    HW125805   0.171   3.552   7.881 -0.3003 -1.2341 -0.3830
 4781SOL    HW225806   0.051   3.612   7.947  0.5893  0.4088  0.9891
 4782SOL     OW25807   1.043   0.595   1.082 -0.6994  0.6843  0.0188
 4782SOL    HW125808   1.056   0.618   0.990  0.1406  2.0807  0.4877
 4782SOL    HW225809   1.020   0.502   1.076  0.0114  0.6073 -1.4140
 4783SOL     OW25810   0.346   4.597   2.891 -0.1893 -0.1172  0.6986
 4783SOL    HW125811   0.326   4.569   2.802  0.5840 -2.9933  1.4316
 4783SOL    HW225812   0.425   4.650   2.877  0.8202 -1.8419 -0.2041
 4784SOL     OW25813   1.055   2.491   8.325 -0.1244 -0.7393  0.2340
 4784SOL    HW125814   0.974   2.449   8.295  0.4789 -1.8133  0.0937
 4784SOL    HW225815   1.123   2.452   8.269 -0.0556 -1.5201  0.8600
 4785SOL     OW25816   4.465   3.294   9.054  0.2023 -0.3758 -0.3519
 4785SOL    HW125817   4.539   3.322   9.107 -0.8533 -1.0391  1.4657
 4785SOL    HW225818   4.403   3.256   9.116 -0.9124 -0.6256 -1.6025
 4786SOL     OW25819   1.211   4.015   9.610 -0.0386 -0.1435 -0.4094
 4786SOL    HW125820   1.156   3.977   9.679  1.5802  0.7191  1.3490
 4786SOL    HW225821   1.166   4.099   9.599 -0.8478 -0.2933  1.7034
 4787SOL     OW25822   1.815   0.791   6.103 -0.0488  0.4894 -0.4232
 4787SOL    HW125823   1.843   0.725   6.167  3.5608  1.2213 -1.2535
 4787SOL    HW225824   1.815   0.865   6.164 -0.7996  2.3837 -2.7404
 4788SOL     OW25825   0.978   4.150   8.871 -0.2076 -0.4999 -0.4007
 4788SOL    HW125826   0.943   4.067   8.901 -0.8150 -0.1836 -0.2284
 4788SOL    HW225827   0.911   4.171   8.806  1.6816  1.4418 -1.7386
 4789SOL     OW25828   0.170   0.153   5.892 -0.8587 -0.0994 -0.2027
 4789SOL    HW125829   0.171   0.065   5.854  0.9708  0.0605 -0.4959
 4789SOL    HW225830   0.261   0.177   5.875 -0.6387 -1.1949 -0.6027
 4790SOL     OW25831   2.728   1.391  12.064 -0.7056  0.2482 -0.0344
 4790SOL    HW125832   2.774   1.445  12.128  1.1508  1.1867 -2.1450
 4790SOL    HW225833   2.784   1.404  11.987  0.5802 -3.2949  0.3024
 4791SOL     OW25834   4.405   2.411  10.436 -0.2956 -0.1152 -0.2107
 4791SOL    HW125835   4.349   2.343  10.471 -0.6001 -0.2236 -0.9014
 4791SOL    HW225836   4.332   2.471  10.423  0.3302  0.4497 -1.1406
 4792SOL     OW25837   0.466   0.978  13.990 -0.0221  0.1138 -1.0908
 4792SOL    HW125838   0.441   0.901  13.940 -0.4713 -1.1003  0.9875
 4792SOL    HW225839   0.548   1.010  13.952  0.4122  0.5023  0.1724
 4793SOL     OW25840   0.216   1.712  11.223 -0.0296  0.3640  0.5493
 4793SOL    HW125841   0.199   1.645  11.157  0.2372  0.5336  0.3037
 4793SOL    HW225842   0.272   1.662  11.281  0.8137 -0.1387 -0.6835
 4794SOL     OW25843   1.878   0.414   5.996  0.6735  0.2336  1.0371
 4794SOL    HW125844   1.790   0.394   6.026  0.1028 -0.6387 -1.1905
 4794SOL    HW225845   1.915   0.328   5.979  0.0161  0.1027  0.2554
 4795SOL     OW25846   1.191   3.000   8.202 -0.2546 -0.5397 -0.0182
 4795SOL    HW125847   1.228   3.052   8.131  0.4072 -0.5618  0.3117
 4795SOL    HW225848   1.131   2.938   8.160  1.2113 -1.4991 -0.6914
 4796SOL     OW25849   0.551   3.053   7.502 -0.1132  0.3201  0.2482
 4796SOL    HW125850   0.528   3.082   7.414  2.9996 -0.3917 -0.7791
 4796SOL    HW225851   0.594   3.131   7.537 -0.0867 -0.5597  2.1903
 4797SOL     OW25852   1.136   3.627   9.654 -0.2898 -0.6098  0.2119
 4797SOL    HW125853   1.215   3.585   9.621 -0.7046 -1.5765  0.4438
 4797SOL    HW225854   1.075   3.554   9.668 -0.0340 -0.6690  1.0007
 4798SOL     OW25855   2.333   0.491   6.689 -0.6810 -0.3228 -0.3421
 4798SOL    HW125856   2.390   0.543   6.632 -1.5931  2.1909  1.0416
 4798SOL    HW225857   2.291   0.434   6.625 -2.8662 -1.1549  1.8438
 4799SOL     OW25858   3.587   3.248   4.479 -1.0338 -0.0890 -0.7254
 4799SOL    HW125859   3.639   3.200   4.414  1.9651  1.4905  0.5327
 4799SOL    HW225860   3.619   3.336   4.460 -0.1161  0.0500  1.5344
 4800SOL     OW25861   3.568   4.367  15.276  0.5086  0.0226 -0.2315
 4800SOL    HW125862   3.618   4.395  15.352  0.2214  3.2416 -1.1956
 4800SOL    HW225863   3.603   4.425  15.208 -0.2848 -0.4571 -1.0605
 4801SOL     OW25864   1.952   2.251   3.007  0.5840 -0.0177  0.4308
 4801SOL    HW125865   1.888   2.191   2.970 -0.8114 -0.5106  3.6040
 4801SOL    HW225866   1.913   2.282   3.089  3.3520  0.5237  1.5589
 4802SOL     OW25867   2.831   1.828   7.797 -0.4771  0.3462 -0.2603
 4802SOL    HW125868   2.814   1.879   7.718  0.7555 -1.7793 -1.8697
 4802SOL    HW225869   2.927   1.829   7.796 -0.4692 -1.1578 -0.9141
 4803SOL     OW25870   1.671   2.578   3.668 -0.2400 -0.2559  0.0713
 4803SOL    HW125871   1.723   2.615   3.597 -1.5881 -0.9274 -1.2503
 4803SOL    HW225872   1.661   2.658   3.720  2.7232 -3.1434  5.1735
 4804SOL     OW25873   2.520   0.790   5.079 -0.3435 -1.1447 -0.4066
 4804SOL    HW125874   2.434   0.784   5.120 -0.0652 -1.6299  0.0997
 4804SOL    HW225875   2.545   0.880   5.101 -0.0815 -0.7894 -2.1240
 4805SOL     OW25876   2.143   1.302   4.968  0.7811  0.1446  0.4258
 4805SOL    HW125877   2.105   1.377   5.014 -0.4564 -0.4304  0.3257
 4805SOL    HW225878   2.171   1.340   4.885  0.7269  2.4984  1.5000
 4806SOL     OW25879   3.776   2.717   6.740 -0.1922 -0.0523 -0.3545
 4806SOL    HW125880   3.871   2.714   6.728 -0.4529  0.3285 -2.5366
 4806SOL    HW225881   3.755   2.624   6.740  1.0146 -0.3269  0.1928
 4807SOL     OW25882   3.239   0.125   3.321  0.1598  0.4483  0.3456
 4807SOL    HW125883   3.262   0.178   3.245  0.5927  0.8084  0.7332
 4807SOL    HW225884   3.328   0.092   3.336  0.4041  1.7167  1.6249
 4808SOL     OW25885   4.629   1.180   8.898  0.2085 -0.1216 -0.0109
 4808SOL    HW125886   4.682   1.185   8.978  0.3909  0.3635 -0.1619
 4808SOL    HW225887   4.578   1.102   8.919 -0.9417  0.0573 -2.1540
 4809SOL     OW25888   0.815   1.005   2.516  0.1821 -0.2207  0.3137
 4809SOL    HW125889   0.733   0.978   2.475 -0.3795  1.7022  0.1644
 4809SOL    HW225890   0.784   1.030   2.603 -1.1568 -0.8520  0.0082
 4810SOL     OW25891   4.180   0.048  15.957 -0.9369 -0.1287 -0.0102
 4810SOL    HW125892   4.217   0.090  16.035 -3.1123 -2.0828  2.0435
 4810SOL    HW225893   4.116   0.111  15.923 -0.5746 -0.3788 -1.1406
 4811SOL     OW25894   1.184   1.516  12.170  0.2984 -0.0974 -0.9839
 4811SOL    HW125895   1.203   1.423  12.163  2.3245  0.2111  0.4011
 4811SOL    HW225896   1.272   1.554  12.170  0.4814 -0.5017  1.0211
 4812SOL     OW25897   3.753   3.230  15.679 -0.0448 -0.3582 -0.1572
 4812SOL    HW125898   3.680   3.199  15.626 -0.5019 -0.3380  0.4639
 4812SOL    HW225899   3.708   3.274  15.752  0.1024  0.8233 -0.7697
 4813SOL     OW25900   2.153   0.723  11.299  0.0204 -0.7165  1.2046
 4813SOL    HW125901   2.089   0.653  11.287 -1.4623  0.7746  0.4408
 4813SOL    HW225902   2.240   0.685  11.291 -0.1008 -1.0476  1.4406
 4814SOL     OW25903   0.987   0.141  13.080  0.6843  0.1931  0.0916
 4814SOL    HW125904   1.005   0.144  12.986  0.6415  1.8195  0.1368
 4814SOL    HW225905   1.002   0.230  13.111  1.3747  0.5520 -1.2502
 4815SOL     OW25906   0.671   0.912   0.250  0.0882 -0.1897 -0.3342
 4815SOL    HW125907   0.683   0.891   0.157 -0.1706  1.7210 -0.8121
 4815SOL    HW225908   0.594   0.857   0.265  1.3918 -1.8348  0.3030
 4816SOL     OW25909   4.661   2.503   0.550  0.4077 -0.3744  0.0772
 4816SOL    HW125910   4.648   2.432   0.488 -0.1378 -1.4985  1.4888
 4816SOL    HW225911   0.033   2.494   0.555  0.1863 -2.2951  0.9195
 4817SOL     OW25912   4.505   0.964   3.143  0.2288  0.1490 -0.4157
 4817SOL    HW125913   4.531   1.008   3.224  1.2930  1.6582 -1.5898
 4817SOL    HW225914   4.494   0.873   3.171 -0.2263  0.2686 -0.2185
 4818SOL     OW25915   0.213   2.473   1.585 -0.1089 -0.2300  0.1494
 4818SOL    HW125916   0.211   2.380   1.561  1.0301 -0.1922 -0.0931
 4818SOL    HW225917   0.241   2.508   1.500  2.2902 -0.4056  0.8717
 4819SOL     OW25918   1.974   0.231   6.339  0.3212 -0.1538  0.1295
 4819SOL    HW125919   1.984   0.136   6.350  0.0352 -0.2774 -0.7020
 4819SOL    HW225920   1.880   0.241   6.323  0.3936 -0.3937 -0.4242
 4820SOL     OW25921   2.490   3.291   7.445  0.6637  0.2784  0.1748
 4820SOL    HW125922   2.519   3.381   7.457 -0.2347  0.7101 -0.8922
 4820SOL    HW225923   2.467   3.281   7.353 -1.1493  0.8521  0.5528
 4821SOL     OW25924   0.461   4.097   7.016 -0.9404  0.0997 -0.0079
 4821SOL    HW125925   0.427   4.009   7.001 -1.9775  0.1832  1.8681
 4821SOL    HW225926   0.555   4.090   6.996 -1.2501 -1.7390 -0.7917
 4822SOL     OW25927   4.579   4.634   4.832  0.0323 -0.1460 -0.6211
 4822SOL    HW125928   4.508   4.692   4.803 -0.4495 -0.6681 -0.4868
 4822SOL    HW225929   4.623   4.693   4.892  0.3239 -3.5332  2.4994
 4823SOL     OW25930   1.749   3.142   3.975 -0.4074  0.2038  0.1965
 4823SOL    HW125931   1.807   3.099   4.038  0.8014  1.3369 -0.1531
 4823SOL    HW225932   1.667   3.093   3.966  0.3804 -1.1526  0.5131
 4824SOL     OW25933   2.859   1.080  12.210 -0.5269 -0.0566  0.2297
 4824SOL    HW125934   2.769   1.088  12.180  0.0984  0.5905 -1.5272
 4824SOL    HW225935   2.904   1.107  12.130  2.0076  2.7791  2.6018
 4825SOL     OW25936   0.960   1.619   6.175 -0.2237  0.2190 -0.1530
 4825SOL    HW125937   1.025   1.650   6.238  0.7487 -3.5534  0.6918
 4825SOL    HW225938   0.962   1.524   6.187  2.1278  0.5020  1.6820
 4826SOL     OW25939   1.830   2.930  12.161 -1.0088  0.2177 -0.5949
 4826SOL    HW125940   1.910   2.903  12.116 -1.1296 -2.9864  1.0850
 4826SOL    HW225941   1.794   2.842  12.163  1.3659 -0.7399 -0.3179
 4827SOL     OW25942   3.816   3.972   8.973 -0.7258  0.1463 -0.2235
 4827SOL    HW125943   3.830   3.968   8.879  0.6672  1.4197 -0.0809
 4827SOL    HW225944   3.731   4.016   8.972 -0.6702  0.1215 -4.1817
 4828SOL     OW25945   1.675   2.064   4.685  0.5598 -0.1800  0.5085
 4828SOL    HW125946   1.749   2.093   4.632 -0.1553  1.4521  0.3884
 4828SOL    HW225947   1.625   2.011   4.622 -1.1427 -0.4435  2.0959
 4829SOL     OW25948   2.354   3.095   5.306  0.0318  0.2237  0.2733
 4829SOL    HW125949   2.269   3.112   5.346 -0.3836  0.5210 -0.7200
 4829SOL    HW225950   2.339   3.010   5.264 -0.2623  0.2372  0.3511
 4830SOL     OW25951   3.031   0.746   5.693  0.1317  0.4543 -0.5238
 4830SOL    HW125952   3.096   0.694   5.740 -0.3330 -0.1763 -0.5737
 4830SOL    HW225953   2.973   0.673   5.669 -0.7627  1.2719 -0.8461
 4831SOL     OW25954   0.360   4.293   1.633  0.0301  0.2210  0.0763
 4831SOL    HW125955   0.316   4.322   1.553  3.6869  4.3459 -0.4199
 4831SOL    HW225956   0.450   4.283   1.602  0.6397  0.0966  1.8875
 4832SOL     OW25957   2.881   0.560  14.684 -0.6569  0.2705  0.3113
 4832SOL    HW125958   2.849   0.587  14.598 -0.2566  3.6295  1.2038
 4832SOL    HW225959   2.803   0.589  14.732 -0.6160  0.1293  0.4648
 4833SOL     OW25960   1.154   1.787  16.718 -0.2410 -0.0082 -0.0205
 4833SOL    HW125961   1.167   1.760  16.627 -0.0285 -2.1612  0.6495
 4833SOL    HW225962   1.060   1.769  16.728 -0.2391 -0.3007 -0.5456
 4834SOL     OW25963   0.949   2.291   5.146 -0.3066 -0.1046 -0.5635
 4834SOL    HW125964   0.855   2.290   5.128  0.0560 -2.5273 -2.3116
 4834SOL    HW225965   0.956   2.202   5.180 -0.1995 -0.3101 -1.1242
 4835SOL     OW25966   2.786   1.704   1.068  0.1438  0.5855  0.0210
 4835SOL    HW125967   2.825   1.677   0.985  1.2462  1.3119  0.3078
 4835SOL    HW225968   2.718   1.637   1.070  1.9161 -1.2151  0.1647
 4836SOL     OW25969   2.299   1.728  15.261 -0.3623 -0.0373 -0.0106
 4836SOL    HW125970   2.344   1.684  15.189  0.7960  2.7721 -1.0055
 4836SOL    HW225971   2.334   1.672  15.330  0.3537 -1.4105 -1.5012
 4837SOL     OW25972   1.264   1.693   3.850 -0.1690  0.2316  0.2121
 4837SOL    HW125973   1.248   1.600   3.834 -2.2346  0.8426 -1.1979
 4837SOL    HW225974   1.257   1.721   3.758 -1.6157 -1.5652 -0.2302
 4838SOL     OW25975   4.197   3.684   3.024  0.6255 -0.3037 -0.2507
 4838SOL    HW125976   4.211   3.590   3.011  2.6596 -0.2128  1.1449
 4838SOL    HW225977   4.186   3.698   2.930 -2.4831  1.7194  0.4126
 4839SOL     OW25978   1.649   0.130  15.577 -0.2505 -0.2272  0.7772
 4839SOL    HW125979   1.672   0.185  15.502 -0.8184  1.5130  1.8843
 4839SOL    HW225980   1.581   0.072  15.544 -0.5377 -0.0861  1.1259
 4840SOL     OW25981   1.647   2.393   6.831  0.1598 -0.7794 -0.0655
 4840SOL    HW125982   1.624   2.452   6.759  2.1082  0.1917  0.1220
 4840SOL    HW225983   1.735   2.361   6.811  0.7490  1.7306 -1.5166
 4841SOL     OW25984   2.328   4.401   3.953 -0.3197  0.3477  0.0973
 4841SOL    HW125985   2.291   4.489   3.961  0.4450  0.6799 -0.0216
 4841SOL    HW225986   2.365   4.409   3.865  1.6120 -1.1305  0.7899
 4842SOL     OW25987   0.590   2.885  13.406 -0.2435 -0.0677  0.5178
 4842SOL    HW125988   0.594   2.852  13.496  0.0048 -1.2430  0.0778
 4842SOL    HW225989   0.682   2.904  13.385 -0.8695  2.0027 -0.3623
 4843SOL     OW25990   1.086   1.002   2.349 -0.3694  0.2105  0.2366
 4843SOL    HW125991   1.076   0.992   2.254 -0.6056  0.7773  0.2003
 4843SOL    HW225992   0.994   1.001   2.373  0.0704 -3.7515  1.7947
 4844SOL     OW25993   0.619   0.535   7.524 -0.5334 -0.3208 -0.5131
 4844SOL    HW125994   0.617   0.481   7.602 -0.8068  2.3446  1.3335
 4844SOL    HW225995   0.596   0.619   7.564  0.1478 -0.7454  0.7440
 4845SOL     OW25996   2.255   2.388   0.868  0.2353 -0.0631 -0.3748
 4845SOL    HW125997   2.197   2.320   0.834 -0.5631  0.2982  0.2664
 4845SOL    HW225998   2.333   2.336   0.850  0.7261  0.9076 -1.0447
 4846SOL     OW25999   4.560   3.219   6.961 -0.2370  0.1372  0.3409
 4846SOL    HW126000   4.566   3.278   7.037 -0.4751 -0.4897  0.8483
 4846SOL    HW226001   4.563   3.280   6.887  2.1361  0.7179  0.9017
 4847SOL     OW26002   0.035   4.538   1.924 -0.4297  0.3449 -0.3235
 4847SOL    HW126003   0.108   4.476   1.918 -1.2730 -0.6971  0.1340
 4847SOL    HW226004   0.066   4.619   1.883  2.8216  0.1044  1.6456
 4848SOL     OW26005   2.893   3.950  13.040 -0.4964 -0.1534 -0.7268
 4848SOL    HW126006   2.871   3.867  13.083  1.8318 -0.7043 -0.6398
 4848SOL    HW226007   2.817   4.008  13.048 -0.7244 -0.8166  1.8867
 4849SOL     OW26008   1.375   0.821   5.773 -0.5017 -0.2463 -0.6075
 4849SOL    HW126009   1.356   0.884   5.704  2.3255  0.3503 -0.8418
 4849SOL    HW226010   1.466   0.812   5.746 -0.6989 -3.0048 -0.2974
 4850SOL     OW26011   4.224   3.012   4.011  0.3855  0.8182  0.2798
 4850SOL    HW126012   4.197   2.934   4.059 -1.3060  0.6695 -0.8803
 4850SOL    HW226013   4.311   3.025   4.049  0.0292 -1.7826  1.9906
 4851SOL     OW26014   1.697   0.094   6.682  0.1933 -0.0217  0.8392
 4851SOL    HW126015   1.690   0.074   6.776  0.4790 -0.4449  0.7726
 4851SOL    HW226016   1.664   0.012   6.647 -1.0811  0.8162  0.0779
 4852SOL     OW26017   1.760   1.640   6.070 -0.1739  0.3552  0.5733
 4852SOL    HW126018   1.745   1.601   6.157 -2.2744 -0.8362 -0.3106
 4852SOL    HW226019   1.848   1.607   6.054 -0.4512 -0.8796  1.5398
 4853SOL     OW26020   2.705   1.156   6.807 -0.3320  0.4681  0.3411
 4853SOL    HW126021   2.672   1.180   6.894  0.3345 -0.2234  0.7858
 4853SOL    HW226022   2.731   1.064   6.813 -1.0706  0.2645  0.3574
 4854SOL     OW26023   0.357   3.619  17.278 -0.1375 -0.0845  0.1727
 4854SOL    HW126024   0.390   3.530  17.270 -1.1123 -0.4590  0.3214
 4854SOL    HW226025   0.350   3.635  17.184 -1.2751 -3.1841 -0.2598
 4855SOL     OW26026   2.656   2.130   2.058 -0.2384 -0.7072 -0.8859
 4855SOL    HW126027   2.688   2.143   1.968  1.1219 -2.3163 -0.6519
 4855SOL    HW226028   2.646   2.220   2.088  0.3942 -1.0277  0.2824
 4856SOL     OW26029   2.959   3.061  13.360 -0.7170 -0.3077  0.3819
 4856SOL    HW126030   3.050   3.048  13.387 -0.2633 -1.3292 -1.6295
 4856SOL    HW226031   2.908   3.006  13.420 -0.6981  2.9707  3.4202
 4857SOL     OW26032   0.825   0.828   0.464  0.2636 -0.5841 -0.0521
 4857SOL    HW126033   0.768   0.751   0.472  1.9716 -1.4416  3.7845
 4857SOL    HW226034   0.785   0.875   0.390 -0.9687 -0.0899  0.9153
 4858SOL     OW26035   3.189   3.282  10.870  0.7725  0.9902  0.3797
 4858SOL    HW126036   3.100   3.249  10.884  0.6986  2.3911  3.1720
 4858SOL    HW226037   3.178   3.291  10.775 -0.4694 -1.9116  0.2148
 4859SOL     OW26038   1.892   3.605   2.236 -0.2723  0.2389 -0.1597
 4859SOL    HW126039   1.941   3.634   2.313  0.0698  1.0758 -0.6961
 4859SOL    HW226040   1.823   3.668   2.216  0.4115  0.9418 -0.3176
 4860SOL     OW26041   2.940   2.513   4.045  0.2443 -0.4825  0.3150
 4860SOL    HW126042   3.035   2.517   4.057  0.3628 -0.1697 -0.7154
 4860SOL    HW226043   2.930   2.447   3.977 -1.3824 -1.1254  1.1724
 4861SOL     OW26044   2.672   1.100   4.104  0.1627  0.2943 -0.2493
 4861SOL    HW126045   2.696   1.034   4.169  0.7381  0.9221  0.1800
 4861SOL    HW226046   2.660   1.042   4.029  1.0230  1.9405 -1.6567
 4862SOL     OW26047   4.722   4.615  13.005 -0.1250  0.4080 -0.2185
 4862SOL    HW126048   4.658   4.657  12.947  0.7495  0.3105 -1.2420
 4862SOL    HW226049   0.079   4.663  12.981  0.6690  0.5357  2.6192
 4863SOL     OW26050   1.341   4.448   5.651  0.2722  0.3667  0.0940
 4863SOL    HW126051   1.330   4.366   5.601  0.3869 -0.6802  1.7743
 4863SOL    HW226052   1.248   4.466   5.669 -0.3588 -1.5964 -1.1497
 4864SOL     OW26053   4.117   0.563  14.513  0.0095  0.4572 -0.0932
 4864SOL    HW126054   4.053   0.494  14.531  1.1100 -1.1904 -2.4191
 4864SOL    HW226055   4.184   0.551  14.581  1.4582  0.2519 -1.5556
 4865SOL     OW26056   2.478   0.544   3.733 -0.4635  0.0598 -0.3929
 4865SOL    HW126057   2.544   0.514   3.670  0.5735 -0.6710  1.0355
 4865SOL    HW226058   2.447   0.620   3.685 -0.2227  0.7694  0.5798
 4866SOL     OW26059   1.402   2.870   1.726 -0.4964 -0.0865  0.2335
 4866SOL    HW126060   1.458   2.846   1.652 -0.0037  1.2672  0.1690
 4866SOL    HW226061   1.390   2.781   1.759 -0.1403 -0.7489 -1.4131
 4867SOL     OW26062   0.081   0.450   8.761 -0.3972 -0.2052  0.4979
 4867SOL    HW126063   0.052   0.405   8.841 -1.1555 -0.4055  0.1062
 4867SOL    HW226064   0.157   0.398   8.733 -0.6357 -0.3897  0.2005
 4868SOL     OW26065   3.999   2.244   3.986 -0.3304 -0.1824 -0.5064
 4868SOL    HW126066   3.995   2.264   4.079  0.6431 -2.8824  0.1116
 4868SOL    HW226067   3.957   2.316   3.939 -0.2345 -1.0778 -1.9600
 4869SOL     OW26068   0.756   2.545   7.692  0.0990 -0.0683 -0.6999
 4869SOL    HW126069   0.782   2.633   7.664 -1.9583  0.1176 -2.0699
 4869SOL    HW226070   0.676   2.544   7.639 -0.3634  2.2046 -0.0308
 4870SOL     OW26071   4.473   2.058   8.362  0.0108 -0.8534 -0.7104
 4870SOL    HW126072   4.387   2.017   8.351 -0.3027 -0.3779  0.0205
 4870SOL    HW226073   4.438   2.147   8.368 -2.5127 -1.7448 -1.8065
 4871SOL     OW26074   4.006   2.414   2.542 -0.4228  0.0523  0.1928
 4871SOL    HW126075   4.089   2.419   2.495  0.0432  4.8745  1.5418
 4871SOL    HW226076   4.032   2.364   2.619 -0.8440 -1.3027 -0.5413
 4872SOL     OW26077   4.311   3.822   1.312 -0.1315  0.2887 -0.4245
 4872SOL    HW126078   4.295   3.872   1.391  0.6384  0.6558 -0.5020
 4872SOL    HW226079   4.243   3.754   1.310 -0.9213  1.0879 -1.0934
 4873SOL     OW26080   1.901   3.829   1.617 -0.2157 -0.0323  0.5463
 4873SOL    HW126081   1.959   3.852   1.689 -0.6388  0.5095  0.7116
 4873SOL    HW226082   1.841   3.903   1.608  0.1963  0.1553 -0.7066
 4874SOL     OW26083   3.094   1.622   5.920  0.1800 -0.4020  0.9337
 4874SOL    HW126084   3.143   1.630   5.838  0.8992  3.0771  1.6973
 4874SOL    HW226085   3.095   1.527   5.928  1.1795 -0.4376  0.3566
 4875SOL     OW26086   3.611   4.365   1.284  0.5119 -0.0102  0.3462
 4875SOL    HW126087   3.604   4.458   1.263 -0.0078  0.2005  1.4579
 4875SOL    HW226088   3.633   4.366   1.377  0.6520 -3.3092  0.3292
 4876SOL     OW26089   2.262   2.712   6.417 -0.1891  0.2612  0.2599
 4876SOL    HW126090   2.259   2.786   6.356 -0.6051  1.4863  1.7540
 4876SOL    HW226091   2.170   2.709   6.443 -0.2919 -0.4991 -0.2058
 4877SOL     OW26092   3.501   3.445   7.712  0.4067  0.1132 -0.6859
 4877SOL    HW126093   3.568   3.504   7.677  1.4252 -0.5866  0.0587
 4877SOL    HW226094   3.564   3.383   7.748 -0.7247 -1.2477 -1.0444
 4878SOL     OW26095   0.977   3.073   3.964  0.2190 -0.4080 -0.1794
 4878SOL    HW126096   1.036   3.144   3.991  1.0805 -0.9272 -0.7054
 4878SOL    HW226097   0.994   3.064   3.870  0.8048 -2.8996  0.1615
 4879SOL     OW26098   3.401   3.166   2.640  0.2791  0.3993 -0.4699
 4879SOL    HW126099   3.325   3.144   2.693 -1.4055 -2.1474 -3.9995
 4879SOL    HW226100   3.470   3.164   2.707  0.0043  0.7374 -0.1717
 4880SOL     OW26101   0.037   4.281   6.101  0.0310 -0.1597 -0.2652
 4880SOL    HW126102   4.693   4.228   6.059  1.0386 -0.5981 -1.3502
 4880SOL    HW226103   0.070   4.229   6.174 -0.7979 -1.3551 -0.7461
 4881SOL     OW26104   0.545   0.192  14.785  0.1732  0.5998  0.3320
 4881SOL    HW126105   0.607   0.146  14.729 -0.8315 -0.0088 -0.2756
 4881SOL    HW226106   0.465   0.142  14.770  1.6961 -1.0664 -2.2102
 4882SOL     OW26107   2.549   2.861   3.195  0.1224  0.1711 -0.4888
 4882SOL    HW126108   2.529   2.813   3.276  0.3045  0.2953 -0.3710
 4882SOL    HW226109   2.464   2.903   3.178  0.6917  1.2332 -0.7417
 4883SOL     OW26110   0.849   0.902   8.904 -0.6074 -0.2381 -0.4761
 4883SOL    HW126111   0.760   0.911   8.868 -0.5643 -1.0369 -0.7920
 4883SOL    HW226112   0.834   0.913   8.998 -1.3907  2.8907 -0.9741
 4884SOL     OW26113   1.424   3.053  12.543 -0.4793 -0.7758 -0.5309
 4884SOL    HW126114   1.479   2.977  12.555  0.4353 -0.1561 -0.8211
 4884SOL    HW226115   1.475   3.117  12.592  1.2978 -2.1801 -0.5732
 4885SOL     OW26116   2.384   1.063   4.899 -0.0678 -0.1237  0.4311
 4885SOL    HW126117   2.372   1.132   4.965 -0.8384  0.6986 -0.5579
 4885SOL    HW226118   2.377   0.988   4.959 -2.3320  1.3251  1.9799
 4886SOL     OW26119   2.507   0.387   6.142 -0.2645 -0.3158 -0.1286
 4886SOL    HW126120   2.443   0.457   6.132 -0.5131 -0.5827 -0.3989
 4886SOL    HW226121   2.540   0.374   6.053  1.1163  0.2599  0.2929
 4887SOL     OW26122   0.188   3.429   2.002 -0.2320 -0.4909 -0.2836
 4887SOL    HW126123   0.204   3.523   2.002 -2.1440 -0.1869  1.4757
 4887SOL    HW226124   0.255   3.412   1.935 -0.1293 -0.6390 -0.1423
 4888SOL     OW26125   1.110   2.680   1.972 -0.4362 -0.0448  0.3761
 4888SOL    HW126126   1.153   2.736   2.037  0.7964  1.7934 -2.0162
 4888SOL    HW226127   1.023   2.718   1.961 -0.0497  1.3456  2.0896
 4889SOL     OW26128   1.816   3.569   7.949  0.2440 -0.0851  0.0505
 4889SOL    HW126129   1.722   3.551   7.959  0.1217 -0.2203 -1.3840
 4889SOL    HW226130   1.828   3.583   7.856  1.0901  2.7303  0.5981
 4890SOL     OW26131   4.692   4.314  11.372 -0.9064 -1.0710  0.5655
 4890SOL    HW126132   4.697   4.231  11.419 -0.1257 -0.8090  0.9415
 4890SOL    HW226133   4.599   4.333  11.380 -0.1521  2.6525  0.2572
 4891SOL     OW26134   1.698   2.041   8.842  0.0992  0.1587  0.3450
 4891SOL    HW126135   1.659   1.971   8.895  0.2005 -0.2129 -0.0671
 4891SOL    HW226136   1.709   1.982   8.767 -0.5667  0.3287  0.1120
 4892SOL     OW26137   3.144   2.698   6.453 -0.5641  0.0754 -0.1352
 4892SOL    HW126138   3.213   2.633   6.436 -0.6851  0.3618 -1.6848
 4892SOL    HW226139   3.186   2.774   6.411  1.0266 -1.1099 -0.7196
 4893SOL     OW26140   0.247   2.495  12.913  0.2269 -0.6876 -0.1053
 4893SOL    HW126141   0.165   2.545  12.915  0.6594 -0.0001  0.1939
 4893SOL    HW226142   0.212   2.408  12.893 -1.9551  0.7564 -2.7269
 4894SOL     OW26143   3.533   1.156   5.691 -0.2099  0.6221 -0.1482
 4894SOL    HW126144   3.594   1.132   5.621 -1.2350  1.2650 -1.2719
 4894SOL    HW226145   3.492   1.235   5.656 -2.5635 -1.1425 -1.3643
 4895SOL     OW26146   3.773   1.969   5.531 -0.2459  0.3666  0.0921
 4895SOL    HW126147   3.754   2.000   5.442  2.7879  1.4990 -0.1676
 4895SOL    HW226148   3.856   2.014   5.546 -0.1673  1.2391 -2.9987
 4896SOL     OW26149   0.967   1.784   2.596 -0.0447  0.2833  0.3092
 4896SOL    HW126150   0.891   1.748   2.549  1.0769 -1.2172 -0.3655
 4896SOL    HW226151   0.996   1.850   2.534 -1.2384 -0.2604 -0.8450
 4897SOL     OW26152   0.975   3.953   3.321 -0.0803  0.1211  0.6600
 4897SOL    HW126153   0.905   3.977   3.260 -0.2508 -3.7754 -0.6731
 4897SOL    HW226154   1.043   3.919   3.264  0.2842 -0.7220  1.6123
 4898SOL     OW26155   0.063   2.581   6.702 -0.0596 -0.5871  0.2108
 4898SOL    HW126156   0.065   2.639   6.626 -1.5025 -0.4274  0.2911
 4898SOL    HW226157   0.156   2.559   6.708 -0.1845 -1.3422 -0.6969
 4899SOL     OW26158   0.042   2.563  15.299  0.4537 -0.5438  0.4577
 4899SOL    HW126159   0.085   2.634  15.252  2.7509  0.5076  4.0813
 4899SOL    HW226160   0.101   2.495  15.265  2.8343  1.5908  0.3237
 4900SOL     OW26161   3.656   0.181   2.973  0.3306 -0.3713  0.4597
 4900SOL    HW126162   3.718   0.235   3.021  0.1460  0.0979  0.1684
 4900SOL    HW226163   3.717   0.115   2.941  1.0842  0.0679  0.9856
 4901SOL     OW26164   2.124   0.912  11.495  0.4577  0.3578 -0.4568
 4901SOL    HW126165   2.112   0.991  11.443  0.3092  1.1673  0.8005
 4901SOL    HW226166   2.118   0.842  11.430  1.1464 -1.4667  1.4370
 4902SOL     OW26167   4.544   4.392  15.067 -0.6402 -0.5012  0.4400
 4902SOL    HW126168   4.466   4.437  15.034 -1.0476 -1.5424 -0.0164
 4902SOL    HW226169   4.565   4.452  15.139 -3.0952 -0.7335  1.3254
 4903SOL     OW26170   2.489   4.207   1.953 -0.6822 -0.2576 -0.2952
 4903SOL    HW126171   2.536   4.124   1.965 -2.0007 -0.7702  1.3586
 4903SOL    HW226172   2.561   4.269   1.963 -1.7330  0.6277  1.7839
 4904SOL     OW26173   3.291   2.699   5.994 -0.0275 -0.2480  0.5489
 4904SOL    HW126174   3.378   2.666   5.971  0.1327  0.7055 -0.2152
 4904SOL    HW226175   3.242   2.631   5.949  1.0006 -0.0510 -0.8730
 4905SOL     OW26176   4.303   0.771   8.606 -0.4942 -0.0406 -0.0374
 4905SOL    HW126177   4.219   0.743   8.570 -0.6249 -1.4579  1.3499
 4905SOL    HW226178   4.296   0.726   8.690 -0.0562  1.3611  0.7532
 4906SOL     OW26179   3.970   3.129  11.344  0.3272  0.2186  0.3458
 4906SOL    HW126180   4.027   3.177  11.403 -0.1266 -1.4556  2.1479
 4906SOL    HW226181   3.880   3.153  11.363 -0.4673 -2.1466 -0.3455
 4907SOL     OW26182   2.292   0.399   5.003 -0.0463  0.4984 -0.0378
 4907SOL    HW126183   2.237   0.358   5.071  4.6950 -0.2474  3.3409
 4907SOL    HW226184   2.297   0.321   4.949  0.1001  0.5314 -0.0722
 4908SOL     OW26185   3.091   4.044  12.794  0.3442 -0.2649 -0.5454
 4908SOL    HW126186   3.006   4.022  12.756  0.9808 -2.1333 -0.9057
 4908SOL    HW226187   3.147   3.978  12.752  3.4330  2.0624 -0.0827
 4909SOL     OW26188   3.143   1.336   1.052  0.3242  0.4312  0.2150
 4909SOL    HW126189   3.144   1.430   1.067  2.4564 -0.2161  4.1711
 4909SOL    HW226190   3.226   1.309   1.090  1.0549 -0.7341 -2.1548
 4910SOL     OW26191   4.532   4.418   9.361 -0.0916 -0.0603 -0.1789
 4910SOL    HW126192   4.528   4.324   9.340 -2.6485 -0.3874  1.7204
 4910SOL    HW226193   4.465   4.435   9.427  0.3009 -0.1516  0.2482
 4911SOL     OW26194   0.822   4.524  15.449  0.2238 -0.0913  0.2490
 4911SOL    HW126195   0.728   4.523  15.468  0.7354 -1.0593  2.6337
 4911SOL    HW226196   0.849   4.437  15.479  0.4955  0.1664  0.7323
 4912SOL     OW26197   1.333   2.240  15.740 -0.0894  0.2702 -0.3698
 4912SOL    HW126198   1.380   2.323  15.728 -1.9753  1.2067 -1.2971
 4912SOL    HW226199   1.246   2.270  15.716  0.1117  0.9040 -0.2954
 4913SOL     OW26200   1.952   1.953   9.025 -0.3702  0.4994 -0.1551
 4913SOL    HW126201   1.951   2.019   9.093  0.5003  2.4792 -2.0579
 4913SOL    HW226202   2.022   1.897   9.058 -0.5474  0.6403  0.4586
 4914SOL     OW26203   0.071   0.970   5.399 -0.1766  0.3584 -0.3628
 4914SOL    HW126204   0.127   0.903   5.437 -3.2460 -1.0569  1.5980
 4914SOL    HW226205   0.007   0.914   5.355 -2.0347  1.8018  0.4883
 4915SOL     OW26206   1.028   1.980   4.965 -0.6136  0.3817 -0.2335
 4915SOL    HW126207   0.967   1.924   5.012 -0.3687  0.8930  0.6815
 4915SOL    HW226208   1.056   2.044   5.030 -0.9819 -0.1671  0.4608
 4916SOL     OW26209   4.346   0.910   7.154 -0.1756 -0.5880  0.0146
 4916SOL    HW126210   4.323   0.828   7.111 -0.9817 -0.0204 -0.6286
 4916SOL    HW226211   4.300   0.968   7.093  2.2741 -1.0707 -2.3142
 4917SOL     OW26212   0.543   4.209  17.621 -0.2486  0.0846  0.3077
 4917SOL    HW126213   0.493   4.270  17.677  1.0135  2.1775 -0.8429
 4917SOL    HW226214   0.576   4.160   0.001 -0.5311 -1.2737 -0.4627
 4918SOL     OW26215   1.703   2.162   0.467 -0.3577  0.3194  0.0358
 4918SOL    HW126216   1.719   2.134   0.377 -0.5343 -0.7222  0.3306
 4918SOL    HW226217   1.650   2.090   0.500 -0.5637 -0.6332 -2.3749
 4919SOL     OW26218   1.317   4.204  11.142  0.6472  0.0499  0.0403
 4919SOL    HW126219   1.395   4.152  11.127  0.6957  0.0654  0.2340
 4919SOL    HW226220   1.331   4.277  11.082 -1.7188  1.6799  1.4738
 4920SOL     OW26221   2.603   4.578   4.003  0.2158 -0.0030 -0.3679
 4920SOL    HW126222   2.544   4.632   3.949 -0.8897 -0.2820  0.5552
 4920SOL    HW226223   2.692   4.610   3.993  0.2633 -0.5801 -1.8592
 4921SOL     OW26224   3.065   3.719  10.541  0.2284  0.3651 -0.1647
 4921SOL    HW126225   3.082   3.783  10.610  1.5616 -0.3287  0.1578
 4921SOL    HW226226   3.045   3.653  10.606 -2.6206  0.5100 -0.9085
 4922SOL     OW26227   1.303   1.840   4.647 -0.1194  0.5520 -0.0566
 4922SOL    HW126228   1.380   1.895   4.640 -0.5174  0.8214 -2.2573
 4922SOL    HW226229   1.291   1.813   4.556  1.3381 -0.9015  0.1829
 4923SOL     OW26230   0.800   4.275   1.365 -0.0551  0.2054 -0.1437
 4923SOL    HW126231   0.860   4.209   1.330 -0.3709 -0.9109  1.4115
 4923SOL    HW226232   0.740   4.276   1.290 -1.1990  0.1688  0.7764
 4924SOL     OW26233   2.261   2.639   7.066  0.5904  0.2660 -0.7869
 4924SOL    HW126234   2.213   2.564   7.033 -1.5079  2.0932 -1.8164
 4924SOL    HW226235   2.230   2.650   7.156  1.9235 -2.5862  0.0216
 4925SOL     OW26236   1.944   0.630   6.290  0.2380 -0.6070  0.2848
 4925SOL    HW126237   2.005   0.630   6.364  0.9909  0.9713 -0.3323
 4925SOL    HW226238   1.866   0.603   6.339 -0.0586  0.7129  0.5526
 4926SOL     OW26239   1.371   0.815   3.151  0.5590 -0.4222 -0.1736
 4926SOL    HW126240   1.338   0.877   3.216  4.5002  0.8671  0.5955
 4926SOL    HW226241   1.422   0.878   3.100 -1.7433  1.9850  0.5253
 4927SOL     OW26242   1.264   0.847   1.292 -0.2517 -0.3385  0.6330
 4927SOL    HW126243   1.297   0.771   1.246  2.0484  0.2311  1.3672
 4927SOL    HW226244   1.305   0.842   1.379  1.9131  1.4648 -0.3026
 4928SOL     OW26245   0.292   1.244   2.375 -0.2537  0.0461 -0.1840
 4928SOL    HW126246   0.342   1.167   2.347  0.2832  1.1201 -2.1270
 4928SOL    HW226247   0.217   1.235   2.316 -0.8367 -1.4523  0.7639
 4929SOL     OW26248   2.837   1.663   9.393 -1.2329 -0.8782 -0.1064
 4929SOL    HW126249   2.866   1.605   9.463 -2.4152  1.2646  2.1695
 4929SOL    HW226250   2.814   1.746   9.435  0.0968 -0.7815  0.4508
 4930SOL     OW26251   3.238   1.289  16.403 -0.0243 -0.1517  0.2674
 4930SOL    HW126252   3.251   1.350  16.330  3.1462 -0.1381  0.8454
 4930SOL    HW226253   3.165   1.233  16.376  0.4865 -0.0168 -1.4209
 4931SOL     OW26254   2.283   0.616  10.486  0.5181  0.7272  0.5579
 4931SOL    HW126255   2.351   0.651  10.544  1.2004  0.0481  0.1570
 4931SOL    HW226256   2.309   0.660  10.405 -1.6911  2.8336  0.9989
 4932SOL     OW26257   3.777   0.507   1.406 -0.4794 -0.0243  0.5375
 4932SOL    HW126258   3.801   0.599   1.407  0.8702 -0.3811  1.4309
 4932SOL    HW226259   3.750   0.487   1.495  0.1670  1.3650  1.0436
 4933SOL     OW26260   0.205   2.075   1.699  0.1325  0.9206  0.2719
 4933SOL    HW126261   0.196   2.123   1.781 -1.4708 -0.3795  0.8644
 4933SOL    HW226262   0.220   2.139   1.630  0.9952 -0.0998 -0.4938
 4934SOL     OW26263   1.765   3.469   3.735  0.8084 -0.0496 -0.1124
 4934SOL    HW126264   1.801   3.554   3.709  0.0979  1.1467  2.7554
 4934SOL    HW226265   1.829   3.406   3.702  0.5172 -0.8105  0.7727
 4935SOL     OW26266   3.312   3.816   6.378 -0.1472  0.1563  0.0577
 4935SOL    HW126267   3.295   3.909   6.371  0.0282  0.2330  0.6272
 4935SOL    HW226268   3.397   3.829   6.419 -0.1433  0.1577  0.0491
 4936SOL     OW26269   4.369   2.286  13.073 -0.3340 -0.5517 -0.2353
 4936SOL    HW126270   4.330   2.259  12.990 -2.5694  2.5866 -0.1994
 4936SOL    HW226271   4.316   2.363  13.094  1.7443  0.5386  0.9994
 4937SOL     OW26272   1.334   2.556   4.336 -0.3253  0.0641 -0.1269
 4937SOL    HW126273   1.262   2.619   4.326  1.0281  1.4601 -1.1290
 4937SOL    HW226274   1.375   2.563   4.250 -0.3188 -0.1421 -0.1410
 4938SOL     OW26275   1.752   3.689   4.180  0.2794  0.7778 -0.3775
 4938SOL    HW126276   1.817   3.719   4.116  0.1649  0.7244 -0.5183
 4938SOL    HW226277   1.758   3.594   4.189  1.7671  0.8467 -0.6707
 4939SOL     OW26278   2.764   4.523   5.916 -0.1232  0.0273 -0.2252
 4939SOL    HW126279   2.722   4.509   6.000 -0.7752  2.1794 -0.1768
 4939SOL    HW226280   2.685   4.549   5.868 -1.3325 -0.9096  1.2659
 4940SOL     OW26281   2.317   4.318   7.897  0.2288  0.5000 -0.1581
 4940SOL    HW126282   2.410   4.296   7.889  0.0792  1.0472 -3.4375
 4940SOL    HW226283   2.317   4.413   7.895  0.9629  0.5202  1.1769
 4941SOL     OW26284   0.457   1.154   6.979  0.3945 -0.6061  0.1972
 4941SOL    HW126285   0.461   1.069   6.933 -0.1432 -0.6817  0.2916
 4941SOL    HW226286   0.485   1.213   6.909  0.4744 -1.3728 -0.4205
 4942SOL     OW26287   1.793   2.856   7.977  0.5183  0.0106 -0.1361
 4942SOL    HW126288   1.773   2.788   7.912  2.6134 -0.2802 -0.4792
 4942SOL    HW226289   1.864   2.817   8.029  1.2881  1.6790  0.0504
 4943SOL     OW26290   0.834   1.589   9.604 -0.2789  0.3518 -0.5278
 4943SOL    HW126291   0.911   1.534   9.586  1.3008  1.8036  1.7317
 4943SOL    HW226292   0.838   1.641   9.523  0.8020  0.3132 -0.5079
 4944SOL     OW26293   0.263   0.637  17.286  0.5259  0.1371  0.1947
 4944SOL    HW126294   0.229   0.553  17.316 -0.3326  0.7821  1.0390
 4944SOL    HW226295   0.309   0.601  17.210 -1.3081  2.2252 -1.9154
 4945SOL     OW26296   0.522   2.635   3.569 -0.3349 -0.1785 -0.7458
 4945SOL    HW126297   0.430   2.661   3.581 -0.0110  0.8848 -0.5776
 4945SOL    HW226298   0.526   2.540   3.573  1.1625 -0.1577 -1.9816
 4946SOL     OW26299   1.057   2.960   6.348  1.1825 -0.2667 -0.3820
 4946SOL    HW126300   1.032   2.874   6.381 -0.7820 -0.2202 -1.7490
 4946SOL    HW226301   0.972   3.000   6.328  0.7099 -0.8966  0.3677
 4947SOL     OW26302   1.219   4.306  12.143  0.3929 -0.3498  0.4563
 4947SOL    HW126303   1.242   4.382  12.196  3.2548 -0.9539  0.0599
 4947SOL    HW226304   1.303   4.288  12.102  0.7422 -0.3510  1.1778
 4948SOL     OW26305   3.433   4.576   8.347  0.4729 -0.2757 -0.2540
 4948SOL    HW126306   3.338   4.589   8.340  0.5276 -0.2017 -0.8673
 4948SOL    HW226307   3.464   4.623   8.270  0.0049  0.3844 -0.0416
 4949SOL     OW26308   4.230   1.848  14.545  0.4729  0.1334 -0.1609
 4949SOL    HW126309   4.287   1.844  14.468  0.2348  3.5707 -0.5273
 4949SOL    HW226310   4.205   1.756  14.554 -0.5244  0.5732  1.5468
 4950SOL     OW26311   1.571   1.207   7.578  0.2255 -0.1772 -0.7330
 4950SOL    HW126312   1.608   1.127   7.615  0.3154  0.0822 -0.2671
 4950SOL    HW226313   1.558   1.258   7.657  1.8966 -2.5308  1.0531
 4951SOL     OW26314   1.355   1.999  15.606  0.0544 -0.5203  0.3002
 4951SOL    HW126315   1.265   1.969  15.619  0.4025 -1.3244  0.8507
 4951SOL    HW226316   1.357   2.051  15.686 -2.9101  1.6129 -1.0133
 4952SOL     OW26317   3.563   4.542   5.298 -0.3047  0.3840 -0.5579
 4952SOL    HW126318   3.579   4.625   5.253 -0.0396  0.1872 -0.8215
 4952SOL    HW226319   3.620   4.486   5.246 -1.1780  0.7255 -1.8782
 4953SOL     OW26320   0.252   1.051   9.058 -0.3290  0.3879  0.4207
 4953SOL    HW126321   0.188   1.105   9.102  1.6639  3.0608  0.0224
 4953SOL    HW226322   0.308   1.013   9.125 -3.3953 -3.4207  0.8109
 4954SOL     OW26323   2.999   4.475   2.592  0.4704 -0.6544 -0.3792
 4954SOL    HW126324   2.976   4.387   2.562 -1.2036 -0.4241  0.2556
 4954SOL    HW226325   3.095   4.481   2.587  0.3941  0.9805  0.2877
 4955SOL     OW26326   0.408   3.478  13.736 -0.7712  0.1851 -0.6948
 4955SOL    HW126327   0.464   3.549  13.764  0.7949 -2.7083  3.5572
 4955SOL    HW226328   0.326   3.490  13.785 -0.8649 -3.2139  0.0010
 4956SOL     OW26329   2.385   2.058   4.992  0.4202 -0.0966 -0.0958
 4956SOL    HW126330   2.358   2.150   4.990 -0.8084 -0.4822 -2.7098
 4956SOL    HW226331   2.475   2.057   5.025  0.2881  0.6677  0.2818
 4957SOL     OW26332   3.372   3.067  13.040  0.5053 -0.1272 -0.1409
 4957SOL    HW126333   3.411   3.037  13.122  2.9934  1.8632 -0.6020
 4957SOL    HW226334   3.284   3.093  13.069  0.4584 -0.0068 -0.3890
 4958SOL     OW26335   2.195   0.452  15.336  0.3442  0.0380 -0.6031
 4958SOL    HW126336   2.266   0.491  15.386 -1.4285  2.5316  0.0237
 4958SOL    HW226337   2.240   0.410  15.263  0.7262 -1.7257  0.6522
 4959SOL     OW26338   0.259   0.264   3.808 -0.1839 -0.3206  0.0028
 4959SOL    HW126339   0.177   0.292   3.850  0.2401 -0.0626  0.6666
 4959SOL    HW226340   0.238   0.174   3.784  1.0509 -0.7623  0.5889
 4960SOL     OW26341   3.195   4.450   0.588  0.0770 -0.5620 -0.1822
 4960SOL    HW126342   3.249   4.381   0.626 -0.8249 -0.3871  1.3819
 4960SOL    HW226343   3.234   4.446   0.501  2.8737  0.4539  1.0311
 4961SOL     OW26344   0.314   0.422   1.168 -0.4767 -0.2573 -0.4391
 4961SOL    HW126345   0.266   0.483   1.224 -1.7077 -1.1811 -0.4715
 4961SOL    HW226346   0.377   0.387   1.231 -1.2727 -0.4445  0.2596
 4962SOL     OW26347   3.509   3.954   8.287  0.2464 -0.0557  0.5241
 4962SOL    HW126348   3.442   4.001   8.239  0.4978 -1.5720 -1.3211
 4962SOL    HW226349   3.540   4.017   8.352  0.2360  1.3457 -0.8273
 4963SOL     OW26350   3.944   4.622   7.179  0.4349 -0.3580 -0.2630
 4963SOL    HW126351   3.940   4.674   7.099  0.9376  0.2434  0.1070
 4963SOL    HW226352   3.882   4.550   7.165  1.1227 -0.7893 -1.0219
 4964SOL     OW26353   2.839   3.889  14.869  0.2549  0.2294 -0.1360
 4964SOL    HW126354   2.834   3.814  14.929  0.6540 -0.5841 -1.1068
 4964SOL    HW226355   2.746   3.902  14.852 -0.1924 -3.0500 -0.3386
 4965SOL     OW26356   0.912   0.958  14.650 -0.1448 -0.4641  0.1867
 4965SOL    HW126357   0.829   0.974  14.694  0.1415  1.8798 -0.1234
 4965SOL    HW226358   0.974   0.974  14.721 -1.3328 -0.0432  1.1140
 4966SOL     OW26359   3.820   0.145  11.509 -0.4582 -0.1677  0.4169
 4966SOL    HW126360   3.879   0.220  11.497 -0.8775  0.0665 -0.1736
 4966SOL    HW226361   3.828   0.126  11.603  1.8602 -2.1504 -0.1954
 4967SOL     OW26362   4.224   0.873   9.861 -0.5886 -0.5790 -0.0603
 4967SOL    HW126363   4.165   0.947   9.845 -1.2234 -0.8892  0.8396
 4967SOL    HW226364   4.162   0.809   9.825 -3.6723  2.2375  0.1764
 4968SOL     OW26365   0.357   1.054   4.129  0.8724 -0.1050 -0.6417
 4968SOL    HW126366   0.386   0.970   4.166  0.0857  0.9704  2.4251
 4968SOL    HW226367   0.318   1.031   4.045 -5.7435 -0.5579  2.5812
 4969SOL     OW26368   3.680   3.703   4.608 -0.1670 -0.7682  0.1415
 4969SOL    HW126369   3.740   3.708   4.683  1.0914  0.6903 -0.9499
 4969SOL    HW226370   3.745   3.740   4.548 -2.5151 -0.5557 -2.2645
 4970SOL     OW26371   2.857   0.920  11.270  1.1404 -0.3267  0.1414
 4970SOL    HW126372   2.836   0.829  11.250  0.2189  0.3341 -1.9166
 4970SOL    HW226373   2.782   0.943  11.326  1.1770 -0.7649  0.3729
 4971SOL     OW26374   0.708   0.249   2.769 -0.5772 -0.4465 -0.3293
 4971SOL    HW126375   0.623   0.213   2.744 -0.8909 -0.5379  0.8821
 4971SOL    HW226376   0.739   0.181   2.829 -3.6070 -0.1621  1.5302
 4972SOL     OW26377   2.212   4.462   6.250  0.1108  0.2907  0.0251
 4972SOL    HW126378   2.171   4.376   6.235  1.4342 -0.4103  0.3906
 4972SOL    HW226379   2.286   4.431   6.301  1.3856 -0.0296 -2.0363
 4973SOL     OW26380   4.492   4.018   3.037  0.4489  0.2090 -0.5141
 4973SOL    HW126381   4.539   4.056   3.111 -0.0801 -0.9231  0.4031
 4973SOL    HW226382   4.459   3.939   3.079 -1.0471  0.8137 -0.5466
 4974SOL     OW26383   4.637   4.366   4.883  0.1927 -0.3885 -0.3166
 4974SOL    HW126384   4.625   4.459   4.864 -0.5411 -0.3818  0.1714
 4974SOL    HW226385   4.613   4.361   4.976  3.3691 -2.1085  0.3882
 4975SOL     OW26386   2.500   1.047   8.477  0.5906  0.5725 -0.2611
 4975SOL    HW126387   2.428   0.984   8.489  2.1224 -0.6696  2.4957
 4975SOL    HW226388   2.572   0.999   8.517  0.1285 -0.6014 -0.8104
 4976SOL     OW26389   0.538   0.077   8.196 -0.1540 -0.1639 -0.1557
 4976SOL    HW126390   0.613   0.100   8.141  0.3415 -0.5897  0.3447
 4976SOL    HW226391   0.581   0.055   8.279 -0.6051  0.1252  0.1561
 4977SOL     OW26392   3.906   3.093  11.819  0.1320  0.6501 -0.1737
 4977SOL    HW126393   3.843   3.139  11.763 -0.5209  1.2065  1.0251
 4977SOL    HW226394   3.966   3.068  11.749  1.7113  3.7303  0.0699
 4978SOL     OW26395   3.563   0.557   7.857 -0.3423 -0.5100 -0.9686
 4978SOL    HW126396   3.527   0.638   7.893  0.9813  0.4801 -1.8419
 4978SOL    HW226397   3.651   0.542   7.891 -0.1886 -0.4667 -1.3359
 4979SOL     OW26398   2.750   4.696   9.921  0.6606  0.1534  0.0912
 4979SOL    HW126399   2.823   4.698   9.860 -0.7944 -2.2321 -1.7079
 4979SOL    HW226400   2.698   4.620   9.895  0.2439  1.0457 -1.6128
 4980SOL     OW26401   3.703   1.301   7.581 -0.4296  0.2946 -0.5461
 4980SOL    HW126402   3.731   1.298   7.673 -0.6872  0.5199 -0.4593
 4980SOL    HW226403   3.778   1.256   7.543 -0.7619  1.4230 -2.5207
 4981SOL     OW26404   3.287   2.761   1.647  0.2036  0.1039  0.0222
 4981SOL    HW126405   3.217   2.720   1.597 -0.1645 -1.6130  1.9530
 4981SOL    HW226406   3.338   2.682   1.666  1.1828  0.9225  0.8152
 4982SOL     OW26407   1.236   2.759  17.068  0.5862  0.2063 -0.1265
 4982SOL    HW126408   1.201   2.669  17.072 -0.4046  0.4084 -4.2090
 4982SOL    HW226409   1.304   2.762  17.135  0.2840 -2.9130  0.3506
 4983SOL     OW26410   1.106   2.350  12.984  0.3822 -0.0350  0.5027
 4983SOL    HW126411   1.133   2.338  13.075 -1.0052 -0.4265  0.8670
 4983SOL    HW226412   1.170   2.301  12.933 -2.8878 -1.0134 -2.6426
 4984SOL     OW26413   0.348   0.382   9.106  0.0918 -0.1314  0.2712
 4984SOL    HW126414   0.341   0.286   9.109  0.6400 -0.0994  2.2581
 4984SOL    HW226415   0.332   0.403   9.197 -0.3480  0.6862  0.0040
 4985SOL     OW26416   0.921   2.777   5.608  0.0284 -0.1846 -0.5379
 4985SOL    HW126417   1.015   2.758   5.610  0.4012  1.9271  1.7696
 4985SOL    HW226418   0.908   2.851   5.667 -0.1315  1.6763 -2.9476
 4986SOL     OW26419   2.439   3.758  13.305  0.0577  0.7492 -0.2872
 4986SOL    HW126420   2.444   3.853  13.318 -1.0523  0.7542  0.1559
 4986SOL    HW226421   2.354   3.742  13.347  0.3876  0.3859  0.2392
 4987SOL     OW26422   4.298   2.182  10.809 -0.1190  0.3651  0.4346
 4987SOL    HW126423   4.262   2.114  10.866  2.0732 -0.2162  1.1544
 4987SOL    HW226424   4.238   2.248  10.843 -1.5669 -0.4989 -0.4249
 4988SOL     OW26425   1.388   1.914   0.423 -0.0397 -0.3341 -0.4033
 4988SOL    HW126426   1.476   1.922   0.461  0.1172 -2.3592 -0.3343
 4988SOL    HW226427   1.409   1.854   0.350 -0.7259  1.7844 -2.3432
 4989SOL     OW26428   4.242   4.672   1.404  0.6555 -0.1112 -0.2926
 4989SOL    HW126429   4.256   4.632   1.490  0.5805 -0.6776 -0.5403
 4989SOL    HW226430   4.305   0.021   1.405 -0.9945  1.3076  1.8970
 4990SOL     OW26431   2.361   3.029  14.774 -0.0727  0.2808 -0.4540
 4990SOL    HW126432   2.401   3.116  14.772 -1.3080  0.8685  0.5836
 4990SOL    HW226433   2.281   3.061  14.730 -0.3654 -0.7620 -0.6663
 4991SOL     OW26434   3.473   3.848   7.368  0.7350 -0.4085 -0.2515
 4991SOL    HW126435   3.530   3.900   7.425  0.6668 -0.8450  0.2125
 4991SOL    HW226436   3.532   3.838   7.294  2.3151  0.1090  0.9297
 4992SOL     OW26437   4.181   0.954   7.464  0.0156 -0.4251 -0.1235
 4992SOL    HW126438   4.230   1.035   7.478 -1.0989  0.0798  0.8427
 4992SOL    HW226439   4.148   0.964   7.375  1.0598  1.7227 -0.2686
 4993SOL     OW26440   2.147   4.225   6.126 -0.1303  0.5941  0.2155
 4993SOL    HW126441   2.165   4.165   6.198  0.7813  2.3638  1.4749
 4993SOL    HW226442   2.237   4.235   6.094  0.2796 -1.1214  0.8345
 4994SOL     OW26443   1.856   3.949   6.998 -0.0677  0.1306 -0.7028
 4994SOL    HW126444   1.899   3.927   6.916  0.6690  0.3460 -0.3730
 4994SOL    HW226445   1.848   3.867   7.047 -1.8285  0.8773  0.2714
 4995SOL     OW26446   2.190   4.598   8.765 -0.5393  0.4550  0.0769
 4995SOL    HW126447   2.130   4.554   8.826 -1.0282 -0.1388 -0.8225
 4995SOL    HW226448   2.182   4.543   8.687 -2.7817  0.3553  0.3766
 4996SOL     OW26449   4.595   0.816   1.336 -0.1143 -0.6950  0.6619
 4996SOL    HW126450   4.599   0.906   1.369 -2.9653  0.5477 -2.3259
 4996SOL    HW226451   4.557   0.825   1.248  2.4428 -1.1067 -0.4902
 4997SOL     OW26452   1.264   0.224   4.029 -0.0910 -0.2171  0.0784
 4997SOL    HW126453   1.199   0.175   3.977  0.6625 -1.8364  0.6641
 4997SOL    HW226454   1.307   0.273   3.959  1.5840 -2.6245 -0.5807
 4998SOL     OW26455   3.613   0.006   6.494  0.1139 -0.2123  0.4635
 4998SOL    HW126456   3.647   0.084   6.540  1.1155  0.9664 -2.2632
 4998SOL    HW226457   3.555   0.047   6.430  0.5174 -0.7709 -0.2574
 4999SOL     OW26458   2.223   2.045   8.735  0.3456 -0.2497 -0.0866
 4999SOL    HW126459   2.135   2.055   8.698  0.2002 -2.3967 -0.2831
 4999SOL    HW226460   2.269   2.058   8.652 -0.6661 -1.4101 -0.8292
 5000SOL     OW26461   4.032   1.136  13.465  0.2718 -0.3087  0.4453
 5000SOL    HW126462   4.088   1.188  13.523  0.9915  0.1680 -0.7030
 5000SOL    HW226463   3.942   1.154  13.493 -0.6673 -0.6387 -2.4039
 5001SOL     OW26464   2.129   1.229   6.886  0.1949  0.1806  0.1701
 5001SOL    HW126465   2.097   1.230   6.796  2.0747 -1.7906 -0.5335
 5001SOL    HW226466   2.208   1.282   6.879  1.1098 -1.1572  0.3172
 5002SOL     OW26467   4.055   2.759  13.753 -0.0206  0.3583 -0.2307
 5002SOL    HW126468   4.004   2.687  13.715 -1.8658  1.2795  0.4936
 5002SOL    HW226469   3.994   2.781  13.824  0.2452 -0.6342  0.3165
 5003SOL     OW26470   3.449   1.501   8.699  0.1744  0.1446 -0.3229
 5003SOL    HW126471   3.371   1.445   8.692 -1.2363  1.8949  1.4080
 5003SOL    HW226472   3.517   1.455   8.649 -0.5843 -0.9214 -0.3766
 5004SOL     OW26473   3.143   0.606   8.122  0.2816 -0.2951 -0.6576
 5004SOL    HW126474   3.237   0.626   8.130 -0.1432  1.2483  0.5292
 5004SOL    HW226475   3.120   0.566   8.206  0.5603 -2.0867 -1.4450
 5005SOL     OW26476   4.133   3.087   3.585  0.7040  0.2227  0.5492
 5005SOL    HW126477   4.081   3.143   3.643  2.7694  2.0628  0.6249
 5005SOL    HW226478   4.132   3.005   3.635  1.4911  0.0213  0.2274
 5006SOL     OW26479   4.331   2.547  14.563  0.0661 -0.3233 -0.0765
 5006SOL    HW126480   4.414   2.571  14.524 -1.1465  1.6753 -1.4276
 5006SOL    HW226481   4.327   2.452  14.554  0.0839 -0.4189  0.8511
 5007SOL     OW26482   2.619   2.928   5.534 -0.4110  0.0165  0.1726
 5007SOL    HW126483   2.678   2.919   5.459 -1.6205 -2.4832 -0.4643
 5007SOL    HW226484   2.637   2.840   5.567 -1.0471  0.8628  2.7818
 5008SOL     OW26485   3.276   4.214   0.015 -0.0766  1.1047 -0.2590
 5008SOL    HW126486   3.198   4.175  17.671  1.8959 -2.9271 -0.2383
 5008SOL    HW226487   3.231   4.275   0.073 -0.9758 -1.0783  1.3428
 5009SOL     OW26488   1.647   0.941  11.218 -0.7938  0.2372  0.4657
 5009SOL    HW126489   1.704   0.877  11.176  0.8432 -0.0941  3.1943
 5009SOL    HW226490   1.639   1.015  11.158  2.5760 -0.5174 -0.9292
 5010SOL     OW26491   4.543   2.156  16.751 -0.0940 -0.3157  0.1760
 5010SOL    HW126492   4.449   2.172  16.758 -0.2502  0.1454 -3.2363
 5010SOL    HW226493   4.578   2.238  16.716  1.9775  0.0078  2.9996
 5011SOL     OW26494   2.752   0.788  13.448  0.1479  0.8078  0.5917
 5011SOL    HW126495   2.712   0.853  13.390 -0.0501 -1.7518 -2.1861
 5011SOL    HW226496   2.787   0.834  13.524  0.2441  2.2847 -0.3448
 5012SOL     OW26497   0.887   0.182   7.666 -0.2421 -0.3366  0.7232
 5012SOL    HW126498   0.816   0.225   7.715 -0.9437  0.3207 -0.8925
 5012SOL    HW226499   0.851   0.154   7.582 -0.4507  1.8903  0.0750
 5013SOL     OW26500   4.568   4.577   7.069 -0.5829 -0.5320 -0.4130
 5013SOL    HW126501   4.620   4.499   7.085 -1.7303 -1.1318  0.4311
 5013SOL    HW226502   4.536   4.567   6.979  1.6578  0.5499 -1.3213
 5014SOL     OW26503   1.943   3.428   4.097  0.7316  0.5075 -0.1778
 5014SOL    HW126504   1.964   3.400   4.009 -1.5176 -2.9483  0.3875
 5014SOL    HW226505   2.003   3.502   4.102 -1.4711  2.2817  0.0779
 5015SOL     OW26506   1.852   3.768   6.120 -0.2114 -0.3908  0.1531
 5015SOL    HW126507   1.912   3.729   6.057  0.6418 -1.3760  1.5720
 5015SOL    HW226508   1.806   3.830   6.064  1.3213  0.0615 -0.5957
 5016SOL     OW26509   4.308   1.610  12.869 -0.5064 -0.2404 -0.1541
 5016SOL    HW126510   4.343   1.638  12.953  0.2977  0.1047 -0.5976
 5016SOL    HW226511   4.256   1.687  12.846 -2.4295 -1.1315  1.1664
 5017SOL     OW26512   1.231   1.106   8.586  0.6502 -0.1570  0.3333
 5017SOL    HW126513   1.253   1.013   8.583 -1.0992 -0.5280 -1.0923
 5017SOL    HW226514   1.199   1.116   8.496  2.1553  0.1441 -0.1567
 5018SOL     OW26515   0.309   3.381   6.913  0.1201 -0.1755  0.0203
 5018SOL    HW126516   0.292   3.313   6.848  1.4728 -0.2674 -0.2333
 5018SOL    HW226517   0.318   3.328   6.993  1.1186 -1.2287 -0.7893
 5019SOL     OW26518   1.239   1.623   8.250  0.5015 -0.1675  0.4877
 5019SOL    HW126519   1.289   1.630   8.168  0.4745  1.2701  0.5861
 5019SOL    HW226520   1.300   1.656   8.317  1.4293 -1.3400  0.2259
 5020SOL     OW26521   0.043   2.336   2.141 -0.1547  0.6282 -0.3632
 5020SOL    HW126522   0.007   2.420   2.112  1.0301  1.7254  1.3538
 5020SOL    HW226523   4.691   2.278   2.131  1.2324 -1.5334  1.5475
 5021SOL     OW26524   0.432   4.102   8.918 -0.0976  0.7768  0.2151
 5021SOL    HW126525   0.434   4.097   8.822  3.1163 -0.1173  0.3311
 5021SOL    HW226526   0.357   4.047   8.938  0.6045 -0.2640 -0.0187
 5022SOL     OW26527   0.110   1.416  15.763 -0.1501  0.3919 -0.1123
 5022SOL    HW126528   0.079   1.419  15.853 -0.0362  2.8454 -0.1475
 5022SOL    HW226529   0.093   1.503  15.727  1.7536  0.8283  0.0361
 5023SOL     OW26530   3.652   1.781  15.872  0.7335  0.4687  0.8135
 5023SOL    HW126531   3.653   1.874  15.849  1.9818  0.2095 -0.1964
 5023SOL    HW226532   3.574   1.753  15.824  1.0140 -0.4577  0.9023
 5024SOL     OW26533   1.053   4.218   8.410  0.1884  0.0693 -0.3480
 5024SOL    HW126534   1.065   4.195   8.502 -1.1766  2.1024  0.3267
 5024SOL    HW226535   0.958   4.220   8.403  0.3664  2.0265 -2.4013
 5025SOL     OW26536   3.211   2.768   4.307  0.1345  0.0357 -0.4944
 5025SOL    HW126537   3.200   2.860   4.332 -0.6690 -0.4338  0.8533
 5025SOL    HW226538   3.188   2.720   4.386 -1.6934  0.6252 -0.6778
 5026SOL     OW26539   4.622   2.509  10.272 -0.3557 -0.7223  0.0967
 5026SOL    HW126540   4.545   2.566  10.278 -1.0099 -1.3667 -2.3017
 5026SOL    HW226541   4.577   2.429  10.248  0.1699 -0.7890 -0.6569
 5027SOL     OW26542   0.583   2.295   4.137 -0.7674 -0.6417 -0.3046
 5027SOL    HW126543   0.488   2.291   4.148 -0.5176 -1.8742  1.3467
 5027SOL    HW226544   0.592   2.300   4.042 -0.2948 -2.4309 -0.3513
 5028SOL     OW26545   4.575   2.196   3.593  0.0777  0.7408  0.1908
 5028SOL    HW126546   4.596   2.112   3.633  0.0302  1.4737  1.7620
 5028SOL    HW226547   4.494   2.176   3.547  0.5071 -0.0900 -0.1947
 5029SOL     OW26548   0.957   0.126  16.125  0.2538  0.2218 -0.3675
 5029SOL    HW126549   0.997   0.141  16.039  0.7965 -1.1305 -0.3411
 5029SOL    HW226550   0.935   0.219  16.135  1.0654  0.1742  1.9101
 5030SOL     OW26551   4.509   2.535   5.065 -0.0427  0.3172 -0.2594
 5030SOL    HW126552   4.537   2.474   5.133 -0.8255 -0.1476 -0.3650
 5030SOL    HW226553   4.579   2.516   5.002  2.7638  1.8296  2.4196
 5031SOL     OW26554   4.171   4.208   8.137  0.8761 -0.0469 -0.1828
 5031SOL    HW126555   4.180   4.302   8.153 -1.2806 -0.3409  2.6527
 5031SOL    HW226556   4.145   4.178   8.224 -0.5908  0.9995 -0.2615
 5032SOL     OW26557   1.698   1.404   2.628 -0.3774 -0.1976  0.3923
 5032SOL    HW126558   1.779   1.451   2.649 -1.4944  1.5920  0.6536
 5032SOL    HW226559   1.720   1.323   2.674  1.4960 -0.8986 -1.7118
 5033SOL     OW26560   1.710   1.403   3.030 -0.4416  0.3420 -0.0462
 5033SOL    HW126561   1.723   1.350   2.952 -1.8164 -0.7416  0.4774
 5033SOL    HW226562   1.797   1.399   3.071  0.0870  0.1548 -1.1921
 5034SOL     OW26563   2.618   1.713   2.645 -0.2660 -0.0893  0.1030
 5034SOL    HW126564   2.587   1.784   2.590  0.5436  0.4913  0.3965
 5034SOL    HW226565   2.636   1.643   2.582  1.0429 -0.9385  1.3956
 5035SOL     OW26566   2.421   1.196  14.972  0.3394 -0.0638 -0.6421
 5035SOL    HW126567   2.504   1.221  14.931 -0.2046  1.5549 -0.7421
 5035SOL    HW226568   2.440   1.226  15.060  0.8336  1.2244 -1.1878
 5036SOL     OW26569   1.534   1.049   2.725 -0.2892  0.4628 -0.1240
 5036SOL    HW126570   1.464   1.112   2.712 -1.4868 -0.8864 -0.2819
 5036SOL    HW226571   1.558   1.015   2.639  1.0896 -0.2398  0.5187
 5037SOL     OW26572   4.666   3.460  12.186  0.1204  0.2226  0.2419
 5037SOL    HW126573   4.663   3.555  12.184  1.8725  0.3348  3.2769
 5037SOL    HW226574   4.683   3.450  12.280  0.4241  0.1142  0.1750
 5038SOL     OW26575   4.013   3.439  11.306 -0.4935  0.4581 -0.0609
 5038SOL    HW126576   4.087   3.431  11.366 -0.6198 -1.7625 -0.1707
 5038SOL    HW226577   4.054   3.419  11.222  0.1726  0.9361  0.1528
 5039SOL     OW26578   0.218   1.003   8.420  0.1716  0.2202 -0.4689
 5039SOL    HW126579   0.241   0.910   8.429  1.5398  0.2951 -3.2759
 5039SOL    HW226580   0.268   1.027   8.498  0.8975 -0.1933 -0.8066
 5040SOL     OW26581   0.518   3.438   4.206  0.6192  0.2178  0.3001
 5040SOL    HW126582   0.540   3.400   4.121  1.3290  0.9424  0.1537
 5040SOL    HW226583   0.457   3.509   4.184 -1.6771 -1.6636  0.5520
 5041SOL     OW26584   1.654   2.610   5.239  0.5466  0.3213  0.3726
 5041SOL    HW126585   1.646   2.602   5.144  0.9804  3.6459  0.0506
 5041SOL    HW226586   1.715   2.539   5.259  0.1232 -0.9327 -2.7318
 5042SOL     OW26587   0.684   4.020  17.320  0.1495 -0.0627 -0.1443
 5042SOL    HW126588   0.692   3.931  17.286  0.1005 -0.9305  2.1223
 5042SOL    HW226589   0.773   4.050  17.305  0.1334  1.1792  2.2036
 5043SOL     OW26590   4.705   2.713  12.242 -0.0777 -0.1706 -0.0530
 5043SOL    HW126591   0.061   2.683  12.287 -0.8022  1.7328  2.5310
 5043SOL    HW226592   0.003   2.807  12.240  0.2617 -0.2024  1.6294
 5044SOL     OW26593   0.510   2.102  12.120  0.4151  0.5248  0.0252
 5044SOL    HW126594   0.536   2.066  12.204 -2.0303  2.0463  1.4327
 5044SOL    HW226595   0.534   2.194  12.132  0.4851  0.3722  1.0031
 5045SOL     OW26596   2.544   4.653   9.210 -0.2601  0.2299 -0.5801
 5045SOL    HW126597   2.544   4.719   9.141  0.1721  0.2011 -0.6107
 5045SOL    HW226598   2.624   4.604   9.192 -0.3512 -0.0870 -0.1335
 5046SOL     OW26599   3.766   0.445   7.137  0.1474 -0.0790  0.3644
 5046SOL    HW126600   3.829   0.397   7.190 -1.4136 -2.7632 -0.1898
 5046SOL    HW226601   3.717   0.487   7.208 -1.8103  1.6569 -1.9883
 5047SOL     OW26602   0.130   3.202   3.564  0.1474  0.4930  0.0468
 5047SOL    HW126603   0.165   3.143   3.631 -0.4125 -0.2925 -0.3583
 5047SOL    HW226604   0.087   3.269   3.617 -4.2763 -2.2903  0.0049
 5048SOL     OW26605   1.973   1.906  12.106  0.0440 -0.2314  0.0437
 5048SOL    HW126606   2.023   1.845  12.052 -0.2124  0.0635 -0.5261
 5048SOL    HW226607   1.891   1.873  12.142  0.2205  0.2515  0.8950
 5049SOL     OW26608   3.930   3.405   4.519 -0.0724 -0.1060 -0.2265
 5049SOL    HW126609   3.971   3.374   4.438  0.3024 -2.1044  0.7309
 5049SOL    HW226610   3.850   3.446   4.484  0.8293  0.5259 -1.5392
 5050SOL     OW26611   3.084   0.765   3.884  0.6665 -0.5204 -0.0723
 5050SOL    HW126612   3.088   0.718   3.800 -2.2592 -0.6475 -0.1665
 5050SOL    HW226613   3.134   0.707   3.941 -1.3872 -1.8754  0.3421
 5051SOL     OW26614   4.250   2.025   5.730 -0.6083  0.2380  0.8549
 5051SOL    HW126615   4.180   1.969   5.763 -1.4727  0.0382 -1.3438
 5051SOL    HW226616   4.325   1.966   5.728  1.9517  3.5021  0.8303
 5052SOL     OW26617   1.980   2.510  11.706 -0.1290 -0.3981  0.3556
 5052SOL    HW126618   1.971   2.479  11.796 -1.6616 -2.3997 -0.4763
 5052SOL    HW226619   2.019   2.594  11.731 -3.1398  1.3352 -0.8225
 5053SOL     OW26620   1.963   4.282  14.765  0.5387 -0.0992  0.7646
 5053SOL    HW126621   1.901   4.326  14.707  1.8364 -0.1052 -0.6057
 5053SOL    HW226622   2.039   4.335  14.743  0.4081 -0.7655 -1.3275
 5054SOL     OW26623   3.781   2.588  11.760 -0.4542  0.0654 -0.0316
 5054SOL    HW126624   3.751   2.671  11.797 -0.8439 -0.5738  1.0839
 5054SOL    HW226625   3.874   2.611  11.757 -0.6380  0.3305 -4.1165
 5055SOL     OW26626   2.341   1.760   8.930 -0.4876 -0.2268 -0.3565
 5055SOL    HW126627   2.399   1.687   8.950 -1.8667 -1.4636 -0.8960
 5055SOL    HW226628   2.326   1.740   8.838 -2.5045  2.2352 -0.5899
 5056SOL     OW26629   4.184   4.493   0.103 -0.4590  0.0500 -0.8945
 5056SOL    HW126630   4.192   4.427   0.172  3.1990  1.7437  0.3244
 5056SOL    HW226631   4.144   4.453   0.026  0.7677  0.9552 -2.0020
 5057SOL     OW26632   3.092   3.416   2.845 -0.0283  0.4797  0.9159
 5057SOL    HW126633   3.000   3.407   2.823 -0.0312  0.8376  0.7846
 5057SOL    HW226634   3.124   3.329   2.822 -2.0741  0.1704 -0.7401
 5058SOL     OW26635   4.146   4.095   9.373 -0.1948 -0.4865  0.6284
 5058SOL    HW126636   4.068   4.089   9.318  1.2428  0.1697 -1.4871
 5058SOL    HW226637   4.112   4.072   9.460 -1.6656 -1.5548 -0.2355
 5059SOL     OW26638   0.818   1.506   2.875  0.0249  0.3067  0.0357
 5059SOL    HW126639   0.746   1.443   2.867 -0.4852  0.9896 -0.6959
 5059SOL    HW226640   0.875   1.442   2.918 -1.2989 -0.4478  0.6702
 5060SOL     OW26641   0.245   1.348  13.630  0.0126 -0.1226  0.8992
 5060SOL    HW126642   0.298   1.425  13.610 -1.7723  1.3256  1.7232
 5060SOL    HW226643   0.160   1.392  13.626 -0.0048 -0.0111  2.4501
 5061SOL     OW26644   3.165   0.336  13.911  0.3112  0.1978  0.7867
 5061SOL    HW126645   3.239   0.276  13.912  0.0730 -0.1149 -0.2982
 5061SOL    HW226646   3.180   0.380  13.995  0.2395  0.0477  0.8773
 5062SOL     OW26647   3.089   3.240   4.711  0.4846 -0.5108  0.3846
 5062SOL    HW126648   3.179   3.269   4.695 -0.0362  2.2736  2.4693
 5062SOL    HW226649   3.073   3.215   4.620  0.0615  0.1017  0.2947
 5063SOL     OW26650   3.412   1.953   6.411 -0.1653 -0.0947 -0.1728
 5063SOL    HW126651   3.504   1.930   6.404 -0.1757 -0.1299 -0.1946
 5063SOL    HW226652   3.379   1.883   6.467  0.6085  1.2264  1.9260
 5064SOL     OW26653   2.150   1.969   7.739 -0.8425 -0.2885 -0.1413
 5064SOL    HW126654   2.170   2.043   7.796  3.1869 -0.8103 -0.8535
 5064SOL    HW226655   2.058   1.980   7.715  0.0964  0.1455 -3.5885
 5065SOL     OW26656   3.156   3.407  16.615 -0.1913  0.1818 -0.1060
 5065SOL    HW126657   3.223   3.362  16.668 -0.4586 -0.3844 -0.2411
 5065SOL    HW226658   3.160   3.350  16.538  0.9530  1.2759 -0.8500
 5066SOL     OW26659   3.349   2.288  16.466  0.1468 -0.3405 -0.1376
 5066SOL    HW126660   3.424   2.247  16.423 -0.6365 -0.5175 -1.3348
 5066SOL    HW226661   3.336   2.232  16.543 -0.6210 -0.3228 -0.2516
 5067SOL     OW26662   3.788   0.596   4.469  0.3664  0.0585  0.8131
 5067SOL    HW126663   3.707   0.556   4.501 -0.1408 -0.3686 -1.0161
 5067SOL    HW226664   3.848   0.603   4.544  0.5042  1.4862  0.5719
 5068SOL     OW26665   4.404   0.361   8.558  0.4676  0.0613 -0.1604
 5068SOL    HW126666   4.403   0.348   8.652  0.3085 -1.9682 -0.4461
 5068SOL    HW226667   4.396   0.272   8.524  1.3225 -0.8247  1.9648
 5069SOL     OW26668   4.596   4.289  16.621 -0.5677  0.6130 -0.1267
 5069SOL    HW126669   4.626   4.371  16.660  0.9539 -1.1794  2.4751
 5069SOL    HW226670   4.655   4.227  16.664 -2.8293  0.2003  2.3766
 5070SOL     OW26671   3.030   3.243   2.157  0.2387  0.1994 -0.5470
 5070SOL    HW126672   3.081   3.167   2.130  0.3050  0.5510 -1.4120
 5070SOL    HW226673   3.065   3.250   2.245  0.9450 -2.4780 -0.6065
 5071SOL     OW26674   3.440   0.252   8.345 -0.1957 -0.6271  0.2037
 5071SOL    HW126675   3.501   0.183   8.321 -0.6645 -1.0848  0.3185
 5071SOL    HW226676   3.503   0.312   8.385 -1.0276  0.1304  0.3931
 5072SOL     OW26677   1.763   1.218   5.807  0.0401 -0.2205 -0.1214
 5072SOL    HW126678   1.843   1.252   5.768  0.4144 -1.1239 -0.1293
 5072SOL    HW226679   1.786   1.131   5.838 -0.6285 -0.0384  0.8953
 5073SOL     OW26680   0.021   3.465   3.667  0.1613 -0.3504 -0.7916
 5073SOL    HW126681   4.696   3.547   3.679  0.6310 -0.0607 -0.8644
 5073SOL    HW226682   0.112   3.495   3.674  0.1306 -0.1620 -1.2157
 5074SOL     OW26683   3.468   3.298   9.649  0.1862  0.5807 -1.0675
 5074SOL    HW126684   3.537   3.237   9.672 -0.3548  0.7822  1.1591
 5074SOL    HW226685   3.429   3.306   9.736  1.5595  1.6809 -0.5488
 5075SOL     OW26686   1.375   4.388   1.814 -0.3393  0.0336 -0.2390
 5075SOL    HW126687   1.310   4.318   1.814 -1.0914  0.7512  1.8823
 5075SOL    HW226688   1.431   4.348   1.880  0.1690  1.1070 -0.0259
 5076SOL     OW26689   3.402   4.028  15.560  0.4092 -0.6020  0.0151
 5076SOL    HW126690   3.476   4.067  15.513 -0.2474  1.0612  0.3718
 5076SOL    HW226691   3.445   4.012  15.645 -0.0428  0.8942  0.5206
 5077SOL     OW26692   3.262   0.702  16.448  0.5924  0.2685 -0.1441
 5077SOL    HW126693   3.310   0.686  16.528 -0.8932 -0.0505  0.6918
 5077SOL    HW226694   3.195   0.762  16.479  2.1138 -0.1964  4.0212
 5078SOL     OW26695   1.615   1.074   9.692  0.5871 -0.1030 -0.6038
 5078SOL    HW126696   1.555   1.021   9.745 -0.2340  0.5384 -0.8789
 5078SOL    HW226697   1.594   1.164   9.718  2.2219 -0.9607  3.6157
 5079SOL     OW26698   2.922   2.301  16.392 -0.1262 -0.4130 -0.1789
 5079SOL    HW126699   2.906   2.301  16.298 -0.6068 -1.5381 -0.1105
 5079SOL    HW226700   2.936   2.394  16.409 -0.2032 -0.3427 -0.4927
 5080SOL     OW26701   3.049   2.921   6.684  0.2480  0.3820 -0.1668
 5080SOL    HW126702   3.002   2.842   6.659 -2.1722  1.3014  1.4582
 5080SOL    HW226703   3.099   2.936   6.605  2.6022  0.2905  1.2972
 5081SOL     OW26704   3.378   1.667  14.665  0.7751 -0.4906  0.1604
 5081SOL    HW126705   3.356   1.590  14.613 -2.1888 -0.9817  2.1606
 5081SOL    HW226706   3.372   1.628  14.752 -1.1968 -1.2124 -0.2951
 5082SOL     OW26707   3.196   1.045   3.355  0.7637  0.1556 -0.2409
 5082SOL    HW126708   3.127   0.981   3.338 -0.3826  1.3695 -0.1621
 5082SOL    HW226709   3.192   1.055   3.450  1.4511  2.6955 -0.4710
 5083SOL     OW26710   4.567   1.512  11.326  0.6765 -0.3039  0.1664
 5083SOL    HW126711   4.616   1.430  11.328 -0.4999 -0.9850  0.9367
 5083SOL    HW226712   4.634   1.569  11.363  0.7656 -0.0193 -0.4288
 5084SOL     OW26713   3.832   0.802   1.633  0.0719 -0.1824 -0.0962
 5084SOL    HW126714   3.873   0.815   1.548  0.7525  0.8963  0.3857
 5084SOL    HW226715   3.830   0.882   1.685  1.3332 -0.5462  0.5202
 5085SOL     OW26716   0.020   2.405   3.799 -0.3794 -0.1429  0.3183
 5085SOL    HW126717   0.040   2.362   3.716  2.8255  0.1629  0.9438
 5085SOL    HW226718   0.038   2.495   3.771 -3.0674  0.2854  0.0144
 5086SOL     OW26719   3.936   3.444  11.727 -0.3111 -0.0035 -0.0101
 5086SOL    HW126720   3.891   3.366  11.695 -0.3531  0.5187 -1.2235
 5086SOL    HW226721   4.025   3.415  11.743  0.0515  0.7918 -0.5972
 5087SOL     OW26722   2.241   2.523   1.094 -0.2575  0.3528  0.5442
 5087SOL    HW126723   2.147   2.512   1.089 -0.1529 -0.2588  0.0013
 5087SOL    HW226724   2.270   2.470   1.019 -2.9632 -3.5069  2.2663
 5088SOL     OW26725   3.526   3.597   7.964 -0.2180 -0.2400 -0.1397
 5088SOL    HW126726   3.487   3.558   8.042  0.4838 -0.9421 -0.1378
 5088SOL    HW226727   3.498   3.534   7.898 -0.8057  2.0489 -2.0743
 5089SOL     OW26728   3.216   2.314  11.905  0.6746  0.0264  0.2772
 5089SOL    HW126729   3.302   2.353  11.918  0.3874  0.8918 -0.4481
 5089SOL    HW226730   3.175   2.325  11.991 -1.2109  0.4868 -0.6674
 5090SOL     OW26731   1.417   0.157   8.405 -0.0604  0.1194  0.3562
 5090SOL    HW126732   1.479   0.230   8.411 -1.0813  1.0353 -0.1776
 5090SOL    HW226733   1.450   0.091   8.466 -3.2023 -2.7375 -1.0717
 5091SOL     OW26734   1.534   1.932   5.788  0.2585 -0.2825  0.2408
 5091SOL    HW126735   1.515   1.842   5.813 -0.8766 -0.5023 -1.3976
 5091SOL    HW226736   1.622   1.944   5.824  0.4305 -0.3727 -0.1531
 5092SOL     OW26737   1.579   2.185   4.899 -0.6522  0.0932 -0.3369
 5092SOL    HW126738   1.593   2.128   4.824 -0.1351 -1.5303  0.9934
 5092SOL    HW226739   1.571   2.267   4.850  0.0860  0.3754  0.0222
 5093SOL     OW26740   3.674   0.568   5.456 -0.1698  0.0355 -0.0828
 5093SOL    HW126741   3.723   0.647   5.435 -1.4787  0.5813 -1.1141
 5093SOL    HW226742   3.737   0.513   5.504  0.8373  0.3713 -1.0280
 5094SOL     OW26743   4.012   0.250  12.664  0.6212  0.6363  0.4331
 5094SOL    HW126744   4.008   0.179  12.600  0.5320  1.1395 -0.1208
 5094SOL    HW226745   3.964   0.201  12.732  3.1792 -0.8340  1.1513
 5095SOL     OW26746   0.188   0.129   9.589  0.7639 -0.0289  0.0828
 5095SOL    HW126747   0.103   0.171   9.597 -0.5013 -2.1761 -1.8256
 5095SOL    HW226748   0.163   0.037   9.580  1.0640 -0.0751 -0.3197
 5096SOL     OW26749   4.555   2.207   7.680  0.3005 -0.2808 -0.2937
 5096SOL    HW126750   4.530   2.136   7.620  1.2760  0.1004 -1.1473
 5096SOL    HW226751   4.642   2.219   7.642  1.3620  2.1456  2.8945
 5097SOL     OW26752   2.310   3.671   7.151  0.0676  0.5281 -0.0633
 5097SOL    HW126753   2.348   3.666   7.239  0.9255 -0.8991 -0.5349
 5097SOL    HW226754   2.361   3.746   7.121  1.2767 -0.7686 -1.2329
 5098SOL     OW26755   0.720   3.565   8.494 -0.4578 -0.0863 -0.2595
 5098SOL    HW126756   0.724   3.547   8.400 -3.5188 -1.3288 -0.1492
 5098SOL    HW226757   0.698   3.476   8.521  0.1422 -0.3216 -0.5331
 5099SOL     OW26758   2.913   1.529   5.534 -0.3687 -0.2833  0.2252
 5099SOL    HW126759   2.996   1.554   5.574 -0.1169 -1.4381  0.4149
 5099SOL    HW226760   2.887   1.462   5.597  0.9893 -1.3006 -0.2871
 5100SOL     OW26761   1.234   3.369   1.225 -0.2220  0.0345 -0.4352
 5100SOL    HW126762   1.302   3.386   1.291 -1.4637  0.7680  0.6542
 5100SOL    HW226763   1.281   3.400   1.147 -0.2957 -3.7221 -1.9285
 5101SOL     OW26764   0.210   4.340   1.855 -0.1781 -0.0687  0.2095
 5101SOL    HW126765   0.144   4.297   1.800  0.9591 -3.6275  1.6033
 5101SOL    HW226766   0.282   4.342   1.793  1.0158  1.0025  1.6273
 5102SOL     OW26767   1.648   1.683  17.205  0.5372  0.2671 -0.1284
 5102SOL    HW126768   1.722   1.693  17.266  0.1094  2.0754  0.1021
 5102SOL    HW226769   1.677   1.750  17.144  0.8844 -2.1040 -2.5627
 5103SOL     OW26770   2.827   4.697   3.341 -0.0630  0.8856  0.4722
 5103SOL    HW126771   2.796   4.625   3.286 -0.5882  1.6690 -0.2535
 5103SOL    HW226772   2.863   4.649   3.415  0.9401 -1.8401 -1.7935
 5104SOL     OW26773   0.893   1.102   4.034  0.3021 -0.0333  0.2694
 5104SOL    HW126774   0.843   1.175   4.071  1.1848  0.6508  0.1317
 5104SOL    HW226775   0.901   1.042   4.107 -0.1055  0.4879  0.7453
 5105SOL     OW26776   2.690   0.951   5.543  0.2303 -0.0259  0.3226
 5105SOL    HW126777   2.604   0.978   5.510 -0.5602 -1.8110  0.9111
 5105SOL    HW226778   2.724   1.038   5.561  2.0562 -0.5381 -0.6314
 5106SOL     OW26779   1.505   3.778   1.037 -0.1120  0.0120 -0.0650
 5106SOL    HW126780   1.476   3.793   1.127 -1.4669  2.8499 -0.9948
 5106SOL    HW226781   1.496   3.683   1.030 -0.9368  0.2020 -1.5788
 5107SOL     OW26782   0.389   2.166   7.024  0.0605  0.5390 -0.5362
 5107SOL    HW126783   0.423   2.236   7.080  1.2009  0.0165 -0.5693
 5107SOL    HW226784   0.296   2.166   7.045  0.4500 -0.8207  1.1749
 5108SOL     OW26785   0.478   2.367   3.607 -0.0609 -0.5345  0.3155
 5108SOL    HW126786   0.517   2.300   3.552  1.1078  1.8500 -1.7530
 5108SOL    HW226787   0.385   2.344   3.598  0.2203 -1.7761  0.6211
 5109SOL     OW26788   0.571   1.183   9.435 -0.2823  0.1344  0.4893
 5109SOL    HW126789   0.611   1.243   9.498 -1.3242 -1.1648  2.3722
 5109SOL    HW226790   0.567   1.104   9.489  0.3716  0.7571  1.4532
 5110SOL     OW26791   3.829   0.796   7.817 -0.2385  0.0251 -0.3183
 5110SOL    HW126792   3.915   0.794   7.774  1.1215  0.6257  2.3302
 5110SOL    HW226793   3.836   0.718   7.873 -1.0120  3.0525  4.0497
 5111SOL     OW26794   4.080   3.790   4.499  0.2783  0.1698 -0.0138
 5111SOL    HW126795   4.115   3.859   4.444 -1.7527 -0.8887 -2.6173
 5111SOL    HW226796   3.993   3.780   4.460 -0.5916  1.0877  1.6679
 5112SOL     OW26797   3.105   4.381   0.190 -0.1181  0.2367 -0.2628
 5112SOL    HW126798   3.152   4.381   0.273  1.8175 -0.8557 -1.3803
 5112SOL    HW226799   3.041   4.313   0.211  1.3027 -0.1845  2.6467
 5113SOL     OW26800   3.747   4.435   0.255  0.1540  0.1559 -0.4228
 5113SOL    HW126801   3.652   4.445   0.243 -0.0246 -1.7873 -0.6680
 5113SOL    HW226802   3.766   4.506   0.194  3.1143 -2.0210 -2.0097
 5114SOL     OW26803   1.926   0.109   2.961 -0.2180  0.3154  0.2620
 5114SOL    HW126804   1.902   0.144   3.047 -0.1434 -0.4426  0.5900
 5114SOL    HW226805   1.990   0.178   2.943  0.6793 -1.1987 -2.3489
 5115SOL     OW26806   4.501   4.042   7.492 -0.5096 -0.1527 -0.2005
 5115SOL    HW126807   4.567   4.070   7.429  0.5622  0.5120  1.2118
 5115SOL    HW226808   4.440   4.115   7.495  0.7459  0.9530 -1.7222
 5116SOL     OW26809   3.534   3.923  15.239 -0.3630 -0.4276  0.0359
 5116SOL    HW126810   3.579   3.982  15.178  1.2599  0.1560  1.7817
 5116SOL    HW226811   3.515   3.979  15.315  0.8496 -2.2768  1.6984
 5117SOL     OW26812   2.062   1.880  16.050 -0.4789  0.5689 -0.3552
 5117SOL    HW126813   2.079   1.794  16.013  0.3311  0.4409  0.3046
 5117SOL    HW226814   2.108   1.879  16.134  0.3577  3.3233 -0.7772
 5118SOL     OW26815   1.907   4.392  13.708 -0.2728 -0.3933 -0.5565
 5118SOL    HW126816   1.925   4.432  13.623  0.4594 -1.5979 -0.9674
 5118SOL    HW226817   1.986   4.423  13.752 -0.5409 -0.2210 -0.1984
 5119SOL     OW26818   2.733   4.636   1.082 -0.1117  0.2053 -0.5658
 5119SOL    HW126819   2.638   4.632   1.071 -0.4045 -1.0250  2.5093
 5119SOL    HW226820   2.758   4.554   1.038  2.3026  0.5354  0.1796
 5120SOL     OW26821   0.499   0.548  13.455 -0.1225 -0.1152  0.7771
 5120SOL    HW126822   0.502   0.506  13.541  0.9240  0.1085  0.8532
 5120SOL    HW226823   0.444   0.488  13.405 -0.6752  0.5594  0.5610
 5121SOL     OW26824   1.440   3.354   1.375  0.8845  0.0240  0.1413
 5121SOL    HW126825   1.516   3.393   1.417 -0.5083  0.2453  2.4952
 5121SOL    HW226826   1.474   3.264   1.373 -1.8029 -0.9662 -1.2201
 5122SOL     OW26827   4.367   1.825   2.407 -0.2295  0.1864  0.3741
 5122SOL    HW126828   4.366   1.771   2.486  2.8356 -0.2631  0.1335
 5122SOL    HW226829   4.316   1.785   2.338  3.1791 -0.0536 -2.0166
 5123SOL     OW26830   2.554   3.753  15.517 -0.2823  0.5968  0.1774
 5123SOL    HW126831   2.547   3.688  15.587  1.7158 -0.3441 -0.5015
 5123SOL    HW226832   2.499   3.826  15.544  1.7339  1.6348  1.4004
 5124SOL     OW26833   4.561   1.930  17.118  0.4023 -0.2924  0.0221
 5124SOL    HW126834   4.588   1.906  17.207 -0.5341 -2.6487 -0.3221
 5124SOL    HW226835   4.519   2.012  17.144 -0.8487 -0.5127 -1.3553
 5125SOL     OW26836   2.763   4.129  17.487 -0.3753  0.4154  0.3465
 5125SOL    HW126837   2.816   4.121  17.566  0.3242  2.3929  0.0617
 5125SOL    HW226838   2.679   4.098  17.519  1.2607 -2.0257  2.3457
 5126SOL     OW26839   1.684   1.497   5.748 -0.1604 -0.0975 -0.1801
 5126SOL    HW126840   1.758   1.443   5.777 -1.0502 -2.7777 -2.8940
 5126SOL    HW226841   1.732   1.539   5.676  0.5195 -1.3317 -0.4444
 5127SOL     OW26842   1.377   3.487   4.079 -0.3169  0.3789  0.2178
 5127SOL    HW126843   1.346   3.421   4.141  1.4963 -1.2843 -0.6381
 5127SOL    HW226844   1.445   3.438   4.033  0.7779  0.1876  2.0362
 5128SOL     OW26845   1.301   2.487   8.835  0.5723  0.3956 -0.2828
 5128SOL    HW126846   1.336   2.403   8.806 -0.2380 -0.2549  0.5861
 5128SOL    HW226847   1.354   2.497   8.914 -1.1583  2.0019  0.6720
 5129SOL     OW26848   0.143   3.414   0.468 -0.1327  0.0727 -0.2658
 5129SOL    HW126849   0.155   3.437   0.560  0.8101 -2.8946  0.3283
 5129SOL    HW226850   0.057   3.375   0.487 -0.1658  1.3338  2.1120
 5130SOL     OW26851   2.884   0.823   5.311 -0.1346 -0.5410  0.2969
 5130SOL    HW126852   2.933   0.750   5.349  2.4945  0.9254 -0.2605
 5130SOL    HW226853   2.847   0.862   5.391  0.7999 -0.6677  0.7887
 5131SOL     OW26854   4.632   1.045   0.070  0.0372 -0.5385 -0.1127
 5131SOL    HW126855   4.579   0.966   0.064  0.4681 -0.9800  1.9117
 5131SOL    HW226856   4.716   1.006   0.094  0.8545  1.1902 -0.1832
 5132SOL     OW26857   1.005   0.383   0.889 -0.1504 -0.0713  0.1401
 5132SOL    HW126858   1.056   0.313   0.847 -1.8722  0.5830 -3.0048
 5132SOL    HW226859   0.930   0.336   0.924  0.1530 -1.3688 -0.9409
 5133SOL     OW26860   2.402   0.390  17.640  0.0853  0.5049  0.3200
 5133SOL    HW126861   2.383   0.337  17.562  0.2084  1.2235 -0.1981
 5133SOL    HW226862   2.489   0.420  17.614  0.3806 -1.0915 -0.5840
 5134SOL     OW26863   0.298   3.016  13.232  0.0854 -0.2089 -0.2713
 5134SOL    HW126864   0.211   3.040  13.265 -0.3434  0.3068 -1.7863
 5134SOL    HW226865   0.287   3.066  13.152  0.3002  0.3267  0.0364
 5135SOL     OW26866   4.451   2.675   9.737  0.2497 -0.1215 -0.4729
 5135SOL    HW126867   4.429   2.629   9.818  1.1842 -1.9065 -1.2412
 5135SOL    HW226868   4.364   2.711   9.720 -0.0773 -1.4508 -1.5857
 5136SOL     OW26869   4.489   0.463   2.802 -0.3978  0.2373 -0.2945
 5136SOL    HW126870   4.563   0.402   2.798 -1.3877 -1.0005  0.2650
 5136SOL    HW226871   4.439   0.440   2.724 -1.5210  2.0383 -0.1161
 5137SOL     OW26872   3.004   2.736   7.251 -0.0603 -0.3810  0.1065
 5137SOL    HW126873   3.000   2.784   7.334 -0.2089 -0.5052  0.1726
 5137SOL    HW226874   3.074   2.671   7.264 -1.1610 -1.7614 -0.9316
 5138SOL     OW26875   1.604   0.075   7.266  0.2477  0.2703 -0.5991
 5138SOL    HW126876   1.518   0.098   7.301  0.3058 -1.9735  1.0132
 5138SOL    HW226877   1.655   0.156   7.260  0.9233 -0.1258 -0.2569
 5139SOL     OW26878   0.398   2.415   1.841  0.1112  0.3666 -0.0287
 5139SOL    HW126879   0.311   2.376   1.835  0.4169 -0.3326  0.0166
 5139SOL    HW226880   0.442   2.332   1.821 -3.0086 -1.0128 -1.0818
 5140SOL     OW26881   2.049   0.230   4.078 -0.0341  0.5256  0.4899
 5140SOL    HW126882   2.052   0.295   4.148  3.1878  1.9075 -0.9462
 5140SOL    HW226883   2.013   0.287   4.009 -0.8738  0.4160  0.8292
 5141SOL     OW26884   1.255   0.048   4.783 -0.1111 -0.1666 -0.2682
 5141SOL    HW126885   1.300   0.128   4.811 -0.2674 -0.4206  0.7372
 5141SOL    HW226886   1.166   0.076   4.805 -0.2799 -1.8723  1.2635
 5142SOL     OW26887   4.409   3.672  11.741 -0.2050  0.0564  0.5320
 5142SOL    HW126888   4.389   3.612  11.670  0.2493  1.0932 -0.4850
 5142SOL    HW226889   4.418   3.614  11.816 -2.8813  0.1814  0.9550
 5143SOL     OW26890   3.521   1.067   8.281 -0.3700 -0.4786 -0.2879
 5143SOL    HW126891   3.560   1.154   8.290  2.7942 -1.7566 -1.7501
 5143SOL    HW226892   3.443   1.078   8.336 -0.5186 -0.0300 -0.5903
 5144SOL     OW26893   0.639   4.120  11.350 -0.2327  0.4862  0.2483
 5144SOL    HW126894   0.601   4.205  11.328  2.6947  1.1146 -2.3203
 5144SOL    HW226895   0.594   4.110  11.434 -1.5616 -1.5102 -0.7133
 5145SOL     OW26896   1.553   3.496   7.928  0.5097  0.4097 -0.3027
 5145SOL    HW126897   1.547   3.401   7.941  1.3874  0.0732 -2.3568
 5145SOL    HW226898   1.538   3.501   7.834  0.6997 -0.2037 -0.3655
 5146SOL     OW26899   0.336   4.366   8.332 -0.2512  0.1727  0.0851
 5146SOL    HW126900   0.272   4.426   8.368  0.2036  0.2730  0.7208
 5146SOL    HW226901   0.276   4.294   8.312  0.2024 -0.5951  1.5079
 5147SOL     OW26902   1.781   4.421  14.589  0.0122 -0.2345 -0.2420
 5147SOL    HW126903   1.699   4.403  14.634 -0.1852 -0.5085 -0.7049
 5147SOL    HW226904   1.762   4.427  14.495 -2.6551  2.8122  0.4694
 5148SOL     OW26905   3.213   4.523  11.565 -0.1523 -0.0197  0.3421
 5148SOL    HW126906   3.284   4.460  11.577 -0.7181 -0.7845 -0.3095
 5148SOL    HW226907   3.143   4.483  11.616 -0.0219 -0.6338  0.0383
 5149SOL     OW26908   1.562   2.632   7.928 -0.5699 -0.0222 -0.5072
 5149SOL    HW126909   1.503   2.681   7.986  0.7696 -1.0902  1.7644
 5149SOL    HW226910   1.518   2.616   7.845  0.9979 -1.3870 -1.0820
 5150SOL     OW26911   4.303   4.351   2.860 -0.1749  0.3936 -0.3302
 5150SOL    HW126912   4.296   4.284   2.928  0.8923  0.6024 -0.0160
 5150SOL    HW226913   4.212   4.361   2.832  0.3544  0.9338 -1.8692
 5151SOL     OW26914   3.816   4.306   9.652 -0.0377 -0.2724  0.0868
 5151SOL    HW126915   3.744   4.248   9.676 -1.6437  0.9866 -1.7086
 5151SOL    HW226916   3.882   4.278   9.715  0.3319 -0.6016 -0.4495
 5152SOL     OW26917   2.996   1.149   4.927 -0.0471 -0.2905  0.5196
 5152SOL    HW126918   3.066   1.183   4.872  1.0023  0.4004  2.2924
 5152SOL    HW226919   2.925   1.120   4.869  0.0701 -1.5655  1.0134
 5153SOL     OW26920   3.805   4.220   0.100  0.6544 -0.1703  0.4214
 5153SOL    HW126921   3.781   4.289   0.161 -0.0730  1.1564 -1.3595
 5153SOL    HW226922   3.725   4.211   0.049  1.1815  0.7932 -0.5613
 5154SOL     OW26923   3.412   3.177  17.020  0.2122 -0.4379  0.5642
 5154SOL    HW126924   3.447   3.099  16.978 -0.3371 -0.5348  0.2883
 5154SOL    HW226925   3.445   3.187  17.110 -1.1397 -1.2030  1.1427
 5155SOL     OW26926   3.463   1.665   2.710 -0.9036 -0.5366  0.0808
 5155SOL    HW126927   3.483   1.607   2.784 -2.2027 -1.7128 -0.4889
 5155SOL    HW226928   3.471   1.612   2.632 -1.3773  0.0463 -0.3684
 5156SOL     OW26929   0.286   3.168   7.160  0.3996 -0.2958 -0.1894
 5156SOL    HW126930   0.199   3.153   7.122 -0.9029  0.9620  2.2647
 5156SOL    HW226931   0.259   3.160   7.252  0.5208 -1.0874 -0.2163
 5157SOL     OW26932   3.016   0.923   5.965  0.0307  0.3990 -0.1227
 5157SOL    HW126933   3.081   0.955   5.902  1.4126 -1.0027  0.5808
 5157SOL    HW226934   2.934   0.948   5.924 -0.3690 -0.5687  0.0697
 5158SOL     OW26935   3.415   2.082   4.526  0.1282  0.7656 -0.3507
 5158SOL    HW126936   3.327   2.118   4.529 -0.4340 -0.4639 -2.0098
 5158SOL    HW226937   3.458   2.148   4.471 -0.3041  0.1807 -1.3820
 5159SOL     OW26938   0.934   0.903   3.353  0.4243 -0.2172 -0.3684
 5159SOL    HW126939   0.965   0.963   3.421  0.4916  0.6224 -1.1532
 5159SOL    HW226940   0.854   0.874   3.397  1.1621 -1.2588  0.2662
 5160SOL     OW26941   3.626   4.358   6.550  0.2252  0.1241  0.2290
 5160SOL    HW126942   3.593   4.377   6.638 -0.5079 -0.3990  0.0610
 5160SOL    HW226943   3.643   4.442   6.506  3.4830 -0.1173  0.9886
 5161SOL     OW26944   0.363   1.337  15.715  0.3628 -0.3750 -0.2785
 5161SOL    HW126945   0.346   1.338  15.621  1.3936  0.6313 -0.4560
 5161SOL    HW226946   0.274   1.365  15.737  0.5202 -0.0977 -0.0030
 5162SOL     OW26947   3.719   3.498   3.339 -0.0357  0.4797 -0.2212
 5162SOL    HW126948   3.728   3.551   3.418  0.0040 -0.3801  0.3503
 5162SOL    HW226949   3.681   3.566   3.282 -0.7293  0.4873  0.2533
 5163SOL     OW26950   1.716   2.295   1.368  0.3992 -0.1842  0.3497
 5163SOL    HW126951   1.795   2.346   1.385 -1.2982  2.8817 -1.1381
 5163SOL    HW226952   1.698   2.284   1.275  0.5806  1.7585  0.1021
 5164SOL     OW26953   4.639   1.890   8.521  0.3323 -0.5730  0.2888
 5164SOL    HW126954   4.687   1.966   8.555 -1.4061 -0.0014  1.4321
 5164SOL    HW226955   4.554   1.932   8.511  0.8576 -0.0633 -2.0135
 5165SOL     OW26956   0.479   2.950   9.469  0.4719 -1.1488 -0.7593
 5165SOL    HW126957   0.400   3.003   9.478  0.1306 -1.1049 -3.8520
 5165SOL    HW226958   0.449   2.862   9.493  0.1028 -0.2229  2.1757
 5166SOL     OW26959   0.984   3.438  11.153  0.2539  0.3839  0.1415
 5166SOL    HW126960   0.990   3.398  11.240  2.9519  0.5272  0.0367
 5166SOL    HW226961   0.892   3.464  11.154 -0.2278 -1.3968  3.0419
 5167SOL     OW26962   2.496   0.313  14.872  0.1745 -0.4301  0.3054
 5167SOL    HW126963   2.589   0.319  14.892  0.2653 -0.4920 -0.1046
 5167SOL    HW226964   2.492   0.278  14.783  1.4352  0.2498 -0.0251
 5168SOL     OW26965   1.209   1.768   2.368 -0.2881  0.1739 -0.1580
 5168SOL    HW126966   1.244   1.833   2.307 -1.0448 -0.2330 -1.0361
 5168SOL    HW226967   1.118   1.787   2.347 -0.3869  0.8939  0.9455
 5169SOL     OW26968   1.741   3.452   5.423  0.0816  0.5851 -0.5523
 5169SOL    HW126969   1.759   3.360   5.444  0.3056  0.1056 -2.8316
 5169SOL    HW226970   1.685   3.484   5.494 -1.2732 -0.6455 -1.0578
 5170SOL     OW26971   1.386   2.307   1.669  0.4559 -0.5502 -0.0839
 5170SOL    HW126972   1.322   2.256   1.718 -0.9804 -0.7658 -2.2274
 5170SOL    HW226973   1.454   2.316   1.737 -0.1109 -1.4887  0.5927
 5171SOL     OW26974   3.364   3.643   5.844  0.0004 -0.2411  0.0014
 5171SOL    HW126975   3.419   3.566   5.856 -2.2193 -1.8708 -0.2666
 5171SOL    HW226976   3.279   3.617   5.809 -0.5304 -0.1212  1.1976
 5172SOL     OW26977   2.793   1.540   1.346  0.1633  0.0621  0.4162
 5172SOL    HW126978   2.774   1.488   1.267  2.9192  0.1961 -0.3305
 5172SOL    HW226979   2.887   1.550   1.356 -0.2588  3.0064  1.3741
 5173SOL     OW26980   1.093   0.185   6.678  0.1154 -0.1507 -0.5309
 5173SOL    HW126981   1.064   0.094   6.666  0.8347 -0.3053 -1.1312
 5173SOL    HW226982   1.088   0.191   6.773 -0.8356 -0.5833 -0.5484
 5174SOL     OW26983   0.649   1.069  12.812 -0.0244  0.0542  0.2179
 5174SOL    HW126984   0.645   0.976  12.834 -1.3511  0.3167  1.0587
 5174SOL    HW226985   0.733   1.076  12.766 -0.4802 -2.0146 -0.9258
 5175SOL     OW26986   3.032   4.610  15.171  0.0615 -0.6795 -0.2166
 5175SOL    HW126987   3.074   4.684  15.215 -3.1166  1.3387 -0.5654
 5175SOL    HW226988   3.106   4.552  15.154  1.5121  1.2379 -0.4307
 5176SOL     OW26989   2.256   0.069  14.806 -0.3386  0.6545 -0.1930
 5176SOL    HW126990   2.195   0.081  14.879  1.2085 -1.4873  1.4520
 5176SOL    HW226991   2.190   0.067  14.737 -1.3055 -0.3008  0.7447
 5177SOL     OW26992   0.787   2.803  14.482 -0.2268 -0.6652  0.2046
 5177SOL    HW126993   0.736   2.880  14.457  1.5970  0.2282 -0.7752
 5177SOL    HW226994   0.713   2.743  14.494 -2.0614  1.7486  0.8443
 5178SOL     OW26995   2.025   2.961   1.560 -0.5224  0.3238 -0.6672
 5178SOL    HW126996   2.008   3.007   1.477  0.6893  1.3550 -0.3389
 5178SOL    HW226997   2.055   3.037   1.609 -0.8658 -1.0508  1.6497
 5179SOL     OW26998   1.197   3.888   5.237  0.3839  0.1690  0.0878
 5179SOL    HW126999   1.135   3.869   5.166  0.2247  0.3582  0.1749
 5179SOL    HW227000   1.274   3.838   5.210 -0.6045 -1.0262 -0.5179
 5180SOL     OW27001   3.430   4.535  17.619 -0.3228  0.4890 -0.1423
 5180SOL    HW127002   3.451   4.468  17.553 -1.7566  1.1688 -1.2902
 5180SOL    HW227003   3.339   4.546  17.591 -1.0334 -0.1263  1.9129
 5181SOL     OW27004   3.210   1.107  11.784  0.1046  0.0206 -0.3641
 5181SOL    HW127005   3.146   1.136  11.849  0.4534 -2.5446  1.0887
 5181SOL    HW227006   3.284   1.067  11.829  1.5981 -0.4988 -3.2786
 5182SOL     OW27007   1.794   4.569   1.823 -0.7316  0.1185  0.6646
 5182SOL    HW127008   1.834   4.493   1.781  0.5867  0.0246  2.1236
 5182SOL    HW227009   1.705   4.563   1.787 -0.2571 -1.9800 -0.1466
 5183SOL     OW27010   0.766   0.577   4.463  0.1356 -0.3140  0.2821
 5183SOL    HW127011   0.846   0.575   4.516 -0.5811 -0.2004  1.3633
 5183SOL    HW227012   0.783   0.501   4.407  4.0255  0.3630  0.5148
 5184SOL     OW27013   1.383   2.400   5.145 -0.1826  0.0353 -0.2845
 5184SOL    HW127014   1.422   2.316   5.167  0.1578  0.7526  1.8187
 5184SOL    HW227015   1.339   2.413   5.229  0.5262  0.5065  0.0133
 5185SOL     OW27016   1.246   3.619   4.729  0.5310 -0.1069 -0.0925
 5185SOL    HW127017   1.285   3.546   4.681  1.7763  1.5757 -1.6170
 5185SOL    HW227018   1.281   3.690   4.677  0.8622  1.1109  1.7926
 5186SOL     OW27019   3.127   0.301  11.246 -0.1503 -0.0865 -0.6156
 5186SOL    HW127020   3.158   0.283  11.334  0.0155 -0.5828 -0.7765
 5186SOL    HW227021   3.098   0.392  11.243 -1.9379 -0.6384 -0.0847
 5187SOL     OW27022   1.152   1.427   9.251  0.2474  0.1848  0.4010
 5187SOL    HW127023   1.222   1.367   9.225  0.3487  0.3221  0.3549
 5187SOL    HW227024   1.117   1.441   9.163  0.2138 -1.0411  0.2180
 5188SOL     OW27025   3.460   0.230   4.585  0.6524  0.0506  0.0216
 5188SOL    HW127026   3.367   0.247   4.600  0.4427 -1.1893  0.1493
 5188SOL    HW227027   3.472   0.139   4.557 -0.0966  0.2983 -1.0720
 5189SOL     OW27028   3.089   3.767   6.520 -0.8411  0.0148 -0.0223
 5189SOL    HW127029   3.159   3.766   6.453 -0.2207 -1.1582  0.6384
 5189SOL    HW227030   3.092   3.673   6.540  1.0050 -0.3879 -2.0641
 5190SOL     OW27031   1.290   3.270   5.337  0.3177 -0.2503  0.0443
 5190SOL    HW127032   1.357   3.282   5.405 -1.4517 -0.3329  1.8188
 5190SOL    HW227033   1.219   3.323   5.374 -0.6596  0.2699 -2.5931
 5191SOL     OW27034   4.437   3.130   8.769 -0.3351 -0.2503  0.1328
 5191SOL    HW127035   4.428   3.176   8.853 -0.1521 -1.7063  0.9413
 5191SOL    HW227036   4.493   3.189   8.719 -0.3128 -0.7652 -0.4473
 5192SOL     OW27037   0.695   2.258   7.045  0.4300 -0.2460  0.4183
 5192SOL    HW127038   0.636   2.256   6.970 -1.4972 -0.1525  1.9216
 5192SOL    HW227039   0.665   2.181   7.095 -1.4917 -0.2929 -0.8178
 5193SOL     OW27040   4.250   0.505   5.706 -0.0425  0.0225  0.2024
 5193SOL    HW127041   4.335   0.486   5.665 -0.3368 -0.6485 -0.1107
 5193SOL    HW227042   4.262   0.458   5.788 -3.5987  1.1012  1.3394
 5194SOL     OW27043   4.234   2.077   7.325  0.0422  0.4426 -0.3591
 5194SOL    HW127044   4.173   2.003   7.318  0.0118  0.4581 -0.2658
 5194SOL    HW227045   4.318   2.039   7.350 -0.0038  1.2277  0.9878
 5195SOL     OW27046   3.452   2.144   3.775  0.0521 -0.0656  0.0618
 5195SOL    HW127047   3.505   2.095   3.838 -0.4995 -2.1820 -1.1153
 5195SOL    HW227048   3.480   2.235   3.787  1.6116 -0.9534  3.0819
 5196SOL     OW27049   2.723   3.491   5.180  0.0119  0.3687  0.2529
 5196SOL    HW127050   2.751   3.544   5.255  2.0927  0.4826 -0.6011
 5196SOL    HW227051   2.809   3.454   5.159 -0.4926 -0.1171 -0.9751
 5197SOL     OW27052   1.670   0.369  16.793  0.0342  0.1950  0.0344
 5197SOL    HW127053   1.620   0.327  16.723 -0.4398  2.7374 -1.1337
 5197SOL    HW227054   1.656   0.309  16.867  0.3951 -1.7046 -1.4294
 5198SOL     OW27055   4.015   1.656  10.163 -0.0310 -0.2347 -0.2574
 5198SOL    HW127056   4.073   1.598  10.113 -0.1868 -0.9077  0.3463
 5198SOL    HW227057   3.963   1.692  10.090  1.0404 -0.1681 -0.9961
 5199SOL     OW27058   0.906   0.414   4.266  0.4375 -0.4235  0.8197
 5199SOL    HW127059   0.881   0.356   4.194  0.5052  0.0603  0.4120
 5199SOL    HW227060   1.000   0.405   4.281  0.6603 -0.5097 -0.5994
 5200SOL     OW27061   3.793   0.205  14.623 -0.3897  0.1151 -0.4408
 5200SOL    HW127062   3.869   0.260  14.601 -0.4942 -0.1831 -1.5092
 5200SOL    HW227063   3.754   0.261  14.690 -0.6088  1.1065 -1.4007
 5201SOL     OW27064   2.104   0.569   2.755  0.2256  0.5195 -0.0423
 5201SOL    HW127065   2.012   0.582   2.732  0.5551  1.5783 -0.7474
 5201SOL    HW227066   2.144   0.582   2.669  0.4239  0.9236  0.1129
 5202SOL     OW27067   3.444   4.359   8.532 -0.1682 -0.3384 -0.0982
 5202SOL    HW127068   3.364   4.313   8.506  0.0620 -0.5984 -0.3457
 5202SOL    HW227069   3.465   4.422   8.463 -1.2716  0.6660  0.4868
 5203SOL     OW27070   4.173   4.027   4.990 -0.6189  0.5899  0.2684
 5203SOL    HW127071   4.119   3.996   4.916 -0.8693  0.3059  0.5677
 5203SOL    HW227072   4.240   4.077   4.943 -0.8425 -0.1097 -0.8063
 5204SOL     OW27073   4.106   0.721   4.243  0.3706 -0.1589  0.1452
 5204SOL    HW127074   4.184   0.679   4.206 -0.4657 -1.1254 -0.5326
 5204SOL    HW227075   4.144   0.790   4.297 -1.3258 -0.6900  2.0358
 5205SOL     OW27076   2.853   4.092   5.671  0.2682 -0.1906 -0.2776
 5205SOL    HW127077   2.774   4.049   5.636  1.3370 -2.4146  0.0342
 5205SOL    HW227078   2.824   4.144   5.746 -0.4879  0.4461 -1.0122
 5206SOL     OW27079   0.616   2.259  15.821  0.8162 -0.0899  0.9739
 5206SOL    HW127080   0.663   2.241  15.740 -0.5378 -1.5890  0.5308
 5206SOL    HW227081   0.683   2.295  15.879  2.9723 -1.2493 -0.8148
 5207SOL     OW27082   0.191   1.589   5.934  0.3080  0.1489  0.4354
 5207SOL    HW127083   0.154   1.602   6.021  1.1240 -0.3454  0.8556
 5207SOL    HW227084   0.237   1.506   5.943 -1.2036 -0.9291 -1.8669
 5208SOL     OW27085   3.708   2.360  14.489  0.3339 -0.0901  0.6315
 5208SOL    HW127086   3.781   2.301  14.468  0.5083  1.1812 -2.3201
 5208SOL    HW227087   3.644   2.316  14.433  0.6886 -0.9948  0.9395
 5209SOL     OW27088   0.812   3.850   9.765  0.1442  0.4029 -0.0930
 5209SOL    HW127089   0.724   3.881   9.787  0.8605  2.3624  0.0334
 5209SOL    HW227090   0.791   3.764   9.730  0.8868  0.4769 -0.7384
 5210SOL     OW27091   1.811   4.528   7.030 -0.0864  0.0670  0.6846
 5210SOL    HW127092   1.862   4.552   6.953 -0.1599  1.4477  1.0771
 5210SOL    HW227093   1.870   4.467   7.075 -2.0369 -1.3313  1.3932
 5211SOL     OW27094   2.719   4.679   8.479  0.1631 -0.2248 -0.0581
 5211SOL    HW127095   2.640   4.655   8.432  1.6157 -0.0675 -2.5645
 5211SOL    HW227096   2.745   0.026   8.419 -0.9096 -0.2352 -0.5307
 5212SOL     OW27097   1.713   3.541  15.609 -0.0860 -0.0586  0.2717
 5212SOL    HW127098   1.622   3.536  15.580 -0.3968  2.5886  0.8118
 5212SOL    HW227099   1.716   3.493  15.692  2.0840 -1.2355 -0.4689
 5213SOL     OW27100   0.464   2.605  12.802 -0.3752 -0.2021  0.2318
 5213SOL    HW127101   0.538   2.553  12.834  1.1312  0.2931 -2.4160
 5213SOL    HW227102   0.391   2.547  12.821 -1.2601  0.1752 -2.0196
 5214SOL     OW27103   2.765   4.531  12.831 -0.6316 -0.0380 -0.0864
 5214SOL    HW127104   2.762   4.545  12.737 -2.7478 -2.7377 -0.4158
 5214SOL    HW227105   2.855   4.501  12.844 -0.0423  1.6577 -0.2394
 5215SOL     OW27106   1.858   0.666  10.696 -0.4755  0.3005  0.2985
 5215SOL    HW127107   1.893   0.578  10.708 -0.0948  0.4842  0.5156
 5215SOL    HW227108   1.876   0.695  10.785 -1.2860 -2.3559  1.3257
 5216SOL     OW27109   3.505   0.815   0.554  0.6270  0.4186  0.2730
 5216SOL    HW127110   3.519   0.844   0.464  2.9141  2.0573  1.1354
 5216SOL    HW227111   3.595   0.787   0.573  0.1358 -1.1575  0.3073
 5217SOL     OW27112   1.394   1.487   9.004  0.0424  0.0182 -0.1401
 5217SOL    HW127113   1.474   1.514   8.960 -0.6472  0.9180 -0.8285
 5217SOL    HW227114   1.407   1.392   9.002  0.2205  0.0488 -0.4404
 5218SOL     OW27115   1.507   2.837   8.541  0.0048 -0.8835  0.4187
 5218SOL    HW127116   1.459   2.809   8.463  1.5956  2.2772 -1.6862
 5218SOL    HW227117   1.493   2.930   8.555 -1.2848 -0.9908 -0.1311
 5219SOL     OW27118   0.617   2.324   6.732  0.3328 -0.1869  0.2911
 5219SOL    HW127119   0.598   2.393   6.795  1.0430  1.3369 -1.1506
 5219SOL    HW227120   0.681   2.369   6.677 -1.2246 -0.6448 -1.8942
 5220SOL     OW27121   4.721   2.611  12.923  0.5328 -0.2461  0.0878
 5220SOL    HW127122   4.648   2.633  12.981 -0.9123 -1.7528 -1.1597
 5220SOL    HW227123   4.677   2.613  12.838  3.9852  1.5819 -1.6180
 5221SOL     OW27124   4.190   3.051   9.590 -0.4008  0.1658 -0.6468
 5221SOL    HW127125   4.101   3.061   9.556 -0.8057 -0.0183  0.3799
 5221SOL    HW227126   4.233   3.011   9.514 -0.9382 -0.4185 -0.6397
 5222SOL     OW27127   2.441   4.680   3.053  0.1596  0.3157  0.3256
 5222SOL    HW127128   2.347   4.694   3.068 -0.5941 -2.1134 -2.1079
 5222SOL    HW227129   2.464   4.644   3.139  0.8003  0.6589  0.2940
 5223SOL     OW27130   3.222   1.809   4.052 -0.8668 -0.1251  0.3458
 5223SOL    HW127131   3.231   1.778   3.961 -0.1523 -0.0440  0.3863
 5223SOL    HW227132   3.150   1.872   4.044 -2.0440 -1.6150 -0.7549
 5224SOL     OW27133   4.454   1.298   4.517  0.4097  0.5959  0.0905
 5224SOL    HW127134   4.527   1.331   4.465  1.0044 -0.8788  0.0135
 5224SOL    HW227135   4.414   1.250   4.445  0.4334 -1.9655  1.7777
 5225SOL     OW27136   0.328   3.243  15.398 -0.2162  0.1598  0.1937
 5225SOL    HW127137   0.271   3.320  15.394 -1.4777 -0.7820  0.1384
 5225SOL    HW227138   0.257   3.181  15.414 -0.4400 -0.0202 -1.4982
 5226SOL     OW27139   4.379   0.182   7.505  0.6447  0.8292  0.1250
 5226SOL    HW127140   4.341   0.217   7.424  1.2609  0.0344 -0.5093
 5226SOL    HW227141   4.333   0.236   7.569  1.7922  0.7573  1.0086
 5227SOL     OW27142   2.241   3.638   1.623  0.4663  0.5644 -0.1931
 5227SOL    HW127143   2.289   3.558   1.602 -1.7603 -0.6088 -0.8036
 5227SOL    HW227144   2.157   3.596   1.639  0.7551  0.1902  0.3384
 5228SOL     OW27145   3.478   3.740   5.602 -0.3250  0.0675  0.4928
 5228SOL    HW127146   3.401   3.782   5.563 -1.2491 -0.0832  2.1327
 5228SOL    HW227147   3.453   3.737   5.695  0.5501 -1.5726  0.6660
 5229SOL     OW27148   3.229   4.540   8.916  0.6343  0.4397  0.4170
 5229SOL    HW127149   3.153   4.487   8.893  1.0960  1.4713 -3.4422
 5229SOL    HW227150   3.181   4.623   8.921  0.8409  0.6377 -1.0675
 5230SOL     OW27151   4.040   3.630   1.141  0.0633  0.2379 -0.2093
 5230SOL    HW127152   4.050   3.725   1.138 -0.4917  0.2623 -1.2583
 5230SOL    HW227153   4.047   3.614   1.235 -0.9314  3.5909  0.4354
 5231SOL     OW27154   4.485   2.696   0.280 -0.1668 -0.3305  0.1972
 5231SOL    HW127155   4.574   2.724   0.303 -0.6951 -0.3709  2.3000
 5231SOL    HW227156   4.513   2.647   0.203 -0.1733  0.8512 -0.5651
 5232SOL     OW27157   4.608   2.794   5.544 -0.9673  0.1381  0.1420
 5232SOL    HW127158   4.543   2.857   5.578 -2.1104 -2.6147  3.0652
 5232SOL    HW227159   4.557   2.714   5.552  0.7382 -0.8215  1.2786
 5233SOL     OW27160   3.043   4.615   5.952 -0.2588  0.2134 -0.8372
 5233SOL    HW127161   2.970   4.556   5.935 -0.0040  0.2221 -1.9920
 5233SOL    HW227162   3.107   4.557   5.993 -2.1244 -1.5814 -0.4699
 5234SOL     OW27163   2.634   3.390   5.716  0.0842 -0.6794  0.0389
 5234SOL    HW127164   2.643   3.346   5.801 -3.0477  1.0578  1.2824
 5234SOL    HW227165   2.568   3.341   5.667 -0.1994 -1.2379  0.9831
 5235SOL     OW27166   1.805   4.032  11.302 -0.6499 -0.9675  0.2391
 5235SOL    HW127167   1.829   3.952  11.349 -2.4023  0.2218  3.1357
 5235SOL    HW227168   1.850   4.018  11.218 -0.3245  0.4210  0.1862
 5236SOL     OW27169   1.139   4.105   5.398 -0.1881 -0.0085  0.4594
 5236SOL    HW127170   1.200   4.051   5.348 -0.2736  1.5999 -1.4064
 5236SOL    HW227171   1.065   4.051   5.370 -1.8916  2.9618 -0.8394
 5237SOL     OW27172   2.100   1.549   5.461  0.0955 -0.4773 -0.3806
 5237SOL    HW127173   2.170   1.529   5.523 -0.9027  2.0950  1.5837
 5237SOL    HW227174   2.117   1.642   5.449  0.3173 -0.6216 -1.1934
 5238SOL     OW27175   3.679   0.590   7.612 -0.5459  0.4348  0.2145
 5238SOL    HW127176   3.748   0.656   7.614 -0.3149  0.1869  0.4022
 5238SOL    HW227177   3.621   0.604   7.686  0.7741 -0.2979  1.3968
 5239SOL     OW27178   2.352   3.117   1.272 -0.5327 -0.2686 -0.5849
 5239SOL    HW127179   2.340   3.026   1.248  0.2881 -0.7588  0.8587
 5239SOL    HW227180   2.328   3.107   1.364 -0.7192 -2.3844 -0.8773
 5240SOL     OW27181   2.973   2.110   8.447  0.5727 -0.0121  0.2186
 5240SOL    HW127182   3.046   2.070   8.494 -0.4120 -2.3483 -0.2451
 5240SOL    HW227183   3.014   2.120   8.360 -0.3148  1.4286 -0.0264
 5241SOL     OW27184   0.342   1.028  12.608 -0.2987  0.5368  0.1710
 5241SOL    HW127185   0.394   1.081  12.548 -1.5982  0.6460 -0.8724
 5241SOL    HW227186   0.400   0.954  12.624  2.5330  2.6700 -0.1848
 5242SOL     OW27187   3.626   3.735   6.916 -0.6077  0.0075 -0.5514
 5242SOL    HW127188   3.566   3.676   6.871  2.2039 -0.7288 -3.2729
 5242SOL    HW227189   3.622   3.816   6.866 -1.5578  0.2176 -0.1279
 5243SOL     OW27190   0.249   3.606  16.201 -0.3722 -0.3851  0.0498
 5243SOL    HW127191   0.257   3.554  16.122 -0.3972 -0.0737 -0.1562
 5243SOL    HW227192   0.155   3.624  16.201 -0.8162 -2.6842  1.3996
 5244SOL     OW27193   3.999   3.440   8.415 -0.9182  0.0176  1.0568
 5244SOL    HW127194   4.086   3.424   8.380 -1.3799 -3.0289  1.2561
 5244SOL    HW227195   3.968   3.511   8.359  1.6916 -0.1923 -0.6153
 5245SOL     OW27196   0.734   2.878   9.332  0.0273  0.4586 -0.3456
 5245SOL    HW127197   0.671   2.913   9.395  0.9542  1.4048  0.0584
 5245SOL    HW227198   0.802   2.841   9.388  1.0461  0.8571 -1.2955
 5246SOL     OW27199   3.265   2.293   5.052  0.1128 -0.3557 -0.1432
 5246SOL    HW127200   3.318   2.234   4.999  2.0496  1.8283 -0.6220
 5246SOL    HW227201   3.331   2.338   5.105  0.7715 -0.0025 -1.2706
 5247SOL     OW27202   0.258   1.152  13.355  0.4688 -0.1658 -0.3022
 5247SOL    HW127203   0.319   1.141  13.428  0.6588 -2.2372 -0.7798
 5247SOL    HW227204   0.195   1.084  13.379  2.0771 -0.8417  1.9773
 5248SOL     OW27205   1.009   3.920  12.933 -0.3818  0.5468  0.2087
 5248SOL    HW127206   0.970   3.833  12.937 -0.6147  0.6326 -0.2748
 5248SOL    HW227207   1.001   3.941  12.840  1.4684  0.6540  0.0666
 5249SOL     OW27208   3.978   0.646  11.383 -1.1206 -0.7638  0.4121
 5249SOL    HW127209   3.987   0.696  11.464 -1.9514 -0.1426  0.1171
 5249SOL    HW227210   3.956   0.719  11.326 -0.7641 -1.9304 -1.2446
 5250SOL     OW27211   1.605   3.102  14.086  0.4691  0.5429 -0.5570
 5250SOL    HW127212   1.512   3.095  14.065 -0.0833  1.6695  1.4433
 5250SOL    HW227213   1.603   3.055  14.170 -0.4550 -0.2446 -1.0128
 5251SOL     OW27214   3.130   2.568   7.639 -0.1426  0.3083 -0.7896
 5251SOL    HW127215   3.134   2.549   7.545  1.0516 -2.1741 -0.2500
 5251SOL    HW227216   3.223   2.581   7.660  0.7625 -2.0688 -3.2215
 5252SOL     OW27217   3.964   0.015  17.602  0.6851  0.0430 -0.4397
 5252SOL    HW127218   3.920   4.718  17.685  0.0030  1.2235 -0.5009
 5252SOL    HW227219   4.020   0.085  17.636  1.9925 -0.6531 -1.1727
 5253SOL     OW27220   1.186   2.520   3.645 -0.2433 -0.1724 -0.0551
 5253SOL    HW127221   1.133   2.575   3.587  0.2618 -0.8599 -1.1592
 5253SOL    HW227222   1.269   2.517   3.596  1.1982 -0.7712  2.4253
 5254SOL     OW27223   0.160   1.916   5.971 -0.3657  0.1445 -0.6849
 5254SOL    HW127224   0.105   1.838   5.970 -0.7359  0.4612 -3.0401
 5254SOL    HW227225   0.239   1.886   5.927 -0.9542  0.7206 -2.1192
 5255SOL     OW27226   2.720   4.695   9.569  0.4157 -0.7649  0.3693
 5255SOL    HW127227   2.638   4.649   9.553 -1.2892  2.6956 -0.9364
 5255SOL    HW227228   2.691   0.036   9.634  1.9687  0.4294 -0.0949
 5256SOL     OW27229   2.044   4.629   5.931  0.0223  0.3050  0.6613
 5256SOL    HW127230   2.108   4.656   5.865 -2.1515 -1.1576 -2.0306
 5256SOL    HW227231   2.108   4.607   6.000  1.5901  0.7420 -0.6560
 5257SOL     OW27232   3.888   1.177  12.638  0.4180 -0.5544 -0.3923
 5257SOL    HW127233   3.870   1.136  12.723  1.9313  0.1723  0.2795
 5257SOL    HW227234   3.804   1.166  12.595  1.0716 -1.5200 -1.4174
 5258SOL     OW27235   2.612   2.276   2.675 -0.3613 -0.5755 -0.4308
 5258SOL    HW127236   2.537   2.317   2.716  1.1852  0.3754  1.4419
 5258SOL    HW227237   2.598   2.279   2.580  0.2771  0.6167 -0.4969
 5259SOL     OW27238   2.455   2.796   9.151  0.1047 -0.0082  0.2257
 5259SOL    HW127239   2.445   2.880   9.195 -1.7019  1.3811 -2.8149
 5259SOL    HW227240   2.517   2.751   9.208 -0.5152 -2.1765 -0.8242
 5260SOL     OW27241   0.020   3.198  10.664 -0.0948 -0.6134  0.2345
 5260SOL    HW127242   0.060   3.146  10.594  1.2898  0.3286  0.3249
 5260SOL    HW227243   0.084   3.269  10.662  0.0843 -0.7535  1.0992
 5261SOL     OW27244   0.976   2.077   6.271 -0.3363  0.0495  0.3373
 5261SOL    HW127245   1.055   2.108   6.225 -0.3093  1.1468  1.1171
 5261SOL    HW227246   0.917   2.096   6.198 -0.6189 -0.2987  0.4793
 5262SOL     OW27247   1.503   3.814   4.446 -0.4879  0.5726 -0.3154
 5262SOL    HW127248   1.598   3.825   4.458  0.1588 -1.5915 -3.7242
 5262SOL    HW227249   1.500   3.740   4.386  0.1525  1.0479 -0.9249
 5263SOL     OW27250   2.234   1.209  14.388  0.4692  0.0909 -0.2544
 5263SOL    HW127251   2.262   1.297  14.411  1.4974 -0.3800  0.3258
 5263SOL    HW227252   2.259   1.204  14.296  0.8220 -0.2737 -0.1392
 5264SOL     OW27253   2.710   3.628   2.871  0.2005 -0.0280  0.0859
 5264SOL    HW127254   2.712   3.642   2.966  1.1908 -1.2076  0.2513
 5264SOL    HW227255   2.793   3.673   2.852  0.9792 -0.1319  3.1176
 5265SOL     OW27256   2.511   4.457   2.213  0.2208 -0.2487  0.0152
 5265SOL    HW127257   2.535   4.427   2.125  1.2417  0.2326  0.1253
 5265SOL    HW227258   2.415   4.460   2.211  0.1709 -1.7356 -0.1301
 5266SOL     OW27259   2.663   3.295   4.191 -0.0852  0.0184  0.5271
 5266SOL    HW127260   2.744   3.251   4.216 -0.3522 -0.5648  0.3703
 5266SOL    HW227261   2.692   3.339   4.111 -1.7539 -0.9133 -0.6107
 5267SOL     OW27262   3.445   4.167   1.241 -0.2460 -0.3107  1.1531
 5267SOL    HW127263   3.478   4.120   1.165  2.2240  1.8455  0.8760
 5267SOL    HW227264   3.497   4.247   1.232  1.5146 -1.5798  0.0848
 5268SOL     OW27265   3.784   1.351   5.390 -0.2028  0.4059  0.7217
 5268SOL    HW127266   3.788   1.404   5.310  0.2364  1.5311  1.4803
 5268SOL    HW227267   3.742   1.266   5.376  3.5659 -0.9899 -1.8819
 5269SOL     OW27268   1.844   0.949  12.285 -0.2485  0.0734 -0.2181
 5269SOL    HW127269   1.906   1.021  12.292  1.1005 -0.9206 -1.9623
 5269SOL    HW227270   1.789   0.968  12.209 -1.0160 -1.5882 -0.0833
 5270SOL     OW27271   0.541   1.363   5.775  0.1324 -0.7399 -0.5380
 5270SOL    HW127272   0.563   1.337   5.864  2.5116 -0.4229 -1.0280
 5270SOL    HW227273   0.621   1.336   5.730 -0.5810 -2.0203 -1.0547
 5271SOL     OW27274   1.009   1.131   4.711 -0.3959  0.2230  0.2473
 5271SOL    HW127275   0.982   1.180   4.633  1.1683  2.5886  1.1991
 5271SOL    HW227276   0.953   1.053   4.706  1.0517 -0.7050 -1.5237
 5272SOL     OW27277   3.877   0.683   5.709 -0.1512 -0.0363 -0.0886
 5272SOL    HW127278   3.844   0.603   5.750 -0.6843 -1.0634 -2.5317
 5272SOL    HW227279   3.795   0.719   5.677  1.9401  4.9008  0.0776
 5273SOL     OW27280   2.546   0.889   1.165  0.0621  0.1791  0.4931
 5273SOL    HW127281   2.488   0.823   1.205 -2.3779  1.6937 -0.5592
 5273SOL    HW227282   2.618   0.829   1.145 -1.1899 -1.4413  0.8371
 5274SOL     OW27283   1.287   2.665   6.060  0.7036 -0.3472  0.1577
 5274SOL    HW127284   1.333   2.592   6.101 -0.2662 -1.0310  0.0386
 5274SOL    HW227285   1.353   2.696   5.999  0.3214 -1.0789 -0.6194
 5275SOL     OW27286   2.600   3.229   4.700  0.1075  0.2638  0.0980
 5275SOL    HW127287   2.587   3.294   4.768  0.6959  0.7102 -0.2183
 5275SOL    HW227288   2.680   3.186   4.730  1.5594  1.0397 -2.6201
 5276SOL     OW27289   4.433   3.558  12.991 -0.1108 -0.5349 -0.3644
 5276SOL    HW127290   4.478   3.608  13.060  0.4071 -3.0806  1.1375
 5276SOL    HW227291   4.483   3.476  12.995  1.1164  0.1945 -0.6737
 5277SOL     OW27292   3.643   0.996   7.776  0.1539  0.1242 -0.1241
 5277SOL    HW127293   3.677   1.086   7.777  0.4942 -0.0392  2.7671
 5277SOL    HW227294   3.711   0.944   7.819  1.6753 -0.4805 -3.3033
 5278SOL     OW27295   4.433   0.547   1.796  0.0561 -0.6351 -0.0863
 5278SOL    HW127296   4.437   0.593   1.713  0.9201 -2.9080 -1.3156
 5278SOL    HW227297   4.340   0.561   1.816  0.2931  0.5021  0.1994
 5279SOL     OW27298   0.693   1.503   3.329  0.3051 -0.3604  0.3022
 5279SOL    HW127299   0.788   1.498   3.330  0.2594 -1.0110  1.4782
 5279SOL    HW227300   0.665   1.509   3.421 -3.8772  2.4017 -1.1713
 5280SOL     OW27301   3.950   4.428   3.207  0.0936 -0.3751 -0.1262
 5280SOL    HW127302   3.872   4.442   3.261  0.0875  1.1063 -0.5176
 5280SOL    HW227303   4.022   4.474   3.251  0.7731 -1.9812  0.4370
 5281SOL     OW27304   2.587   2.241   8.753  0.0833 -0.3273 -0.0730
 5281SOL    HW127305   2.533   2.249   8.674 -1.8393 -1.3017  1.1456
 5281SOL    HW227306   2.633   2.162   8.725  2.9069  1.0485  0.6737
 5282SOL     OW27307   3.547   0.337   1.233 -0.1110  0.5149  0.3943
 5282SOL    HW127308   3.623   0.385   1.267 -0.0891  1.1604 -0.5471
 5282SOL    HW227309   3.481   0.363   1.297 -0.1706  2.1836 -0.3348
 5283SOL     OW27310   1.890   1.751   1.906 -0.0657  0.2047 -0.2019
 5283SOL    HW127311   1.935   1.813   1.849 -0.1825  0.5343  0.0649
 5283SOL    HW227312   1.928   1.772   1.991 -2.2488 -2.3832  1.4416
 5284SOL     OW27313   1.278   2.768   5.060  0.2425 -0.0708 -0.1241
 5284SOL    HW127314   1.217   2.763   5.133 -1.4234  2.6801 -1.3067
 5284SOL    HW227315   1.247   2.841   5.006 -2.2788 -0.1972  1.1805
 5285SOL     OW27316   3.811   0.902   7.262 -0.1413  0.3595  0.5664
 5285SOL    HW127317   3.738   0.955   7.229  0.7133  0.2165 -1.5512
 5285SOL    HW227318   3.794   0.891   7.356 -0.1512  2.0632  0.7620
 5286SOL     OW27319   1.971   1.398   0.034 -0.5904 -0.6490 -0.7408
 5286SOL    HW127320   1.897   1.459   0.042 -0.3047 -0.6061  1.5548
 5286SOL    HW227321   2.030   1.432   0.101 -1.6649 -0.5585  0.1773
 5287SOL     OW27322   0.439   1.911   5.909 -0.0879  0.3507 -0.4918
 5287SOL    HW127323   0.453   1.965   5.832 -0.5752 -1.4962 -1.8942
 5287SOL    HW227324   0.481   1.971   5.970  0.1917 -1.0249  0.6870
 5288SOL     OW27325   2.626   1.109  12.086 -0.1331  0.3024  0.3458
 5288SOL    HW127326   2.626   1.072  11.997  0.4997  2.0567 -0.3974
 5288SOL    HW227327   2.636   1.201  12.059 -2.2561  0.4229 -0.0232
 5289SOL     OW27328   0.230   0.579  10.520 -0.2444  0.1189 -0.3629
 5289SOL    HW127329   0.192   0.582  10.607 -2.3722 -2.3280 -1.1861
 5289SOL    HW227330   0.259   0.669  10.509  1.7340 -0.4061  0.5784
 5290SOL     OW27331   4.579   1.658  10.740  0.2288 -0.1126  0.1726
 5290SOL    HW127332   4.487   1.668  10.766 -0.8393 -0.2861 -3.5782
 5290SOL    HW227333   4.581   1.573  10.697 -0.5040  0.7410 -1.5640
 5291SOL     OW27334   0.816   3.590   3.149 -0.1630  0.2306  1.2315
 5291SOL    HW127335   0.904   3.610   3.183  0.5675 -0.5919 -0.1946
 5291SOL    HW227336   0.811   3.656   3.081 -1.7328  0.6348  1.7400
 5292SOL     OW27337   3.535   0.765   4.481  0.0132  0.2170  0.4266
 5292SOL    HW127338   3.559   0.673   4.495  2.0717  0.8807  1.3155
 5292SOL    HW227339   3.497   0.790   4.565 -3.4823 -0.0642 -1.0998
 5293SOL     OW27340   0.485   2.060  15.955 -0.0947 -0.7466  0.4478
 5293SOL    HW127341   0.539   2.138  15.941 -0.4493 -0.7639 -0.9725
 5293SOL    HW227342   0.439   2.036  15.875  1.1376 -0.3317 -0.3817
 5294SOL     OW27343   4.588   1.689   4.484  0.3091  0.2227  0.1662
 5294SOL    HW127344   4.663   1.739   4.517 -0.0145 -1.3304  3.2255
 5294SOL    HW227345   4.581   1.731   4.398 -0.3875 -0.4436 -0.0988
 5295SOL     OW27346   3.298   3.924   1.848 -0.0280  0.3947  0.2311
 5295SOL    HW127347   3.390   3.908   1.866 -0.4267 -2.5802 -0.4674
 5295SOL    HW227348   3.268   3.833   1.849  0.4005  0.2297 -3.0232
 5296SOL     OW27349   2.116   0.996  11.776 -0.0503  0.0730 -0.2046
 5296SOL    HW127350   2.121   0.984  11.681 -1.3462  1.6504 -0.4911
 5296SOL    HW227351   2.026   0.964  11.780  0.5242 -1.5340 -0.4418
 5297SOL     OW27352   0.604   3.874   4.048  0.3057  0.1036  0.7639
 5297SOL    HW127353   0.586   3.854   4.140  1.8737 -1.3660  0.7540
 5297SOL    HW227354   0.678   3.935   4.054 -0.8032  1.4622  0.4706
 5298SOL     OW27355   0.960   1.109   3.519  0.4907  0.1580  0.2129
 5298SOL    HW127356   0.914   1.099   3.602 -1.1785  0.7894 -0.6465
 5298SOL    HW227357   1.053   1.115   3.543  0.0691 -0.0789  1.8978
 5299SOL     OW27358   4.543   1.862   5.980  0.3843 -0.2405  0.0438
 5299SOL    HW127359   4.557   1.768   5.968  0.9666  0.2873 -3.3610
 5299SOL    HW227360   4.534   1.859   6.075  1.9496 -2.1444  0.1262
 5300SOL     OW27361   3.249   0.266  17.210  0.0640  0.3244 -0.2587
 5300SOL    HW127362   3.190   0.190  17.212 -1.5052  1.5249 -1.4061
 5300SOL    HW227363   3.306   0.255  17.286 -1.9383 -2.0196  0.9591
 5301SOL     OW27364   2.344   1.229  12.125 -0.1622  0.0788  0.0181
 5301SOL    HW127365   2.366   1.310  12.171  1.4020  0.7856 -1.9646
 5301SOL    HW227366   2.383   1.165  12.184 -2.0456 -0.0282  1.1358
 5302SOL     OW27367   0.581   3.530   9.115 -0.5548 -0.4777  0.0136
 5302SOL    HW127368   0.557   3.557   9.026 -2.2066 -1.0998  0.2585
 5302SOL    HW227369   0.600   3.438   9.097  0.2744 -0.3385  0.1808
 5303SOL     OW27370   2.232   2.620   5.691 -0.2410 -0.0517  0.4638
 5303SOL    HW127371   2.171   2.556   5.654 -0.1666  0.0273  0.2058
 5303SOL    HW227372   2.288   2.561   5.741 -1.9697 -0.6472  1.7100
 5304SOL     OW27373   2.228   2.028   6.285  0.5218  0.4833 -0.2097
 5304SOL    HW127374   2.257   2.116   6.262  0.6379  1.1521  2.4937
 5304SOL    HW227375   2.141   2.042   6.322 -0.6987 -1.6062 -2.3018
 5305SOL     OW27376   3.300   0.362   5.784  0.8178  0.2292  0.1126
 5305SOL    HW127377   3.285   0.282   5.834 -1.1614  0.0561 -0.7242
 5305SOL    HW227378   3.279   0.336   5.694 -2.2966 -1.2207  1.2182
 5306SOL     OW27379   0.646   3.319   6.276 -0.2391  0.3395 -0.3692
 5306SOL    HW127380   0.619   3.356   6.192  1.9407  1.6693 -0.4888
 5306SOL    HW227381   0.680   3.399   6.317 -1.2425  1.3986 -1.5932
 5307SOL     OW27382   2.344   3.835  17.241  0.0150  1.0208  0.0721
 5307SOL    HW127383   2.310   3.771  17.179  2.7181  1.2379 -1.6084
 5307SOL    HW227384   2.384   3.887  17.172  0.2587  0.2824 -0.3419
 5308SOL     OW27385   3.312   3.475   0.605  0.2173  0.3133  0.4754
 5308SOL    HW127386   3.218   3.456   0.614 -0.1695  1.5244 -1.0247
 5308SOL    HW227387   3.338   3.404   0.663  3.5215  1.1338 -0.0214
 5309SOL     OW27388   4.258   0.546   2.970 -0.0580 -0.4849 -0.1164
 5309SOL    HW127389   4.329   0.511   2.918  0.2876  0.1433 -0.0685
 5309SOL    HW227390   4.303   0.576   3.049 -0.5897  0.6582 -0.2501
 5310SOL     OW27391   0.526   1.467  17.659 -0.5395 -0.1147 -0.2611
 5310SOL    HW127392   0.595   1.401  17.669 -1.5575 -1.3642 -1.4970
 5310SOL    HW227393   0.504   1.459  17.567 -0.1519  0.0527 -0.3691
 5311SOL     OW27394   3.203   0.644   8.611 -0.5089 -0.0685 -0.4716
 5311SOL    HW127395   3.249   0.562   8.592  0.2083 -0.6098  3.6360
 5311SOL    HW227396   3.151   0.609   8.684  0.6827 -0.0028  0.4008
 5312SOL     OW27397   2.821   0.386   9.954  0.0607 -0.6201 -0.3607
 5312SOL    HW127398   2.751   0.387  10.019 -0.3419 -0.6124 -0.8038
 5312SOL    HW227399   2.816   0.477   9.925  1.7964 -0.0597  1.0834
 5313SOL     OW27400   3.131   1.838   5.276 -0.3504  0.1828 -0.3963
 5313SOL    HW127401   3.225   1.848   5.264 -0.5196  0.4560 -1.5827
 5313SOL    HW227402   3.123   1.926   5.312 -1.0590 -0.2997  0.6051
 5314SOL     OW27403   4.363   1.918  16.154 -0.1759 -0.0385 -0.3588
 5314SOL    HW127404   4.308   1.840  16.159  1.0735 -0.7652  1.8542
 5314SOL    HW227405   4.329   1.972  16.226 -0.7245 -0.1201 -0.5552
 5315SOL     OW27406   1.886   1.544   7.170  0.0746  0.1660  0.3974
 5315SOL    HW127407   1.902   1.477   7.103 -2.9040 -0.2206  0.0719
 5315SOL    HW227408   1.974   1.539   7.206  1.5082 -0.1012 -3.1412
 5316SOL     OW27409   2.921   1.991  12.791 -0.1162 -0.1296  0.1909
 5316SOL    HW127410   2.829   1.972  12.812 -0.0656 -0.0829  0.4644
 5316SOL    HW227411   2.912   2.086  12.803 -0.4543  0.2713 -3.5215
 5317SOL     OW27412   4.154   1.250  13.674  0.0510 -0.3897  0.2183
 5317SOL    HW127413   4.142   1.202  13.756 -0.3717  0.5261  0.6818
 5317SOL    HW227414   4.204   1.322  13.713 -1.6370  0.2514  1.1627
 5318SOL     OW27415   1.800   1.582   4.824 -0.7129 -0.6221  0.4147
 5318SOL    HW127416   1.778   1.571   4.917  0.1131  3.1573  1.0729
 5318SOL    HW227417   1.805   1.678   4.830 -1.6724 -0.6622  2.0296
 5319SOL     OW27418   1.469   1.248  11.659 -0.0854  0.6221  0.1656
 5319SOL    HW127419   1.443   1.220  11.571  1.9118 -3.4729  0.8778
 5319SOL    HW227420   1.492   1.338  11.637 -1.1705  0.6893 -0.6388
 5320SOL     OW27421   1.550   2.373   6.478  0.1570 -0.0917  0.0493
 5320SOL    HW127422   1.465   2.335   6.500  1.1143 -3.4506 -2.0673
 5320SOL    HW227423   1.590   2.295   6.439  0.1503 -0.4650  0.7898
 5321SOL     OW27424   2.674   1.288   2.816 -0.0939 -0.1743  0.5280
 5321SOL    HW127425   2.637   1.217   2.764  1.8059 -0.1028 -0.9245
 5321SOL    HW227426   2.593   1.329   2.846  0.2360  1.1584 -0.3972
 5322SOL     OW27427   0.279   4.242   9.132  0.0324  0.1964  0.5529
 5322SOL    HW127428   0.343   4.305   9.100 -0.2676  1.5571  2.6471
 5322SOL    HW227429   0.342   4.177   9.163 -0.5376  0.2130  1.7273
 5323SOL     OW27430   0.181   4.575   8.066 -0.5479 -0.6977 -0.3171
 5323SOL    HW127431   0.270   4.547   8.047  0.8550  3.3127  0.2930
 5323SOL    HW227432   0.134   4.492   8.056 -1.0058 -0.4678 -0.1068
 5324SOL     OW27433   2.770   2.029   6.883  0.2642 -0.4318 -0.6170
 5324SOL    HW127434   2.798   2.120   6.881  1.0890 -0.6744 -0.2144
 5324SOL    HW227435   2.745   2.019   6.975 -2.0535  0.7747 -1.1195
 5325SOL     OW27436   3.740   2.952  12.118  0.0315  0.0179  0.2047
 5325SOL    HW127437   3.710   3.039  12.146  1.0705  0.3980  0.1609
 5325SOL    HW227438   3.834   2.968  12.129 -0.0842  0.4108  0.6634
 5326SOL     OW27439   4.564   1.310   7.047  0.0944 -0.7778  0.4747
 5326SOL    HW127440   4.603   1.288   6.962 -0.0079  2.0892 -0.3111
 5326SOL    HW227441   4.632   1.367   7.083 -0.4057 -0.6937  1.2935
 5327SOL     OW27442   4.596   4.686   1.469 -0.1967  0.2132  0.2892
 5327SOL    HW127443   4.636   4.722   1.390 -1.7467  0.0915 -0.5520
 5327SOL    HW227444   4.603   4.594   1.445 -0.8651  0.0718  0.6327
 5328SOL     OW27445   0.351   0.932   5.176 -1.0796  0.1413  0.3783
 5328SOL    HW127446   0.308   0.871   5.236 -1.9727  1.1477  0.7737
 5328SOL    HW227447   0.424   0.874   5.154 -0.7861 -0.0589  1.9007
 5329SOL     OW27448   4.583   3.435   8.518 -0.5625 -0.2553  0.1631
 5329SOL    HW127449   4.571   3.525   8.550 -0.1204 -0.4691  0.9449
 5329SOL    HW227450   4.618   3.395   8.598  0.6528  3.3287  1.4721
 5330SOL     OW27451   2.293   1.438   9.194  0.3131  0.0134  0.3228
 5330SOL    HW127452   2.324   1.381   9.124 -3.9787 -0.6713 -1.0209
 5330SOL    HW227453   2.340   1.521   9.183 -0.1813  0.2421 -0.0655
 5331SOL     OW27454   1.235   0.001   4.223 -0.9012 -0.3090 -0.5576
 5331SOL    HW127455   1.313   4.714   4.169 -1.4847  0.3155 -1.5088
 5331SOL    HW227456   1.260   4.668   4.297  1.7293  2.7175  0.8351
 5332SOL     OW27457   0.160   2.372  10.929 -0.4372  0.2193 -0.5546
 5332SOL    HW127458   0.165   2.277  10.939 -2.7357 -0.1008 -2.4223
 5332SOL    HW227459   0.065   2.375  10.918 -0.7151  0.9253  2.1403
 5333SOL     OW27460   1.049   0.793  14.470 -0.1605  0.0953 -0.1630
 5333SOL    HW127461   1.004   0.827  14.547  1.6755 -1.8438  1.7667
 5333SOL    HW227462   0.983   0.818  14.406  3.0146  2.5146 -2.4917
 5334SOL     OW27463   0.414   3.701   0.571  0.7970  0.2344  0.3072
 5334SOL    HW127464   0.383   3.679   0.483  0.8673  0.6957  0.1666
 5334SOL    HW227465   0.351   3.643   0.616  1.0947 -1.2012 -1.1076
 5335SOL     OW27466   2.389   0.085   7.805  0.1356  0.3339 -0.6570
 5335SOL    HW127467   2.478   0.082   7.770 -0.1900 -1.3667 -1.3667
 5335SOL    HW227468   2.389   0.176   7.834 -0.5027 -0.1479  0.8225
 5336SOL     OW27469   0.018   3.988   4.226  0.0868 -0.1025  0.7528
 5336SOL    HW127470   0.067   3.927   4.172  0.1176  0.5844 -0.0004
 5336SOL    HW227471   4.694   3.934   4.289 -2.6925 -0.8722 -1.9844
 5337SOL     OW27472   2.940   2.551   6.178 -0.1413 -0.3521 -0.0969
 5337SOL    HW127473   2.908   2.607   6.249  0.7870 -3.7408  3.0161
 5337SOL    HW227474   2.948   2.465   6.221 -0.9501  0.1422  1.0557
 5338SOL     OW27475   1.487   0.859  12.308 -0.0392  0.2030 -0.8172
 5338SOL    HW127476   1.396   0.887  12.321 -0.1709 -0.9060  0.6941
 5338SOL    HW227477   1.508   0.923  12.241  2.6890  0.7168  0.5153
 5339SOL     OW27478   4.029   2.995   9.067  0.2414  1.0022  0.2296
 5339SOL    HW127479   4.072   3.008   8.982  2.1253  0.3050  1.0699
 5339SOL    HW227480   3.996   3.081   9.093  2.6039  2.4430 -1.5872
 5340SOL     OW27481   3.476   1.504   4.605  0.2748  0.3051 -0.1990
 5340SOL    HW127482   3.517   1.587   4.581  0.2015 -0.0460 -1.5389
 5340SOL    HW227483   3.383   1.525   4.602  0.5752  1.1480 -3.2192
 5341SOL     OW27484   4.519   3.408   7.162 -0.3152 -0.1768 -0.4935
 5341SOL    HW127485   4.428   3.435   7.178 -0.0558  0.1915  0.3460
 5341SOL    HW227486   4.559   3.481   7.209 -0.9295  0.0046 -0.2468
 5342SOL     OW27487   1.300   2.466  14.051 -0.0630 -0.0782 -0.5147
 5342SOL    HW127488   1.242   2.398  14.019 -2.2892  1.6869 -0.2341
 5342SOL    HW227489   1.250   2.482  14.131 -0.9350  0.6081 -1.2005
 5343SOL     OW27490   3.983   3.606   8.210  1.0771 -0.5516  0.0951
 5343SOL    HW127491   4.051   3.663   8.175  1.6363 -0.7942  0.7786
 5343SOL    HW227492   3.986   3.543   8.138 -0.5854 -1.2095  0.6050
 5344SOL     OW27493   1.958   4.578   6.765  0.4483 -0.2586 -0.6748
 5344SOL    HW127494   1.885   4.564   6.706  0.1453  1.6900 -0.7796
 5344SOL    HW227495   1.985   4.487   6.754  0.1245 -0.3849 -0.4343
 5345SOL     OW27496   0.862   2.181   5.736  0.2284  0.2287 -0.0535
 5345SOL    HW127497   0.922   2.107   5.747  0.0786  0.0979 -0.1160
 5345SOL    HW227498   0.924   2.254   5.736  0.5510 -0.0422  0.2072
 5346SOL     OW27499   4.510   2.061   5.130  0.1928 -0.4290  0.6042
 5346SOL    HW127500   4.528   2.045   5.037  4.3519  0.5718  1.2608
 5346SOL    HW227501   4.421   2.094   5.115  0.2134 -0.6575 -0.0417
 5347SOL     OW27502   1.704   2.156   8.176 -0.4984  0.1260  0.2498
 5347SOL    HW127503   1.663   2.242   8.178 -1.1233 -0.1675  0.1278
 5347SOL    HW227504   1.643   2.102   8.126 -0.0808  0.8393 -1.0179
 5348SOL     OW27505   3.246   2.110   3.118  0.3683  0.4752 -0.0266
 5348SOL    HW127506   3.238   2.082   3.209 -2.2676 -1.3501 -0.8551
 5348SOL    HW227507   3.162   2.133   3.079  0.1831 -0.8713 -0.4037
 5349SOL     OW27508   4.564   0.483   9.061 -0.5355 -0.2653 -0.3664
 5349SOL    HW127509   4.586   0.496   9.153  0.5490 -2.3436 -0.3281
 5349SOL    HW227510   4.636   0.423   9.040  0.7192  0.7372  1.0718
 5350SOL     OW27511   0.233   0.403   6.888  0.4056 -0.1340 -0.0456
 5350SOL    HW127512   0.314   0.433   6.930  0.0603  0.3335  0.2924
 5350SOL    HW227513   0.249   0.309   6.882 -1.0543 -0.3079 -1.2371
 5351SOL     OW27514   0.645   4.158   6.551 -0.5413  0.2789  0.0544
 5351SOL    HW127515   0.659   4.211   6.473  1.0283 -0.6728 -0.3345
 5351SOL    HW227516   0.713   4.198   6.606 -0.3475  0.9608 -0.6828
 5352SOL     OW27517   1.702   1.250  11.108  0.8245 -0.0588  0.8578
 5352SOL    HW127518   1.699   1.295  11.192  0.7734  0.6001  0.4999
 5352SOL    HW227519   1.622   1.292  11.077  1.7620 -0.3396 -1.9218
 5353SOL     OW27520   4.607   0.987   2.877 -0.0730  0.3855  0.6503
 5353SOL    HW127521   4.592   0.893   2.882  2.1454  0.0454  1.1319
 5353SOL    HW227522   4.565   1.022   2.956  1.3942 -0.2936  1.7423
 5354SOL     OW27523   4.241   1.185   9.515 -0.2390  0.2756 -0.1263
 5354SOL    HW127524   4.200   1.148   9.436 -2.6291  0.9105  0.8333
 5354SOL    HW227525   4.308   1.117   9.522 -1.4372 -0.6938  2.0421
 5355SOL     OW27526   1.380   1.364   5.546  0.1026 -0.0313  0.4174
 5355SOL    HW127527   1.289   1.393   5.539  0.9574  3.0249  1.8356
 5355SOL    HW227528   1.421   1.450   5.537 -2.8573  1.4806  1.1176
 5356SOL     OW27529   2.382   3.025   1.811  0.1671 -0.0329 -0.6382
 5356SOL    HW127530   2.452   3.057   1.867 -1.8901  0.6588  1.5682
 5356SOL    HW227531   2.434   2.959   1.766  2.3631  0.1038  1.6896
 5357SOL     OW27532   4.597   3.885   0.246  0.1266 -0.0473  0.6609
 5357SOL    HW127533   4.590   3.918   0.335  1.5310 -2.6166  1.7243
 5357SOL    HW227534   4.666   3.822   0.268 -1.6884 -1.9876  0.8387
 5358SOL     OW27535   0.545   2.709   4.520 -0.3073 -0.7323  0.2894
 5358SOL    HW127536   0.601   2.781   4.551 -0.7310 -0.4665  0.4459
 5358SOL    HW227537   0.514   2.754   4.441  1.6825  2.2709  1.2070
 5359SOL     OW27538   1.785   3.398   6.040 -0.1718 -0.6246  0.1806
 5359SOL    HW127539   1.800   3.388   6.134  0.3727 -1.4896 -0.0010
 5359SOL    HW227540   1.729   3.476   6.046  0.3147 -0.2929  0.4185
 5360SOL     OW27541   1.852   2.820   3.797  0.4235  0.1871 -0.3217
 5360SOL    HW127542   1.852   2.831   3.701 -0.7560  0.2539 -0.3164
 5360SOL    HW227543   1.839   2.726   3.805  0.8311 -0.0137 -1.9536
 5361SOL     OW27544   1.953   1.415   8.625  0.0198 -0.4419 -0.1959
 5361SOL    HW127545   1.894   1.489   8.609 -1.2417 -1.4311 -0.1240
 5361SOL    HW227546   1.930   1.399   8.716  2.6596 -0.8230  0.3945
 5362SOL     OW27547   1.537   4.156   5.040  0.0674 -0.4903 -0.1613
 5362SOL    HW127548   1.515   4.094   4.970  1.7583 -0.9986 -0.2357
 5362SOL    HW227549   1.452   4.190   5.071  0.2739 -0.2074  0.0945
 5363SOL     OW27550   2.915   2.933   8.696 -0.3123  0.0134  0.2471
 5363SOL    HW127551   2.923   2.868   8.626  1.0030  0.4345 -0.0114
 5363SOL    HW227552   2.980   2.897   8.756 -0.1458  1.3669  0.8893
 5364SOL     OW27553   3.608   2.655   7.929  0.3217  0.0751 -0.0890
 5364SOL    HW127554   3.535   2.709   7.959  1.2865  1.2090  0.2297
 5364SOL    HW227555   3.644   2.639   8.016 -1.1796  0.7351  0.6594
 5365SOL     OW27556   3.920   1.117   7.548 -0.1675  0.3285  0.0821
 5365SOL    HW127557   3.956   1.198   7.513 -0.6863  1.1447  1.4389
 5365SOL    HW227558   3.974   1.110   7.627 -0.7247 -2.8202  0.1708
 5366SOL     OW27559   0.472   0.265   4.528 -0.3684 -0.1004  0.1457
 5366SOL    HW127560   0.476   0.326   4.454 -1.6783 -1.4316 -1.0117
 5366SOL    HW227561   0.560   0.279   4.563 -0.0194  0.5383 -0.9973
 5367SOL     OW27562   3.993   1.263  16.016 -0.6493 -0.2499 -0.4542
 5367SOL    HW127563   4.068   1.322  16.025 -1.1412  0.4284 -0.8500
 5367SOL    HW227564   3.931   1.335  16.020 -1.9622 -1.4004 -0.2272
 5368SOL     OW27565   0.942   2.007  12.827 -0.4618 -0.2584  0.1756
 5368SOL    HW127566   1.010   1.951  12.789  1.5723  0.8247  2.2274
 5368SOL    HW227567   0.997   2.043  12.897 -1.7654  0.1141  1.0004
 5369SOL     OW27568   4.566   1.305   2.440  0.2657 -0.6727  0.4847
 5369SOL    HW127569   4.656   1.272   2.449  1.0847  1.3890 -0.1343
 5369SOL    HW227570   4.515   1.224   2.436 -2.3211  1.0740 -1.5168
 5370SOL     OW27571   0.523   2.077   2.196 -0.6057 -0.6987 -0.8788
 5370SOL    HW127572   0.603   2.108   2.153 -0.8266  0.9303 -0.1032
 5370SOL    HW227573   0.537   2.113   2.284 -0.9699 -0.5074 -0.8999
 5371SOL     OW27574   1.117   2.685  13.685 -0.3513 -0.1918 -0.2473
 5371SOL    HW127575   1.180   2.624  13.722  2.0266  0.3968 -3.2698
 5371SOL    HW227576   1.087   2.638  13.607  0.0053 -0.4425 -0.2335
 5372SOL     OW27577   0.815   0.726   2.330 -0.8046  0.6173  0.3477
 5372SOL    HW127578   0.742   0.785   2.349 -3.5623 -2.8138  0.4353
 5372SOL    HW227579   0.852   0.723   2.419 -1.9566  3.3661  0.9304
 5373SOL     OW27580   3.627   4.192  11.888 -0.3404 -0.1537 -0.4694
 5373SOL    HW127581   3.702   4.213  11.832  0.2797 -0.0513  0.4085
 5373SOL    HW227582   3.648   4.106  11.924  1.1461  0.0517 -0.8286
 5374SOL     OW27583   1.139   1.911  16.383  0.5274 -0.3546 -0.7115
 5374SOL    HW127584   1.112   2.003  16.394  0.8537 -0.3848  0.3278
 5374SOL    HW227585   1.214   1.917  16.324  0.6082  0.8799 -0.4967
 5375SOL     OW27586   3.194   0.295   2.092  0.6292  0.0516 -0.0573
 5375SOL    HW127587   3.110   0.329   2.121  2.3963  3.1593  1.4063
 5375SOL    HW227588   3.219   0.377   2.049  1.1213 -0.6071 -1.0226
 5376SOL     OW27589   2.859   3.636   5.364  0.4618  0.3717  0.6588
 5376SOL    HW127590   2.847   3.730   5.382 -2.4966  0.3316 -1.0632
 5376SOL    HW227591   2.919   3.602   5.430  2.5200  1.6247 -0.5714
 5377SOL     OW27592   0.731   3.296  13.953  0.8403 -0.3712  0.7779
 5377SOL    HW127593   0.774   3.379  13.936 -0.6782  0.0848 -0.8412
 5377SOL    HW227594   0.690   3.278  13.869 -1.4921 -1.1746  2.0859
 5378SOL     OW27595   0.967   2.848  16.563  0.8147  0.5065 -0.0051
 5378SOL    HW127596   0.893   2.865  16.506  0.2152  1.3451  1.0202
 5378SOL    HW227597   0.935   2.885  16.646 -1.3125 -1.1974 -0.0724
 5379SOL     OW27598   2.742   3.408   0.794 -0.8064  0.1524 -0.3585
 5379SOL    HW127599   2.731   3.443   0.882  0.6248  0.9513 -0.5030
 5379SOL    HW227600   2.720   3.478   0.733 -0.5121  0.8127  0.3080
 5380SOL     OW27601   1.278   1.710   4.140  0.1806 -0.1198  0.6467
 5380SOL    HW127602   1.341   1.783   4.141 -0.6235  0.5746  0.0768
 5380SOL    HW227603   1.294   1.667   4.056  3.1041 -0.7215  1.5143
 5381SOL     OW27604   1.919   3.130  15.889  0.3469 -0.4295  0.5584
 5381SOL    HW127605   1.884   3.165  15.806 -0.5508 -3.4175 -0.3297
 5381SOL    HW227606   1.877   3.046  15.905 -0.1581 -0.4011 -0.5942
 5382SOL     OW27607   0.177   2.672   7.549 -0.0635 -0.2282  0.3260
 5382SOL    HW127608   0.116   2.746   7.548 -1.9613 -1.8038 -0.5443
 5382SOL    HW227609   0.254   2.714   7.511  0.8335 -0.2123  2.1785
 5383SOL     OW27610   1.965   2.344   7.861  0.3042 -0.6743 -0.5348
 5383SOL    HW127611   2.018   2.415   7.895  0.2694 -1.4578  1.1574
 5383SOL    HW227612   1.881   2.389   7.864  0.8579  0.5414 -3.5106
 5384SOL     OW27613   4.312   0.900   7.805  0.2850 -0.1554  0.4842
 5384SOL    HW127614   4.344   0.986   7.833  0.6833  0.8591 -3.1254
 5384SOL    HW227615   4.387   0.871   7.753  0.1141  1.7122 -0.8038
 5385SOL     OW27616   0.793   4.153   8.331  0.1075 -0.0231  0.1665
 5385SOL    HW127617   0.738   4.090   8.284 -1.1097 -0.7720  2.5888
 5385SOL    HW227618   0.721   4.196   8.378  0.0719  0.3197 -0.1973
 5386SOL     OW27619   3.818   2.497  12.212 -0.2621  0.1442 -0.3197
 5386SOL    HW127620   3.801   2.582  12.254 -2.0743 -1.5948  2.5251
 5386SOL    HW227621   3.910   2.513  12.191  0.0739 -2.7654 -0.9425
 5387SOL     OW27622   0.075   1.482  15.143 -0.1513 -0.0803 -0.0875
 5387SOL    HW127623   0.057   1.574  15.161  0.2413 -0.1686  0.7415
 5387SOL    HW227624   0.022   1.491  15.063  0.1376  0.0735 -0.2599
 5388SOL     OW27625   0.743   2.414  16.010  0.0914 -0.0455 -0.2050
 5388SOL    HW127626   0.788   2.382  16.088 -1.1662  1.3114  1.0690
 5388SOL    HW227627   0.800   2.488  15.989 -0.6996  1.1182  1.7687
 5389SOL     OW27628   3.627   2.052   3.982  0.5899 -0.2164 -0.2429
 5389SOL    HW127629   3.597   1.967   4.016 -0.0435 -0.5611 -1.6715
 5389SOL    HW227630   3.622   2.118   4.051  2.2832 -1.5022  1.0913
 5390SOL     OW27631   3.755   3.067   3.921  0.1081 -0.1393 -0.7332
 5390SOL    HW127632   3.689   3.002   3.894  0.2785 -0.7586  0.3551
 5390SOL    HW227633   3.833   3.013   3.933 -0.2628 -0.6907 -0.8063
 5391SOL     OW27634   0.387   2.830   7.472  0.2648  0.3730 -0.2513
 5391SOL    HW127635   0.444   2.906   7.486  1.2172 -0.4758  0.4321
 5391SOL    HW227636   0.408   2.822   7.379  0.6232  0.4516 -0.1746
 5392SOL     OW27637   2.625   3.646   6.332  0.5247  0.1120 -0.0574
 5392SOL    HW127638   2.670   3.570   6.369  0.5836 -0.1985 -0.7694
 5392SOL    HW227639   2.637   3.648   6.237 -2.5329  1.8147 -0.4235
 5393SOL     OW27640   1.090   2.394  16.522 -0.0111 -0.1426  0.3477
 5393SOL    HW127641   1.125   2.478  16.490  1.3509 -1.7333 -2.3414
 5393SOL    HW227642   1.000   2.413  16.496 -0.3876 -2.3093  0.1093
 5394SOL     OW27643   2.206   4.658   7.611  0.1482 -0.4341 -0.5256
 5394SOL    HW127644   2.270   4.662   7.541 -0.6249 -0.1613 -1.2227
 5394SOL    HW227645   2.245   0.001   7.668 -0.9431 -0.6581  0.4788
 5395SOL     OW27646   0.450   4.421   9.024  0.6978  0.3686 -0.5105
 5395SOL    HW127647   0.544   4.408   9.022  1.0818  2.7234  1.1704
 5395SOL    HW227648   0.436   4.483   8.952 -2.1032 -0.7591 -0.9375
 5396SOL     OW27649   0.547   1.363  14.625 -0.0016 -0.0827  0.1618
 5396SOL    HW127650   0.511   1.452  14.623  1.1003  0.3245 -1.8124
 5396SOL    HW227651   0.532   1.324  14.538  1.5051  3.0077 -1.4795
 5397SOL     OW27652   2.876   2.627   5.327  0.7925 -0.3406  0.4461
 5397SOL    HW127653   2.896   2.619   5.233  0.6815  0.2135  0.3766
 5397SOL    HW227654   2.813   2.699   5.327  0.0396 -0.9850 -1.6832
 5398SOL     OW27655   3.562   3.372   7.133 -0.3134 -0.0099  0.3317
 5398SOL    HW127656   3.619   3.364   7.210 -0.3637 -2.9363  0.0627
 5398SOL    HW227657   3.482   3.355   7.183 -0.0286  1.8004  1.3904
 5399SOL     OW27658   1.972   4.695  15.769 -0.2538  0.1573 -0.2126
 5399SOL    HW127659   2.052   4.647  15.789  0.2316 -0.0792 -2.6733
 5399SOL    HW227660   1.997   0.063  15.785 -0.4684  0.2825 -0.5772
 5400SOL     OW27661   1.489   2.616   5.003 -0.0120  0.2159 -0.2771
 5400SOL    HW127662   1.414   2.675   5.012  1.0665  1.4372  0.7751
 5400SOL    HW227663   1.451   2.540   5.048 -0.8170  0.7866 -0.0053
 5401SOL     OW27664   4.127   0.914   4.808 -0.3680 -0.1307 -0.2928
 5401SOL    HW127665   4.153   0.962   4.887  2.2816 -2.7387  0.4043
 5401SOL    HW227666   4.082   0.840   4.847 -2.0228  1.0136 -0.0593
 5402SOL     OW27667   2.213   0.189  11.038 -0.0228  0.1002 -0.5088
 5402SOL    HW127668   2.305   0.161  11.038  0.1142  0.5820  0.9903
 5402SOL    HW227669   2.211   0.250  11.111 -0.9055 -2.1400  1.3470
 5403SOL     OW27670   1.197   1.912   6.595 -0.2199  0.1612  0.6074
 5403SOL    HW127671   1.131   1.981   6.607 -2.4300 -1.9834  0.8156
 5403SOL    HW227672   1.167   1.843   6.655 -1.0524 -0.3736 -0.4139
 5404SOL     OW27673   2.234   2.672   9.047 -0.4274  0.2992 -0.0639
 5404SOL    HW127674   2.259   2.644   8.959 -0.4771  0.6725 -0.1953
 5404SOL    HW227675   2.311   2.721   9.078  1.0467 -1.5645 -0.7489
 5405SOL     OW27676   3.440   1.722   8.245 -0.1363 -0.3465  0.1472
 5405SOL    HW127677   3.357   1.676   8.234 -0.3770 -0.0233  0.6235
 5405SOL    HW227678   3.418   1.802   8.197  0.6593 -1.5396 -2.2294
 5406SOL     OW27679   0.004   1.924  15.635 -0.0195 -0.0727 -0.6303
 5406SOL    HW127680   0.010   1.829  15.634  0.7866 -0.0223 -0.0374
 5406SOL    HW227681   4.654   1.930  15.695  1.2901  1.0254  0.8583
 5407SOL     OW27682   0.019   1.160  15.731 -0.0763 -0.6118 -0.0149
 5407SOL    HW127683   4.647   1.155  15.738 -0.1224  0.2516  0.0279
 5407SOL    HW227684   0.040   1.253  15.740 -2.3069 -0.1934  1.0843
 5408SOL     OW27685   1.342   2.679   7.600  0.2514  0.1754  1.1145
 5408SOL    HW127686   1.257   2.639   7.585  0.5950  0.7763 -2.3881
 5408SOL    HW227687   1.332   2.736   7.676  0.2967  0.4933  0.8799
 5409SOL     OW27688   4.088   3.751   6.650  0.3018 -0.0637  0.5467
 5409SOL    HW127689   4.022   3.806   6.694  0.4367  0.1669  0.4632
 5409SOL    HW227690   4.045   3.731   6.567  1.7334 -3.4493  0.6316
 5410SOL     OW27691   0.058   3.729   5.208  0.6271 -0.7620 -0.0318
 5410SOL    HW127692   0.093   3.662   5.266  0.9275 -0.8913 -0.3647
 5410SOL    HW227693   0.022   3.683   5.133 -0.6038  0.5553 -0.2652
 5411SOL     OW27694   3.241   2.530   3.119 -0.1771 -0.2954 -0.4544
 5411SOL    HW127695   3.318   2.505   3.170 -1.2314  1.2512  1.9434
 5411SOL    HW227696   3.262   2.515   3.028 -1.0221  1.9573 -1.0360
 5412SOL     OW27697   0.400   3.823  16.163 -0.6577 -0.6994 -0.0637
 5412SOL    HW127698   0.376   3.776  16.243  0.7508 -1.6633 -0.1949
 5412SOL    HW227699   0.324   3.803  16.109  0.0080  0.3712 -1.3991
 5413SOL     OW27700   1.283   1.268  14.205 -0.1955 -0.6138  0.4748
 5413SOL    HW127701   1.308   1.258  14.296 -0.1057 -1.0745  0.4009
 5413SOL    HW227702   1.274   1.363  14.199 -2.9005 -0.8657  0.4136
 5414SOL     OW27703   4.422   0.058   6.367  0.4125  0.5712  0.4279
 5414SOL    HW127704   4.500   0.002   6.364 -1.2303 -1.7446  0.9202
 5414SOL    HW227705   4.362   4.717   6.329  0.4147  1.2557 -0.7090
 5415SOL     OW27706   0.486   0.328   1.359 -0.3233  0.4657 -0.2639
 5415SOL    HW127707   0.461   0.235   1.361 -0.0504  0.3801 -0.9744
 5415SOL    HW227708   0.574   0.345   1.393 -0.5978  1.7527 -0.2037
 5416SOL     OW27709   1.634   2.061   1.880 -0.0137 -0.2132  0.0903
 5416SOL    HW127710   1.613   2.019   1.963  1.2677 -3.0810 -1.0413
 5416SOL    HW227711   1.592   1.988   1.834 -0.2385 -0.3456  0.5083
 5417SOL     OW27712   1.366   0.660   8.181 -0.6315 -0.0224 -0.1158
 5417SOL    HW127713   1.291   0.601   8.177 -0.4374 -0.2116 -0.9331
 5417SOL    HW227714   1.421   0.621   8.113 -0.6011 -0.4556  0.1521
 5418SOL     OW27715   2.914   0.166   8.679  0.9202  0.2262 -0.2408
 5418SOL    HW127716   2.952   0.239   8.629 -1.7590  2.0541  0.4229
 5418SOL    HW227717   2.820   0.176   8.667  0.7826 -0.3462  0.3968
 5419SOL     OW27718   2.492   3.262  14.797 -0.6125 -0.7354 -0.1900
 5419SOL    HW127719   2.575   3.278  14.843 -1.5128 -0.5090  1.3660
 5419SOL    HW227720   2.449   3.344  14.821 -1.0612 -0.7579 -0.9237
 5420SOL     OW27721   4.002   3.115   0.834 -0.7083  0.0791 -0.2416
 5420SOL    HW127722   4.069   3.107   0.902 -0.4517  0.9695 -0.3909
 5420SOL    HW227723   3.942   3.045   0.860 -0.2144  0.1329  1.0765
 5421SOL     OW27724   0.780   0.187   1.077 -0.3449  0.0258 -0.1523
 5421SOL    HW127725   0.686   0.181   1.059 -0.2578 -1.1239 -0.2650
 5421SOL    HW227726   0.795   0.272   1.117 -0.7201 -0.5650  1.2601
 5422SOL     OW27727   2.100   1.962   7.029 -0.3412 -0.7498  0.4713
 5422SOL    HW127728   2.043   1.909   6.973 -0.2009 -0.6034  0.1886
 5422SOL    HW227729   2.118   1.906   7.105  1.1020  0.1535  0.7875
 5423SOL     OW27730   3.488   0.593   4.107  0.4007 -0.6665  0.8045
 5423SOL    HW127731   3.532   0.640   4.178 -1.9602  0.5826  1.4679
 5423SOL    HW227732   3.563   0.587   4.048  0.1500  1.3687  0.2796
 5424SOL     OW27733   2.554   1.748  10.423  0.1816 -0.0834  0.4583
 5424SOL    HW127734   2.497   1.714  10.354 -0.7253  0.1050  1.1041
 5424SOL    HW227735   2.487   1.792  10.476  0.3494  0.7053  0.0198
 5425SOL     OW27736   3.314   4.264  12.661  0.4316  0.1027 -0.1157
 5425SOL    HW127737   3.244   4.205  12.631  0.8482  0.1799 -1.2196
 5425SOL    HW227738   3.388   4.204  12.663  0.0209 -0.3864  0.4502
 5426SOL     OW27739   2.932   2.577   3.102 -0.2394  0.9479 -0.0092
 5426SOL    HW127740   3.018   2.589   3.141 -0.1188  1.4040 -0.4199
 5426SOL    HW227741   2.953   2.490   3.069  0.6108  0.1787  2.5923
 5427SOL     OW27742   3.854   4.094   1.428 -0.1804  0.0220 -0.1682
 5427SOL    HW127743   3.942   4.057   1.418 -0.0065  0.6732 -1.1141
 5427SOL    HW227744   3.854   4.176   1.378  1.2675 -0.1548 -0.4653
 5428SOL     OW27745   1.569   4.487   2.107  0.1050  0.1870 -0.4157
 5428SOL    HW127746   1.574   4.398   2.074 -0.3692 -0.2421  0.6788
 5428SOL    HW227747   1.590   4.533   2.026 -3.2354  0.6745 -1.0109
 5429SOL     OW27748   3.128   0.747   5.141  0.0081 -0.3130  0.0267
 5429SOL    HW127749   3.055   0.808   5.129  2.2540  1.8735 -2.4944
 5429SOL    HW227750   3.123   0.731   5.235 -0.2209 -1.3362 -0.1513
 5430SOL     OW27751   3.421   4.029   3.362 -1.2561  0.4058  0.0347
 5430SOL    HW127752   3.462   4.078   3.291 -0.2286 -0.2084  0.2096
 5430SOL    HW227753   3.335   4.072   3.365 -1.5909 -0.1098 -1.8800
 5431SOL     OW27754   2.339   4.485   9.141  0.4683  0.2583  0.0398
 5431SOL    HW127755   2.342   4.537   9.221  1.5474  0.3409 -0.0566
 5431SOL    HW227756   2.245   4.464   9.146  0.2208  1.5679  0.9946
 5432SOL     OW27757   2.567   4.496   6.132 -0.1186  0.4999  0.4114
 5432SOL    HW127758   2.499   4.561   6.150 -0.6968 -0.2912  1.0859
 5432SOL    HW227759   2.639   4.521   6.191 -1.4737  0.5412  2.0436
 5433SOL     OW27760   2.659   1.075   2.648 -0.1504  0.3088 -0.3700
 5433SOL    HW127761   2.591   1.021   2.608  0.1226  1.2914 -2.1602
 5433SOL    HW227762   2.723   1.066   2.577 -0.9375  0.7964 -1.1342
 5434SOL     OW27763   4.142   2.853  16.022 -0.6519 -0.3515 -0.4191
 5434SOL    HW127764   4.166   2.864  15.930 -0.9000  0.8204 -0.3463
 5434SOL    HW227765   4.093   2.771  16.020  1.2852 -1.5404  1.3904
 5435SOL     OW27766   3.785   1.163   2.883  0.0353 -0.0463  0.0111
 5435SOL    HW127767   3.813   1.072   2.897  2.1854  0.7035  0.5785
 5435SOL    HW227768   3.692   1.144   2.874 -0.0623  0.7302 -0.5507
 5436SOL     OW27769   0.025   4.080   4.496 -0.2431 -0.1543 -0.1678
 5436SOL    HW127770   4.692   4.006   4.517  2.3000 -1.5705  1.7304
 5436SOL    HW227771   0.015   4.130   4.576 -0.1353 -1.2920  0.5565
 5437SOL     OW27772   2.909   4.547   7.525 -0.4027  0.1544  0.4582
 5437SOL    HW127773   3.004   4.550   7.539 -0.6557  0.7179  2.1144
 5437SOL    HW227774   2.887   4.614   7.590  0.3671  0.3019  0.5691
 5438SOL     OW27775   1.925   0.632   2.012  0.0948 -0.0745 -0.0085
 5438SOL    HW127776   1.835   0.662   1.999 -0.8557 -3.1152 -0.6051
 5438SOL    HW227777   1.975   0.712   2.000 -1.0316  0.4682 -1.1313
 5439SOL     OW27778   0.594   1.334  12.734 -0.0943 -0.1030  0.4658
 5439SOL    HW127779   0.621   1.368  12.819 -2.9443  0.4726  1.1600
 5439SOL    HW227780   0.596   1.239  12.750 -0.4140 -0.2879 -0.5733
 5440SOL     OW27781   4.320   4.032   3.302 -0.2935  0.6673  0.0875
 5440SOL    HW127782   4.388   4.065   3.361 -0.2351 -1.2254  1.0779
 5440SOL    HW227783   4.358   3.950   3.272 -1.6993  0.6473 -1.6603
 5441SOL     OW27784   2.147   1.686   7.734 -0.0119  0.1353 -0.0923
 5441SOL    HW127785   2.140   1.727   7.648 -1.7481 -0.5454 -0.2668
 5441SOL    HW227786   2.202   1.759   7.761 -0.8239  0.2119  1.3393
 5442SOL     OW27787   1.957   2.118  11.908 -0.2337  0.0402  0.1398
 5442SOL    HW127788   2.050   2.115  11.887 -0.2451 -0.1908  0.1222
 5442SOL    HW227789   1.956   2.063  11.986 -1.6095  0.4659  0.4129
 5443SOL     OW27790   3.090   1.916   0.496 -0.4135 -0.0335  0.5187
 5443SOL    HW127791   3.078   1.856   0.423 -1.4502  0.5207  0.2356
 5443SOL    HW227792   3.184   1.901   0.505 -0.2025  1.3320  0.5151
 5444SOL     OW27793   2.780   3.406   8.429 -0.0512 -0.1213 -0.5320
 5444SOL    HW127794   2.694   3.378   8.397  0.1806 -2.7555  1.0778
 5444SOL    HW227795   2.829   3.325   8.414  0.0457 -0.4859  1.6621
 5445SOL     OW27796   2.700   4.468   2.683  0.7044 -0.2000 -0.5695
 5445SOL    HW127797   2.671   4.460   2.592  1.5437  0.9372 -0.9291
 5445SOL    HW227798   2.698   4.562   2.699 -1.9187 -0.3494 -0.0525
 5446SOL     OW27799   2.245   0.306  17.397  0.2930 -0.0566 -0.1465
 5446SOL    HW127800   2.181   0.237  17.412  0.0085  0.3039  0.2792
 5446SOL    HW227801   2.303   0.243  17.353 -2.0890 -1.1823 -1.6748
 5447SOL     OW27802   0.932   0.199   6.928  0.5465  0.6336 -0.4766
 5447SOL    HW127803   0.916   0.291   6.907  1.3069  0.5596 -1.3774
 5447SOL    HW227804   0.850   0.167   6.966 -0.4344  2.1881 -1.2713
 5448SOL     OW27805   2.954   4.488   0.991 -0.0081 -0.1952 -0.6682
 5448SOL    HW127806   2.996   4.402   0.997 -0.3144 -0.4440 -2.0911
 5448SOL    HW227807   3.002   4.546   1.050 -2.3361 -0.2316  1.2872
 5449SOL     OW27808   0.294   0.444   7.877  0.1509  0.2700  0.2683
 5449SOL    HW127809   0.382   0.481   7.873 -0.6463  2.0975 -0.4595
 5449SOL    HW227810   0.252   0.514   7.927  0.8180 -0.2989  1.6365
 5450SOL     OW27811   3.142   0.105   6.185  0.3151 -0.2049  0.0787
 5450SOL    HW127812   3.144   0.009   6.188  1.3392 -0.2105 -0.6366
 5450SOL    HW227813   3.118   0.122   6.276  1.6928  0.2485  0.3600
 5451SOL     OW27814   0.856   0.623   3.518  0.5793 -0.1307 -0.4739
 5451SOL    HW127815   0.790   0.554   3.512 -1.1129  1.6163 -2.0012
 5451SOL    HW227816   0.801   0.701   3.520  0.8240  0.0681 -1.9862
 5452SOL     OW27817   4.177   1.047   8.725  0.2501 -0.7432 -0.1704
 5452SOL    HW127818   4.265   1.014   8.709  0.7293  1.3844 -1.8951
 5452SOL    HW227819   4.155   1.079   8.638 -0.5519 -0.6615  0.0628
 5453SOL     OW27820   3.998   0.074   4.244  0.1378 -0.8203  0.0229
 5453SOL    HW127821   4.011   0.142   4.311 -1.8564  1.1371 -1.5711
 5453SOL    HW227822   3.950   0.134   4.186  1.1935 -0.9306 -0.9632
 5454SOL     OW27823   3.771   2.626   3.373 -0.5075 -0.0172  0.0274
 5454SOL    HW127824   3.804   2.536   3.375 -0.2831  0.1251  2.8913
 5454SOL    HW227825   3.714   2.643   3.298  2.1485 -2.6773 -2.5761
 5455SOL     OW27826   2.640   2.903   8.659  0.0721  0.1015 -0.6061
 5455SOL    HW127827   2.616   2.897   8.752  0.4880  2.2924 -0.3430
 5455SOL    HW227828   2.735   2.917   8.666  0.3042 -0.3882 -2.9834
 5456SOL     OW27829   1.089   2.655   3.175  0.2737 -0.3495 -0.1847
 5456SOL    HW127830   1.136   2.713   3.115 -1.2468 -1.7702 -2.7431
 5456SOL    HW227831   1.012   2.657   3.119 -0.5305  0.1931  0.9234
 5457SOL     OW27832   2.814   0.203   0.242  0.2365  0.5765 -0.6500
 5457SOL    HW127833   2.856   0.177   0.324 -2.1457  1.9669  1.0154
 5457SOL    HW227834   2.829   0.296   0.227  0.2588  0.6752 -0.0155
 5458SOL     OW27835   3.519   0.795   7.055  0.4204  0.4692 -0.3649
 5458SOL    HW127836   3.571   0.721   7.024  0.2481  0.4022 -0.4981
 5458SOL    HW227837   3.441   0.782   7.001  0.4847  1.3813 -0.6886
 5459SOL     OW27838   3.059   3.395  10.147  0.9261  0.6096  0.1668
 5459SOL    HW127839   3.067   3.422  10.238  2.4421  0.9555 -0.0735
 5459SOL    HW227840   3.009   3.314  10.152  1.0832  0.3703 -2.1576
 5460SOL     OW27841   0.255   1.047   5.796  0.2374 -0.0121  0.5324
 5460SOL    HW127842   0.341   1.079   5.827 -0.0734  1.3699 -0.0492
 5460SOL    HW227843   0.281   1.030   5.706  1.4893 -3.6774  1.5694
 5461SOL     OW27844   0.070   2.014   6.221  0.4653  0.3667  0.2589
 5461SOL    HW127845   0.109   1.979   6.141 -1.4225  1.8423 -1.3107
 5461SOL    HW227846   0.150   2.040   6.266  0.5362  0.3205  0.1610
 5462SOL     OW27847   0.900   0.023  16.633  0.1788  0.5734 -0.4613
 5462SOL    HW127848   0.925   4.687  16.562  1.1475 -3.1868  2.9494
 5462SOL    HW227849   0.849   0.085  16.581 -2.7172 -1.2599  0.2030
 5463SOL     OW27850   3.250   4.662   0.179 -0.2432  0.5596 -0.0078
 5463SOL    HW127851   3.197   4.716   0.119  1.4547  3.1813  0.8834
 5463SOL    HW227852   3.183   4.607   0.219 -0.7333 -0.1811 -1.8149
 5464SOL     OW27853   3.617   2.968   8.190 -0.5015  0.1005 -0.2312
 5464SOL    HW127854   3.550   2.912   8.230 -0.9828 -0.6271 -2.0909
 5464SOL    HW227855   3.640   3.026   8.263  1.6454  0.0187 -0.8612
 5465SOL     OW27856   2.824   1.729   2.416 -0.0483  0.8172 -0.3973
 5465SOL    HW127857   2.808   1.778   2.335 -1.3911  0.3125 -0.4324
 5465SOL    HW227858   2.862   1.804   2.461  0.3517  0.9668 -0.9722
 5466SOL     OW27859   0.870   1.755   3.136  0.3492  0.4519  0.0035
 5466SOL    HW127860   0.886   1.798   3.053  0.4457  1.4561  0.5501
 5466SOL    HW227861   0.868   1.828   3.198 -0.7571 -0.9247  1.6135
 5467SOL     OW27862   2.948   0.954   9.171 -0.1233 -0.1888 -0.0200
 5467SOL    HW127863   2.899   1.010   9.231 -2.0735  0.1127 -1.8911
 5467SOL    HW227864   3.033   0.962   9.215 -0.9299 -0.3263  1.5965
 5468SOL     OW27865   3.531   3.687  17.343  0.2767  0.3340 -0.2898
 5468SOL    HW127866   3.490   3.746  17.280 -0.2675 -0.7281 -0.9133
 5468SOL    HW227867   3.615   3.673  17.299  0.6782 -2.8165  1.4962
 5469SOL     OW27868   3.246   1.612   5.414 -0.4205  0.7672 -0.0488
 5469SOL    HW127869   3.205   1.674   5.354  1.1691  0.8086 -1.0891
 5469SOL    HW227870   3.315   1.669   5.448  1.9243 -0.4324 -2.6648
 5470SOL     OW27871   0.291   2.185   5.075 -0.5482  0.3662  0.4793
 5470SOL    HW127872   0.197   2.176   5.063 -0.6730 -0.1528  1.7700
 5470SOL    HW227873   0.292   2.211   5.167 -1.7553 -1.1050  0.9081
 5471SOL     OW27874   0.513   3.718   2.978  0.0102  0.0719 -0.0990
 5471SOL    HW127875   0.485   3.799   2.937 -1.1229 -0.0532  0.4145
 5471SOL    HW227876   0.607   3.727   2.962  0.4279  0.9978  2.8911
 5472SOL     OW27877   2.852   0.395   3.728 -0.8195 -0.1629  0.2756
 5472SOL    HW127878   2.809   0.312   3.709 -0.8120 -0.4069  1.3337
 5472SOL    HW227879   2.808   0.448   3.662  0.0733  0.1547 -0.0642
 5473SOL     OW27880   4.717   3.962   8.282 -0.2601 -0.1522  1.0634
 5473SOL    HW127881   4.651   4.016   8.239  1.3356  1.6984  0.9609
 5473SOL    HW227882   4.688   3.957   8.374 -2.3389  1.5537  0.4922
 5474SOL     OW27883   1.814   2.244  11.714 -0.2918 -0.3978  0.2918
 5474SOL    HW127884   1.846   2.333  11.728 -1.5378  0.3365 -1.4694
 5474SOL    HW227885   1.854   2.188  11.780 -1.4911  0.0296  1.4074
 5475SOL     OW27886   3.107   1.801   1.791 -0.3378 -0.1979 -0.2842
 5475SOL    HW127887   3.161   1.735   1.834 -1.5851 -0.4741  0.8667
 5475SOL    HW227888   3.064   1.749   1.722 -2.3854  0.0436  0.8305
 5476SOL     OW27889   1.180   3.971  14.669  0.1664 -0.3315 -0.7752
 5476SOL    HW127890   1.129   4.043  14.706 -2.0785 -1.3868 -1.8335
 5476SOL    HW227891   1.146   3.952  14.582 -1.7256 -0.6458  0.0358
 5477SOL     OW27892   0.908   2.982   7.391 -0.2844  0.0789 -0.2690
 5477SOL    HW127893   0.909   3.077   7.404 -1.2010 -0.0047  0.4161
 5477SOL    HW227894   0.865   2.978   7.306  0.1857  1.5524 -0.5947
 5478SOL     OW27895   4.336   2.402  11.223 -0.1208 -0.1380 -0.7725
 5478SOL    HW127896   4.405   2.348  11.185  1.5236  0.6299  1.1064
 5478SOL    HW227897   4.298   2.430  11.141 -0.2032  0.2345 -0.6041
 5479SOL     OW27898   1.282   2.603  16.516 -0.4916  0.1824  0.0298
 5479SOL    HW127899   1.360   2.554  16.542 -0.0015 -0.6458 -2.9553
 5479SOL    HW227900   1.331   2.678  16.482 -1.1585 -0.0052 -1.3380
 5480SOL     OW27901   2.527   2.849  16.719  0.1160 -0.5191 -0.4466
 5480SOL    HW127902   2.533   2.763  16.676  1.5966 -0.9529  0.6182
 5480SOL    HW227903   2.488   2.897  16.646 -1.3063 -0.2548  0.4904
 5481SOL     OW27904   2.341   0.473   4.561  0.2260 -0.0140  0.5515
 5481SOL    HW127905   2.405   0.447   4.494 -0.8703  2.0964 -1.3072
 5481SOL    HW227906   2.371   0.562   4.579 -0.3876  0.4092 -0.4932
 5482SOL     OW27907   2.882   2.672   7.696 -0.8241 -0.4526  0.4954
 5482SOL    HW127908   2.956   2.620   7.666  2.1809  3.2302  1.6068
 5482SOL    HW227909   2.849   2.707   7.613  1.9100  1.0871  0.0882
 5483SOL     OW27910   3.375   3.895   5.135 -0.6318  0.5134 -0.3038
 5483SOL    HW127911   3.312   3.965   5.116  0.3907  0.9725 -1.9898
 5483SOL    HW227912   3.355   3.863   5.223  0.0962 -1.1644 -0.7531
 5484SOL     OW27913   2.276   2.872   5.781  0.7177 -0.0287  0.4052
 5484SOL    HW127914   2.331   2.839   5.852  2.5604 -0.1427 -1.0615
 5484SOL    HW227915   2.250   2.794   5.732 -0.0954 -0.0571  0.8803
 5485SOL     OW27916   1.350   3.001   6.734 -0.0944  0.3162 -0.1199
 5485SOL    HW127917   1.428   2.997   6.788  0.8901 -1.8732 -1.6883
 5485SOL    HW227918   1.355   2.916   6.689 -3.5403  0.8596 -1.5475
 5486SOL     OW27919   3.221   3.674   2.260  0.4930  0.1882  0.5868
 5486SOL    HW127920   3.131   3.643   2.257 -0.2452  2.4855 -1.0130
 5486SOL    HW227921   3.263   3.629   2.187  0.8456  0.5142  0.5824
 5487SOL     OW27922   1.142   2.765   5.346 -0.8067 -0.2757 -0.3482
 5487SOL    HW127923   1.237   2.752   5.343 -0.5200  2.0036 -1.1547
 5487SOL    HW227924   1.143   2.858   5.325 -1.9004  0.2375  1.8190
 5488SOL     OW27925   1.964   4.639   8.380  0.1448 -0.3537  0.1773
 5488SOL    HW127926   2.023   4.566   8.361  1.7377  0.7739  0.7707
 5488SOL    HW227927   2.025   4.708   8.407  0.0973 -0.5637  0.8333
 5489SOL     OW27928   3.454   4.395   3.923 -0.1821  0.0950  0.2066
 5489SOL    HW127929   3.424   4.334   3.991  1.7909 -0.5400  0.5176
 5489SOL    HW227930   3.435   4.477   3.968 -0.3017  0.0340  0.2686
 5490SOL     OW27931   0.932   3.701  13.978  0.0897 -0.3388 -0.5145
 5490SOL    HW127932   0.955   3.610  13.995 -1.3553 -0.8387 -1.2403
 5490SOL    HW227933   1.009   3.747  14.012  0.0971 -1.7631  1.3973
 5491SOL     OW27934   2.004   3.069  11.837 -0.4230  0.2390  0.2148
 5491SOL    HW127935   1.915   3.090  11.808 -0.2969  1.9070  1.0978
 5491SOL    HW227936   2.052   3.090  11.757  1.5708  1.1654  1.6784
 5492SOL     OW27937   4.200   2.668   8.634  0.0248  0.0911  0.2386
 5492SOL    HW127938   4.190   2.659   8.540  1.1963 -0.5250  0.1705
 5492SOL    HW227939   4.115   2.636   8.662 -0.0387 -0.3218 -0.4232
 5493SOL     OW27940   2.258   4.031   8.917  0.0748 -0.2150  0.3029
 5493SOL    HW127941   2.225   3.970   8.983  2.0525 -0.6962  0.8731
 5493SOL    HW227942   2.268   3.978   8.838  2.2397 -1.0169  1.1034
 5494SOL     OW27943   2.450   2.213   5.880  0.2469  0.3004 -0.0192
 5494SOL    HW127944   2.529   2.225   5.826 -0.9422  0.1570 -1.8050
 5494SOL    HW227945   2.419   2.303   5.877  2.3163  1.0267  0.1349
 5495SOL     OW27946   3.476   3.349   2.844  0.1272  0.0785 -0.3113
 5495SOL    HW127947   3.534   3.387   2.779 -0.9153 -0.3214 -1.4772
 5495SOL    HW227948   3.410   3.418   2.855  0.6077  0.5858 -0.6084
 5496SOL     OW27949   0.110   3.270  13.690  0.4247  0.5707  0.1959
 5496SOL    HW127950   0.041   3.281  13.625  2.0758 -0.5897 -1.7756
 5496SOL    HW227951   0.127   3.175  13.685  1.0200  0.7066 -0.5105
 5497SOL     OW27952   0.978   1.491  11.093  0.2900 -0.3887  0.2089
 5497SOL    HW127953   1.040   1.500  11.021 -0.0352  2.0552  0.2177
 5497SOL    HW227954   0.955   1.398  11.090  2.6046 -0.9315 -0.8786
 5498SOL     OW27955   2.522   2.800  17.204  0.2801 -0.4422 -0.0075
 5498SOL    HW127956   2.484   2.877  17.246 -0.3419 -0.6673 -0.1534
 5498SOL    HW227957   2.521   2.843  17.118  1.4803 -0.1244  0.1407
 5499SOL     OW27958   0.061   2.648  13.508  0.4551 -0.1350 -0.3025
 5499SOL    HW127959   0.052   2.556  13.484  0.1063  0.4539 -2.4172
 5499SOL    HW227960   4.694   2.678  13.503  1.2954  2.1540 -1.5652
 5500SOL     OW27961   1.615   1.269   3.643  0.0288  0.1820 -0.0205
 5500SOL    HW127962   1.673   1.249   3.570 -0.4297 -0.9196 -0.0831
 5500SOL    HW227963   1.575   1.353   3.620  0.1971 -0.1171 -1.3612
 5501SOL     OW27964   2.598   4.438   0.244  0.1535  0.2516  0.8344
 5501SOL    HW127965   2.567   4.496   0.174  1.6727  1.0991  0.8504
 5501SOL    HW227966   2.673   4.477   0.289  1.0716  0.9186 -1.2850
 5502SOL     OW27967   2.222   4.650   3.910  0.0293 -0.7381 -0.4476
 5502SOL    HW127968   2.263   0.011   3.929  2.8366 -2.4567  0.9828
 5502SOL    HW227969   2.131   4.680   3.918  1.1092  3.3407 -3.2490
 5503SOL     OW27970   1.320   2.529   3.159 -0.2211  0.2886 -0.5844
 5503SOL    HW127971   1.233   2.560   3.183 -0.6222 -1.5641  0.4134
 5503SOL    HW227972   1.320   2.495   3.070 -0.8494 -0.3422 -0.3490
 5504SOL     OW27973   1.667   0.891  16.303  0.2520  0.0964 -0.0201
 5504SOL    HW127974   1.735   0.860  16.364 -0.1541 -0.2914  0.2349
 5504SOL    HW227975   1.721   0.933  16.237 -1.8202 -1.2870 -2.5815
 5505SOL     OW27976   0.495   0.977  14.260  0.2009 -0.4215  0.8046
 5505SOL    HW127977   0.487   0.979  14.165 -1.4711 -2.4875  0.8960
 5505SOL    HW227978   0.544   0.895  14.259 -0.3787 -0.7583 -0.2448
 5506SOL     OW27979   2.469   0.609   3.271 -0.7429 -0.7109 -0.3508
 5506SOL    HW127980   2.407   0.536   3.272 -1.8907  0.2733  2.8151
 5506SOL    HW227981   2.410   0.683   3.283 -0.1528 -0.2076 -0.5339
 5507SOL     OW27982   0.458   3.593   2.240  0.2534 -0.0198  0.0677
 5507SOL    HW127983   0.458   3.685   2.214  0.2107 -0.0416 -0.0082
 5507SOL    HW227984   0.403   3.606   2.317 -1.1323  0.0094 -0.9202
 5508SOL     OW27985   0.136   1.387   2.927 -0.0166 -0.8691  0.6229
 5508SOL    HW127986   0.048   1.396   2.891  0.7768 -1.0573 -1.3833
 5508SOL    HW227987   0.165   1.328   2.857  2.3866 -0.4311  1.2644
 5509SOL     OW27988   3.300   1.014   6.579  0.7116  0.1991 -0.6234
 5509SOL    HW127989   3.270   1.061   6.501 -0.6745 -0.6270 -0.5910
 5509SOL    HW227990   3.220   1.010   6.631 -0.9741 -1.0785 -3.3297
 5510SOL     OW27991   1.413   1.156   4.958  0.2987 -0.0560 -0.3470
 5510SOL    HW127992   1.451   1.211   4.889  0.7423 -1.4825 -1.2370
 5510SOL    HW227993   1.336   1.123   4.911  0.1402 -0.4455  0.1938
 5511SOL     OW27994   4.284   2.935  13.004 -0.2259  0.6568  0.7379
 5511SOL    HW127995   4.344   3.008  12.992  0.0288  0.1371 -1.0914
 5511SOL    HW227996   4.338   2.860  12.979  0.5239  2.2922 -2.4815
 5512SOL     OW27997   4.567   1.241   1.820  0.2962 -0.4533 -0.1314
 5512SOL    HW127998   4.572   1.251   1.915 -1.2625  1.7401 -0.2861
 5512SOL    HW227999   4.655   1.215   1.792  0.3919  0.7033 -0.9376
 5513SOL     OW28000   3.338   3.536  16.948  0.0138  1.0809  0.1120
 5513SOL    HW128001   3.368   3.523  16.858  1.5499 -1.4686  0.9911
 5513SOL    HW228002   3.393   3.469  16.989 -0.9482 -1.2160 -2.3391
 5514SOL     OW28003   2.121   4.254  17.544 -0.2422  0.9741 -0.3516
 5514SOL    HW128004   2.088   4.281  17.459 -0.7997 -2.8882 -1.3229
 5514SOL    HW228005   2.216   4.252  17.531 -0.5278 -0.8680 -1.9957
 5515SOL     OW28006   0.648   0.144   6.959 -0.0431  0.2697 -0.5937
 5515SOL    HW128007   0.627   0.165   6.868 -0.7858 -0.6906 -0.6367
 5515SOL    HW228008   0.573   0.097   6.996  1.4892 -2.4286 -0.9310
 5516SOL     OW28009   3.767   3.496   1.161  0.3500  0.4278  0.1600
 5516SOL    HW128010   3.816   3.451   1.092 -2.1094 -0.6362 -0.8915
 5516SOL    HW228011   3.782   3.589   1.147 -0.1167  0.3181 -1.0483
 5517SOL     OW28012   2.268   2.717   1.661  0.1033  0.4400  0.1849
 5517SOL    HW128013   2.249   2.746   1.572 -0.3445 -0.6638 -0.0796
 5517SOL    HW228014   2.358   2.746   1.671  0.1903 -0.8149  3.0477
 5518SOL     OW28015   1.651   4.510  14.999 -0.2800  0.1617  0.2765
 5518SOL    HW128016   1.683   4.432  15.045 -1.7152 -1.6740 -1.8405
 5518SOL    HW228017   1.633   4.473  14.912 -0.7581  1.4499 -0.1741
 5519SOL     OW28018   0.625   0.737  14.306 -0.6797  0.0227 -0.2212
 5519SOL    HW128019   0.658   0.648  14.299  0.0926  0.3104 -0.2661
 5519SOL    HW228020   0.703   0.791  14.316 -0.1936 -1.0412  1.7073
 5520SOL     OW28021   4.273   3.845   7.764 -0.1545 -0.2518 -0.2358
 5520SOL    HW128022   4.350   3.796   7.736  0.4268  1.4908 -1.7291
 5520SOL    HW228023   4.315   3.903   7.828  0.4494 -1.7905  0.7477
 5521SOL     OW28024   3.316   0.179   8.704  0.5461 -0.1498 -0.5148
 5521SOL    HW128025   3.301   0.237   8.630  0.6199  0.2805 -0.1916
 5521SOL    HW228026   3.350   0.237   8.772 -2.4553  0.6951  0.2546
 5522SOL     OW28027   2.413   0.296   4.211  0.4325  0.0406  0.2657
 5522SOL    HW128028   2.505   0.271   4.213  0.4873  0.3544  1.7891
 5522SOL    HW228029   2.421   0.363   4.143  0.1362 -0.5950 -0.4032
 5523SOL     OW28030   4.039   2.704  11.735  0.2130 -0.2926 -0.1620
 5523SOL    HW128031   4.097   2.713  11.659 -2.4900  0.4149 -2.1579
 5523SOL    HW228032   4.096   2.690  11.811  0.8887  1.8513 -0.2760
 5524SOL     OW28033   1.497   3.722   6.363  0.6644  0.2001  0.8589
 5524SOL    HW128034   1.465   3.797   6.313 -0.2838 -0.0793  1.0446
 5524SOL    HW228035   1.428   3.701   6.426 -0.6289 -0.8559 -0.8812
 5525SOL     OW28036   2.321   0.847  16.720  0.0156 -0.2099 -0.0796
 5525SOL    HW128037   2.315   0.935  16.683 -3.8505 -0.5158 -0.2238
 5525SOL    HW228038   2.232   0.812  16.717  0.7693 -2.1073 -0.2872
 5526SOL     OW28039   4.705   1.565   6.158 -0.0391 -0.3021  0.0524
 5526SOL    HW128040   0.010   1.619   6.231 -0.7150  1.2365 -0.8224
 5526SOL    HW228041   4.677   1.490   6.211  2.7325 -1.1493  0.3121
 5527SOL     OW28042   0.414   2.611   8.918  0.2519  0.1078  0.1818
 5527SOL    HW128043   0.444   2.535   8.870 -0.7463 -0.6600  0.7755
 5527SOL    HW228044   0.497   2.644   8.951 -0.1282 -0.0120  1.2623
 5528SOL     OW28045   1.810   3.125  14.584  0.2599  0.4122  0.2220
 5528SOL    HW128046   1.813   3.192  14.652  2.3036  2.1778 -1.6228
 5528SOL    HW228047   1.717   3.133  14.561  0.1771  1.6954  1.0295
 5529SOL     OW28048   0.833   2.446   6.058 -0.6417 -0.3815 -0.0812
 5529SOL    HW128049   0.912   2.465   6.007 -0.2151 -0.1060  0.6814
 5529SOL    HW228050   0.776   2.510   6.017 -2.8051 -1.5434  1.1261
 5530SOL     OW28051   0.943   2.362   9.110  0.1424  0.2837  0.4379
 5530SOL    HW128052   0.984   2.416   9.042  1.0157 -1.2288 -0.2236
 5530SOL    HW228053   0.991   2.387   9.189  0.6000  3.1420 -0.7209
 5531SOL     OW28054   2.421   4.355   9.448 -0.3965  0.3892 -0.2740
 5531SOL    HW128055   2.448   4.266   9.423 -2.2466 -0.6152  1.2603
 5531SOL    HW228056   2.330   4.337   9.473 -0.0313 -0.4876  0.4177
 5532SOL     OW28057   4.199   2.760  14.457  0.1870 -0.2094 -0.5054
 5532SOL    HW128058   4.249   2.838  14.430  0.2301 -0.2789 -0.6273
 5532SOL    HW228059   4.266   2.700  14.488 -0.3230  0.0264  1.0406
 5533SOL     OW28060   2.823   4.581   0.729  0.1865 -0.2701  0.5555
 5533SOL    HW128061   2.782   4.667   0.723 -1.1500 -0.9863 -0.4410
 5533SOL    HW228062   2.869   4.601   0.811  0.0373  0.5898  0.4316
 5534SOL     OW28063   1.000   2.108   6.584  0.3241  0.5777 -0.1043
 5534SOL    HW128064   0.916   2.095   6.627 -0.2166 -0.6697 -1.5119
 5534SOL    HW228065   0.976   2.116   6.491  0.0695  5.1446  0.3538
 5535SOL     OW28066   3.062   1.221   7.854 -0.2191  0.2263 -0.0255
 5535SOL    HW128067   3.080   1.131   7.825 -0.9826 -0.3496  1.2324
 5535SOL    HW228068   3.147   1.263   7.839 -0.6695  0.7113 -1.1910
 5536SOL     OW28069   2.804   0.265   9.678 -0.8017  0.1282  0.7657
 5536SOL    HW128070   2.774   0.353   9.703 -2.1905 -0.8741  2.6168
 5536SOL    HW228071   2.881   0.263   9.734 -0.1834 -0.1188 -0.0930
 5537SOL     OW28072   3.397   1.023   8.036 -0.3857  0.0306 -0.0053
 5537SOL    HW128073   3.399   1.117   8.018  1.0107 -0.1665 -0.8906
 5537SOL    HW228074   3.458   1.017   8.110  0.9672  0.0668 -1.1277
 5538SOL     OW28075   2.133   2.398  13.813 -0.1627 -0.9241  0.3354
 5538SOL    HW128076   2.048   2.369  13.847 -0.6734 -1.4595 -1.3492
 5538SOL    HW228077   2.133   2.339  13.737 -1.2524 -0.3680 -0.0908
 5539SOL     OW28078   1.319   2.628   9.300 -0.2464  0.0639 -0.0697
 5539SOL    HW128079   1.281   2.716   9.304 -1.2023 -0.3342 -0.5386
 5539SOL    HW228080   1.414   2.639   9.297 -0.2733 -0.3459 -2.3237
 5540SOL     OW28081   0.818   0.009   6.232  0.4660  0.2795 -0.0374
 5540SOL    HW128082   0.742   0.024   6.289  1.1645 -1.3226  1.3176
 5540SOL    HW228083   0.854   0.095   6.214  1.2689 -0.2199 -0.8232
 5541SOL     OW28084   3.522   0.909   2.594  0.1617 -0.4495 -0.1183
 5541SOL    HW128085   3.608   0.920   2.554 -0.9778  3.5058 -1.4209
 5541SOL    HW228086   3.470   0.981   2.558 -1.8301 -0.5173  2.5945
 5542SOL     OW28087   4.594   0.965   4.170 -0.3371 -0.0638  0.1563
 5542SOL    HW128088   4.571   0.901   4.103 -2.4901  0.9628 -0.0797
 5542SOL    HW228089   4.599   0.911   4.249  0.1977  2.6212  1.9614
 5543SOL     OW28090   4.288   2.794   7.891 -0.6130  0.0199  0.1360
 5543SOL    HW128091   4.201   2.829   7.911 -1.3446 -1.8250  0.2553
 5543SOL    HW228092   4.271   2.757   7.804  0.9234  1.2145 -0.6641
 5544SOL     OW28093   3.063   0.673  13.353  0.1339 -0.0000  0.0691
 5544SOL    HW128094   3.096   0.763  13.344  0.5585 -0.1272  0.3329
 5544SOL    HW228095   2.975   0.692  13.387  0.6082  2.3908 -0.0152
 5545SOL     OW28096   0.740   2.075   6.743 -0.8692  0.1333 -0.6068
 5545SOL    HW128097   0.697   2.056   6.827  1.8646  0.5318  0.8834
 5545SOL    HW228098   0.695   2.159   6.730 -0.6318  0.4021  0.2708
 5546SOL     OW28099   4.328   3.491   1.727 -0.0516 -0.0765 -0.1300
 5546SOL    HW128100   4.347   3.566   1.782  1.3938 -0.3103 -0.3157
 5546SOL    HW228101   4.413   3.470   1.689 -0.4426 -1.8122 -0.0878
 5547SOL     OW28102   2.942   0.436   4.738  0.4665  0.4903  0.3380
 5547SOL    HW128103   2.895   0.508   4.779  2.4339  0.6576  2.3059
 5547SOL    HW228104   3.026   0.439   4.785  2.2185 -0.7875 -2.7288
 5548SOL     OW28105   3.121   2.389  10.710 -0.6486 -0.1918  0.1859
 5548SOL    HW128106   3.125   2.313  10.769  2.6308  1.6346  2.3139
 5548SOL    HW228107   3.074   2.451  10.766  0.6595 -0.3043  1.4133
 5549SOL     OW28108   0.536   2.832  13.081  0.0369  0.5757 -0.5864
 5549SOL    HW128109   0.556   2.925  13.088  3.3645 -0.0460 -1.7334
 5549SOL    HW228110   0.601   2.794  13.021  1.0268 -0.4845  1.1656
 5550SOL     OW28111   3.595   3.968   3.109  0.0893 -0.0153  0.7266
 5550SOL    HW128112   3.669   3.957   3.170  0.6025 -1.9714 -0.2402
 5550SOL    HW228113   3.635   3.978   3.023 -0.0517 -1.0208  0.5387
 5551SOL     OW28114   2.715   3.061  11.530  0.6141 -0.0745 -0.3492
 5551SOL    HW128115   2.635   3.106  11.558  0.4421  0.9637 -2.5405
 5551SOL    HW228116   2.777   3.116  11.577 -1.4629 -0.7850  3.1997
 5552SOL     OW28117   0.425   4.672   1.724 -0.2277 -0.1049  0.4652
 5552SOL    HW128118   0.481   4.638   1.794 -0.3432 -1.0359  0.0948
 5552SOL    HW228119   0.485   4.671   1.649  0.6641  1.8929  1.1391
 5553SOL     OW28120   2.338   4.420   8.270 -0.0799  0.1252 -0.1089
 5553SOL    HW128121   2.281   4.377   8.206 -1.0374  2.0967 -0.5700
 5553SOL    HW228122   2.381   4.338   8.295  2.2626  1.0616 -1.0102
 5554SOL     OW28123   1.663   3.491   4.666 -0.2214  0.1358 -0.0946
 5554SOL    HW128124   1.632   3.547   4.738 -0.1412  2.2101 -1.6668
 5554SOL    HW228125   1.581   3.454   4.634  0.8650 -0.0298 -2.7206
 5555SOL     OW28126   2.545   0.793   5.751 -0.1168  0.5262  0.4350
 5555SOL    HW128127   2.475   0.856   5.735 -0.7767 -0.5597 -0.9343
 5555SOL    HW228128   2.600   0.814   5.676 -0.7701 -2.1141 -0.7924
 5556SOL     OW28129   2.478   3.643  10.957  0.6720 -0.2885  0.2908
 5556SOL    HW128130   2.550   3.589  10.924  1.6313  0.8357  0.5372
 5556SOL    HW228131   2.540   3.708  10.992 -0.9852  1.4130  0.1053
 5557SOL     OW28132   1.106   1.924   7.474  0.3174  0.0878  0.5065
 5557SOL    HW128133   1.147   1.849   7.515  0.3769  0.3544  0.9309
 5557SOL    HW228134   1.170   1.947   7.406 -0.2093 -1.0265 -0.3744
 5558SOL     OW28135   0.574   0.936  11.583  0.3425 -0.3155 -0.1472
 5558SOL    HW128136   0.643   0.870  11.573 -0.3380 -0.9408 -0.7877
 5558SOL    HW228137   0.567   0.940  11.679 -0.6394  0.3307 -0.2407
 5559SOL     OW28138   0.763   4.085   4.118  1.0720  0.4068  0.2354
 5559SOL    HW128139   0.843   4.047   4.156  0.7377 -0.4420  0.0942
 5559SOL    HW228140   0.806   4.148   4.060  0.5496  0.4398 -0.1171
 5560SOL     OW28141   4.571   3.292   1.929 -0.1989 -0.4999  0.0672
 5560SOL    HW128142   4.492   3.240   1.912 -0.8643  0.6406 -0.3581
 5560SOL    HW228143   4.592   3.331   1.844 -0.1597 -0.1614  0.2296
 5561SOL     OW28144   2.555   1.065  11.178 -0.1284 -0.1957  0.1966
 5561SOL    HW128145   2.599   1.013  11.110  1.5205  0.0483  1.0642
 5561SOL    HW228146   2.481   1.103  11.131  0.9478  1.6746 -0.0071
 5562SOL     OW28147   1.835   0.316   6.627  0.1723 -0.2202 -0.0580
 5562SOL    HW128148   1.746   0.350   6.614  0.0358  0.3569  2.3781
 5562SOL    HW228149   1.815   0.223   6.629  0.5389 -0.2724  0.8594
 5563SOL     OW28150   0.580   3.474   3.915 -0.8482 -0.3091 -0.1744
 5563SOL    HW128151   0.661   3.445   3.873 -0.1873  0.6120  0.4747
 5563SOL    HW228152   0.590   3.568   3.903  1.1962 -0.6102 -0.8459
 5564SOL     OW28153   1.975   3.926   6.768 -0.4398  0.3574  0.0321
 5564SOL    HW128154   1.916   3.940   6.694 -0.5700  0.1880  0.1047
 5564SOL    HW228155   2.043   3.866   6.737 -0.8273 -1.5874  3.0149
 5565SOL     OW28156   3.211   0.478   4.833  0.3599  0.5352 -1.0520
 5565SOL    HW128157   3.265   0.528   4.893 -1.4702  3.4443 -1.8718
 5565SOL    HW228158   3.225   0.393   4.875 -1.8844  0.5670 -0.2485
 5566SOL     OW28159   3.397   1.178   4.038  0.3251  0.4173  0.3564
 5566SOL    HW128160   3.324   1.227   4.074  0.4394 -0.6584  2.0855
 5566SOL    HW228161   3.359   1.091   4.029  3.2217 -0.7949 -0.2932
 5567SOL     OW28162   2.988   1.177   8.637 -0.0823  0.3395 -0.3977
 5567SOL    HW128163   2.934   1.187   8.559  0.3592  0.2459 -0.7168
 5567SOL    HW228164   3.022   1.088   8.642  2.1813  1.2212  0.1770
 5568SOL     OW28165   4.300   3.325   2.313  0.1501  0.0927 -0.3926
 5568SOL    HW128166   4.228   3.264   2.332 -1.0113  1.2290 -1.1543
 5568SOL    HW228167   4.270   3.362   2.229  0.6242  0.1635 -0.5281
 5569SOL     OW28168   2.636   3.249  17.068  0.0450 -0.2187  0.3262
 5569SOL    HW128169   2.672   3.308  17.134 -0.4383  1.4408 -0.8696
 5569SOL    HW228170   2.542   3.258  17.084 -0.0172 -3.0886  1.5761
 5570SOL     OW28171   3.131   1.287   7.375  0.1008  0.2631  0.2674
 5570SOL    HW128172   3.124   1.194   7.396  0.7090  0.0457 -0.5204
 5570SOL    HW228173   3.215   1.287   7.329  0.0474 -1.1084  0.1705
 5571SOL     OW28174   2.805   0.196   9.365 -0.1432 -0.4130  0.1073
 5571SOL    HW128175   2.784   0.106   9.390 -0.0975 -0.3844  0.2494
 5571SOL    HW228176   2.808   0.235   9.453  1.7494  0.9471 -0.5797
 5572SOL     OW28177   1.529   2.810   3.497 -0.2146  0.4071 -0.9107
 5572SOL    HW128178   1.434   2.817   3.491 -0.1990  1.5196  0.1722
 5572SOL    HW228179   1.545   2.837   3.406 -0.7735 -1.9245 -1.7131
 5573SOL     OW28180   3.833   4.190   1.161 -0.0190  0.0372  0.5700
 5573SOL    HW128181   3.878   4.202   1.077 -1.0292  1.0008  0.1552
 5573SOL    HW228182   3.771   4.264   1.160  0.6226  0.6178  3.8895
 5574SOL     OW28183   1.779   1.103  11.525 -0.0328  0.4606  0.0431
 5574SOL    HW128184   1.737   1.022  11.552 -0.1935  0.6418  0.3445
 5574SOL    HW228185   1.741   1.137  11.443  0.8207  0.2578 -0.4275
 5575SOL     OW28186   4.678   0.447  12.380 -0.0854 -0.3137  0.3036
 5575SOL    HW128187   4.640   0.530  12.351  1.8266  0.3866 -0.2112
 5575SOL    HW228188   4.713   0.467  12.467 -0.7323  0.1343  0.4601
 5576SOL     OW28189   2.266   4.150   6.968  0.6562  0.4667 -0.1964
 5576SOL    HW128190   2.177   4.172   6.998  1.0149 -0.8891  1.8562
 5576SOL    HW228191   2.242   4.058   6.960  0.7214  0.5877 -1.8757
 5577SOL     OW28192   1.515   1.817   2.415  0.7178  0.2806  0.1807
 5577SOL    HW128193   1.560   1.732   2.420 -0.4726 -0.3122  0.7978
 5577SOL    HW228194   1.523   1.838   2.322  0.9376 -1.2114 -0.1479
 5578SOL     OW28195   3.191   3.762  17.026  0.2328 -0.1279 -0.2821
 5578SOL    HW128196   3.271   3.807  17.052 -0.7505  1.6447 -0.2860
 5578SOL    HW228197   3.233   3.688  16.982  0.5570 -0.2086  0.1613
 5579SOL     OW28198   3.883   3.428   5.268  0.5286  0.2575  0.1192
 5579SOL    HW128199   3.832   3.348   5.257 -0.6174  0.8551  1.0490
 5579SOL    HW228200   3.816   3.488   5.236 -1.1541 -0.9542  1.4089
 5580SOL     OW28201   1.890   4.194  13.419 -0.3947  0.3708 -0.0618
 5580SOL    HW128202   1.805   4.238  13.426 -1.2344 -1.6577  2.5665
 5580SOL    HW228203   1.856   4.107  13.399 -2.1617  1.7400 -3.0213
 5581SOL     OW28204   0.674   3.630   6.333  0.3811 -0.0370  0.4455
 5581SOL    HW128205   0.622   3.625   6.253  1.3138 -0.4231 -0.1388
 5581SOL    HW228206   0.750   3.681   6.305 -1.2749  1.5807 -1.0764
 5582SOL     OW28207   3.036   0.078   3.674  0.2237  0.2396 -0.1936
 5582SOL    HW128208   3.103   0.146   3.662 -0.9330  1.2479 -0.9515
 5582SOL    HW228209   2.957   0.115   3.633  0.2412 -0.7523 -1.1203
 5583SOL     OW28210   0.808   3.484   4.238 -0.0788  1.0791  0.2285
 5583SOL    HW128211   0.762   3.544   4.296 -2.9734 -0.3513 -0.5988
 5583SOL    HW228212   0.738   3.428   4.204  1.5325  0.2283 -1.7072
 5584SOL     OW28213   4.053   2.977   4.568  0.5051 -0.8984 -0.4307
 5584SOL    HW128214   4.003   3.051   4.603  2.6842 -0.2838  1.3844
 5584SOL    HW228215   4.056   2.924   4.648 -0.8311 -0.0907  0.1589
 5585SOL     OW28216   3.573   3.254   3.412 -0.4770  0.1994 -0.1841
 5585SOL    HW128217   3.484   3.269   3.382 -1.5989 -1.5384  2.2448
 5585SOL    HW228218   3.612   3.329   3.368 -2.6392  0.2843 -1.9502
 5586SOL     OW28219   0.456   2.335  15.045 -0.1180  0.2266 -0.0485
 5586SOL    HW128220   0.458   2.244  15.076  4.5953  0.6935  1.1099
 5586SOL    HW228221   0.366   2.335  15.012 -1.1004  2.2431  2.6629
 5587SOL     OW28222   0.326   3.133   8.272  0.7231  0.3782 -0.4274
 5587SOL    HW128223   0.392   3.074   8.307 -1.8181 -2.1883  0.0711
 5587SOL    HW228224   0.368   3.212   8.305  0.6479  1.2534 -2.4030
 5588SOL     OW28225   2.806   0.675   9.911 -0.0826 -0.4225  0.0683
 5588SOL    HW128226   2.812   0.754   9.858  2.3113 -1.9462 -1.8888
 5588SOL    HW228227   2.741   0.629   9.858 -3.4056  3.3992  0.7740
 5589SOL     OW28228   0.685   0.745   7.279 -0.6842 -0.4953 -0.0148
 5589SOL    HW128229   0.716   0.804   7.347 -0.3503 -0.3632 -0.2809
 5589SOL    HW228230   0.592   0.740   7.299 -0.7932  0.8199 -0.1397
 5590SOL     OW28231   2.360   0.189   9.687 -0.2765  0.2282  0.0625
 5590SOL    HW128232   2.377   0.264   9.630 -0.0489  0.2177  0.1139
 5590SOL    HW228233   2.442   0.186   9.738  0.5122  1.0668 -1.1619
 5591SOL     OW28234   2.675   4.382   1.978  0.2817 -0.5042  0.5481
 5591SOL    HW128235   2.721   4.360   1.897  2.3382 -0.2676  1.6535
 5591SOL    HW228236   2.729   4.453   2.013  0.3052 -0.8939  1.2905
 5592SOL     OW28237   2.705   2.981   1.368  0.0804 -0.3988 -0.4401
 5592SOL    HW128238   2.726   3.014   1.281 -0.0107  0.7002 -0.0485
 5592SOL    HW228239   2.704   3.060   1.423  0.8976  0.2859 -1.4181
 5593SOL     OW28240   4.047   2.253   3.313 -1.1173 -0.2461  0.4045
 5593SOL    HW128241   3.963   2.220   3.345 -1.4328 -0.5843 -0.7499
 5593SOL    HW228242   4.071   2.196   3.240  0.0543 -0.6460  1.1161
 5594SOL     OW28243   2.267   1.629   6.627 -0.0321 -0.3093  0.4184
 5594SOL    HW128244   2.176   1.600   6.618  0.9347 -3.3284  0.3979
 5594SOL    HW228245   2.281   1.697   6.561  1.6277  0.3013  1.4097
 5595SOL     OW28246   0.093   1.597   9.374 -0.4208 -0.1161 -0.0360
 5595SOL    HW128247   4.721   1.604   9.361 -0.5607  0.9828  1.5322
 5595SOL    HW228248   0.104   1.664   9.442  0.6621  0.9280 -1.2582
 5596SOL     OW28249   2.060   0.397   4.258 -0.0762  0.5510  0.9460
 5596SOL    HW128250   1.989   0.407   4.323 -0.6811 -0.0694  0.3851
 5596SOL    HW228251   2.051   0.479   4.210  1.0055  1.0789  1.6671
 5597SOL     OW28252   4.554   0.317  12.191 -0.6243  0.0561 -0.2027
 5597SOL    HW128253   4.607   0.374  12.247 -1.0527 -0.2396  0.5054
 5597SOL    HW228254   4.531   0.242  12.245 -0.6336 -0.2107 -0.5756
 5598SOL     OW28255   0.387   1.618   5.260  0.0370  0.2014  0.0176
 5598SOL    HW128256   0.362   1.541   5.209  0.2243  0.8418 -1.0471
 5598SOL    HW228257   0.445   1.574   5.323 -0.6903  2.3251  2.1712
 5599SOL     OW28258   0.233   0.858   3.435  0.1970  0.5324  0.1166
 5599SOL    HW128259   0.220   0.843   3.341  2.4143 -0.5262 -0.0341
 5599SOL    HW228260   0.289   0.936   3.426 -0.3470  0.8706 -0.3515
 5600SOL     OW28261   4.407   1.326   7.285  0.3353 -0.4831 -0.0498
 5600SOL    HW128262   4.450   1.301   7.203  1.7862  0.5801  0.3925
 5600SOL    HW228263   4.452   1.262   7.339 -2.2139 -2.0816  0.1982
 5601SOL     OW28264   3.512   2.793   6.833 -0.5331 -0.3073 -0.8642
 5601SOL    HW128265   3.601   2.771   6.805 -0.2996  1.3590 -1.4433
 5601SOL    HW228266   3.460   2.725   6.790 -0.1215 -2.4087  1.9591
 5602SOL     OW28267   0.076   3.141   3.990  0.6222  0.1004  0.1394
 5602SOL    HW128268   0.035   3.226   4.009  1.3569  0.6889 -0.8907
 5602SOL    HW228269   0.117   3.113   4.072  1.2892  2.2602  0.5481
 5603SOL     OW28270   2.603   1.644   2.896  0.0313 -0.4753  0.3744
 5603SOL    HW128271   2.624   1.678   2.809  0.0057  1.3988  1.1131
 5603SOL    HW228272   2.532   1.585   2.870  1.0783 -0.7547 -1.8620
 5604SOL     OW28273   3.421   1.140   5.927  0.2853 -0.4444 -0.2238
 5604SOL    HW128274   3.459   1.153   5.840  0.8843  0.2642  0.1420
 5604SOL    HW228275   3.371   1.063   5.899 -0.0332  0.4362 -2.0526
 5605SOL     OW28276   1.786   3.766   7.206 -0.0544 -0.8334  0.3290
 5605SOL    HW128277   1.836   3.687   7.227  3.9419  1.3722 -0.8688
 5605SOL    HW228278   1.766   3.813   7.286 -0.2301 -0.2574 -0.0542
 5606SOL     OW28279   3.729   0.932   7.520 -0.3552 -0.1203 -0.1320
 5606SOL    HW128280   3.712   0.934   7.614  0.0902  0.9530 -0.0698
 5606SOL    HW228281   3.794   1.002   7.526 -0.6855  0.3952 -2.7191
 5607SOL     OW28282   3.698   2.045  12.501  0.2786  0.2677 -0.1623
 5607SOL    HW128283   3.717   2.131  12.537 -1.4809  0.2847  0.7164
 5607SOL    HW228284   3.728   2.065  12.412  2.2212  1.0253  0.6774
 5608SOL     OW28285   4.600   0.092   0.069 -0.2195  0.3792 -0.5351
 5608SOL    HW128286   4.603   4.723   0.046  1.1012  0.4097 -0.4695
 5608SOL    HW228287   4.534   0.118   0.004 -0.1012  0.4988 -0.6070
 5609SOL     OW28288   1.783   3.325   7.184  0.6127 -0.0831  0.0710
 5609SOL    HW128289   1.848   3.396   7.182  0.5068  0.0721  1.9899
 5609SOL    HW228290   1.793   3.287   7.097 -0.0628  0.2515 -0.1563
 5610SOL     OW28291   1.414   3.003   2.772 -0.9238 -0.4808 -0.3224
 5610SOL    HW128292   1.402   2.917   2.813 -1.0596 -1.7267 -3.0139
 5610SOL    HW228293   1.502   2.988   2.739 -0.6649 -0.4791  0.3546
 5611SOL     OW28294   1.906   4.082   2.549  0.3487  0.4742  0.1154
 5611SOL    HW128295   1.828   4.135   2.565  0.0197 -0.1582  0.5866
 5611SOL    HW228296   1.877   4.022   2.480  0.7751 -2.0216  2.0894
 5612SOL     OW28297   3.084   4.683   0.609 -0.2129  0.1711 -0.0430
 5612SOL    HW128298   3.114   4.594   0.629 -0.4491  0.3184  0.9324
 5612SOL    HW228299   3.170   4.713   0.579 -0.2070  1.0110  0.8197
 5613SOL     OW28300   3.680   4.409   8.380  0.4275 -0.8097  0.1940
 5613SOL    HW128301   3.632   4.490   8.399  1.0547 -0.0441 -1.4963
 5613SOL    HW228302   3.660   4.397   8.287 -0.9976  0.0853  0.3705
 5614SOL     OW28303   0.371   4.104  10.136  0.0270  0.1530 -0.0265
 5614SOL    HW128304   0.454   4.077  10.097  0.5679 -0.0965  1.2844
 5614SOL    HW228305   0.312   4.125  10.064  0.6611  1.6278 -0.1240
 5615SOL     OW28306   4.224   2.507   4.851 -0.1345  0.6200 -0.0481
 5615SOL    HW128307   4.228   2.416   4.882 -0.1561  0.5476 -0.2627
 5615SOL    HW228308   4.170   2.553   4.915 -1.3407  1.6252 -1.7981
 5616SOL     OW28309   1.180   2.228   5.459 -0.2384  0.3135  0.3533
 5616SOL    HW128310   1.264   2.263   5.428 -0.5574 -0.3466 -1.2183
 5616SOL    HW228311   1.210   2.145   5.497 -1.8820 -1.1680 -1.6245
 5617SOL     OW28312   2.484   2.782   6.667 -0.6334  0.1592 -0.2743
 5617SOL    HW128313   2.414   2.828   6.714 -1.2280 -1.8298  0.7513
 5617SOL    HW228314   2.550   2.850   6.649  1.3155 -1.8153 -0.5337
 5618SOL     OW28315   0.421   1.741  17.387  0.2827 -0.1116  0.1734
 5618SOL    HW128316   0.325   1.736  17.384  0.3075 -2.2067  2.3751
 5618SOL    HW228317   0.441   1.648  17.400 -0.2325 -0.2621 -0.1206
 5619SOL     OW28318   1.488   2.525  12.269  0.4517  0.5012 -0.2342
 5619SOL    HW128319   1.459   2.482  12.189 -0.0637 -1.0005  0.7656
 5619SOL    HW228320   1.466   2.617  12.250 -0.3842 -0.0346 -1.8093
 5620SOL     OW28321   2.618   2.576   6.810  0.3451 -0.0802  0.8252
 5620SOL    HW128322   2.641   2.620   6.892  2.1147 -3.9938  2.4064
 5620SOL    HW228323   2.641   2.650   6.754  0.6879 -0.7626  0.0549
 5621SOL     OW28324   1.442   0.891   5.027  0.5566 -0.8062  0.6092
 5621SOL    HW128325   1.530   0.915   5.054  0.2133 -0.0587  1.0644
 5621SOL    HW228326   1.409   0.979   5.011 -0.4522 -1.3444 -0.2699
 5622SOL     OW28327   1.491   2.393  12.496  0.3103  0.0475  0.6174
 5622SOL    HW128328   1.420   2.453  12.521 -0.7428 -1.2508  0.7390
 5622SOL    HW228329   1.506   2.419  12.405 -1.3277  1.3662  0.7287
 5623SOL     OW28330   3.472   3.770   3.502  0.6193 -0.1997 -0.1031
 5623SOL    HW128331   3.480   3.854   3.457  2.3783  0.6839  1.8422
 5623SOL    HW228332   3.386   3.737   3.476  0.8135  1.8054 -3.2675
 5624SOL     OW28333   2.426   3.836   0.346 -0.6309 -0.3197 -0.1856
 5624SOL    HW128334   2.504   3.880   0.313 -0.5520 -0.1752  0.1875
 5624SOL    HW228335   2.357   3.882   0.300  1.1023  3.0354  0.5799
 5625SOL     OW28336   1.628   0.790  17.067  0.8684  0.7699 -0.2301
 5625SOL    HW128337   1.618   0.745  16.983 -1.1809 -0.6418  0.7610
 5625SOL    HW228338   1.544   0.829  17.089  1.4655  2.2967 -0.6716
 5626SOL     OW28339   2.517   3.320   2.738 -0.0156 -0.3111  0.2408
 5626SOL    HW128340   2.433   3.288   2.705 -0.3278  0.6572  0.0820
 5626SOL    HW228341   2.528   3.262   2.814  2.9360  0.0289  0.0770
 5627SOL     OW28342   2.497   1.466   7.099  0.4811 -0.3935  0.4236
 5627SOL    HW128343   2.543   1.549   7.098 -0.6074  0.2029 -0.6704
 5627SOL    HW228344   2.483   1.472   7.193 -1.6856 -0.0229  0.0860
 5628SOL     OW28345   2.429   0.375   5.627 -0.3110  0.1994 -0.1393
 5628SOL    HW128346   2.423   0.401   5.719 -1.7079  0.7782 -0.3951
 5628SOL    HW228347   2.344   0.334   5.612 -1.0750  1.4179  0.7653
 5629SOL     OW28348   3.348   1.914   6.150  0.2617 -0.6404 -0.3347
 5629SOL    HW128349   3.278   1.980   6.151 -0.4287 -1.3723 -0.8752
 5629SOL    HW228350   3.386   1.918   6.238 -1.5792 -0.4396  0.4572
 5630SOL     OW28351   3.479   2.029   7.587 -0.6119  0.0069 -0.2835
 5630SOL    HW128352   3.421   1.959   7.558  1.0255 -2.3013  2.0700
 5630SOL    HW228353   3.559   2.017   7.535  0.0341  3.9333 -0.2557
 5631SOL     OW28354   0.653   3.279   6.621  0.0879 -0.5094 -0.0001
 5631SOL    HW128355   0.694   3.358   6.657 -0.0990 -0.1252 -0.6252
 5631SOL    HW228356   0.570   3.309   6.585 -0.7954 -1.0068  1.6456
 5632SOL     OW28357   1.462   0.629   6.486  0.6675 -0.0361 -0.0480
 5632SOL    HW128358   1.393   0.674   6.533  0.6955  0.5521 -0.5698
 5632SOL    HW228359   1.422   0.628   6.399 -1.3356 -1.4022  0.8829
 5633SOL     OW28360   4.304   4.569   6.169  0.1643  0.5925  0.9068
 5633SOL    HW128361   4.306   4.474   6.183 -0.3465  0.2074 -1.6977
 5633SOL    HW228362   4.220   4.587   6.211 -0.4175 -0.6157  0.2425
 5634SOL     OW28363   2.798   2.993   2.999 -0.5224  0.3278 -0.6829
 5634SOL    HW128364   2.828   2.910   2.962  0.0059 -0.1229  0.7500
 5634SOL    HW228365   2.845   2.993   3.082  0.0502  1.1516 -1.0048
 5635SOL     OW28366   2.926   2.580  16.442 -0.3930 -0.0942 -0.1566
 5635SOL    HW128367   2.961   2.666  16.421  1.1955 -0.6743  0.1381
 5635SOL    HW228368   2.892   2.593  16.530 -1.2519 -0.7535 -0.3868
 5636SOL     OW28369   0.496   4.396  10.645 -0.6222  0.0660 -0.0262
 5636SOL    HW128370   0.441   4.318  10.651 -1.8776  0.9325 -0.1028
 5636SOL    HW228371   0.568   4.358  10.595  0.6038  1.8435  0.3513
 5637SOL     OW28372   1.458   3.793  13.170  0.0172  0.0200 -0.5223
 5637SOL    HW128373   1.370   3.831  13.158 -0.7479 -1.4696  0.3357
 5637SOL    HW228374   1.507   3.819  13.092  1.1060  0.0182  0.1612
 5638SOL     OW28375   4.241   3.130   5.334 -0.0381  0.1680  0.1054
 5638SOL    HW128376   4.277   3.209   5.293 -0.1240 -0.3152 -0.9036
 5638SOL    HW228377   4.166   3.161   5.386 -1.0272 -1.5089 -0.3281
 5639SOL     OW28378   2.779   3.097  14.695 -0.0536  0.1788  0.0124
 5639SOL    HW128379   2.735   3.158  14.754  0.6270  0.6276  0.0616
 5639SOL    HW228380   2.848   3.068  14.754  0.0802  0.6277  0.0765
 5640SOL     OW28381   0.903   2.850  13.693 -0.0773 -0.0510  0.3225
 5640SOL    HW128382   0.829   2.793  13.671  0.8582  0.5910 -4.3113
 5640SOL    HW228383   0.986   2.804  13.686  0.1922  0.4502  0.2405
 5641SOL     OW28384   0.168   0.536   5.742 -0.5893  0.9073  0.3739
 5641SOL    HW128385   0.110   0.485   5.798 -0.9261  2.1347  1.1471
 5641SOL    HW228386   0.115   0.602   5.698  1.1663  1.3640 -1.0742
 5642SOL     OW28387   0.425   3.722  11.263 -0.0352 -0.1512  0.0404
 5642SOL    HW128388   0.506   3.773  11.266  0.4238 -1.0523  3.5060
 5642SOL    HW228389   0.361   3.775  11.312  2.0866  2.9817 -0.5634
 5643SOL     OW28390   2.572   1.396  10.390 -0.5481 -0.0829  0.0527
 5643SOL    HW128391   2.540   1.403  10.300  0.8023  1.3582 -0.2971
 5643SOL    HW228392   2.485   1.394  10.430 -1.0071  1.5775 -0.8753
 5644SOL     OW28393   3.237   3.854  13.053 -0.3433  0.0849 -0.1664
 5644SOL    HW128394   3.273   3.765  13.055  0.5111  0.4496  0.6835
 5644SOL    HW228395   3.310   3.904  13.088  0.2535 -0.3256 -0.8251
 5645SOL     OW28396   4.312   3.216   1.935  0.2712  0.1052 -0.3391
 5645SOL    HW128397   4.237   3.192   1.879 -1.5202 -0.0434  2.1344
 5645SOL    HW228398   4.274   3.300   1.960 -0.8816 -0.1065 -1.3387
 5646SOL     OW28399   0.048   0.608  15.931  0.3364 -0.2995 -0.3083
 5646SOL    HW128400   0.025   0.658  16.009 -0.2143  1.2575 -1.4851
 5646SOL    HW228401   4.717   0.652  15.866  0.7511  1.6342  0.6711
 5647SOL     OW28402   4.649   4.110  14.900 -0.0037  0.9176  0.5066
 5647SOL    HW128403   4.696   4.140  14.822 -1.3882 -0.1305 -0.7448
 5647SOL    HW228404   4.624   4.190  14.945 -0.2287  0.9581  0.3103
 5648SOL     OW28405   3.843   2.758  13.085 -0.0089 -0.0374  0.3631
 5648SOL    HW128406   3.762   2.747  13.135 -0.2889 -0.1568 -0.1089
 5648SOL    HW228407   3.814   2.830  13.029 -2.4389 -1.7826 -0.6308
 5649SOL     OW28408   0.426   3.868   5.128 -0.3286  0.0816 -0.0517
 5649SOL    HW128409   0.346   3.842   5.085 -0.5374  1.0789 -0.2747
 5649SOL    HW228410   0.423   3.814   5.207  1.0349  0.5685  0.3406
 5650SOL     OW28411   2.938   3.182  10.968 -0.3847  0.2129  0.2048
 5650SOL    HW128412   2.901   3.248  10.908 -0.6578  0.6754  0.8863
 5650SOL    HW228413   2.946   3.236  11.047 -0.4274 -1.4815  1.3562
 5651SOL     OW28414   0.008   3.788  15.625 -0.0827  0.5225  0.6393
 5651SOL    HW128415   0.003   3.693  15.626 -0.5360  0.5372 -1.3897
 5651SOL    HW228416   0.045   3.795  15.537 -1.2781  1.1755  0.1873
 5652SOL     OW28417   0.384   2.377  13.691 -0.7441 -0.3797  0.5389
 5652SOL    HW128418   0.334   2.295  13.694 -1.1260 -0.1054  1.5777
 5652SOL    HW228419   0.318   2.432  13.733 -2.5230 -1.6103 -0.6421
 5653SOL     OW28420   3.002   2.881   3.626  0.3746  0.0221 -0.0095
 5653SOL    HW128421   2.976   2.906   3.538  1.1432 -1.4141 -0.6510
 5653SOL    HW228422   2.963   2.793   3.633  2.3444 -0.7297  1.6544
 5654SOL     OW28423   3.603   1.246   4.250  0.0473 -0.1428  0.1151
 5654SOL    HW128424   3.682   1.218   4.203  0.3261 -0.2893  0.6708
 5654SOL    HW228425   3.534   1.216   4.191 -1.7934  0.3630  2.0159
 5655SOL     OW28426   2.799   0.959   4.323 -0.3681 -0.2168  0.7114
 5655SOL    HW128427   2.813   0.866   4.340  2.4746  0.2013  0.6693
 5655SOL    HW228428   2.882   0.982   4.281 -0.4367  1.3771  1.4412
 5656SOL     OW28429   0.241   2.391   2.539 -0.0728 -0.2383 -1.0006
 5656SOL    HW128430   0.300   2.427   2.606  0.3138  0.9357 -1.9756
 5656SOL    HW228431   0.268   2.431   2.456 -0.1970  0.1929 -0.8310
 5657SOL     OW28432   2.320   1.671   7.431  0.1945  0.0877 -0.1022
 5657SOL    HW128433   2.340   1.736   7.499  3.0868 -1.5472  0.5707
 5657SOL    HW228434   2.348   1.593   7.479  1.5293  1.9498  2.1581
 5658SOL     OW28435   2.498   2.789  10.581 -0.3497 -0.0181 -0.5100
 5658SOL    HW128436   2.537   2.787  10.668 -1.8150  0.1392  0.1479
 5658SOL    HW228437   2.407   2.788  10.610 -0.6791  0.5430 -1.5210
 5659SOL     OW28438   4.161   2.877   6.152 -0.0778 -0.0400  0.3028
 5659SOL    HW128439   4.206   2.961   6.162  1.3027 -0.6235 -0.8638
 5659SOL    HW228440   4.096   2.882   6.221  0.4034  3.2075  0.5009
 5660SOL     OW28441   4.136   3.681  15.206  0.5774 -0.5906  0.4197
 5660SOL    HW128442   4.057   3.704  15.156  1.4148  0.6966 -0.3047
 5660SOL    HW228443   4.204   3.721  15.153 -0.9702  1.2079 -0.1993
 5661SOL     OW28444   3.570   0.297   5.435  0.0651 -0.1228 -0.1776
 5661SOL    HW128445   3.578   0.272   5.342 -3.5494 -2.1979  0.0513
 5661SOL    HW228446   3.596   0.389   5.435 -0.3114 -0.0164 -0.0278
 5662SOL     OW28447   0.414   3.496   7.277 -0.0070 -0.4241  0.1152
 5662SOL    HW128448   0.332   3.468   7.236  0.4528 -1.0824 -0.3681
 5662SOL    HW228449   0.476   3.497   7.204  1.1077 -0.9949  1.0367
 5663SOL     OW28450   3.825   1.642   8.958  0.0980 -0.1853 -0.7639
 5663SOL    HW128451   3.854   1.705   9.024  0.4258 -1.2874  0.1585
 5663SOL    HW228452   3.733   1.635   8.985 -0.1690  0.9017 -1.3836
 5664SOL     OW28453   1.459   1.439   7.752  0.1848  0.0165  0.5608
 5664SOL    HW128454   1.540   1.390   7.768  0.0153  0.1732  1.8649
 5664SOL    HW228455   1.491   1.527   7.731  4.8391 -1.8427 -0.0693
 5665SOL     OW28456   1.143   3.437   6.380 -0.2667 -0.9091 -0.7604
 5665SOL    HW128457   1.087   3.513   6.368 -1.1595 -1.3896  0.3142
 5665SOL    HW228458   1.106   3.382   6.449 -3.8205  1.4632 -0.7354
 5666SOL     OW28459   2.384   0.644  11.663 -0.1922 -0.0594  0.2863
 5666SOL    HW128460   2.434   0.592  11.726 -0.9454  0.8512  1.6285
 5666SOL    HW228461   2.350   0.580  11.600  0.8470  0.3073 -0.6533
 5667SOL     OW28462   4.032   0.297   1.115  0.2313 -0.2056  0.0896
 5667SOL    HW128463   4.003   0.317   1.203  0.5760  0.9880 -0.0671
 5667SOL    HW228464   3.988   0.367   1.066  1.3051  1.1677  1.1021
 5668SOL     OW28465   2.073   4.282   4.369  0.1232 -0.6280 -0.4754
 5668SOL    HW128466   2.036   4.255   4.453 -2.7340  0.9074 -1.2547
 5668SOL    HW228467   2.168   4.277   4.382 -0.1360  4.0942  3.0223
 5669SOL     OW28468   0.153   0.631   0.713 -0.0144 -0.5535 -0.0842
 5669SOL    HW128469   0.148   0.627   0.809 -0.3622 -1.3541 -0.1443
 5669SOL    HW228470   0.246   0.609   0.709  0.4424  1.3885 -0.2630
 5670SOL     OW28471   1.644   1.905   0.539 -0.0189  0.3204 -0.1884
 5670SOL    HW128472   1.682   1.875   0.621  0.3448  0.8694 -0.1579
 5670SOL    HW228473   1.703   1.864   0.476 -0.5661 -1.3860  0.4108
 5671SOL     OW28474   3.728   1.469  13.330 -0.1764  0.2838  0.0478
 5671SOL    HW128475   3.671   1.507  13.397 -0.2009 -0.5516  0.4980
 5671SOL    HW228476   3.810   1.465  13.379 -0.1522  1.7612  0.1226
 5672SOL     OW28477   2.573   2.057   5.353 -0.1829 -0.0114 -0.3697
 5672SOL    HW128478   2.624   2.022   5.281  0.3586 -1.0522  0.5226
 5672SOL    HW228479   2.596   2.150   5.353 -1.0847  0.2147 -0.4921
 5673SOL     OW28480   1.281   3.344   7.772  0.0585  0.0797  0.2883
 5673SOL    HW128481   1.259   3.310   7.686  1.1762 -2.2094  0.8995
 5673SOL    HW228482   1.374   3.366   7.762  0.5152 -1.8424  0.2832
 5674SOL     OW28483   4.147   4.671   2.334 -0.3422 -0.6737 -0.2408
 5674SOL    HW128484   4.115   4.628   2.254 -0.4515  0.2897 -0.7098
 5674SOL    HW228485   4.088   0.023   2.336  0.8028  0.1579  1.5107
 5675SOL     OW28486   1.401   3.989   6.042 -0.9098  0.1703  0.2915
 5675SOL    HW128487   1.395   3.955   5.953  0.3493 -2.5177  1.2142
 5675SOL    HW228488   1.351   4.069   6.026  1.3987  0.7880 -3.7036
 5676SOL     OW28489   0.687   4.495   8.128  0.0283  0.8985  0.1855
 5676SOL    HW128490   0.731   4.524   8.209  0.9760  2.0077 -0.7307
 5676SOL    HW228491   0.750   4.429   8.099  0.0705  0.6086  0.9275
 5677SOL     OW28492   1.938   0.042   4.684 -0.0348  0.4094  0.3754
 5677SOL    HW128493   1.961   4.686   4.637 -0.9751  0.3333  0.0420
 5677SOL    HW228494   1.998   0.114   4.665 -0.7233  1.1300  0.9094
 5678SOL     OW28495   0.584   1.968  10.419 -0.1427  0.7816  0.7964
 5678SOL    HW128496   0.533   2.020  10.482 -1.5671 -0.2630  0.5171
 5678SOL    HW228497   0.637   1.919  10.482 -1.1055  0.5108  1.4069
 5679SOL     OW28498   3.328   4.404   0.881  0.0503 -0.1071  0.0149
 5679SOL    HW128499   3.382   4.375   0.809  0.6060 -1.2536  0.9013
 5679SOL    HW228500   3.324   4.322   0.930  0.2469 -1.2922 -1.9820
 5680SOL     OW28501   0.975   0.931   9.336 -0.0212 -0.2763 -0.6053
 5680SOL    HW128502   1.006   0.909   9.423 -0.6169  1.9929  0.1851
 5680SOL    HW228503   0.931   0.851   9.309  0.2052 -0.5276 -0.2236
 5681SOL     OW28504   0.135   0.417  10.336 -0.5116  0.4275  0.4775
 5681SOL    HW128505   0.188   0.479  10.385 -1.1353  1.3655 -0.0455
 5681SOL    HW228506   0.065   0.413  10.401 -0.6042  0.3937  0.3760
 5682SOL     OW28507   1.100   3.544   7.335 -0.2658 -0.2490 -0.5152
 5682SOL    HW128508   1.162   3.584   7.395 -1.0937 -0.7940  0.7195
 5682SOL    HW228509   1.013   3.574   7.363  0.6330  0.0881  1.8446
 5683SOL     OW28510   2.691   1.048   0.023  0.0635 -0.2834 -0.0399
 5683SOL    HW128511   2.761   1.109  17.695 -1.3649  1.1825 -0.5420
 5683SOL    HW228512   2.618   1.105   0.048  0.6821 -0.1264  1.3909
 5684SOL     OW28513   1.878   3.806   2.786  0.2649  0.1161 -0.9374
 5684SOL    HW128514   1.809   3.790   2.851 -0.1730  1.3462 -1.0985
 5684SOL    HW228515   1.843   3.740   2.727 -0.7249  1.0504 -1.3996
 5685SOL     OW28516   3.296   2.993   5.520  0.4028 -0.3498 -0.1497
 5685SOL    HW128517   3.205   3.022   5.531  0.2354 -1.6371  1.9610
 5685SOL    HW228518   3.343   3.063   5.475 -1.2943  1.1479  0.3818
 5686SOL     OW28519   3.172   4.618   5.234  0.0303  0.1442 -0.1270
 5686SOL    HW128520   3.191   4.618   5.328  1.8238  3.4682 -0.5069
 5686SOL    HW228521   3.213   4.534   5.213 -0.3131 -0.2491  0.7772
 5687SOL     OW28522   3.143   1.997   7.539  0.4621 -0.2108 -0.7997
 5687SOL    HW128523   3.148   1.905   7.514 -0.1866 -0.4324 -0.1041
 5687SOL    HW228524   3.067   2.018   7.484 -0.0641  0.5325  0.2161
 5688SOL     OW28525   3.619   3.932   7.573  0.8989  0.1592  0.1968
 5688SOL    HW128526   3.602   3.953   7.665 -1.6315 -1.3750  0.0503
 5688SOL    HW228527   3.715   3.941   7.576  0.8676  0.8307 -0.8095
 5689SOL     OW28528   0.212   2.754   8.295  0.1317  0.4874  0.3649
 5689SOL    HW128529   0.183   2.829   8.346 -0.2579  0.9772 -0.5721
 5689SOL    HW228530   0.306   2.762   8.279 -0.0377 -1.0360 -1.4350
 5690SOL     OW28531   4.428   0.920   6.201 -0.0452  0.2298  0.0491
 5690SOL    HW128532   4.514   0.887   6.229  0.6997  2.4755  0.3577
 5690SOL    HW228533   4.443   1.011   6.177  0.5951  0.0865 -0.1042
 5691SOL     OW28534   2.976   3.779  10.270  0.3603 -0.3581  0.5759
 5691SOL    HW128535   2.993   3.776  10.364  1.0557 -0.5004  0.4452
 5691SOL    HW228536   2.901   3.839  10.271 -0.4163 -1.3177  0.2628
 5692SOL     OW28537   2.862   3.022   3.800 -0.1918  0.3341 -0.0731
 5692SOL    HW128538   2.910   2.963   3.742  0.3955  0.2448  0.5004
 5692SOL    HW228539   2.811   3.070   3.735 -1.8457  2.0630  2.5149
 5693SOL     OW28540   2.832   2.308  16.144  0.1973  0.0287  0.5960
 5693SOL    HW128541   2.779   2.231  16.119  3.0543 -2.1202  1.2255
 5693SOL    HW228542   2.769   2.381  16.145 -0.3151 -0.4206  1.2816
 5694SOL     OW28543   4.185   1.731  16.192 -0.0673 -0.2192 -0.4210
 5694SOL    HW128544   4.099   1.732  16.150 -0.6808 -1.2696  0.7855
 5694SOL    HW228545   4.171   1.663  16.258 -0.1703  0.7783  0.5847
 5695SOL     OW28546   1.152   3.453  13.195  0.2176  0.1698 -0.3383
 5695SOL    HW128547   1.184   3.511  13.264  0.1036  0.4420 -0.5125
 5695SOL    HW228548   1.233   3.404  13.178  1.2307  1.8910 -0.4452
 5696SOL     OW28549   0.781   3.749   8.282 -0.5555 -0.5185  0.1699
 5696SOL    HW128550   0.852   3.789   8.231 -1.7184  1.4684  0.1192
 5696SOL    HW228551   0.820   3.727   8.366 -1.0539 -3.4020 -0.3438
 5697SOL     OW28552   0.845   1.047   4.322 -0.5228  0.1867 -0.7555
 5697SOL    HW128553   0.874   1.127   4.367 -3.2951  0.4922  0.4789
 5697SOL    HW228554   0.755   1.073   4.305 -0.4317  0.7708 -0.3433
 5698SOL     OW28555   1.259   3.261  12.270 -0.1901 -0.8345  0.2907
 5698SOL    HW128556   1.204   3.320  12.219 -0.4956 -1.7358 -0.4355
 5698SOL    HW228557   1.339   3.283  12.223 -2.3045  0.2999 -2.7419
 5699SOL     OW28558   3.865   0.062   3.910  0.0095 -0.0546  0.0543
 5699SOL    HW128559   3.793   0.078   3.849  1.6350 -3.9454 -2.9179
 5699SOL    HW228560   3.874   0.142   3.960  2.0862  0.9532 -1.9554
 5700SOL     OW28561   2.325   1.275   6.460  0.1455 -0.0346  0.2792
 5700SOL    HW128562   2.416   1.297   6.439 -0.0914  0.6550 -0.0312
 5700SOL    HW228563   2.341   1.216   6.534  0.1208 -0.7850 -0.3150
 5701SOL     OW28564   1.722   0.349   7.869 -0.0967 -0.4432  0.6607
 5701SOL    HW128565   1.717   0.260   7.902  3.0733 -1.1728 -0.8412
 5701SOL    HW228566   1.785   0.335   7.798  0.6130 -1.5091  1.5101
 5702SOL     OW28567   0.810   2.845   2.564  0.1445  0.1293  0.3005
 5702SOL    HW128568   0.869   2.917   2.585 -1.1286  1.1692  0.2777
 5702SOL    HW228569   0.812   2.785   2.639  0.1122  1.3040  1.2319
 5703SOL     OW28570   0.190   1.833   9.062  0.9253 -0.3001  0.5125
 5703SOL    HW128571   0.112   1.778   9.061  0.0144  0.9956  0.6954
 5703SOL    HW228572   0.249   1.764   9.094  2.6667  0.2140 -1.5228
 5704SOL     OW28573   3.515   3.928   0.634 -0.0263  0.4461 -0.2576
 5704SOL    HW128574   3.448   3.861   0.648  0.6054 -0.0839  0.2057
 5704SOL    HW228575   3.595   3.890   0.671 -0.2409  0.0419 -0.2108
 5705SOL     OW28576   1.702   4.695   5.369  0.2263  0.1642  0.1085
 5705SOL    HW128577   1.668   4.653   5.290 -1.1420 -0.6434  1.1252
 5705SOL    HW228578   1.763   4.632   5.406 -0.3315  1.3040  2.9593
 5706SOL     OW28579   2.321   3.466   3.418 -0.6208 -0.3610 -0.2735
 5706SOL    HW128580   2.344   3.419   3.498 -1.9040  0.3015  0.4889
 5706SOL    HW228581   2.227   3.451   3.416 -0.7766  0.6082 -0.3708
 5707SOL     OW28582   3.819   1.039   3.195  0.2442  0.5752  0.5426
 5707SOL    HW128583   3.774   1.090   3.262 -1.6406 -0.3035 -0.0536
 5707SOL    HW228584   3.745   1.005   3.143  0.7626 -0.2339  0.3298
 5708SOL     OW28585   2.009   4.119  15.678  0.0291 -0.5817  0.3451
 5708SOL    HW128586   2.012   4.214  15.678 -1.5711 -0.5361  2.9224
 5708SOL    HW228587   2.097   4.096  15.709  1.1163  1.6309 -1.1046
 5709SOL     OW28588   4.059   4.150   2.216  0.5316  0.1827  0.5125
 5709SOL    HW128589   4.123   4.187   2.154  0.9763  0.1348  0.9432
 5709SOL    HW228590   4.088   4.059   2.219 -0.7496 -0.2168  0.8241
 5710SOL     OW28591   0.333   2.553  15.209 -0.8264  0.2138 -0.4512
 5710SOL    HW128592   0.354   2.644  15.185  3.6182 -0.9401 -0.8569
 5710SOL    HW228593   0.361   2.510  15.128 -0.2934  0.0113 -0.1566
 5711SOL     OW28594   3.187   3.511   8.334 -0.0664 -0.3087  0.0458
 5711SOL    HW128595   3.175   3.565   8.412 -2.3609  0.2321 -0.6998
 5711SOL    HW228596   3.103   3.528   8.292 -0.1630  0.9811  0.7531
 5712SOL     OW28597   3.456   3.242   2.385 -0.5325  0.0876 -0.4375
 5712SOL    HW128598   3.466   3.287   2.469  1.9321  1.4480 -1.4713
 5712SOL    HW228599   3.507   3.161   2.393  0.5447  0.8772  0.6607
 5713SOL     OW28600   4.527   3.766   2.029  0.1105 -0.2108  0.2407
 5713SOL    HW128601   4.542   3.724   1.944  0.3662 -0.5544  0.4550
 5713SOL    HW228602   4.565   3.705   2.092  1.4770 -0.0381 -0.4155
 5714SOL     OW28603   3.649   3.119  15.401 -0.9446  1.0317 -0.0903
 5714SOL    HW128604   3.676   3.211  15.408 -0.3477  0.8847 -0.5313
 5714SOL    HW228605   3.731   3.084  15.367 -0.3669  0.1240  2.2424
 5715SOL     OW28606   0.365   3.907   8.440  0.1707  0.3688  0.5351
 5715SOL    HW128607   0.284   3.881   8.485 -0.1916  1.3810  0.4558
 5715SOL    HW228608   0.373   3.999   8.464  0.0843  0.2065  1.1916
 5716SOL     OW28609   1.790   3.690  10.667  0.2727  0.6098 -0.1675
 5716SOL    HW128610   1.763   3.748  10.739 -2.5617  1.5497 -2.0200
 5716SOL    HW228611   1.886   3.693  10.669  0.2554  2.0418 -1.5055
 5717SOL     OW28612   4.165   3.623   6.880 -0.2932  0.1915  0.2618
 5717SOL    HW128613   4.140   3.647   6.790  0.3367  1.6747  0.4960
 5717SOL    HW228614   4.260   3.628   6.875 -0.2510 -0.1705  0.7341
 5718SOL     OW28615   1.616   3.516   2.136 -0.7233  0.0868 -0.1174
 5718SOL    HW128616   1.652   3.526   2.048  3.3111 -1.7944  1.3009
 5718SOL    HW228617   1.555   3.444   2.124 -1.8209  0.7964  1.2698
 5719SOL     OW28618   3.068   3.397   0.673  0.0573 -0.0939 -0.2928
 5719SOL    HW128619   2.997   3.420   0.734  0.7078 -0.8941  0.7562
 5719SOL    HW228620   3.024   3.327   0.626 -0.9769  0.9498 -0.8741
 5720SOL     OW28621   2.174   3.805  16.889  0.3530  0.2520  0.5452
 5720SOL    HW128622   2.196   3.895  16.864 -1.1049  0.4686  0.0211
 5720SOL    HW228623   2.121   3.774  16.816 -0.4090 -0.3373  1.3449
 5721SOL     OW28624   2.887   2.200  14.183 -0.1411 -0.3480 -0.1391
 5721SOL    HW128625   2.895   2.244  14.268  1.4342 -0.3690 -0.2809
 5721SOL    HW228626   2.800   2.159  14.192  0.6447 -2.0761 -0.4257
 5722SOL     OW28627   2.109   0.947   7.847 -0.2401 -0.0951  0.3812
 5722SOL    HW128628   2.094   0.889   7.922 -1.6168  2.0202  1.7415
 5722SOL    HW228629   2.045   1.015   7.868  0.7149  1.0622 -0.4310
 5723SOL     OW28630   3.235   4.080   2.362  0.4393 -0.4855  0.0023
 5723SOL    HW128631   3.297   4.150   2.345  0.4257 -0.4313  0.1771
 5723SOL    HW228632   3.294   4.004   2.362  0.4536 -0.4760  0.2177
 5724SOL     OW28633   0.993   4.243  13.014  0.0903 -0.3516 -0.0605
 5724SOL    HW128634   0.994   4.208  12.925 -0.3290  0.2388 -0.3002
 5724SOL    HW228635   1.000   4.336  12.990 -0.3047 -0.2429  0.2366
 5725SOL     OW28636   0.239   4.251  13.929 -0.5275 -0.1982  0.5987
 5725SOL    HW128637   0.259   4.344  13.931 -2.8956  0.3631 -1.7857
 5725SOL    HW228638   0.302   4.213  13.991 -0.4275 -1.7646 -0.4776
 5726SOL     OW28639   2.267   1.453   3.674  0.1513  0.5070  0.1592
 5726SOL    HW128640   2.360   1.453   3.699 -0.0810  0.2635  1.0173
 5726SOL    HW228641   2.222   1.514   3.732 -2.7135 -1.1908 -0.3042
 5727SOL     OW28642   4.039   4.505  12.549  0.2239  0.2957 -0.6973
 5727SOL    HW128643   3.967   4.445  12.525  0.3825 -0.6517  1.1939
 5727SOL    HW228644   4.109   4.466  12.496 -0.8116 -0.2304 -1.6888
 5728SOL     OW28645   2.479   2.025   2.963  0.6021 -0.4370  0.4121
 5728SOL    HW128646   2.462   2.035   3.056  3.0803  4.2221  0.3300
 5728SOL    HW228647   2.560   1.975   2.955  0.4678 -0.7576  1.0299
 5729SOL     OW28648   4.203   4.672   7.664 -0.0161  0.2196  0.0671
 5729SOL    HW128649   4.259   4.660   7.587  2.9374  0.7936  2.1330
 5729SOL    HW228650   4.114   4.651   7.637  0.6179 -0.7722 -1.2714
 5730SOL     OW28651   2.911   4.235   2.497  0.0222 -0.0976  0.1196
 5730SOL    HW128652   2.843   4.237   2.430  1.3396 -1.1889 -1.2406
 5730SOL    HW228653   2.871   4.171   2.555 -0.5088  0.2277  0.1180
 5731SOL     OW28654   2.854   1.184   8.187 -0.4454  0.7905  0.2019
 5731SOL    HW128655   2.781   1.220   8.137  0.8132  1.8254 -0.9271
 5731SOL    HW228656   2.900   1.135   8.118  0.1944  0.6190  0.7531
 5732SOL     OW28657   3.060   0.122   7.940  0.8635  0.4309 -0.0784
 5732SOL    HW128658   3.043   0.196   7.998  1.7849  1.7419 -1.4529
 5732SOL    HW228659   3.142   0.145   7.896 -1.1732  1.6353 -3.3041
 5733SOL     OW28660   0.982   1.709   8.273 -0.0693  0.3985  0.4777
 5733SOL    HW128661   1.075   1.687   8.280 -0.3022 -1.1488 -1.4542
 5733SOL    HW228662   0.996   1.803   8.286 -0.5765  0.3956  1.0429
 5734SOL     OW28663   3.265   4.698  14.352  0.2885 -0.4374  0.2315
 5734SOL    HW128664   3.325   4.657  14.415  0.6459  1.8493  1.3811
 5734SOL    HW228665   3.180   4.680  14.391  0.5143  0.7279  1.2647
 5735SOL     OW28666   3.143   4.565   6.285  0.2420  0.2465  0.0817
 5735SOL    HW128667   3.075   4.499   6.298 -0.0952  0.9079  1.6460
 5735SOL    HW228668   3.165   4.595   6.373  0.4276 -0.2120  0.1937
 5736SOL     OW28669   0.170   1.449  16.266 -0.5683 -0.1363  0.6310
 5736SOL    HW128670   0.179   1.427  16.359  2.5485 -0.6285  0.2155
 5736SOL    HW228671   0.261   1.474  16.250 -0.9644  0.0622 -1.2843
 5737SOL     OW28672   2.679   4.715   2.802 -0.7358  0.3710 -0.5891
 5737SOL    HW128673   2.643   4.701   2.890 -1.0220  4.2989 -0.0725
 5737SOL    HW228674   2.695   0.086   2.812 -0.3785  0.1882  0.6310
 5738SOL     OW28675   0.502   1.141   2.597  0.3865 -0.1948 -0.9022
 5738SOL    HW128676   0.571   1.205   2.576  0.9236 -1.1056 -1.9397
 5738SOL    HW228677   0.452   1.152   2.517  1.5234 -0.9781 -1.7196
 5739SOL     OW28678   1.824   0.269   7.247 -0.0910 -0.2447  0.4750
 5739SOL    HW128679   1.879   0.347   7.252  0.6492 -0.6253 -1.9773
 5739SOL    HW228680   1.882   0.195   7.230 -0.8582 -0.9998  1.1652
 5740SOL     OW28681   0.266   0.709   8.274 -0.3174  0.4680  0.4848
 5740SOL    HW128682   0.178   0.710   8.310  0.0191  1.7533  1.2579
 5740SOL    HW228683   0.303   0.636   8.324 -0.2824 -0.3322 -0.7013
 5741SOL     OW28684   1.684   2.809  12.974  0.3298  0.7817  0.5107
 5741SOL    HW128685   1.666   2.802  13.068  1.5140  0.0136  0.6809
 5741SOL    HW228686   1.772   2.774  12.962 -0.0455 -0.0631  0.2012
 5742SOL     OW28687   1.794   1.586  12.484 -0.9410  0.5804 -0.0232
 5742SOL    HW128688   1.703   1.557  12.487 -0.9190  0.5091 -0.0533
 5742SOL    HW228689   1.835   1.500  12.481  0.9662  1.5008 -0.3757
 5743SOL     OW28690   3.412   3.538   5.332 -0.2106 -0.3001 -0.4836
 5743SOL    HW128691   3.369   3.616   5.298 -0.5839 -1.2104 -2.1338
 5743SOL    HW228692   3.455   3.509   5.251  1.2136  0.0876  0.1438
 5744SOL     OW28693   2.478   0.522   4.036 -0.5450  0.0867 -0.5720
 5744SOL    HW128694   2.414   0.588   4.061 -3.2030 -2.9510  0.6042
 5744SOL    HW228695   2.484   0.544   3.943 -0.6782  2.8787  0.0961
 5745SOL     OW28696   1.609   0.656   3.215 -0.2159  0.2392  0.0214
 5745SOL    HW128697   1.606   0.561   3.206  3.2085  0.1582 -0.3422
 5745SOL    HW228698   1.521   0.676   3.246 -0.9748 -2.2652 -0.5287
 5746SOL     OW28699   1.955   2.949  14.420 -0.0277 -0.5166 -0.1400
 5746SOL    HW128700   1.915   3.022  14.468 -0.5766 -1.0092  0.1444
 5746SOL    HW228701   2.026   2.915  14.475 -0.9068 -0.3128  1.1191
 5747SOL     OW28702   0.544   2.100   6.099 -0.0629 -0.3105 -0.2465
 5747SOL    HW128703   0.564   2.070   6.187 -0.5450  1.8130  0.5984
 5747SOL    HW228704   0.632   2.112   6.063 -0.0943 -0.7662 -0.4742
 5748SOL     OW28705   1.289   4.254   3.631  0.0353 -0.3707  0.4391
 5748SOL    HW128706   1.365   4.196   3.634 -0.3809 -1.0581 -2.6435
 5748SOL    HW228707   1.222   4.205   3.583 -0.4013  2.4145 -1.7470
 5749SOL     OW28708   0.748   3.290  11.272 -0.0076 -0.1349  0.0820
 5749SOL    HW128709   0.702   3.303  11.189  0.7465 -1.4147 -0.5463
 5749SOL    HW228710   0.819   3.232  11.244 -2.2757 -3.1140  0.3858
 5750SOL     OW28711   0.038   3.963   4.958 -0.1192  0.6582 -0.2058
 5750SOL    HW128712   4.717   3.922   5.032 -3.1790  1.3625 -1.6439
 5750SOL    HW228713   0.098   3.896   4.927  1.2466  2.4138 -1.3770
 5751SOL     OW28714   1.533   2.767  14.126  0.3502  0.1532 -0.0259
 5751SOL    HW128715   1.584   2.802  14.199 -1.8966  1.0524  1.0949
 5751SOL    HW228716   1.444   2.794  14.149 -0.1933  0.2869 -2.2290
 5752SOL     OW28717   3.389   3.491   7.446 -0.1786 -0.0107  0.5571
 5752SOL    HW128718   3.427   3.468   7.530  2.8608 -1.2509 -1.1506
 5752SOL    HW228719   3.393   3.404   7.406 -1.3770  0.7536 -1.2351
 5753SOL     OW28720   3.379   4.068  16.323  0.2151  0.7105 -0.3252
 5753SOL    HW128721   3.387   4.018  16.405 -3.0446 -0.6867 -0.8659
 5753SOL    HW228722   3.320   4.009  16.277  0.1785  0.1015  0.4942
 5754SOL     OW28723   4.270   0.913   3.642 -0.0009 -0.2012 -0.0758
 5754SOL    HW128724   4.265   1.007   3.661  1.8482 -0.7581  3.1431
 5754SOL    HW228725   4.176   0.896   3.641  0.1562 -1.1115  0.7114
 5755SOL     OW28726   2.410   1.989  10.968  0.2790 -0.2928  0.0773
 5755SOL    HW128727   2.412   1.896  10.946  2.9023  0.1650 -1.6319
 5755SOL    HW228728   2.316   2.000  10.959  0.3671  0.0264 -0.4471
 5756SOL     OW28729   3.469   3.422  17.259  0.3415  0.7460 -0.1203
 5756SOL    HW128730   3.553   3.376  17.258 -0.6164 -1.0357 -0.2713
 5756SOL    HW228731   3.486   3.496  17.317  2.7505 -0.2353  0.4053
 5757SOL     OW28732   1.822   4.713   3.595 -0.1221  0.3433  0.7286
 5757SOL    HW128733   1.897   4.701   3.537  0.0933 -2.5817  1.5978
 5757SOL    HW228734   1.796   4.622   3.610  1.7230 -0.2492  0.3495
 5758SOL     OW28735   0.700   0.126   7.473  0.1341 -0.3999 -0.0630
 5758SOL    HW128736   0.675   0.034   7.485 -1.9820  0.0363 -1.1739
 5758SOL    HW228737   0.612   0.147   7.442 -0.8411  0.1718  3.0739
 5759SOL     OW28738   1.008   0.444   0.624  0.4812 -0.4616 -0.3628
 5759SOL    HW128739   1.070   0.375   0.603  2.7283  0.7144  2.5900
 5759SOL    HW228740   0.978   0.422   0.712 -2.8091 -3.3482 -2.1751
 5760SOL     OW28741   1.557   2.499  14.065 -0.1783  0.3313  0.3212
 5760SOL    HW128742   1.555   2.592  14.088  0.9893  0.3502  0.3622
 5760SOL    HW228743   1.465   2.477  14.056 -0.1957  0.7036 -0.3738
 5761SOL     OW28744   2.758   2.791  11.153 -0.6915  0.4129 -0.0578
 5761SOL    HW128745   2.702   2.720  11.123 -0.6047  0.5078 -0.4347
 5761SOL    HW228746   2.842   2.770  11.113 -0.3063 -0.0676  0.9889
 5762SOL     OW28747   2.979   3.689  17.439 -0.1016 -0.3424  0.5232
 5762SOL    HW128748   3.053   3.648  17.394 -0.3130  1.3816 -1.3972
 5762SOL    HW228749   3.009   3.780  17.434 -0.0877 -0.3614  0.2610
 5763SOL     OW28750   1.017   2.793   8.408  0.1044  0.5777 -0.0634
 5763SOL    HW128751   1.037   2.701   8.391  0.1847  0.7986 -1.1993
 5763SOL    HW228752   0.944   2.793   8.345  0.0699  1.0181 -0.0224
 5764SOL     OW28753   4.467   2.515  11.424 -0.1933  0.6242 -0.0669
 5764SOL    HW128754   4.476   2.463  11.505 -1.8545  0.6876  0.1530
 5764SOL    HW228755   4.410   2.462  11.369  1.4275  0.2459 -1.3889
 5765SOL     OW28756   4.352   2.709  14.813 -0.6146  0.6681  0.2065
 5765SOL    HW128757   4.388   2.762  14.742  0.1411 -0.4754 -0.2584
 5765SOL    HW228758   4.347   2.625  14.768 -1.7194  0.9838 -0.2483
 5766SOL     OW28759   3.273   1.704   3.285 -0.1851 -0.2484  0.1063
 5766SOL    HW128760   3.200   1.763   3.267  0.1390 -0.0099 -0.4357
 5766SOL    HW228761   3.232   1.618   3.278  2.8547 -1.7960  1.3659
 5767SOL     OW28762   1.302   4.247   4.783  0.6098  0.2735  0.3236
 5767SOL    HW128763   1.281   4.332   4.743 -0.6591  0.4283  1.3326
 5767SOL    HW228764   1.278   4.190   4.709  0.6510  0.6576  0.0135
 5768SOL     OW28765   0.215   4.198   6.978 -0.1692 -0.3860  0.7630
 5768SOL    HW128766   0.294   4.146   6.991  1.4126  2.4081  2.2681
 5768SOL    HW228767   0.244   4.279   6.936  1.2383 -1.3033 -0.0365
 5769SOL     OW28768   2.201   1.201  11.588 -0.3286 -0.2555 -0.2815
 5769SOL    HW128769   2.237   1.153  11.663  0.1958 -1.1118 -1.0819
 5769SOL    HW228770   2.274   1.197  11.526  0.8141  1.1475  0.9695
 5770SOL     OW28771   2.534   4.135  12.789 -0.6198  0.6429 -0.6846
 5770SOL    HW128772   2.625   4.137  12.818 -0.6028  2.2527 -0.8696
 5770SOL    HW228773   2.528   4.187  12.709  1.5745  0.1618 -1.1628
 5771SOL     OW28774   1.396   2.167   4.122 -0.4621 -0.7588 -0.0601
 5771SOL    HW128775   1.310   2.151   4.083 -0.9610  0.4763  0.5501
 5771SOL    HW228776   1.363   2.198   4.205 -0.5486  0.3849 -0.5310
 5772SOL     OW28777   1.840   1.314  12.452 -0.2702 -0.2558  0.0704
 5772SOL    HW128778   1.858   1.246  12.387 -0.0757  2.7393 -2.9945
 5772SOL    HW228779   1.933   1.325  12.475 -0.6887 -0.3592  1.8203
 5773SOL     OW28780   1.096   3.453   2.390  0.6862  0.1575  0.0214
 5773SOL    HW128781   1.058   3.421   2.309  5.1629  0.9207 -2.3647
 5773SOL    HW228782   1.031   3.417   2.451  0.1864 -0.7381 -1.0608
 5774SOL     OW28783   1.553   1.672   5.914 -0.1829  0.4616  0.2476
 5774SOL    HW128784   1.600   1.605   5.865 -1.8561 -0.0472 -0.6836
 5774SOL    HW228785   1.606   1.684   5.993  0.0629 -1.3386  0.3499
 5775SOL     OW28786   4.245   0.154   7.841  0.0809  0.4509 -0.7904
 5775SOL    HW128787   4.261   0.229   7.784 -0.9475  1.9655  0.9526
 5775SOL    HW228788   4.227   0.085   7.776  0.5544 -0.0853 -0.3510
 5776SOL     OW28789   1.822   3.092   7.861 -0.4442  0.3799 -0.6352
 5776SOL    HW128790   1.916   3.099   7.879 -0.5822  0.3546  0.0908
 5776SOL    HW228791   1.808   3.008   7.903  1.2260  1.4687  2.0621
 5777SOL     OW28792   2.581   2.748   1.266  0.4083  0.6856  0.0633
 5777SOL    HW128793   2.603   2.714   1.179 -0.0160  0.9155 -0.1335
 5777SOL    HW228794   2.567   2.842   1.256 -2.3947  0.2014 -0.6196
 5778SOL     OW28795   2.278   2.990   2.437 -0.3117 -0.3761  0.1863
 5778SOL    HW128796   2.231   3.020   2.359 -1.6590 -0.3055  1.0224
 5778SOL    HW228797   2.367   2.999   2.404 -0.2499  0.9733  0.7445
 5779SOL     OW28798   1.799   2.523   4.428 -0.2852  0.5030  0.4421
 5779SOL    HW128799   1.722   2.480   4.464 -0.6266 -0.1766 -1.1144
 5779SOL    HW228800   1.761   2.583   4.363 -1.1105  0.6829  1.0962
 5780SOL     OW28801   4.467   4.511   1.802  0.3136  0.1669 -0.1211
 5780SOL    HW128802   4.497   4.435   1.752  2.2809  1.4864 -0.8885
 5780SOL    HW228803   4.538   4.506   1.865  1.7111 -0.5879 -1.7480
 5781SOL     OW28804   3.145   2.213   1.864  0.4881 -1.2521 -0.1953
 5781SOL    HW128805   3.221   2.156   1.848  0.6826 -0.9854 -0.2058
 5781SOL    HW228806   3.106   2.165   1.938 -1.1674 -0.3578 -0.4856
 5782SOL     OW28807   0.692   0.666   8.769 -0.2940  0.0122  1.2859
 5782SOL    HW128808   0.621   0.727   8.789 -0.7594 -0.2956  0.5517
 5782SOL    HW228809   0.649   0.581   8.757  1.7440 -0.6294 -1.4186
 5783SOL     OW28810   0.568   1.828  12.254 -0.3438 -0.7260  0.4762
 5783SOL    HW128811   0.536   1.738  12.249  0.5515 -0.9557 -1.3884
 5783SOL    HW228812   0.625   1.824  12.331 -0.1411  0.4642  0.3775
 5784SOL     OW28813   1.769   0.606   7.131  0.4066  0.4290  0.3805
 5784SOL    HW128814   1.826   0.679   7.105  0.7768  0.4194  1.1778
 5784SOL    HW228815   1.836   0.555   7.176  0.0993  1.4296  1.9876
 5785SOL     OW28816   2.672   0.187   7.791 -0.3297 -0.1950 -0.1978
 5785SOL    HW128817   2.631   0.204   7.876  0.1098  1.7153 -0.3740
 5785SOL    HW228818   2.708   0.275   7.778 -2.2569  0.5774 -0.3679
 5786SOL     OW28819   1.896   3.796  13.288  0.4896 -0.0468  0.5245
 5786SOL    HW128820   1.919   3.771  13.199 -2.8336 -0.4315 -0.2440
 5786SOL    HW228821   1.985   3.792  13.323  0.1053  0.7974  1.6176
 5787SOL     OW28822   2.332   4.411  12.401  0.1874  0.3517 -0.0111
 5787SOL    HW128823   2.269   4.483  12.389 -3.8354 -2.7191  3.0554
 5787SOL    HW228824   2.368   4.417  12.312 -0.2333  1.4685 -0.1133
 5788SOL     OW28825   3.701   2.611   6.025  0.0879 -0.1830  0.0673
 5788SOL    HW128826   3.728   2.599   6.116  5.9621 -0.0138 -1.7171
 5788SOL    HW228827   3.765   2.553   5.986  0.4913  1.0038 -1.0249
 5789SOL     OW28828   3.562   3.255  11.194  0.5894  0.3497 -0.5777
 5789SOL    HW128829   3.647   3.269  11.153  1.7118 -2.0063  0.9615
 5789SOL    HW228830   3.547   3.339  11.236 -0.1908  0.0869 -0.3182
 5790SOL     OW28831   4.491   2.610   6.945  0.5602  0.6934  0.3827
 5790SOL    HW128832   4.528   2.576   7.027 -1.7838  0.3784  1.3169
 5790SOL    HW228833   4.397   2.609   6.964  0.2168  1.6617 -1.2861
 5791SOL     OW28834   1.156   0.846   4.560  0.2977  0.9353  0.1781
 5791SOL    HW128835   1.086   0.826   4.621 -1.7020 -1.7452 -3.0040
 5791SOL    HW228836   1.198   0.764   4.534  0.1971  0.4192  1.6767
 5792SOL     OW28837   4.670   3.667   5.644  0.0207  0.5661  0.0583
 5792SOL    HW128838   4.593   3.705   5.601  0.1042  0.0496 -0.5449
 5792SOL    HW228839   4.683   3.583   5.600 -2.0805  1.4885 -2.3666
 5793SOL     OW28840   0.449   4.361  12.889  0.0737 -0.2685 -0.5344
 5793SOL    HW128841   0.380   4.331  12.947 -0.2733 -0.9364 -1.2902
 5793SOL    HW228842   0.448   4.293  12.822  1.2289 -2.3510  1.5770
 5794SOL     OW28843   2.776   3.837   3.468 -0.4329 -0.3332  0.0763
 5794SOL    HW128844   2.860   3.856   3.427  0.4915  0.0978  2.1417
 5794SOL    HW228845   2.749   3.928   3.479  1.2281  0.1942 -0.2098
 5795SOL     OW28846   0.785   0.040   5.415 -0.0407  0.1952 -0.8059
 5795SOL    HW128847   0.873   0.002   5.407  0.2075  0.9898 -1.9165
 5795SOL    HW228848   0.749   4.694   5.469  0.2816  0.8956  0.3008
 5796SOL     OW28849   3.487   0.031   6.850  0.3838  0.0045 -0.0762
 5796SOL    HW128850   3.426   4.682   6.865  1.2985 -0.3532  1.9728
 5796SOL    HW228851   3.441   0.094   6.794 -0.8169 -0.0992  0.7923
 5797SOL     OW28852   3.434   2.555   8.494  0.5142  0.2301 -0.2472
 5797SOL    HW128853   3.468   2.530   8.409  0.5471  1.3390 -0.5613
 5797SOL    HW228854   3.396   2.470   8.518 -0.1693 -0.0722 -2.4702
 5798SOL     OW28855   3.921   4.529   5.151  0.1223 -0.0500  0.2099
 5798SOL    HW128856   3.974   4.516   5.230  1.7283  2.8399 -0.4200
 5798SOL    HW228857   3.898   4.440   5.123  0.2614  0.1486 -0.5270
 5799SOL     OW28858   3.772   2.201   6.476  0.2653 -0.8747  0.0498
 5799SOL    HW128859   3.809   2.167   6.394  0.8421  2.9619 -1.2604
 5799SOL    HW228860   3.732   2.120   6.509 -1.3664 -0.2741 -0.4714
 5800SOL     OW28861   2.746   3.914  13.585 -0.1217  0.3218  0.2709
 5800SOL    HW128862   2.830   3.914  13.540  0.6250  1.4231  1.6816
 5800SOL    HW228863   2.728   4.007  13.599  0.9216  0.8657 -2.1117
 5801SOL     OW28864   1.279   3.019   5.838 -0.5581  0.8619  0.1765
 5801SOL    HW128865   1.347   3.074   5.876  2.1560 -1.9527 -0.5467
 5801SOL    HW228866   1.223   3.010   5.915 -2.5521  0.7713 -1.2753
 5802SOL     OW28867   2.715   2.222  12.756  0.1322 -0.1204  0.0125
 5802SOL    HW128868   2.640   2.190  12.806  0.2745 -1.7322 -0.8227
 5802SOL    HW228869   2.766   2.256  12.829  1.6187 -0.7830 -0.7165
 5803SOL     OW28870   1.623   0.858   5.659 -0.7093  1.0705  0.1519
 5803SOL    HW128871   1.702   0.866   5.712  0.3280 -1.8274 -0.9767
 5803SOL    HW228872   1.625   0.946   5.620  2.2053  0.8736 -0.1519
 5804SOL     OW28873   3.440   1.110  10.640  0.0739 -0.5320 -0.0926
 5804SOL    HW128874   3.524   1.097  10.683 -0.7698 -1.2301  1.3542
 5804SOL    HW228875   3.421   1.016  10.629  0.6524 -0.6337 -0.2458
 5805SOL     OW28876   1.855   3.065   8.471  0.3743 -0.0706 -0.0152
 5805SOL    HW128877   1.910   3.009   8.526  0.3687  2.9814  3.0194
 5805SOL    HW228878   1.788   3.097   8.531  1.1418  1.1389  0.1858
 5806SOL     OW28879   0.440   2.337  15.376  0.3713 -0.3119 -0.3456
 5806SOL    HW128880   0.514   2.301  15.328 -0.6085 -0.6469 -1.6112
 5806SOL    HW228881   0.417   2.424  15.344  4.0712  0.2908 -1.3620
 5807SOL     OW28882   2.134   1.946   2.561 -0.2380  0.2438 -0.0761
 5807SOL    HW128883   2.164   1.949   2.652 -0.6717 -0.0846  0.0747
 5807SOL    HW228884   2.204   1.988   2.512 -0.8738  1.0605 -0.2909
 5808SOL     OW28885   0.651   1.260   6.015  0.3523 -0.1951  0.0539
 5808SOL    HW128886   0.614   1.222   6.094  0.9598 -1.5844 -0.3235
 5808SOL    HW228887   0.745   1.252   6.030  0.2632 -1.1735  0.0748
 5809SOL     OW28888   0.360   0.060   3.420 -0.3086  0.2630 -0.5826
 5809SOL    HW128889   0.332   4.706   3.371 -1.5620  0.8526 -0.7895
 5809SOL    HW228890   0.275   0.085   3.457 -0.8801 -0.6066 -1.3085
 5810SOL     OW28891   0.396   4.189   5.511  0.3643  0.1125  0.1854
 5810SOL    HW128892   0.437   4.129   5.573  1.9908  0.5999 -0.4100
 5810SOL    HW228893   0.345   4.134   5.452 -1.6727 -0.1045  2.1646
 5811SOL     OW28894   2.744   1.024   1.353 -0.9184 -0.3558  0.1039
 5811SOL    HW128895   2.782   1.090   1.294  0.5052 -1.1713  0.0967
 5811SOL    HW228896   2.678   0.987   1.295 -1.2949 -0.4868  0.6136
 5812SOL     OW28897   3.419   3.295   1.261  0.2308 -0.0995 -0.3784
 5812SOL    HW128898   3.389   3.316   1.173  0.0137  2.2727  0.2852
 5812SOL    HW228899   3.508   3.270   1.234 -0.1682 -0.1651 -1.6193
 5813SOL     OW28900   2.231   4.479   8.529 -0.1662  0.5641  0.1482
 5813SOL    HW128901   2.325   4.489   8.545 -0.0437  2.2920 -1.5745
 5813SOL    HW228902   2.239   4.465   8.435 -1.2849  0.9733 -0.0031
 5814SOL     OW28903   4.371   0.041   5.719 -0.4214 -0.2579 -0.1497
 5814SOL    HW128904   4.395   4.696   5.782 -2.0505  0.4211  1.1938
 5814SOL    HW228905   4.410   0.122   5.752 -3.3106  0.7228  0.8101
 5815SOL     OW28906   3.635   1.883  16.274 -0.7177  0.1236  0.7654
 5815SOL    HW128907   3.578   1.933  16.216 -0.9223 -2.2576 -1.0996
 5815SOL    HW228908   3.580   1.812  16.307 -0.3418 -0.8078 -0.5919
 5816SOL     OW28909   2.313   0.439   8.839  0.3514  0.1817  0.0235
 5816SOL    HW128910   2.328   0.506   8.772 -2.2597  1.2587  0.5153
 5816SOL    HW228911   2.405   0.415   8.853 -0.4426 -1.9890  1.3684
 5817SOL     OW28912   4.701   2.753   7.883 -0.4547  0.5103  0.1569
 5817SOL    HW128913   4.715   2.799   7.966  0.5357 -1.0766  0.8818
 5817SOL    HW228914   0.006   2.814   7.815 -0.7917  0.9904  0.4578
 5818SOL     OW28915   3.321   2.932   7.846 -0.2985  0.4264  0.3398
 5818SOL    HW128916   3.272   2.993   7.791 -0.5854 -0.0719  0.0440
 5818SOL    HW228917   3.268   2.852   7.856 -1.6211  1.3001  0.3199
 5819SOL     OW28918   1.013   2.465   4.146  0.1309  0.1683 -0.5320
 5819SOL    HW128919   1.085   2.514   4.106  1.5552 -1.1638  0.4048
 5819SOL    HW228920   0.944   2.494   4.086 -0.3915  1.0849  0.5084
 5820SOL     OW28921   1.586   1.215   0.694  0.0802 -0.1681 -0.0003
 5820SOL    HW128922   1.537   1.269   0.757 -0.2240  0.1744 -0.5358
 5820SOL    HW228923   1.606   1.133   0.739  0.1087 -1.2401 -1.9959
 5821SOL     OW28924   0.461   2.249   1.245 -0.2047 -0.4514 -0.2621
 5821SOL    HW128925   0.456   2.264   1.151  1.2221  2.6990  0.1709
 5821SOL    HW228926   0.370   2.223   1.264  0.3410 -1.8734  0.4213
 5822SOL     OW28927   0.006   4.232   9.642 -0.0273 -0.0345  0.0005
 5822SOL    HW128928   0.076   4.262   9.585  1.5908  0.1052  2.0850
 5822SOL    HW228929   4.679   4.175   9.584 -0.8112  0.5017  0.1516
 5823SOL     OW28930   3.108   4.045  17.583 -0.2843 -0.3632 -0.1392
 5823SOL    HW128931   3.100   4.000  17.499  0.3621 -0.5727 -0.0860
 5823SOL    HW228932   3.039   4.007  17.638 -3.1616  1.1567 -2.7052
 5824SOL     OW28933   1.156   2.613   3.922 -0.1218  0.1954  0.1545
 5824SOL    HW128934   1.132   2.684   3.863  0.2718  1.9393  2.1022
 5824SOL    HW228935   1.180   2.551   3.853 -0.6108  0.5278 -0.3117
 5825SOL     OW28936   2.347   4.404   7.068  0.0950  0.1655  0.6045
 5825SOL    HW128937   2.392   4.423   6.985  0.3341 -0.2998  0.6271
 5825SOL    HW228938   2.325   4.314   7.047  1.6070  0.5890 -2.8029
 5826SOL     OW28939   1.550   2.815   3.770  0.0958 -0.4440 -0.1957
 5826SOL    HW128940   1.512   2.806   3.683 -0.0143 -0.7864 -0.1116
 5826SOL    HW228941   1.607   2.891   3.762 -1.0074  0.3204 -0.8367
 5827SOL     OW28942   2.936   3.440   4.066 -0.5661 -0.3990 -0.3773
 5827SOL    HW128943   3.015   3.452   4.118 -0.5845  0.0739 -0.4622
 5827SOL    HW228944   2.957   3.472   3.978 -1.2322  1.4328  0.1417
 5828SOL     OW28945   4.270   2.161   6.911  0.3194  0.6598  0.1324
 5828SOL    HW128946   4.204   2.108   6.955  1.1544  0.4218  1.0884
 5828SOL    HW228947   4.222   2.239   6.885  0.1471  0.1104 -1.1878
 5829SOL     OW28948   0.942   2.667  15.277  0.2163  0.2813 -0.2288
 5829SOL    HW128949   0.912   2.655  15.187 -3.3232  1.5299  0.7891
 5829SOL    HW228950   1.009   2.600  15.288  0.3179  0.5386  0.6939
 5830SOL     OW28951   2.519   0.126   5.085  0.1282  0.2768  0.1109
 5830SOL    HW128952   2.548   0.217   5.092  0.7415  0.2043 -1.4025
 5830SOL    HW228953   2.484   0.108   5.172  1.9031  1.1429  0.9817
 5831SOL     OW28954   2.823   1.523   3.902 -1.0980  0.0184  0.1821
 5831SOL    HW128955   2.887   1.452   3.892 -1.3346 -0.3700  1.3824
 5831SOL    HW228956   2.775   1.487   3.977 -1.5530  1.2213  0.4720
 5832SOL     OW28957   4.230   4.347  17.499 -0.1209 -0.4238 -0.6885
 5832SOL    HW128958   4.150   4.352  17.551  1.2933 -1.7257  1.6418
 5832SOL    HW228959   4.233   4.262  17.456  1.6162 -0.3380 -0.7511
 5833SOL     OW28960   3.464   3.244  13.354  0.5287  0.5781 -0.0582
 5833SOL    HW128961   3.492   3.301  13.282 -1.1873  3.0210  1.2089
 5833SOL    HW228962   3.483   3.153  13.332  0.2195  0.5142 -0.0598
 5834SOL     OW28963   0.814   1.970   8.000  0.4502 -0.0265 -0.1334
 5834SOL    HW128964   0.839   2.044   8.054  0.3954  0.1635 -0.3676
 5834SOL    HW228965   0.774   1.915   8.067  0.4867  2.3451  1.8140
 5835SOL     OW28966   3.581   4.228   7.744  0.3241  0.7287  0.5042
 5835SOL    HW128967   3.666   4.270   7.734  1.3200 -1.4075  0.0991
 5835SOL    HW228968   3.528   4.284   7.801 -0.8747 -0.7492  0.8517
 5836SOL     OW28969   2.473   3.013   8.468 -0.2586  0.1571 -0.1629
 5836SOL    HW128970   2.527   2.987   8.542 -0.1904  1.8079  0.3763
 5836SOL    HW228971   2.385   3.017   8.507  0.1806 -0.4811  0.8879
 5837SOL     OW28972   1.245   1.202   4.052 -0.1516  0.6263 -0.7137
 5837SOL    HW128973   1.321   1.250   4.084 -1.8273  1.1633  2.4551
 5837SOL    HW228974   1.217   1.168   4.137  1.1840  0.0391 -0.5174
 5838SOL     OW28975   2.290   3.631  10.523  0.5542  0.4952  0.4735
 5838SOL    HW128976   2.380   3.604  10.541  1.5273  2.9454 -0.6428
 5838SOL    HW228977   2.300   3.723  10.499  0.9095 -0.5816 -3.6437
 5839SOL     OW28978   1.173   0.661   0.763 -0.0868 -0.0914  0.2860
 5839SOL    HW128979   1.128   0.586   0.723 -0.6162 -0.0848  0.8675
 5839SOL    HW228980   1.123   0.733   0.725  0.1532 -1.0996 -1.9419
 5840SOL     OW28981   3.171   4.545   7.581 -0.3762 -0.1022  0.1613
 5840SOL    HW128982   3.162   4.514   7.671  0.4494 -0.1373  0.2322
 5840SOL    HW228983   3.263   4.550   7.556 -0.6408 -2.3857 -1.2445
 5841SOL     OW28984   4.411   1.929   4.555  0.0400 -0.2618 -0.4441
 5841SOL    HW128985   4.427   1.861   4.620 -0.9606  0.2835  0.3597
 5841SOL    HW228986   4.496   1.970   4.541  0.6390 -2.0006 -1.9951
 5842SOL     OW28987   1.308   4.677   4.523 -0.6710  0.6000 -0.2398
 5842SOL    HW128988   1.311   0.012   4.600 -1.0410 -1.0034  0.9790
 5842SOL    HW228989   1.388   4.714   4.486 -0.8968  1.1875 -0.1556
 5843SOL     OW28990   2.223   3.042   2.040  0.3292  0.2713  0.1992
 5843SOL    HW128991   2.242   3.013   1.950 -1.0876  0.7613 -0.2573
 5843SOL    HW228992   2.313   3.044   2.072  1.4855  0.0420 -2.9694
 5844SOL     OW28993   0.292   0.245   2.328 -0.1919  0.1405 -0.2110
 5844SOL    HW128994   0.283   0.330   2.371 -1.0558  0.1897 -0.4978
 5844SOL    HW228995   0.203   0.228   2.298 -0.1944 -0.0875 -0.0779
 5845SOL     OW28996   0.989   2.289   3.184 -0.7019  0.3478  0.2429
 5845SOL    HW128997   0.939   2.364   3.217  0.6672  0.7127  1.4488
 5845SOL    HW228998   1.069   2.309   3.232  0.3853 -2.0842 -0.5839
 5846SOL     OW28999   0.711   4.680   6.673 -0.4239  0.1628  0.2400
 5846SOL    HW129000   0.717   0.052   6.668 -0.8678  0.2493  1.2593
 5846SOL    HW229001   0.804   4.661   6.680 -0.2708  0.4003 -1.1444
 5847SOL     OW29002   3.786   4.201   6.699 -0.0242 -0.0953 -0.2163
 5847SOL    HW129003   3.832   4.136   6.646  1.9866  0.9968  0.1678
 5847SOL    HW229004   3.738   4.256   6.636  1.5102  1.8843  0.3522
 5848SOL     OW29005   0.324   2.700  13.704  0.2992  0.0164  0.3929
 5848SOL    HW129006   0.383   2.637  13.746  0.5388 -0.5158 -0.7488
 5848SOL    HW229007   0.242   2.655  13.725  0.1835  0.8925  1.7857
 5849SOL     OW29008   0.676   1.152   7.956 -0.3040  0.4201 -0.3945
 5849SOL    HW129009   0.767   1.157   7.983 -0.4119 -0.5962  0.1430
 5849SOL    HW229010   0.656   1.245   7.954 -2.3685 -0.0225 -0.1435
 5850SOL     OW29011   0.296   3.416   4.413  0.1776  0.6888  0.0264
 5850SOL    HW129012   0.267   3.456   4.331  0.2244  1.6056  0.4602
 5850SOL    HW229013   0.390   3.404   4.403  0.3501 -0.1122  2.8577
 5851SOL     OW29014   2.377   3.760  13.646  0.3231  0.1798  0.5205
 5851SOL    HW129015   2.341   3.714  13.722  1.2567  0.8413  1.3598
 5851SOL    HW229016   2.346   3.849  13.663 -1.6900 -0.4146 -0.0666
 5852SOL     OW29017   1.221   1.821   8.579  0.1824  0.5109 -0.3095
 5852SOL    HW129018   1.307   1.811   8.536  0.4804  2.0129 -0.0769
 5852SOL    HW229019   1.220   1.917   8.579  0.3758  0.4921  2.6062
 5853SOL     OW29020   3.124   3.511   8.753 -0.5574  0.8422  0.7269
 5853SOL    HW129021   3.152   3.552   8.672  2.5042 -1.7383  0.4564
 5853SOL    HW229022   3.204   3.461   8.772 -1.1695 -0.3359  0.2281
 5854SOL     OW29023   4.570   1.500   3.714 -0.1002 -0.0157 -0.4179
 5854SOL    HW129024   4.481   1.499   3.679 -0.4165 -0.3169  0.3992
 5854SOL    HW229025   4.559   1.554   3.792  0.1899  0.7638 -0.9178
 5855SOL     OW29026   2.373   3.266   8.924 -0.3669 -0.3000 -0.4418
 5855SOL    HW129027   2.361   3.182   8.880  1.0789 -1.2482  0.9437
 5855SOL    HW229028   2.365   3.327   8.852  0.1061  0.9439  0.5586
 5856SOL     OW29029   2.297   3.216   8.133  0.1837  0.4640 -0.5506
 5856SOL    HW129030   2.247   3.243   8.210  0.4095 -0.2022 -0.1685
 5856SOL    HW229031   2.293   3.121   8.143  0.9859  0.6128  1.2190
 5857SOL     OW29032   2.035   3.418   2.092 -0.9373 -0.3976  0.9082
 5857SOL    HW129033   2.090   3.399   2.168 -0.9431 -0.5164  0.8830
 5857SOL    HW229034   1.957   3.458   2.131  0.1037  1.9365  0.5966
 5858SOL     OW29035   1.446   3.543  12.093 -0.3058 -0.3851  0.0445
 5858SOL    HW129036   1.527   3.591  12.074  0.0911 -0.9753  0.2305
 5858SOL    HW229037   1.480   3.456  12.072  0.0095 -0.0537 -0.8038
 5859SOL     OW29038   1.484   0.898   6.109  0.1252 -0.7873  0.2592
 5859SOL    HW129039   1.517   0.973   6.158 -3.0654  1.4504 -0.9868
 5859SOL    HW229040   1.495   0.923   6.018 -0.6027  1.0012  0.6779
 5860SOL     OW29041   1.742   0.024   2.770  0.4091 -0.0992 -0.7017
 5860SOL    HW129042   1.808   0.068   2.826 -1.0715  0.4124  0.6395
 5860SOL    HW229043   1.684   0.097   2.749 -0.2088 -0.4407 -0.1767
 5861SOL     OW29044   1.220   2.037   7.238 -0.5155  0.1920  0.1728
 5861SOL    HW129045   1.284   1.987   7.187 -0.2350  1.2395 -0.5037
 5861SOL    HW229046   1.251   2.128   7.235 -0.6836  0.1623 -1.9050
 5862SOL     OW29047   0.335   2.691   5.858 -0.2298 -0.4779  0.1948
 5862SOL    HW129048   0.298   2.750   5.792  0.6779  0.1828  0.2696
 5862SOL    HW229049   0.418   2.662   5.820  0.4776 -0.9332  2.1210
 5863SOL     OW29050   1.679   1.032  17.216  0.5255  0.0966 -0.3368
 5863SOL    HW129051   1.668   0.953  17.164 -0.7269 -0.2587  0.4631
 5863SOL    HW229052   1.598   1.030  17.266  0.3867  1.0137 -0.5143
 5864SOL     OW29053   1.540   3.617   7.438  0.2743  0.2128  0.0596
 5864SOL    HW129054   1.561   3.553   7.371 -0.4144 -2.1109  2.0700
 5864SOL    HW229055   1.607   3.683   7.420  1.9920 -1.9427 -1.3162
 5865SOL     OW29056   0.269   2.262  14.491 -0.5884 -0.2634 -0.1556
 5865SOL    HW129057   0.191   2.303  14.451 -0.6974 -0.3000  0.0188
 5865SOL    HW229058   0.337   2.322  14.460  1.7913 -1.5795  2.6416
 5866SOL     OW29059   3.129   3.191  13.651 -0.3468  0.0617  0.1479
 5866SOL    HW129060   3.139   3.103  13.616 -0.9454 -0.3095  0.9284
 5866SOL    HW229061   3.084   3.190  13.735  1.2543  0.7499  1.0110
 5867SOL     OW29062   4.662   0.975   2.327 -0.9915  0.0106  0.3348
 5867SOL    HW129063   0.002   1.033   2.285 -1.0716  1.4086  2.1531
 5867SOL    HW229064   4.586   0.991   2.271  0.8034  0.9165 -1.8043
 5868SOL     OW29065   0.372   4.590   8.815  0.2700  0.2274 -0.7247
 5868SOL    HW129066   0.355   4.526   8.746  1.5446 -1.3293  0.3994
 5868SOL    HW229067   0.306   4.658   8.802 -0.9392 -0.3987  2.0588
 5869SOL     OW29068   3.569   3.253   5.693 -0.3222  0.3222 -0.3792
 5869SOL    HW129069   3.569   3.330   5.637 -0.3189  0.4622 -0.1855
 5869SOL    HW229070   3.598   3.187   5.629 -0.7241 -0.1376 -0.0929
 5870SOL     OW29071   1.096   2.838   4.094 -0.0909 -0.5872 -0.5236
 5870SOL    HW129072   1.094   2.781   4.017  1.0945  1.0096 -1.7442
 5870SOL    HW229073   1.042   2.909   4.059 -0.8170 -0.9023 -0.0321
 5871SOL     OW29074   0.398   3.335  13.430 -0.9759  0.3028  0.6851
 5871SOL    HW129075   0.375   3.346  13.338  0.7381  0.2396  0.2426
 5871SOL    HW229076   0.466   3.402  13.440  1.9646 -2.6623  0.3695
 5872SOL     OW29077   1.780   4.523   4.841  0.0316 -0.3861 -0.1899
 5872SOL    HW129078   1.789   4.618   4.835 -2.3628 -0.1471  0.2167
 5872SOL    HW229079   1.873   4.500   4.831 -1.1387 -4.1807 -2.2550
 5873SOL     OW29080   0.770   1.734   8.686 -0.0488 -0.1325 -0.0524
 5873SOL    HW129081   0.813   1.649   8.676 -1.3173 -0.7886  0.1115
 5873SOL    HW229082   0.749   1.712   8.777 -1.8976  0.5692 -0.3117
 5874SOL     OW29083   3.168   1.595   0.247 -0.1376 -0.5622 -0.4261
 5874SOL    HW129084   3.085   1.641   0.264 -0.0241  0.1368 -1.7941
 5874SOL    HW229085   3.161   1.592   0.152  0.6407  1.7644 -0.5717
 5875SOL     OW29086   2.351   2.994  16.504 -0.9398 -0.6199 -0.5792
 5875SOL    HW129087   2.294   3.032  16.570 -1.0293 -0.0649 -0.9773
 5875SOL    HW229088   2.398   3.069  16.468 -0.0887 -0.0873  1.6043
 5876SOL     OW29089   2.896   1.990  11.011  0.6600  0.2940  0.1062
 5876SOL    HW129090   2.819   2.013  11.062  1.6030 -0.2622  1.7936
 5876SOL    HW229091   2.967   2.009  11.072  0.3610  1.4084  0.1114
 5877SOL     OW29092   1.896   3.943   3.817  0.4400 -0.0085 -0.8239
 5877SOL    HW129093   1.903   3.915   3.908 -3.6179 -0.6612 -0.6982
 5877SOL    HW229094   1.809   3.982   3.816  0.7728  0.7242 -1.3187
 5878SOL     OW29095   0.543   1.190  17.365 -0.1453 -0.4073 -0.3431
 5878SOL    HW129096   0.573   1.107  17.329  2.6997 -0.6901  2.7013
 5878SOL    HW229097   0.483   1.151  17.429 -0.0295  1.1081  0.6997
 5879SOL     OW29098   2.325   2.102   7.255 -0.7340  0.1276  0.0198
 5879SOL    HW129099   2.263   2.029   7.256 -0.8203  0.1954 -0.2560
 5879SOL    HW229100   2.298   2.151   7.178  0.3818 -0.2180 -0.5813
 5880SOL     OW29101   1.695   0.649   1.803 -0.1737 -0.2770  0.0872
 5880SOL    HW129102   1.611   0.680   1.837  1.0623  1.6208  1.4227
 5880SOL    HW229103   1.718   0.595   1.878 -0.3261  0.5898  0.7621
 5881SOL     OW29104   1.056   1.419   9.517  0.4861  0.6745  0.0716
 5881SOL    HW129105   1.139   1.454   9.551 -0.3412  1.1030  1.6107
 5881SOL    HW229106   1.064   1.422   9.421  0.8408  0.1569  0.0833
 5882SOL     OW29107   1.343   2.885   4.760  1.1205 -0.1798 -0.3853
 5882SOL    HW129108   1.261   2.841   4.739  1.2219  0.5342 -2.2781
 5882SOL    HW229109   1.406   2.825   4.721  1.6537 -0.1463  0.4333
 5883SOL     OW29110   1.730   4.529   8.315 -0.0587  0.3212 -0.5806
 5883SOL    HW129111   1.724   4.559   8.224  2.6635  1.8303 -0.2323
 5883SOL    HW229112   1.816   4.564   8.336  0.3477 -0.8883 -0.2159
 5884SOL     OW29113   4.292   3.644   2.150  0.6401 -0.3683  0.2355
 5884SOL    HW129114   4.384   3.672   2.143  0.7429 -0.4431  1.3844
 5884SOL    HW229115   4.250   3.713   2.201 -0.7626  0.3607 -1.8776
 5885SOL     OW29116   2.880   3.145   7.283  0.0052  0.2432  0.3110
 5885SOL    HW129117   2.922   3.220   7.241  0.7257  0.2553  1.0510
 5885SOL    HW229118   2.885   3.169   7.376 -1.7627  3.2890 -0.3656
 5886SOL     OW29119   1.032   1.214   7.502  0.1977  0.5185 -0.1578
 5886SOL    HW129120   1.085   1.256   7.569 -1.8641  2.1529  0.4320
 5886SOL    HW229121   0.999   1.131   7.537  3.1794 -0.0084  1.3696
 5887SOL     OW29122   0.842   2.474  10.934 -0.3770 -0.0395 -0.3390
 5887SOL    HW129123   0.844   2.507  10.845  0.0925  2.5605  0.6520
 5887SOL    HW229124   0.902   2.539  10.970 -0.5162  1.1152 -2.2545
 5888SOL     OW29125   3.719   3.199  12.220 -0.6572 -0.0899  0.4107
 5888SOL    HW129126   3.726   3.232  12.310  0.3572 -0.4775  0.4729
 5888SOL    HW229127   3.690   3.277  12.174  0.7215  0.2726  0.1717
 5889SOL     OW29128   3.267   3.147   7.094  0.4173  0.1498 -0.2566
 5889SOL    HW129129   3.220   3.229   7.109  1.5696  0.6342  0.6081
 5889SOL    HW229130   3.231   3.122   7.008  1.0921  2.1912 -1.1160
 5890SOL     OW29131   1.061   2.552   7.562 -0.1293 -0.3884 -0.0879
 5890SOL    HW129132   0.990   2.613   7.584  1.4040  1.1634  0.5420
 5890SOL    HW229133   1.072   2.567   7.468 -1.1864 -1.0901 -0.3316
 5891SOL     OW29134   3.665   2.952   2.752  0.7007 -0.1976  0.2365
 5891SOL    HW129135   3.590   2.904   2.719  1.0992  0.3552 -1.4813
 5891SOL    HW229136   3.721   2.877   2.774 -0.3556 -2.0640 -3.5423
 5892SOL     OW29137   2.713   3.986  17.064 -0.5818  0.1674  0.3742
 5892SOL    HW129138   2.786   3.930  17.089 -0.4314 -0.4468 -1.4431
 5892SOL    HW229139   2.741   4.065  17.110  0.9134 -1.4264  2.2078
 5893SOL     OW29140   4.648   4.496   4.599 -0.0240  0.5140 -0.9226
 5893SOL    HW129141   4.614   4.544   4.675  3.8805 -0.3174  1.3670
 5893SOL    HW229142   4.567   4.452   4.574 -1.1680 -0.1287  3.7531
 5894SOL     OW29143   0.908   4.268   7.485 -0.2387 -0.0089 -0.3586
 5894SOL    HW129144   0.938   4.196   7.541 -1.8610 -0.2795  0.1759
 5894SOL    HW229145   0.841   4.311   7.538 -0.9854  1.7402 -2.7331
 5895SOL     OW29146   4.235   0.769  11.789 -0.1607  0.7081  0.5123
 5895SOL    HW129147   4.309   0.721  11.827  0.5323  1.0636 -0.4050
 5895SOL    HW229148   4.165   0.737  11.847  1.6223 -0.4856  2.0141
 5896SOL     OW29149   3.238   0.348   2.937  0.4214 -0.2974  0.0926
 5896SOL    HW129150   3.207   0.305   2.857  1.5750 -0.3398 -0.3340
 5896SOL    HW229151   3.157   0.390   2.967  0.9084  0.6177  0.1219
 5897SOL     OW29152   1.774   3.282   2.962  0.0938  0.1268 -0.4875
 5897SOL    HW129153   1.806   3.330   2.886  4.3492  1.4477  2.1227
 5897SOL    HW229154   1.838   3.212   2.978 -1.6767 -1.2075  0.7614
 5898SOL     OW29155   3.741   0.408   1.661  0.2993 -0.3105  0.1846
 5898SOL    HW129156   3.712   0.396   1.752 -0.5553  0.4200  0.0063
 5898SOL    HW229157   3.724   0.319   1.631 -0.1403  0.0346 -0.5737
 5899SOL     OW29158   2.257   0.366  14.234 -0.1514  0.5430 -0.1592
 5899SOL    HW129159   2.310   0.390  14.157 -1.1441  1.3036 -0.6010
 5899SOL    HW229160   2.267   0.439  14.294 -0.9354 -0.4795  1.2112
 5900SOL     OW29161   4.623   3.333   6.694  0.1501 -0.1313 -0.4273
 5900SOL    HW129162   4.621   3.417   6.648 -0.2574 -0.9559 -1.9312
 5900SOL    HW229163   4.573   3.282   6.630  0.6106 -1.6452  0.4259
 5901SOL     OW29164   3.573   2.731   6.306 -0.5644  0.6006  0.1103
 5901SOL    HW129165   3.644   2.671   6.284 -1.6933 -0.1443 -1.5339
 5901SOL    HW229166   3.553   2.698   6.394 -2.4434  1.6955  0.1040
 5902SOL     OW29167   0.499   3.136  13.839  0.2787 -0.3746  0.1678
 5902SOL    HW129168   0.477   3.153  13.930  0.3698 -3.3833  0.7486
 5902SOL    HW229169   0.534   3.047  13.842 -1.6235 -1.0801  1.6550
 5903SOL     OW29170   3.327   0.642   6.100 -0.5145 -0.0548  0.2588
 5903SOL    HW129171   3.278   0.632   6.018  1.8463 -0.8632 -1.0482
 5903SOL    HW229172   3.418   0.631   6.074 -0.4813 -1.5712  0.9780
 5904SOL     OW29173   1.397   4.420   2.348 -0.2067 -0.0788 -0.0217
 5904SOL    HW129174   1.414   4.328   2.371  2.7809  0.6369  0.6444
 5904SOL    HW229175   1.301   4.416   2.348 -0.1854 -0.6260 -1.6053
 5905SOL     OW29176   3.128   2.075   5.417 -0.2967 -0.5607  0.3719
 5905SOL    HW129177   3.181   2.095   5.494 -0.3578  0.1765  0.2179
 5905SOL    HW229178   3.076   2.155   5.411  0.9305  0.0638 -2.0537
 5906SOL     OW29179   4.547   1.640  17.144 -0.5291 -0.1955  0.1202
 5906SOL    HW129180   4.606   1.694  17.091  0.1645 -2.0172 -0.9656
 5906SOL    HW229181   4.557   1.558  17.096  1.5234 -0.8533  1.6782
 5907SOL     OW29182   0.752   4.708   8.731 -0.6968 -0.4995 -0.0219
 5907SOL    HW129183   0.773   4.627   8.778  0.0473 -0.0090  0.5009
 5907SOL    HW229184   0.830   0.040   8.738  0.5047 -1.9221 -2.3057
 5908SOL     OW29185   0.226   0.574   3.825  0.1137  0.0494  0.4250
 5908SOL    HW129186   0.263   0.622   3.751 -1.9438 -0.6764 -1.0707
 5908SOL    HW229187   0.168   0.524   3.768 -0.4689  2.8334 -1.4576
 5909SOL     OW29188   3.238   3.831   5.502 -0.0330  0.1358 -0.2735
 5909SOL    HW129189   3.182   3.907   5.487  0.2709  0.2428 -0.8559
 5909SOL    HW229190   3.171   3.764   5.497  1.2813 -1.0783 -1.7467
 5910SOL     OW29191   1.787   0.324  10.621 -0.0306  0.1397 -0.5947
 5910SOL    HW129192   1.754   0.265  10.553  1.5247 -1.2329 -0.1529
 5910SOL    HW229193   1.731   0.310  10.698  1.3633 -0.4209  0.3187
 5911SOL     OW29194   3.801   2.757  12.328  0.5485  0.0862  0.1385
 5911SOL    HW129195   3.776   2.818  12.259  1.9657  0.0559 -0.4064
 5911SOL    HW229196   3.783   2.815  12.403  2.5624  1.0221 -0.0999
 5912SOL     OW29197   3.779   3.750   5.683  0.3467  0.3331  0.0342
 5912SOL    HW129198   3.846   3.816   5.704  0.1492  0.5289  0.0439
 5912SOL    HW229199   3.697   3.795   5.665 -0.5830 -1.4215 -0.1445
 5913SOL     OW29200   1.287   4.443   3.418  0.3927 -0.0015 -1.0115
 5913SOL    HW129201   1.316   4.405   3.501  1.9997  1.3557 -0.9480
 5913SOL    HW229202   1.338   4.524   3.418  0.3355  0.0349 -0.9849
 5914SOL     OW29203   2.529   2.090   7.745  0.1771  0.2273  0.7643
 5914SOL    HW129204   2.558   2.094   7.654  3.8015 -0.1015  1.8951
 5914SOL    HW229205   2.558   2.176   7.777  0.8894  0.5426 -0.7639
 5915SOL     OW29206   1.101   0.919   3.720 -0.0825 -0.5454  0.7341
 5915SOL    HW129207   1.089   0.919   3.815 -0.3758 -2.5299  0.7058
 5915SOL    HW229208   1.118   1.012   3.703 -2.5516  0.1282  1.8833
 5916SOL     OW29209   3.665   0.242  13.712  0.3614  0.0579 -0.7432
 5916SOL    HW129210   3.700   0.195  13.788  0.0222 -0.3234 -0.8220
 5916SOL    HW229211   3.680   0.334  13.735  2.6632 -0.4359 -0.2864
 5917SOL     OW29212   4.122   2.811   4.132  0.5204  0.0188  0.1637
 5917SOL    HW129213   4.178   2.745   4.172  0.8922  1.5150  2.1108
 5917SOL    HW229214   4.062   2.817   4.207  2.8328  1.4845  1.9093
 5918SOL     OW29215   4.669   3.267  14.865  0.0795 -0.3127  0.5825
 5918SOL    HW129216   4.645   3.334  14.801  0.4615 -2.2741 -1.5724
 5918SOL    HW229217   4.673   3.188  14.812  1.7855 -0.3269  0.7257
 5919SOL     OW29218   1.320   1.948   2.194  0.2081  0.1998  0.4672
 5919SOL    HW129219   1.359   2.035   2.194 -0.2590  0.4190 -0.6819
 5919SOL    HW229220   1.324   1.938   2.099 -1.0272  0.2382  0.4057
 5920SOL     OW29221   2.573   3.220   5.972 -0.3781 -0.0138  0.0801
 5920SOL    HW129222   2.513   3.221   6.046 -1.6490 -1.5909 -0.9144
 5920SOL    HW229223   2.514   3.184   5.906  1.5777  0.5057 -1.9649
 5921SOL     OW29224   3.819   4.699   0.157  0.3524  0.8550 -0.2272
 5921SOL    HW129225   3.766   0.043   0.199 -0.3788  1.4801 -2.1490
 5921SOL    HW229226   3.903   4.715   0.200  0.3821 -1.1798  0.4987
 5922SOL     OW29227   4.521   2.925   3.287 -1.1067 -0.0434  0.0260
 5922SOL    HW129228   4.599   2.932   3.342  0.2524  1.5730 -2.1152
 5922SOL    HW229229   4.554   2.959   3.204 -1.7230 -0.4392 -0.3779
 5923SOL     OW29230   1.080   1.227   4.977  0.0093  0.2027  0.6187
 5923SOL    HW129231   1.051   1.144   5.017 -2.2592  0.0952 -1.2533
 5923SOL    HW229232   1.043   1.221   4.889 -2.5521 -0.1780  1.7045
 5924SOL     OW29233   3.955   4.181   9.164  0.4755 -0.0333 -0.2591
 5924SOL    HW129234   3.924   4.250   9.104  1.8353  0.9311  0.1711
 5924SOL    HW229235   3.879   4.126   9.142  0.7116 -0.3465 -0.2897
 5925SOL     OW29236   1.945   4.080  12.146  0.1126  0.3330 -0.0537
 5925SOL    HW129237   1.984   4.166  12.129  0.6373  0.2112  0.5399
 5925SOL    HW229238   1.902   4.091  12.231 -2.0145  0.3751 -1.1422
 5926SOL     OW29239   0.235   3.532  11.342  0.4086  0.4139  0.5818
 5926SOL    HW129240   0.325   3.563  11.330  0.6973 -1.2380 -1.5327
 5926SOL    HW229241   0.192   3.610  11.378 -1.4862 -0.3131 -0.1406
 5927SOL     OW29242   0.462   3.370  17.229  0.2963  1.0671 -0.3781
 5927SOL    HW129243   0.499   3.344  17.313 -0.6990 -1.4604 -0.7387
 5927SOL    HW229244   0.462   3.284  17.186 -1.3436  1.0870 -0.4276
 5928SOL     OW29245   0.569   0.881  11.170  0.3810  0.1011 -0.2072
 5928SOL    HW129246   0.575   0.855  11.078 -0.7112  1.9068 -0.7841
 5928SOL    HW229247   0.645   0.838  11.209  0.4139  0.6384  0.3140
 5929SOL     OW29248   4.372   2.578   5.672 -0.1053 -0.1571 -0.0006
 5929SOL    HW129249   4.277   2.572   5.685 -0.3421  1.1094 -1.0936
 5929SOL    HW229250   4.383   2.649   5.735  2.6160 -0.2112 -0.4393
 5930SOL     OW29251   3.984   2.252  14.498 -0.5663  0.4000 -0.1742
 5930SOL    HW129252   4.004   2.313  14.569  0.1325  0.9044 -0.8080
 5930SOL    HW229253   4.022   2.176  14.542 -1.6805 -1.0579 -1.7094
 5931SOL     OW29254   0.001   0.805  13.723 -0.5809 -0.1271 -0.1313
 5931SOL    HW129255   0.057   0.735  13.757  1.0711  1.2305 -0.0724
 5931SOL    HW229256   0.036   0.879  13.772  3.5131 -1.1151 -1.5451
 5932SOL     OW29257   2.920   1.703   0.249 -0.2833  0.2314 -0.1341
 5932SOL    HW129258   2.886   1.783   0.209  2.2134  1.2766 -0.1562
 5932SOL    HW229259   2.870   1.695   0.330  0.8864 -2.9105  0.2858
 5933SOL     OW29260   0.669   0.716   3.967 -0.6327  0.0371 -0.0302
 5933SOL    HW129261   0.694   0.629   3.935 -1.0657 -0.0007 -0.2729
 5933SOL    HW229262   0.721   0.732   4.046  1.7879  1.2671 -1.8943
 5934SOL     OW29263   1.099   2.870   7.080 -1.2574 -0.7530  0.3952
 5934SOL    HW129264   1.010   2.898   7.101 -0.6803  1.0512  0.3561
 5934SOL    HW229265   1.113   2.914   6.996 -1.9710 -0.8096  0.2421
 5935SOL     OW29266   3.121   3.763   2.743 -0.3691  0.0365  0.7672
 5935SOL    HW129267   3.025   3.767   2.737 -0.3688 -0.4778  0.3671
 5935SOL    HW229268   3.135   3.816   2.821  1.1805  2.4332 -1.1764
 5936SOL     OW29269   1.913   0.225   8.292 -0.1093 -0.2937  0.4340
 5936SOL    HW129270   2.001   0.199   8.321 -0.3057  0.5283  1.7840
 5936SOL    HW229271   1.936   0.225   8.199 -1.9072 -1.0208 -0.0051
 5937SOL     OW29272   3.497   1.862   9.164 -0.1827 -0.7617  0.1176
 5937SOL    HW129273   3.533   1.934   9.216  0.5529 -1.0202 -0.0243
 5937SOL    HW229274   3.497   1.787   9.223  1.0084  0.9217  2.2840
 5938SOL     OW29275   3.912   1.011   8.469 -0.4334 -0.1041 -0.2299
 5938SOL    HW129276   3.827   0.992   8.428 -0.3976 -1.2620  0.2492
 5938SOL    HW229277   3.896   1.105   8.477 -0.6413 -0.0147 -1.5884
 5939SOL     OW29278   1.049   1.168   5.712  0.2089 -0.2294 -0.5210
 5939SOL    HW129279   0.954   1.157   5.720 -0.2043  1.6711 -2.8017
 5939SOL    HW229280   1.069   1.110   5.639  1.4232 -0.0867 -0.2911
 5940SOL     OW29281   0.666   3.018  10.756  0.0819 -0.4543  0.0719
 5940SOL    HW129282   0.747   2.984  10.718  1.1756  2.1279  0.0888
 5940SOL    HW229283   0.676   3.113  10.764  1.7756 -0.5771 -0.6891
 5941SOL     OW29284   0.284   2.653  14.506 -0.4348 -0.1307 -0.9026
 5941SOL    HW129285   0.192   2.629  14.513  0.2685 -2.1495  1.5421
 5941SOL    HW229286   0.327   2.575  14.470 -2.0137 -0.9476 -1.0202
 5942SOL     OW29287   0.314   3.957   6.007  0.1381  0.3890 -0.1722
 5942SOL    HW129288   0.273   3.880   6.047  1.6583 -0.3051  0.0594
 5942SOL    HW229289   0.243   3.992   5.953 -0.6567  0.3433  0.8506
 5943SOL     OW29290   2.827   2.677   8.937 -0.1874 -0.6085 -0.0298
 5943SOL    HW129291   2.803   2.608   8.998 -1.7454 -2.7187 -3.0337
 5943SOL    HW229292   2.754   2.739   8.947 -0.1017 -0.4178 -0.5651
 5944SOL     OW29293   2.490   3.720   6.738 -1.1247  0.1662 -0.4561
 5944SOL    HW129294   2.423   3.660   6.771  0.3158 -0.5794  1.0908
 5944SOL    HW229295   2.440   3.770   6.673 -1.2639  1.9536  1.0253
 5945SOL     OW29296   3.781   2.907   8.778 -0.5695  0.0378 -0.1230
 5945SOL    HW129297   3.771   2.915   8.683  0.6085 -0.0759 -0.2607
 5945SOL    HW229298   3.688   2.924   8.792 -0.8733 -1.9053  0.1433
 5946SOL     OW29299   1.482   0.060   2.080  0.0959 -0.1410  0.4988
 5946SOL    HW129300   1.488   0.103   1.995 -1.3888  0.3760  0.6507
 5946SOL    HW229301   1.386   0.062   2.085  0.0154  0.8271 -1.3507
 5947SOL     OW29302   0.108   2.202  14.051  0.3012 -0.4097  0.5855
 5947SOL    HW129303   0.041   2.213  14.118 -0.0711 -0.3618  0.2064
 5947SOL    HW229304   0.078   2.259  13.980 -0.6133 -1.1260  0.3954
 5948SOL     OW29305   3.745   1.152  13.441 -0.5682 -0.1138 -0.4395
 5948SOL    HW129306   3.726   1.209  13.515  0.0575  1.2315 -1.3146
 5948SOL    HW229307   3.714   1.215  13.375  1.5083  1.1315 -0.2116
 5949SOL     OW29308   3.302   2.481   2.364 -0.1504  0.0807 -0.2284
 5949SOL    HW129309   3.236   2.484   2.294 -0.7491 -0.2123  0.3211
 5949SOL    HW229310   3.358   2.412   2.330 -3.1312 -2.8593  0.7607
 5950SOL     OW29311   2.509   2.123  10.505 -0.0445 -0.7984 -0.1073
 5950SOL    HW129312   2.483   2.047  10.556 -2.4480  0.2468  0.2282
 5950SOL    HW229313   2.448   2.112  10.432 -0.5271  1.9024 -0.1231
 5951SOL     OW29314   2.725   3.644   9.179  0.0918 -0.1454  0.4710
 5951SOL    HW129315   2.784   3.719   9.177 -0.5675  0.2861 -3.4416
 5951SOL    HW229316   2.640   3.687   9.172  0.9186  1.5200  0.7558
 5952SOL     OW29317   0.118   0.067   5.583  0.5263  0.3145 -0.3749
 5952SOL    HW129318   0.196   0.112   5.551  1.6396 -1.3744 -0.0711
 5952SOL    HW229319   0.160   0.011   5.649 -0.2533  1.8805  1.4686
 5953SOL     OW29320   0.093   2.260   7.671 -0.4573  0.1096  0.3770
 5953SOL    HW129321   0.083   2.308   7.753 -1.2061 -1.4909  1.2089
 5953SOL    HW229322   0.189   2.259   7.666 -0.4400 -2.7126  1.2245
 5954SOL     OW29323   4.656   3.073  10.889  0.6485 -0.4960  0.1374
 5954SOL    HW129324   4.708   3.102  10.964 -0.2830 -1.1523  1.0484
 5954SOL    HW229325   4.700   3.113  10.814  0.5864 -0.4685  0.1161
 5955SOL     OW29326   2.804   2.814   7.476  0.5035 -0.1374  0.1921
 5955SOL    HW129327   2.746   2.787   7.405  0.0197  2.4759 -0.4105
 5955SOL    HW229328   2.771   2.903   7.485  0.9727  0.1465 -0.9228
 5956SOL     OW29329   2.756   2.876   1.907 -0.5693  0.0789  0.2188
 5956SOL    HW129330   2.686   2.818   1.938 -0.3138 -0.2909  0.1086
 5956SOL    HW229331   2.782   2.826   1.829 -1.7225  0.2102 -0.2375
 5957SOL     OW29332   2.499   3.017   6.188 -0.4163 -0.3004 -0.5482
 5957SOL    HW129333   2.553   2.959   6.242  1.6373  1.8519 -0.2853
 5957SOL    HW229334   2.524   2.981   6.103  0.7387 -0.9785  0.0752
 5958SOL     OW29335   1.622   3.250  12.396 -0.3934  0.0391  0.8632
 5958SOL    HW129336   1.709   3.212  12.413 -0.0712  0.5622  0.3835
 5958SOL    HW229337   1.648   3.341  12.381  0.0990 -0.4406 -1.1740
 5959SOL     OW29338   2.872   1.295   3.308 -0.2943 -0.1813  0.4688
 5959SOL    HW129339   2.858   1.348   3.387  0.3446 -0.2227  0.6089
 5959SOL    HW229340   2.789   1.255   3.282  0.0491 -0.7085  0.1709
 5960SOL     OW29341   0.743   2.268   3.018  0.4927 -0.4252  0.4160
 5960SOL    HW129342   0.710   2.189   3.061  2.7836 -1.7074 -0.1323
 5960SOL    HW229343   0.826   2.273   3.065  1.1195  1.5175 -0.8909
 5961SOL     OW29344   2.046   2.164  10.933  0.1634  0.4163  0.0927
 5961SOL    HW129345   1.956   2.148  10.962  0.4935 -1.2246  0.1861
 5961SOL    HW229346   2.084   2.076  10.932  0.6590  0.6340  0.0048
 5962SOL     OW29347   4.111   4.282   7.867  0.3580 -0.4653  0.0657
 5962SOL    HW129348   4.119   4.367   7.909 -1.2085 -0.0569 -0.4678
 5962SOL    HW229349   4.115   4.227   7.945 -1.0947 -1.4304 -0.5456
 5963SOL     OW29350   3.076   1.330   5.963 -0.2509  0.2881 -0.0887
 5963SOL    HW129351   3.138   1.314   6.034  1.1823 -0.1981 -1.4418
 5963SOL    HW229352   3.124   1.302   5.886  1.7995  1.5703  0.7346
 5964SOL     OW29353   4.231   3.524  13.227 -0.7682  0.1836  0.1909
 5964SOL    HW129354   4.188   3.467  13.163 -2.3078 -0.3512  1.6796
 5964SOL    HW229355   4.269   3.586  13.166  0.9998 -2.1270 -1.0769
 5965SOL     OW29356   2.909   2.642   5.056  0.0935 -0.1788 -0.5825
 5965SOL    HW129357   2.833   2.590   5.031 -0.7968  1.3011 -0.9769
 5965SOL    HW229358   2.877   2.732   5.048  1.2088  0.3765  1.2572
 5966SOL     OW29359   3.978   1.735   3.966  0.0879  0.1684 -0.3674
 5966SOL    HW129360   3.983   1.799   4.037  2.7656  0.4726 -0.8301
 5966SOL    HW229361   4.068   1.737   3.936 -0.1105 -0.8928 -1.0314
 5967SOL     OW29362   3.387   3.877   2.312  0.1893  0.2996  0.4650
 5967SOL    HW129363   3.435   3.867   2.229 -1.6552  0.5864 -0.6201
 5967SOL    HW229364   3.330   3.800   2.309 -1.1321  1.2803  0.7875
 5968SOL     OW29365   3.614   0.428   8.665 -0.3785  0.0812 -0.1171
 5968SOL    HW129366   3.557   0.399   8.736  0.4035 -1.1579  0.0223
 5968SOL    HW229367   3.648   0.509   8.704  0.9408 -0.1715 -0.7287
 5969SOL     OW29368   3.351   3.478   2.066 -0.5404 -0.1170  0.0935
 5969SOL    HW129369   3.333   3.421   1.992  2.0739 -0.4201 -0.3309
 5969SOL    HW229370   3.427   3.430   2.099  0.0148  0.4033 -0.4284
 5970SOL     OW29371   0.906   0.997   1.506 -0.3602  0.2356  0.4327
 5970SOL    HW129372   0.871   0.941   1.576  0.9343  1.8383  2.3571
 5970SOL    HW229373   0.875   0.953   1.427 -0.6413 -2.7699  2.2059
 5971SOL     OW29374   0.934   3.227   2.822  0.0688 -0.5271  0.3290
 5971SOL    HW129375   1.000   3.186   2.878  1.4249  1.6683  0.3430
 5971SOL    HW229376   0.915   3.161   2.756  0.5312  0.2744 -0.6027
 5972SOL     OW29377   1.436   2.276  16.851 -0.6702 -0.4306  0.0611
 5972SOL    HW129378   1.392   2.191  16.844  0.3390 -0.8927 -0.6659
 5972SOL    HW229379   1.365   2.335  16.827 -1.0982 -0.7628  0.5102
 5973SOL     OW29380   0.393   2.796   0.511  0.0602  0.2652 -0.1092
 5973SOL    HW129381   0.412   2.853   0.586 -2.9005  1.3586 -0.2119
 5973SOL    HW229382   0.327   2.739   0.551  0.8355  1.3967  2.7911
 5974SOL     OW29383   4.160   0.101   3.459 -0.1381  0.3581  0.4137
 5974SOL    HW129384   4.155   0.124   3.552  0.6585  2.8880 -0.1623
 5974SOL    HW229385   4.111   0.168   3.412  1.2243  1.6592  0.8206
 5975SOL     OW29386   0.089   4.712   3.477 -0.2252 -0.4169  0.0124
 5975SOL    HW129387   0.139   4.653   3.534  0.1926 -0.7011 -0.6541
 5975SOL    HW229388   0.054   4.651   3.412 -1.2943 -0.2109  0.4065
 5976SOL     OW29389   0.655   1.522   3.606  0.0394  0.1443  0.3507
 5976SOL    HW129390   0.576   1.507   3.656  0.2764 -2.1228  0.0371
 5976SOL    HW229391   0.722   1.498   3.670  2.1409 -0.3492 -2.0334
 5977SOL     OW29392   0.431   2.482   2.723 -0.9253 -0.8046  0.2593
 5977SOL    HW129393   0.495   2.465   2.792 -0.6250  0.8818  0.4018
 5977SOL    HW229394   0.395   2.565   2.756  2.2370  0.5919  0.1375
 5978SOL     OW29395   1.159   0.853   4.038  0.5528  0.0849 -0.3174
 5978SOL    HW129396   1.137   0.762   4.017 -2.0142  0.7615 -0.5719
 5978SOL    HW229397   1.115   0.861   4.122 -1.2844 -0.3324 -1.2334
 5979SOL     OW29398   2.154   3.287   7.250  0.4280  0.4705  0.5266
 5979SOL    HW129399   2.124   3.273   7.160  0.7691 -0.1236  0.5016
 5979SOL    HW229400   2.248   3.289   7.233  0.0340  0.3376 -1.6420
 5980SOL     OW29401   3.565   4.010   5.394  0.1747 -0.0254  0.6253
 5980SOL    HW129402   3.491   4.071   5.393 -1.6095 -2.1949  0.4892
 5980SOL    HW229403   3.580   3.999   5.488 -0.0541 -2.3806  0.3883
 5981SOL     OW29404   1.211   0.573   4.007  0.2933  0.6872  0.0297
 5981SOL    HW129405   1.230   0.508   3.940  0.4147 -1.4322  2.1498
 5981SOL    HW229406   1.299   0.610   4.017  1.1333 -0.9239 -1.4372
 5982SOL     OW29407   1.882   4.233   6.958 -0.5107  0.0760 -0.0758
 5982SOL    HW129408   1.928   4.225   7.042  2.2564  1.9244 -1.3769
 5982SOL    HW229409   1.840   4.148   6.963  0.4396 -0.3710  0.3359
 5983SOL     OW29410   2.791   4.161   1.811 -0.1559  0.3713 -0.1417
 5983SOL    HW129411   2.868   4.195   1.856  0.1940 -1.3895  0.5981
 5983SOL    HW229412   2.830   4.116   1.735 -1.7535  0.2703 -0.9128
 5984SOL     OW29413   3.381   0.128   0.873 -0.0794  0.1305  0.5066
 5984SOL    HW129414   3.307   0.161   0.822  0.8172  1.3851  0.0133
 5984SOL    HW229415   3.361   0.169   0.957  0.6450 -0.5318  0.9969
 5985SOL     OW29416   0.915   3.403   4.776 -0.4318  0.4414 -0.1996
 5985SOL    HW129417   0.965   3.344   4.833 -1.5320  0.4258  0.7526
 5985SOL    HW229418   0.826   3.380   4.802 -1.4347  2.6916 -1.6768
 5986SOL     OW29419   0.736   0.790  12.018  0.3884  0.1223 -0.3273
 5986SOL    HW129420   0.683   0.858  11.976 -1.3418 -0.3533  1.1022
 5986SOL    HW229421   0.699   0.721  11.963  1.7105  0.1676 -1.2738
 5987SOL     OW29422   1.870   1.870   5.172 -0.3037 -0.5720  0.5223
 5987SOL    HW129423   1.870   1.938   5.105  0.0152 -0.1424  0.9578
 5987SOL    HW229424   1.859   1.790   5.120 -1.3355  0.2506 -0.4983
 5988SOL     OW29425   3.770   3.605  16.551 -0.5703  0.0564 -0.4951
 5988SOL    HW129426   3.687   3.587  16.596  1.0609 -2.1012  1.5847
 5988SOL    HW229427   3.782   3.519  16.512  1.0682  0.3499 -0.6403
 5989SOL     OW29428   0.314   1.941   8.225  0.1620 -0.0965 -0.0014
 5989SOL    HW129429   0.236   1.909   8.181 -0.7369  1.6427  0.3208
 5989SOL    HW229430   0.326   1.877   8.296 -1.3772  0.9058  1.1765
 5990SOL     OW29431   1.988   1.134  17.685  0.3478 -0.0400  0.4095
 5990SOL    HW129432   1.965   1.226  17.674 -0.1158 -0.0734  1.0931
 5990SOL    HW229433   2.022   1.142   0.079 -1.2419  0.8574  0.9340
 5991SOL     OW29434   0.060   3.660   0.311 -0.1503 -0.2857 -0.4126
 5991SOL    HW129435   0.066   3.603   0.387  0.4917 -0.8665 -0.9094
 5991SOL    HW229436   0.041   3.597   0.241  0.2877 -1.8083  0.8478
 5992SOL     OW29437   3.852   4.159   8.121  0.4891  0.3290  0.3742
 5992SOL    HW129438   3.912   4.096   8.082  0.2228  1.0628 -1.2393
 5992SOL    HW229439   3.899   4.189   8.199 -1.1801  0.4552  1.3255
 5993SOL     OW29440   3.785   4.137   7.326  0.1109  1.2205 -0.7078
 5993SOL    HW129441   3.867   4.088   7.331 -1.3216 -0.9371  1.6948
 5993SOL    HW229442   3.775   4.148   7.231 -1.1853  0.9431 -0.6052
 5994SOL     OW29443   0.073   2.143   4.922 -0.0967  0.0639  0.3154
 5994SOL    HW129444   0.104   2.173   4.836 -1.0124 -3.2739 -1.1783
 5994SOL    HW229445   0.086   2.049   4.908 -2.2395  0.2229 -2.5911
 5995SOL     OW29446   0.270   2.610  11.993  0.1961 -0.1052 -0.0196
 5995SOL    HW129447   0.280   2.699  12.027 -0.0516  0.0108 -0.2543
 5995SOL    HW229448   0.192   2.612  11.937 -0.0400  0.7526  0.3476
 5996SOL     OW29449   0.012   1.124  10.253  0.4300  0.6978  0.6668
 5996SOL    HW129450   0.108   1.121  10.249  0.4664  2.2822  0.2596
 5996SOL    HW229451   4.718   1.216  10.274 -0.2484  0.6399  0.3588
 5997SOL     OW29452   3.758   0.061  12.233  0.3975  0.2147 -0.0252
 5997SOL    HW129453   3.683   0.007  12.207  1.5857 -0.9113 -1.1555
 5997SOL    HW229454   3.758   0.041  12.327 -2.1926  1.2547  0.2120
 5998SOL     OW29455   1.826   0.145   3.220 -0.0262 -0.1200  0.7013
 5998SOL    HW129456   1.732   0.129   3.224  0.2162 -1.6240  0.3590
 5998SOL    HW229457   1.822   0.238   3.239 -4.1203  0.4128 -2.7442
 5999SOL     OW29458   2.055   3.052   9.347  0.3365  0.0858 -0.1315
 5999SOL    HW129459   1.979   2.994   9.335  0.3598  0.8796 -4.0558
 5999SOL    HW229460   2.041   3.057   9.442 -1.6821 -0.1700 -0.3992
 6000SOL     OW29461   3.943   2.588   5.443  1.1320 -0.2185  0.2424
 6000SOL    HW129462   3.893   2.655   5.395  2.5912  1.4331  1.0220
 6000SOL    HW229463   3.997   2.638   5.505  2.0464  2.1192 -2.4113
 6001SOL     OW29464   1.095   2.886   6.010  0.0558 -0.2162 -0.1332
 6001SOL    HW129465   1.160   2.829   6.051 -0.1301 -0.2699  0.0886
 6001SOL    HW229466   1.022   2.883   6.073  0.8825  1.5075  0.9013
 6002SOL     OW29467   0.895   3.008   2.204  0.3050 -0.1641 -1.0965
 6002SOL    HW129468   0.839   3.078   2.171 -0.2612  0.3404  0.9498
 6002SOL    HW229469   0.982   3.044   2.189  0.5799  1.1322  3.6014
 6003SOL     OW29470   1.275   4.698  16.033 -0.8858  0.0083  0.0227
 6003SOL    HW129471   1.254   4.612  15.996  0.8509  0.3094 -1.7058
 6003SOL    HW229472   1.255   0.032  15.960 -1.4159  2.8899  2.4626
 6004SOL     OW29473   1.916   0.510  16.766 -0.3163  0.0677  0.1786
 6004SOL    HW129474   1.894   0.533  16.676  0.4889  1.1405  0.2561
 6004SOL    HW229475   1.833   0.470  16.791 -1.1212  0.5913 -1.6843
 6005SOL     OW29476   3.952   2.190  10.648  0.1306  0.1335 -0.4162
 6005SOL    HW129477   3.968   2.106  10.692  0.4711 -0.9977 -2.7163
 6005SOL    HW229478   3.944   2.255  10.718 -0.2469 -0.1595 -0.1846
 6006SOL     OW29479   2.086   3.579   2.438 -0.3165  0.2606 -0.0956
 6006SOL    HW129480   2.164   3.620   2.477  0.1593  0.0871 -0.8636
 6006SOL    HW229481   2.113   3.497   2.396 -2.7218 -0.3916 -0.3368
 6007SOL     OW29482   0.401   0.734   3.633 -0.4382  0.3132  0.4144
 6007SOL    HW129483   0.364   0.786   3.561 -0.1681 -2.0717 -1.4643
 6007SOL    HW229484   0.435   0.654   3.593 -3.4086 -0.5503 -0.3618
 6008SOL     OW29485   4.628   0.617   8.175  0.2035 -0.6508  0.0468
 6008SOL    HW129486   4.630   0.625   8.270 -0.9269  1.1391 -0.0962
 6008SOL    HW229487   4.610   0.701   8.134  0.7164 -1.8365 -2.6311
 6009SOL     OW29488   0.739   2.589   8.465  0.2236  0.1334 -0.2618
 6009SOL    HW129489   0.694   2.524   8.412 -1.3959  0.4150  0.7776
 6009SOL    HW229490   0.672   2.614   8.529 -0.5897  0.3898 -1.2304
 6010SOL     OW29491   2.082   2.695   8.188 -0.2170 -0.4112  0.5402
 6010SOL    HW129492   2.036   2.779   8.195  1.9327  0.8711 -0.5335
 6010SOL    HW229493   2.147   2.700   8.258 -0.0968 -1.2896  0.4972
 6011SOL     OW29494   3.484   0.670   5.307 -0.2071  0.5975  0.4540
 6011SOL    HW129495   3.552   0.621   5.354  0.0743  0.5892  0.0359
 6011SOL    HW229496   3.448   0.590   5.268  1.3808  0.7173 -1.2550
 6012SOL     OW29497   0.129   2.118  12.593  0.2820  0.0211  0.0764
 6012SOL    HW129498   0.152   2.187  12.656  0.6653 -2.3430  2.5156
 6012SOL    HW229499   0.090   2.071  12.667 -1.2195 -0.2364 -0.8740
 6013SOL     OW29500   1.980   4.622   9.470  0.0671 -0.0950  0.6888
 6013SOL    HW129501   1.915   4.625   9.541 -2.2140  1.0808 -1.4544
 6013SOL    HW229502   1.977   4.714   9.443 -0.2451  0.8759  4.0352
 6014SOL     OW29503   0.932   3.818  11.200  0.0098  0.5735 -0.5555
 6014SOL    HW129504   0.977   3.876  11.139  0.0359  1.4188  0.2663
 6014SOL    HW229505   1.006   3.760  11.219 -0.4421  1.2266  3.1488
 6015SOL     OW29506   4.575   1.093   7.294 -0.0527  0.4396  0.2037
 6015SOL    HW129507   4.512   1.023   7.280 -0.7254  0.9491  0.7223
 6015SOL    HW229508   4.648   1.075   7.234  0.7609  0.7246  1.1032
 6016SOL     OW29509   3.361   3.606  13.086 -0.4896 -0.3632  0.0454
 6016SOL    HW129510   3.309   3.529  13.110  2.1630 -2.9479 -2.5761
 6016SOL    HW229511   3.447   3.574  13.114  0.0887  1.8741  0.8236
 6017SOL     OW29512   1.845   0.938   5.873 -0.4651 -0.2093 -0.5995
 6017SOL    HW129513   1.836   0.884   5.951  1.7097  1.0020  0.4836
 6017SOL    HW229514   1.916   0.889   5.833 -1.9066 -1.0654 -2.1291
 6018SOL     OW29515   3.211   3.396   7.158 -0.3157 -0.3560  0.1238
 6018SOL    HW129516   3.237   3.488   7.154 -2.4560  0.1371 -2.6293
 6018SOL    HW229517   3.157   3.398   7.237  1.8760  2.3461  1.5440
 6019SOL     OW29518   3.289   4.654   3.040 -0.1769 -0.0649 -0.3560
 6019SOL    HW129519   3.332   0.016   3.036 -0.3186 -0.0336 -1.0708
 6019SOL    HW229520   3.341   4.620   2.968 -3.8596  0.4672 -3.2386
 6020SOL     OW29521   2.628   4.225   8.202  0.1239 -0.1267  0.1831
 6020SOL    HW129522   2.716   4.238   8.169  0.5247  0.2578  1.3914
 6020SOL    HW229523   2.583   4.192   8.125 -1.0855  1.3807  0.2265
 6021SOL     OW29524   0.453   0.102   2.750 -0.3573  0.0240  0.1621
 6021SOL    HW129525   0.373   0.141   2.786  0.4005  0.0841  1.7607
 6021SOL    HW229526   0.416   0.064   2.671 -2.9162 -1.5233  2.1013
 6022SOL     OW29527   1.539   3.536  13.156  0.0376  0.2713  0.8628
 6022SOL    HW129528   1.623   3.536  13.201 -0.8976  0.4038  2.5902
 6022SOL    HW229529   1.513   3.627  13.169 -0.1612  0.3278  0.0753
 6023SOL     OW29530   2.736   4.160   4.985  0.3419  0.4219 -0.2020
 6023SOL    HW129531   2.729   4.090   5.051  1.5407 -1.2563 -1.8422
 6023SOL    HW229532   2.661   4.213   5.012 -0.1175 -0.1624 -0.3275
 6024SOL     OW29533   1.867   2.082   7.770  0.1965  0.4130 -0.0729
 6024SOL    HW129534   1.818   2.097   7.689 -1.8775 -0.1462  1.0777
 6024SOL    HW229535   1.858   2.172   7.802 -1.6915  0.4933 -0.8319
 6025SOL     OW29536   2.238   2.376  12.001  0.4450 -0.2422 -0.2262
 6025SOL    HW129537   2.225   2.294  11.952  1.0492  0.8761 -2.2613
 6025SOL    HW229538   2.240   2.438  11.928 -0.4346  0.7350  0.5947
 6026SOL     OW29539   3.169   2.239  15.135  0.0383  0.0601  0.6921
 6026SOL    HW129540   3.209   2.193  15.062 -1.0832 -0.2915  0.3005
 6026SOL    HW229541   3.121   2.170  15.182  0.6572 -1.0388 -0.3055
 6027SOL     OW29542   2.130   2.353   8.796 -0.3706  0.1205 -0.3872
 6027SOL    HW129543   2.140   2.310   8.881  3.1251  1.8227  0.0334
 6027SOL    HW229544   2.205   2.322   8.746  1.1302  2.6762  0.3135
 6028SOL     OW29545   0.990   3.776  13.275  0.7254  0.3131 -0.0311
 6028SOL    HW129546   1.043   3.707  13.313 -0.4296 -1.4487 -1.5910
 6028SOL    HW229547   1.062   3.819  13.229 -1.3218  3.1944 -0.6338
 6029SOL     OW29548   4.554   4.714   2.167 -0.1040 -0.3698 -0.2007
 6029SOL    HW129549   4.569   0.023   2.078  1.1052 -1.7595 -0.5103
 6029SOL    HW229550   4.484   0.053   2.187 -1.7001 -1.7979 -1.2644
 6030SOL     OW29551   2.966   2.397   4.527  0.0235  0.1745 -0.0881
 6030SOL    HW129552   2.896   2.437   4.578  0.1875  0.1261  0.1773
 6030SOL    HW229553   2.923   2.379   4.444 -0.5187 -1.2065  0.4812
 6031SOL     OW29554   1.039   4.359   2.174 -0.3610 -0.0339  0.4400
 6031SOL    HW129555   1.089   4.409   2.110 -0.1496  0.8131  1.2768
 6031SOL    HW229556   1.058   4.408   2.254  0.5007 -0.9836  0.8165
 6032SOL     OW29557   1.764   2.456   1.979 -0.4564  0.6863  0.4599
 6032SOL    HW129558   1.838   2.411   2.020 -0.1187 -1.1529 -2.1627
 6032SOL    HW229559   1.779   2.549   1.995 -2.8627  1.0516  0.5829
 6033SOL     OW29560   3.293   4.667   2.409 -0.4289  0.7704  0.6907
 6033SOL    HW129561   3.221   4.711   2.363  0.9057 -0.1786 -2.3109
 6033SOL    HW229562   3.305   0.016   2.470 -0.3874  0.5952  0.8933
 6034SOL     OW29563   4.585   2.952   2.828 -0.2782 -0.0702 -0.7056
 6034SOL    HW129564   4.495   2.934   2.855  0.2752 -0.6122  0.8143
 6034SOL    HW229565   4.573   3.013   2.755 -1.9050 -2.2257 -2.2377
 6035SOL     OW29566   0.384   1.891   0.556 -0.3287 -0.9086 -0.2083
 6035SOL    HW129567   0.476   1.906   0.535 -0.6656  0.8214 -0.3854
 6035SOL    HW229568   0.350   1.947   0.487 -1.0603 -3.1651 -1.6757
 6036SOL     OW29569   2.609   3.224   2.986 -0.2819  0.0553 -0.2949
 6036SOL    HW129570   2.568   3.180   3.061 -0.1254  0.9860  0.3432
 6036SOL    HW229571   2.659   3.155   2.943  1.0831  0.9855 -0.1981
 6037SOL     OW29572   2.092   0.819   5.857  0.3882  0.0544 -0.4096
 6037SOL    HW129573   2.124   0.767   5.930  1.3715  1.4314  0.1174
 6037SOL    HW229574   2.165   0.869   5.822 -0.0992  1.1311  0.1387
 6038SOL     OW29575   4.038   2.914  13.167 -0.0500 -0.7510  0.0683
 6038SOL    HW129576   4.118   2.898  13.118  1.0098  1.0147  1.1930
 6038SOL    HW229577   3.973   2.866  13.117 -1.2889 -0.2505  1.1997
 6039SOL     OW29578   2.999   2.232   5.164  0.0010  0.1380  0.0290
 6039SOL    HW129579   3.010   2.276   5.079  0.9454 -2.9926 -1.4634
 6039SOL    HW229580   3.089   2.248   5.192  0.3714 -1.2557 -0.3867
 6040SOL     OW29581   0.343   1.825   2.878  0.4442  0.1065 -0.8031
 6040SOL    HW129582   0.390   1.856   2.955  0.7106  3.4101 -2.3244
 6040SOL    HW229583   0.311   1.743   2.916  1.9277 -0.4268 -0.7174
 6041SOL     OW29584   1.949   3.231   3.260 -0.0485 -0.1559  0.3151
 6041SOL    HW129585   1.935   3.169   3.189 -0.7160  0.0960  0.2304
 6041SOL    HW229586   1.863   3.263   3.286 -0.2743  0.6474 -1.4261
 6042SOL     OW29587   2.059   1.214  15.711  0.0977  0.7764  0.4461
 6042SOL    HW129588   2.020   1.127  15.703  1.0965  0.4090 -0.4742
 6042SOL    HW229589   2.055   1.231  15.805 -1.5993 -3.3611  1.1220
 6043SOL     OW29590   2.627   0.470  17.508 -0.0760 -0.3891  0.0701
 6043SOL    HW129591   2.652   0.415  17.433 -0.4995  0.3646 -0.6190
 6043SOL    HW229592   2.653   0.554  17.470 -0.7841  0.2031  0.8846
 6044SOL     OW29593   3.704   2.591   2.388  0.2522 -0.1882 -0.1209
 6044SOL    HW129594   3.748   2.511   2.417 -3.6397 -1.7516  1.4401
 6044SOL    HW229595   3.616   2.553   2.391 -0.1045  0.7197  0.7905
 6045SOL     OW29596   0.862   3.659  14.755  0.4670  0.2241 -0.5731
 6045SOL    HW129597   0.866   3.688  14.663 -3.9973  1.0708 -0.4685
 6045SOL    HW229598   0.885   3.744  14.795 -0.7137 -0.1018  0.7884
 6046SOL     OW29599   4.707   4.028   0.702 -0.4458  0.1118  0.0670
 6046SOL    HW129600   0.059   3.970   0.712 -1.0382 -1.1478 -2.8848
 6046SOL    HW229601   4.660   4.002   0.623  0.5420  0.4029 -0.6129
 6047SOL     OW29602   4.310   3.834   8.996  0.2203 -0.3550  0.0440
 6047SOL    HW129603   4.260   3.814   8.917  0.6184 -1.6890  0.1356
 6047SOL    HW229604   4.235   3.850   9.054 -0.5402 -0.6797 -0.8558
 6048SOL     OW29605   3.178   0.722   7.203  0.2322 -0.0647 -0.2822
 6048SOL    HW129606   3.173   0.714   7.108 -1.6350 -0.9243 -0.1153
 6048SOL    HW229607   3.111   0.658   7.227  0.9619 -0.3835  0.9015
 6049SOL     OW29608   0.815   2.026  12.148  0.0349 -0.1465 -0.0902
 6049SOL    HW129609   0.810   2.090  12.218 -0.4783 -0.0252 -0.2364
 6049SOL    HW229610   0.756   1.963  12.190 -1.4095 -1.1596 -3.6069
 6050SOL     OW29611   0.011   1.281  17.694  0.6762 -0.0744 -0.4161
 6050SOL    HW129612   4.715   1.355   0.056 -0.5179 -1.7975  1.3888
 6050SOL    HW229613   4.689   1.211   0.044 -1.4303  0.2170 -2.0715
 6051SOL     OW29614   0.605   3.947  11.898  0.4144  0.7553  0.2016
 6051SOL    HW129615   0.605   4.027  11.951  3.1355  1.8142 -1.3873
 6051SOL    HW229616   0.578   3.885  11.965 -0.9257  1.4655  0.3152
 6052SOL     OW29617   3.177   4.491   4.259 -1.1001  0.3739 -0.3574
 6052SOL    HW129618   3.122   4.490   4.181 -0.8314 -2.8791 -0.4857
 6052SOL    HW229619   3.209   4.581   4.258  0.0082 -0.0199 -0.7614
 6053SOL     OW29620   0.876   4.312   3.034 -0.0705  0.2568  0.0846
 6053SOL    HW129621   0.811   4.346   3.095  0.6608  0.0396  0.9863
 6053SOL    HW229622   0.950   4.291   3.091 -1.7825  0.1845  2.2893
 6054SOL     OW29623   2.807   4.037   7.905  0.8086  1.1204 -0.3977
 6054SOL    HW129624   2.822   3.972   7.973  0.9676  0.9762 -0.5709
 6054SOL    HW229625   2.892   4.041   7.862  1.0208  1.2807  0.0404
 6055SOL     OW29626   0.925   2.144   9.360  0.4827 -0.8828 -0.0356
 6055SOL    HW129627   0.919   2.171   9.268  0.2441 -0.0541  0.2298
 6055SOL    HW229628   0.858   2.075   9.358 -1.3970  0.9281  0.4824
 6056SOL     OW29629   0.660   2.605  11.179 -0.0798  0.3270  0.4332
 6056SOL    HW129630   0.641   2.523  11.133 -3.2840  2.6217 -2.3016
 6056SOL    HW229631   0.705   2.664  11.118  0.0507 -1.9850 -1.6840
 6057SOL     OW29632   3.356   2.068   2.774  0.6888  0.4707  0.4003
 6057SOL    HW129633   3.427   2.029   2.722  0.9451 -1.4289  2.1962
 6057SOL    HW229634   3.340   1.989   2.825 -2.0749  1.0295  0.3940
 6058SOL     OW29635   3.865   3.853   8.315  0.6722 -0.0670 -0.1955
 6058SOL    HW129636   3.775   3.880   8.301  1.7320  3.4269 -0.1440
 6058SOL    HW229637   3.860   3.766   8.275  0.1069  0.2710 -0.8507
 6059SOL     OW29638   3.294   3.227   4.088 -0.1208  0.2226 -0.0465
 6059SOL    HW129639   3.261   3.170   4.018 -1.4061 -0.5392  1.1713
 6059SOL    HW229640   3.313   3.303   4.033 -1.1233  0.0647 -0.6194
 6060SOL     OW29641   2.370   2.317   4.165 -0.5807 -0.0371  0.4184
 6060SOL    HW129642   2.391   2.388   4.104 -0.5010  1.7014  2.4412
 6060SOL    HW229643   2.404   2.359   4.244 -2.0573  0.7505  0.6245
 6061SOL     OW29644   2.055   0.874   7.352 -0.4103  1.1110  0.4843
 6061SOL    HW129645   1.989   0.931   7.312 -1.1683 -0.8729 -1.0522
 6061SOL    HW229646   2.067   0.810   7.282 -1.6460  0.1094  1.2016
 6062SOL     OW29647   2.917   3.188   8.343 -0.6393  0.3079  0.0223
 6062SOL    HW129648   2.920   3.094   8.363  2.1055  0.6559  1.1936
 6062SOL    HW229649   3.011   3.201   8.352 -0.7837  1.0709  0.4168
 6063SOL     OW29650   4.330   3.938  11.922  0.2567  0.2428  0.5860
 6063SOL    HW129651   4.279   3.982  11.990  1.1748  1.1823  0.6600
 6063SOL    HW229652   4.398   4.001  11.896  0.9969 -0.1829  1.5037
 6064SOL     OW29653   0.226   4.280   1.389  0.1807  0.3789 -0.7772
 6064SOL    HW129654   0.205   4.316   1.303 -2.9294  0.3435 -0.0395
 6064SOL    HW229655   0.150   4.228   1.414  0.8108  0.1277  0.6078
 6065SOL     OW29656   0.251   4.229   2.122  0.0131  0.1672  0.0072
 6065SOL    HW129657   0.194   4.289   2.169 -1.3873 -0.0153 -1.4261
 6065SOL    HW229658   0.253   4.267   2.034 -1.3394 -2.2120 -1.0591
 6066SOL     OW29659   0.882   3.207  14.170 -0.0421  0.3383  0.0085
 6066SOL    HW129660   0.909   3.235  14.257 -1.0915 -0.2927  0.5371
 6066SOL    HW229661   0.845   3.287  14.132 -0.0461  0.3267 -0.0120
 6067SOL     OW29662   1.337   3.146   0.649  0.2947  0.5811  0.3294
 6067SOL    HW129663   1.368   3.055   0.651 -0.1002  0.4419 -0.0284
 6067SOL    HW229664   1.246   3.137   0.679  0.3835 -0.5033  0.2837
 6068SOL     OW29665   1.412   1.927   7.090 -0.6825 -0.4509 -0.2353
 6068SOL    HW129666   1.451   1.875   7.160  0.2221  1.6710  0.8325
 6068SOL    HW229667   1.475   1.943   7.020  0.5671 -1.2463  0.6948
 6069SOL     OW29668   2.450   3.753   1.102  0.1680  0.3826  0.0310
 6069SOL    HW129669   2.390   3.794   1.164  0.2274  0.8540 -0.2172
 6069SOL    HW229670   2.456   3.816   1.030 -0.6731 -1.2579 -1.4820
 6070SOL     OW29671   3.751   1.089  14.345  0.4400  0.2886 -0.4897
 6070SOL    HW129672   3.845   1.075  14.353  0.2422 -1.2382 -0.7171
 6070SOL    HW229673   3.717   1.001  14.328 -1.9282  1.1105 -0.0672
 6071SOL     OW29674   0.247   3.875   4.589 -0.6495  0.3834  0.1656
 6071SOL    HW129675   0.199   3.953   4.563 -2.3713 -0.9375 -0.6352
 6071SOL    HW229676   0.267   3.838   4.503  0.0180 -1.2782  1.0334
 6072SOL     OW29677   4.396   0.568   3.201  0.6706 -0.2220  0.2500
 6072SOL    HW129678   4.459   0.500   3.174  1.2908 -0.2118  1.7093
 6072SOL    HW229679   4.440   0.626   3.262  1.5144 -0.3477 -0.2410
 6073SOL     OW29680   4.689   1.326   4.371 -0.3147  0.4561 -0.3649
 6073SOL    HW129681   4.717   1.256   4.312 -1.6489  0.8056 -1.4045
 6073SOL    HW229682   0.002   1.297   4.455 -1.3882  1.4647  0.4428
 6074SOL     OW29683   4.653   2.888   5.848 -0.1937  0.5012 -0.2384
 6074SOL    HW129684   4.717   2.958   5.844 -0.0759  0.4603  0.8956
 6074SOL    HW229685   4.701   2.805   5.844  0.1937  0.6993  0.2746
 6075SOL     OW29686   0.499   4.622  11.195  0.3627  0.3391 -0.2828
 6075SOL    HW129687   0.455   4.689  11.248 -0.6565 -1.5714  1.2932
 6075SOL    HW229688   0.588   4.610  11.228  0.8788  0.8987 -1.4874
 6076SOL     OW29689   3.033   2.916   8.377  0.2699  0.4381 -0.4478
 6076SOL    HW129690   3.128   2.907   8.384  0.0759  0.1831  2.1357
 6076SOL    HW229691   3.004   2.827   8.400  1.4604  0.5138  1.3766
 6077SOL     OW29692   3.645   3.603  16.128  0.5035 -0.0082 -0.8096
 6077SOL    HW129693   3.649   3.683  16.182 -1.3818  0.2197 -1.0266
 6077SOL    HW229694   3.639   3.533  16.193  0.3894 -1.0955 -1.9911
 6078SOL     OW29695   2.568   0.796   2.730  0.4756  0.2783  0.5140
 6078SOL    HW129696   2.562   0.835   2.642 -1.3727  1.9738  1.4042
 6078SOL    HW229697   2.531   0.708   2.725  1.6169 -0.0886 -1.7509
 6079SOL     OW29698   4.290   1.244   4.746  0.1979 -0.2132 -0.0223
 6079SOL    HW129699   4.355   1.264   4.679 -1.9873  2.8824 -1.2685
 6079SOL    HW229700   4.340   1.186   4.804  0.1146 -0.6039 -0.3438
 6080SOL     OW29701   4.351   0.339   9.398 -0.2402 -0.2550  0.2352
 6080SOL    HW129702   4.256   0.332   9.408 -0.4330  0.8093 -0.8774
 6080SOL    HW229703   4.364   0.253   9.357 -0.8059  0.6316 -1.8298
 6081SOL     OW29704   3.502   2.529   0.194  0.6411  0.2905 -0.7015
 6081SOL    HW129705   3.575   2.578   0.233  0.5335  1.5777 -2.1297
 6081SOL    HW229706   3.540   2.444   0.170 -0.7274 -0.4289 -0.3205
 6082SOL     OW29707   4.357   0.075   6.822 -0.5945 -0.6760  0.5178
 6082SOL    HW129708   4.357   0.115   6.735  1.2698  1.0208  1.3084
 6082SOL    HW229709   4.298   0.131   6.872 -0.5054 -0.3919  0.3057
 6083SOL     OW29710   2.796   0.295   6.983 -0.5385 -0.4542  0.5887
 6083SOL    HW129711   2.721   0.353   6.973 -0.2161 -0.4597 -1.8356
 6083SOL    HW229712   2.767   0.244   7.059 -1.4308  1.9887  1.8639
 6084SOL     OW29713   3.170   2.478   8.636  0.2041  0.1322  0.4598
 6084SOL    HW129714   3.121   2.398   8.654  0.5808  0.1919  1.7221
 6084SOL    HW229715   3.261   2.457   8.653  0.6580  1.0784 -0.8055
 6085SOL     OW29716   1.787   1.527   3.955  0.3341  0.6683 -0.7110
 6085SOL    HW129717   1.854   1.503   4.020  0.5293 -0.5385 -1.3647
 6085SOL    HW229718   1.771   1.619   3.979 -1.6472  0.2970 -0.6081
 6086SOL     OW29719   0.640   2.508   9.213 -0.1759 -0.3842 -0.1261
 6086SOL    HW129720   0.710   2.482   9.153 -0.6967 -0.1469 -0.8367
 6086SOL    HW229721   0.575   2.439   9.206 -1.6717  0.9139  1.1997
 6087SOL     OW29722   3.927   2.947   2.142  0.3482  0.5007 -0.2692
 6087SOL    HW129723   3.964   2.860   2.130  0.0727  0.4700 -0.9042
 6087SOL    HW229724   3.851   2.928   2.197 -0.6666  2.5229 -0.9652
 6088SOL     OW29725   2.444   0.560   2.642  0.3218 -0.3466 -0.1951
 6088SOL    HW129726   2.463   0.467   2.655 -0.9626 -0.6048 -0.1576
 6088SOL    HW229727   2.372   0.560   2.578  0.8558  2.6817 -0.7997
 6089SOL     OW29728   2.420   0.494   7.556 -0.2255  0.1460 -0.1960
 6089SOL    HW129729   2.465   0.569   7.596 -0.8679 -0.9276  2.5053
 6089SOL    HW229730   2.338   0.493   7.606  0.4439 -0.8551  0.8570
 6090SOL     OW29731   4.264   2.829  13.899 -0.6408 -0.2334 -0.0693
 6090SOL    HW129732   4.243   2.815  13.992 -2.4888 -0.7944 -0.5649
 6090SOL    HW229733   4.184   2.796  13.858 -0.4580 -1.4649  0.5507
 6091SOL     OW29734   4.348   0.136   2.296 -0.5662 -0.0153 -0.4119
 6091SOL    HW129735   4.281   0.079   2.333  0.8513  0.8354  3.5624
 6091SOL    HW229736   4.309   0.219   2.322  1.9265  1.0002  0.1127
 6092SOL     OW29737   0.915   0.728   4.721  0.1540 -0.2392  0.5189
 6092SOL    HW129738   0.863   0.806   4.706  0.7284  0.7347  3.5382
 6092SOL    HW229739   0.843   0.669   4.743 -1.6611  1.8454  0.1307
 6093SOL     OW29740   2.416   2.939   8.191 -0.2070 -0.6152  0.7411
 6093SOL    HW129741   2.432   2.847   8.167  0.5709 -0.3396  0.1917
 6093SOL    HW229742   2.417   2.934   8.287  2.2621 -0.5235  0.7425
 6094SOL     OW29743   3.250   1.605  15.183 -0.0373 -0.0077  0.1038
 6094SOL    HW129744   3.179   1.567  15.235  0.1120 -3.5762 -2.3233
 6094SOL    HW229745   3.248   1.697  15.210 -2.0344 -0.1434  0.4473
 6095SOL     OW29746   3.618   2.061  15.507  0.2637  0.4113 -0.1203
 6095SOL    HW129747   3.537   2.035  15.549 -0.6086  1.3655 -1.1887
 6095SOL    HW229748   3.583   2.133  15.455  0.7832  1.1647  0.5715
 6096SOL     OW29749   1.241   2.300   4.349 -0.2807  0.4539 -0.5768
 6096SOL    HW129750   1.163   2.312   4.294  0.4545  3.5223 -0.9933
 6096SOL    HW229751   1.262   2.390   4.376 -1.0115  0.6774 -0.7422
 6097SOL     OW29752   1.823   2.740   3.505  0.0221 -0.5014 -1.2052
 6097SOL    HW129753   1.893   2.713   3.446  0.3459  0.9152 -1.4773
 6097SOL    HW229754   1.786   2.817   3.463  0.5626 -1.5849 -3.6631
 6098SOL     OW29755   3.741   1.263  13.168 -0.0270 -0.3312 -0.6243
 6098SOL    HW129756   3.833   1.237  13.166 -0.1009 -0.6861  0.6711
 6098SOL    HW229757   3.736   1.344  13.217 -3.0137 -0.2102 -1.1671
 6099SOL     OW29758   1.869   1.407   4.372  0.2844 -0.6258  0.8616
 6099SOL    HW129759   1.826   1.321   4.370  1.2409 -1.1023  1.1563
 6099SOL    HW229760   1.897   1.415   4.463 -1.1644  0.7873  1.1766
 6100SOL     OW29761   2.898   3.492  15.403 -0.2287 -0.1845 -0.2713
 6100SOL    HW129762   2.955   3.550  15.453 -0.3791 -1.0295  0.8739
 6100SOL    HW229763   2.912   3.532  15.317 -0.6002  0.8794  0.1648
 6101SOL     OW29764   4.304   2.098   4.204  0.5689 -0.0214 -0.1530
 6101SOL    HW129765   4.282   2.022   4.258 -0.2135 -0.6143 -1.3087
 6101SOL    HW229766   4.301   2.176   4.261  0.7839 -0.8044  0.9420
 6102SOL     OW29767   3.874   3.781   4.151  0.5761 -0.3822  0.5661
 6102SOL    HW129768   3.799   3.771   4.091  1.8208 -0.5393 -0.9706
 6102SOL    HW229769   3.929   3.846   4.106  0.2992 -0.8595 -0.4673
 6103SOL     OW29770   3.487   0.784  13.262 -0.3023 -0.4269  0.0610
 6103SOL    HW129771   3.516   0.693  13.274 -0.0962 -0.7724 -3.0050
 6103SOL    HW229772   3.547   0.835  13.316 -1.6112  1.8181 -0.6196
 6104SOL     OW29773   1.240   4.057   6.589  0.2752  0.2826  0.0223
 6104SOL    HW129774   1.256   4.084   6.680  0.0806  1.5119 -0.3211
 6104SOL    HW229775   1.308   3.990   6.582  0.1390  0.2592 -0.9960
 6105SOL     OW29776   0.611   1.409   8.665  0.1769  0.3724  0.1213
 6105SOL    HW129777   0.570   1.489   8.699 -0.3942  0.4648 -0.8219
 6105SOL    HW229778   0.636   1.361   8.745  1.1778  4.7656  2.4524
 6106SOL     OW29779   1.711   4.613   7.541 -0.2927  0.0270  0.1660
 6106SOL    HW129780   1.752   4.595   7.456  0.2890  2.5281 -0.0975
 6106SOL    HW229781   1.682   4.528   7.574 -1.8374  0.0122 -1.1934
 6107SOL     OW29782   1.667   2.902   2.744 -0.1575  0.2936  0.7526
 6107SOL    HW129783   1.661   2.858   2.829  2.8945 -2.2590 -0.3703
 6107SOL    HW229784   1.762   2.903   2.737 -0.1911 -2.3537  0.1015
 6108SOL     OW29785   1.015   0.340   5.853 -0.2974 -0.1174 -0.6348
 6108SOL    HW129786   0.985   0.429   5.870 -0.2979 -0.5358  1.5937
 6108SOL    HW229787   0.988   0.293   5.932  2.3739  0.8711  0.8644
 6109SOL     OW29788   3.624   0.397   9.434  0.0312 -0.6078  0.4533
 6109SOL    HW129789   3.610   0.486   9.465  0.0255 -0.1070 -0.9955
 6109SOL    HW229790   3.560   0.338   9.474 -0.9368 -0.7638 -1.3195
 6110SOL     OW29791   0.040   0.911   7.423 -0.6547 -0.3924 -0.3773
 6110SOL    HW129792   4.683   0.921   7.473 -0.3724 -1.6206  0.3277
 6110SOL    HW229793   0.039   0.986   7.363  0.9478 -2.2946 -2.7877
 6111SOL     OW29794   2.103   4.294  14.010 -0.3549  0.3529  0.1535
 6111SOL    HW129795   2.183   4.329  14.051 -0.1496  1.3448 -1.1092
 6111SOL    HW229796   2.098   4.360  13.941  0.5698 -2.4381 -2.5563
 6112SOL     OW29797   0.434   0.143   4.897 -0.4095 -0.0278  0.0877
 6112SOL    HW129798   0.355   0.092   4.881 -1.2834  1.8257 -1.3986
 6112SOL    HW229799   0.486   0.084   4.953 -3.4808 -3.3188 -0.5562
 6113SOL     OW29800   4.473   1.840   0.214  0.2829  0.3142  0.0206
 6113SOL    HW129801   4.455   1.768   0.274 -0.0556 -0.2434 -0.7460
 6113SOL    HW229802   4.397   1.851   0.156  0.1504  0.6031  0.2553
 6114SOL     OW29803   0.231   2.918   5.177 -0.0593 -0.1892  0.4983
 6114SOL    HW129804   0.253   2.875   5.094 -3.3857  0.4734 -0.7222
 6114SOL    HW229805   0.217   3.008   5.146 -0.2973 -0.1306  0.7798
 6115SOL     OW29806   4.721   3.026  11.367 -0.4365  0.1858 -0.0419
 6115SOL    HW129807   0.025   3.117  11.359 -1.1914  0.3958 -0.2015
 6115SOL    HW229808   4.646   3.034  11.425  1.5821  1.5352  2.3756
 6116SOL     OW29809   2.825   3.135   5.592 -0.4367  0.3087 -0.0524
 6116SOL    HW129810   2.735   3.109   5.610  0.5495 -0.0029  4.3109
 6116SOL    HW229811   2.841   3.178   5.676 -1.6178 -0.9454  0.7957
 6117SOL     OW29812   2.896   2.859   2.550  0.0161 -0.1288 -0.2949
 6117SOL    HW129813   2.875   2.935   2.603  2.4054 -0.3726  0.9807
 6117SOL    HW229814   2.931   2.901   2.471 -2.4315  0.3896 -1.1178
 6118SOL     OW29815   2.479   2.478  10.122  0.5677 -0.9135  0.3430
 6118SOL    HW129816   2.404   2.483  10.063  0.6767  1.3978  0.4143
 6118SOL    HW229817   2.546   2.506  10.060  2.4995 -0.8101  2.4874
 6119SOL     OW29818   3.623   4.355   5.082 -0.1703 -0.2549  0.1920
 6119SOL    HW129819   3.619   4.378   4.989  0.4632 -2.3283 -0.3479
 6119SOL    HW229820   3.658   4.265   5.080 -0.0374 -0.2582  2.2700
 6120SOL     OW29821   1.656   1.261  13.502  0.1858  0.3962 -0.2822
 6120SOL    HW129822   1.583   1.213  13.464 -0.9598 -0.1468  2.5948
 6120SOL    HW229823   1.710   1.266  13.423  1.1430  1.2565  0.4301
 6121SOL     OW29824   3.872   1.724   5.358 -0.0796  0.2372  0.0697
 6121SOL    HW129825   3.825   1.794   5.405 -0.8380 -0.0889 -0.2017
 6121SOL    HW229826   3.964   1.750   5.368  0.7486 -2.7046  0.1726
 6122SOL     OW29827   0.605   2.993  14.380  0.4604  0.0695  0.4797
 6122SOL    HW129828   0.588   2.990  14.285 -0.0422  1.1215  0.5362
 6122SOL    HW229829   0.637   3.083  14.382 -0.1471  0.2900  0.3712
 6123SOL     OW29830   4.518   3.162   3.979  0.1391 -0.1612 -0.0859
 6123SOL    HW129831   4.609   3.141   3.960  0.5406  1.0720  0.4740
 6123SOL    HW229832   4.500   3.225   3.909 -2.6687 -0.8922 -0.0546
 6124SOL     OW29833   2.146   3.981  11.217 -0.2657  0.0161  0.4652
 6124SOL    HW129834   2.073   3.992  11.156  1.0004 -1.1700 -1.2507
 6124SOL    HW229835   2.162   3.888  11.202  0.9737 -0.1077  2.4916
 6125SOL     OW29836   4.241   1.293  16.168 -0.0858 -0.3626 -0.1271
 6125SOL    HW129837   4.195   1.243  16.236 -0.9371  0.5098 -0.0686
 6125SOL    HW229838   4.301   1.233  16.124  1.4035  0.1448  1.1810
 6126SOL     OW29839   1.218   0.974   7.150 -0.3608  0.3904  0.0117
 6126SOL    HW129840   1.256   1.033   7.215 -0.0612 -1.4036  1.4673
 6126SOL    HW229841   1.132   0.954   7.187 -0.3839  1.7849  0.7368
 6127SOL     OW29842   3.512   0.179   4.074  0.0960 -0.3922  0.2152
 6127SOL    HW129843   3.471   0.234   4.008 -0.2565  0.1341  0.8760
 6127SOL    HW229844   3.495   0.228   4.155  2.4576 -0.9799  1.0822
 6128SOL     OW29845   1.290   1.892   5.054 -0.1882 -0.5858 -0.2932
 6128SOL    HW129846   1.255   1.817   5.101 -1.9469  1.3060  1.4406
 6128SOL    HW229847   1.212   1.907   5.000  0.8678  0.2066 -1.5899
 6129SOL     OW29848   2.294   3.034   6.810  0.6207  0.8311 -0.3391
 6129SOL    HW129849   2.232   3.047   6.738  0.1394 -1.8719 -0.4247
 6129SOL    HW229850   2.241   2.984   6.873  2.0063 -1.7982 -1.2421
 6130SOL     OW29851   3.129   0.825   1.399  0.1838  0.3972 -0.7998
 6130SOL    HW129852   3.116   0.776   1.319  0.7884 -1.3670  0.1923
 6130SOL    HW229853   3.195   0.762   1.427 -1.5250 -1.5246 -1.1165
 6131SOL     OW29854   1.120   3.530   8.177  0.7762 -0.3640  0.8064
 6131SOL    HW129855   1.032   3.555   8.148  1.4507  2.0584  0.8840
 6131SOL    HW229856   1.123   3.561   8.267  2.2703  0.7341  0.3757
 6132SOL     OW29857   3.543   3.895   6.508 -0.0892 -0.4272  0.1431
 6132SOL    HW129858   3.574   3.925   6.594 -1.0766 -0.6278  0.5709
 6132SOL    HW229859   3.554   3.968   6.448 -0.0286 -1.9585 -1.6928
 6133SOL     OW29860   0.662   0.799  12.869 -0.5096  0.0317 -0.4937
 6133SOL    HW129861   0.701   0.782  12.955  0.2402 -0.5848 -0.9644
 6133SOL    HW229862   0.711   0.737  12.815  0.5949  0.5926 -0.1453
 6134SOL     OW29863   2.426   4.583   2.726  0.3751 -0.3093 -0.2580
 6134SOL    HW129864   2.350   4.529   2.750 -0.8936  2.4382  1.8037
 6134SOL    HW229865   2.492   4.534   2.775 -0.6179  0.0577  1.4518
 6135SOL     OW29866   4.681   4.384   6.737  0.4222  0.0704 -0.2281
 6135SOL    HW129867   4.721   4.324   6.674  0.9794  0.8851 -0.6488
 6135SOL    HW229868   0.012   4.463   6.728 -1.1862  1.2924  0.8858
 6136SOL     OW29869   0.176   3.740   8.589  0.4104 -0.0950  0.1054
 6136SOL    HW129870   0.109   3.795   8.629  0.7427  0.3103  0.1055
 6136SOL    HW229871   0.205   3.688   8.663 -0.6709 -1.1870 -0.2364
 6137SOL     OW29872   1.498   3.777  13.434  0.0820  0.6001 -0.2537
 6137SOL    HW129873   1.408   3.766  13.463 -1.4384  1.4359 -4.6296
 6137SOL    HW229874   1.475   3.786  13.342 -0.2598  0.1240 -0.2135
 6138SOL     OW29875   1.022   0.293   8.034  0.3667 -0.6788 -0.2331
 6138SOL    HW129876   1.076   0.274   8.110  0.2796 -0.7861 -0.1980
 6138SOL    HW229877   1.078   0.338   7.970 -1.9762  2.5615 -0.0138
 6139SOL     OW29878   3.412   0.152   2.100  0.7907  0.1291 -0.1513
 6139SOL    HW129879   3.330   0.199   2.093  0.7393 -0.0988 -1.0346
 6139SOL    HW229880   3.480   0.212   2.131  1.1925  0.1754 -1.1243
 6140SOL     OW29881   3.180   2.907   2.727  0.1311  0.5187 -0.2078
 6140SOL    HW129882   3.087   2.909   2.703  0.1026  0.0145 -0.1497
 6140SOL    HW229883   3.215   2.840   2.667 -1.2710 -0.6937  0.3138
 6141SOL     OW29884   0.064   0.713   8.852  0.0930 -0.1156 -0.5473
 6141SOL    HW129885   4.709   0.687   8.902  1.0729  0.8131  1.4515
 6141SOL    HW229886   0.075   0.638   8.794 -2.0176 -0.1786 -0.8871
 6142SOL     OW29887   1.631   0.332  10.251 -0.1517  0.1995  0.4112
 6142SOL    HW129888   1.555   0.284  10.218 -0.5568  0.8139  0.4672
 6142SOL    HW229889   1.659   0.278  10.325  0.1843  0.4400  0.4627
 6143SOL     OW29890   4.470   3.866   1.586 -0.0572  0.1582 -0.2713
 6143SOL    HW129891   4.455   3.957   1.561 -0.2097  0.5097  1.0948
 6143SOL    HW229892   4.382   3.835   1.605  0.9607 -2.4131  0.2251
 6144SOL     OW29893   4.376   3.426   9.516 -0.3554  0.7863  0.7600
 6144SOL    HW129894   4.394   3.348   9.569 -1.8442 -0.0808 -0.0019
 6144SOL    HW229895   4.283   3.433   9.537 -0.5641  1.3984 -0.3895
 6145SOL     OW29896   4.565   1.573   5.922 -0.2300 -0.2649  0.3083
 6145SOL    HW129897   4.579   1.483   5.891 -0.9330 -0.5225  0.7287
 6145SOL    HW229898   4.597   1.565   6.012  1.8795 -1.7964 -0.5830
 6146SOL     OW29899   4.000   4.583   8.985  0.4125  0.3369 -0.1575
 6146SOL    HW129900   3.996   4.487   8.988  1.3563  0.2767 -0.7580
 6146SOL    HW229901   4.015   4.614   9.074 -0.3340 -0.9719  0.4310
 6147SOL     OW29902   1.162   0.538   4.269 -0.1156 -0.6142 -0.5564
 6147SOL    HW129903   1.189   0.527   4.178  0.5400 -0.2144 -0.4083
 6147SOL    HW229904   1.093   0.602   4.250  1.5299  1.6440  1.0286
 6148SOL     OW29905   3.976   2.717   1.851  0.0222 -0.5101  0.0663
 6148SOL    HW129906   4.000   2.699   1.941 -3.3408  2.7953  1.6152
 6148SOL    HW229907   3.982   2.812   1.840 -0.8634 -0.3340  1.1024
 6149SOL     OW29908   4.170   2.440   6.847 -0.5335 -0.1702 -0.1324
 6149SOL    HW129909   4.179   2.533   6.870 -2.2311  0.0664 -0.4372
 6149SOL    HW229910   4.190   2.447   6.754  0.8155  0.8569  0.2331
 6150SOL     OW29911   1.277   0.611   4.525  0.0178  0.3783  0.0163
 6150SOL    HW129912   1.248   0.551   4.456 -0.7642 -0.8584  1.4063
 6150SOL    HW229913   1.265   0.556   4.603 -2.2140  1.7060  0.5986
 6151SOL     OW29914   4.674   1.991   3.141  0.3273  0.3012 -0.2016
 6151SOL    HW129915   0.044   1.972   3.145  0.4147  0.3497 -2.4883
 6151SOL    HW229916   4.643   1.963   3.227  3.3881 -2.3541  0.0395
 6152SOL     OW29917   4.313   4.093  16.687  0.8074  0.3014  0.0678
 6152SOL    HW129918   4.247   4.162  16.694 -0.0248 -0.2108 -2.6776
 6152SOL    HW229919   4.261   4.021  16.723 -1.7189  2.2402  0.2931
 6153SOL     OW29920   2.689   3.797   3.103  0.2893 -0.2550  0.3614
 6153SOL    HW129921   2.742   3.877   3.105  1.2620 -0.9104  1.4007
 6153SOL    HW229922   2.677   3.779   3.196  0.1751  0.1249  0.4207
 6154SOL     OW29923   3.294   0.908  13.113 -0.3260  0.2681 -0.3315
 6154SOL    HW129924   3.364   0.862  13.159 -2.1804  1.3913  3.6429
 6154SOL    HW229925   3.228   0.920  13.182 -0.6112  0.8287 -0.7046
 6155SOL     OW29926   1.855   0.532  14.750 -0.4572  0.3001 -0.0620
 6155SOL    HW129927   1.795   0.466  14.716  0.6976 -1.3075  1.0159
 6155SOL    HW229928   1.876   0.504  14.839  2.4786  0.6416 -0.6381
 6156SOL     OW29929   2.968   1.686   0.862 -0.0091 -0.2898  0.8465
 6156SOL    HW129930   3.047   1.741   0.867  1.3381 -2.1433  0.0261
 6156SOL    HW229931   2.924   1.728   0.788  0.0100  1.2725  1.7200
 6157SOL     OW29932   1.856   2.188   2.060 -0.3598 -0.4363 -0.0375
 6157SOL    HW129933   1.838   2.134   1.983  1.0903 -0.6093 -0.2507
 6157SOL    HW229934   1.800   2.144   2.124 -2.2838  0.8795 -0.8101
 6158SOL     OW29935   2.948   1.769   8.519  0.3756  0.4273  0.1573
 6158SOL    HW129936   2.929   1.752   8.611 -1.8901 -0.0352 -0.3836
 6158SOL    HW229937   2.985   1.856   8.529  1.8734 -0.4880  2.6704
 6159SOL     OW29938   1.677   4.237   2.584 -1.0922 -0.1675  0.1591
 6159SOL    HW129939   1.687   4.283   2.501 -2.7765 -0.0556  0.0157
 6159SOL    HW229940   1.704   4.307   2.642  3.1903  1.1972 -3.4403
 6160SOL     OW29941   2.175   3.223   8.383 -0.0717 -0.1968  0.0764
 6160SOL    HW129942   2.201   3.159   8.449 -0.2784 -1.4916 -1.0703
 6160SOL    HW229943   2.122   3.280   8.438  0.1978 -0.1709  0.3123
 6161SOL     OW29944   2.350   1.012   6.040  0.3746  0.2335 -0.0437
 6161SOL    HW129945   2.257   1.003   6.064 -0.4525  2.1329 -2.5622
 6161SOL    HW229946   2.380   0.925   6.064 -1.2526  0.1838  1.8927
 6162SOL     OW29947   3.262   2.688   0.210 -0.3957  0.4119  0.7752
 6162SOL    HW129948   3.242   2.708   0.118 -1.1305 -1.4930  0.5200
 6162SOL    HW229949   3.341   2.635   0.195 -1.9138 -1.2505 -1.3927
 6163SOL     OW29950   2.210   2.655   4.223 -0.0206  0.3450 -0.3080
 6163SOL    HW129951   2.117   2.671   4.212  0.3397  1.3432 -1.8481
 6163SOL    HW229952   2.241   2.738   4.186 -1.2927  0.7720 -0.3949
 6164SOL     OW29953   1.734   3.081  11.781 -0.0701  0.0596  0.0437
 6164SOL    HW129954   1.696   3.082  11.869  0.1018 -2.5255  0.1344
 6164SOL    HW229955   1.670   3.136  11.736 -0.3131  1.3115  1.9132
 6165SOL     OW29956   0.120   0.574   3.295  0.5685  0.3449 -0.1194
 6165SOL    HW129957   0.202   0.619   3.274  1.4477 -1.6195 -0.9138
 6165SOL    HW229958   0.126   0.486   3.257 -1.1847  0.3735 -0.4619
 6166SOL     OW29959   2.269   1.473   2.369  0.1619 -0.4310 -0.4871
 6166SOL    HW129960   2.352   1.428   2.385 -0.3760 -1.9233 -1.9680
 6166SOL    HW229961   2.209   1.410   2.410 -0.2656  0.0147 -0.4242
 6167SOL     OW29962   4.356   0.674   3.715  0.3273  0.1182 -0.1791
 6167SOL    HW129963   4.288   0.634   3.661 -0.2818  1.0524 -0.0998
 6167SOL    HW229964   4.361   0.758   3.669  0.3962 -0.0803 -0.5309
 6168SOL     OW29965   2.409   1.212   8.739 -0.2619  0.5043 -0.1245
 6168SOL    HW129966   2.472   1.143   8.720 -0.7285 -0.0875  0.4805
 6168SOL    HW229967   2.333   1.165   8.706  0.1110 -0.8300  0.9354
 6169SOL     OW29968   4.269   0.934   0.308  0.4636 -0.1845 -0.1500
 6169SOL    HW129969   4.321   1.004   0.348 -0.3436  0.8742 -0.9944
 6169SOL    HW229970   4.330   0.892   0.247 -0.7537 -1.0003 -0.8028
 6170SOL     OW29971   3.452   0.812   1.261 -0.3501  0.2687 -0.2953
 6170SOL    HW129972   3.478   0.755   1.333 -1.2560 -1.9392 -1.7264
 6170SOL    HW229973   3.479   0.889   1.311  1.0738 -1.6512  1.8471
 6171SOL     OW29974   1.049   1.096   8.903  0.4588  0.0335 -0.0113
 6171SOL    HW129975   1.078   1.072   8.990 -0.1153  1.6701  0.6431
 6171SOL    HW229976   0.993   1.022   8.881  0.1166  0.2650  0.0657
 6172SOL     OW29977   1.618   4.209   4.079  0.2554  0.1085  0.6130
 6172SOL    HW129978   1.595   4.119   4.103  1.1392 -0.6161 -1.2271
 6172SOL    HW229979   1.621   4.192   3.985  0.3069 -1.2138  0.8481
 6173SOL     OW29980   4.141   1.789   3.508 -0.2626 -0.1468  0.1433
 6173SOL    HW129981   4.093   1.814   3.588 -1.3099 -2.1955  0.1601
 6173SOL    HW229982   4.230   1.782   3.542 -0.8657 -0.8704  1.6008
 6174SOL     OW29983   1.738   3.431  14.742  0.1980 -0.1603 -0.4272
 6174SOL    HW129984   1.664   3.404  14.796  1.1131  0.3243  1.0725
 6174SOL    HW229985   1.685   3.468  14.672 -0.7179 -0.8180 -0.0806
 6175SOL     OW29986   2.325   4.049  16.795 -0.5488  0.1143  0.0694
 6175SOL    HW129987   2.262   4.119  16.779 -1.1472 -0.2192  0.9451
 6175SOL    HW229988   2.407   4.098  16.791  1.0892 -2.6231 -0.2854
 6176SOL     OW29989   4.117   1.772   2.772  0.0378 -0.5230 -0.1532
 6176SOL    HW129990   4.115   1.677   2.775 -1.1984 -0.5147 -0.7106
 6176SOL    HW229991   4.195   1.798   2.821 -0.6851 -0.1373  0.7896
 6177SOL     OW29992   4.135   2.599   3.867  0.2961 -0.2125  0.1947
 6177SOL    HW129993   4.166   2.533   3.806 -0.9862 -1.8477  1.3300
 6177SOL    HW229994   4.173   2.578   3.953  1.2548  1.8637  0.2956
 6178SOL     OW29995   2.750   3.504   1.467 -0.4791 -0.1230 -0.4162
 6178SOL    HW129996   2.682   3.437   1.473 -0.9766  0.1944 -2.5480
 6178SOL    HW229997   2.813   3.457   1.412  2.0992  1.6081  1.0521
 6179SOL     OW29998   3.662   1.188   0.338 -0.0235  0.0033  0.4293
 6179SOL    HW129999   3.567   1.195   0.347  0.0214 -2.5454  3.1032
 6179SOL    HW230000   3.678   1.276   0.305  1.3776 -0.1787  0.6252
 6180SOL     OW30001   3.601   1.715   4.471 -0.4930  0.1006  0.1625
 6180SOL    HW130002   3.559   1.801   4.462 -1.3288 -0.4231 -1.0127
 6180SOL    HW230003   3.617   1.691   4.380  2.5014  2.0820  0.1650
 6181SOL     OW30004   4.534   3.236  12.101 -0.0013  0.3051  0.3976
 6181SOL    HW130005   4.577   3.321  12.105 -1.7916  1.2993 -1.0062
 6181SOL    HW230006   4.598   3.180  12.144  1.3330  1.8288  0.3681
 6182SOL     OW30007   0.012   2.484   6.413  0.1354  0.5898  0.3303
 6182SOL    HW130008   0.078   2.493   6.344  1.1693 -1.3760  1.0834
 6182SOL    HW230009   4.722   2.390   6.413 -1.3464  0.8032  1.5661
 6183SOL     OW30010   4.229   3.906   4.283  0.3864 -0.6143  0.0882
 6183SOL    HW130011   4.250   3.993   4.250 -1.1539 -0.8875 -1.6235
 6183SOL    HW230012   4.181   3.866   4.211 -1.7391  1.6534  0.2317
 6184SOL     OW30013   2.575   1.868   0.171  0.3196 -0.2754 -0.1121
 6184SOL    HW130014   2.595   1.937   0.107  0.5278  0.4637  0.7464
 6184SOL    HW230015   2.634   1.895   0.242 -2.0067 -0.0736  1.7380
 6185SOL     OW30016   0.003   0.591   6.943 -0.5861 -0.3442 -0.1875
 6185SOL    HW130017   0.073   0.528   6.924 -1.3810 -1.2836 -0.0273
 6185SOL    HW230018   0.050   0.674   6.948  0.4047 -0.7541 -2.5773
 6186SOL     OW30019   3.113   1.028   4.228 -0.8437 -0.6103  0.8014
 6186SOL    HW130020   3.131   1.113   4.269 -2.3103  1.1143 -2.1957
 6186SOL    HW230021   3.191   0.973   4.239 -0.5980 -0.3736  0.2317
 6187SOL     OW30022   0.214   3.854  11.372 -0.2653 -0.1253  0.2141
 6187SOL    HW130023   0.145   3.882  11.312  1.8182  0.6254 -1.8404
 6187SOL    HW230024   0.216   3.928  11.433  1.0328 -1.0686  1.3100
 6188SOL     OW30025   2.993   0.537   7.289  0.0332 -0.8385 -0.0460
 6188SOL    HW130026   3.008   0.520   7.382  2.2980 -1.5646 -0.5522
 6188SOL    HW230027   2.898   0.545   7.285 -0.0935 -1.9431  0.9860
 6189SOL     OW30028   0.973   3.374   2.149  0.3409  0.3666  0.2807
 6189SOL    HW130029   0.899   3.325   2.114  0.4745  0.6478 -0.4006
 6189SOL    HW230030   0.962   3.451   2.093  0.8677  0.1205 -0.1573
 6190SOL     OW30031   2.175   2.787   2.565 -0.2520 -0.1309 -0.8793
 6190SOL    HW130032   2.216   2.712   2.521  2.9034 -0.4178  2.5142
 6190SOL    HW230033   2.210   2.865   2.522  0.8733 -0.4096 -0.4972
 6191SOL     OW30034   2.052   3.021   9.607 -0.5924 -0.0708 -0.5792
 6191SOL    HW130035   2.087   3.007   9.694 -0.2181 -0.7735 -0.8404
 6191SOL    HW230036   1.989   3.089   9.632 -0.0592  0.9528 -2.0032
 6192SOL     OW30037   3.538   2.132   7.981  0.3731 -0.2592 -0.3186
 6192SOL    HW130038   3.515   2.160   8.069  1.2558 -1.4317  0.2805
 6192SOL    HW230039   3.549   2.210   7.926  1.4915 -1.5671 -1.9574
 6193SOL     OW30040   1.500   1.906  12.076 -0.1106 -0.1644 -0.5577
 6193SOL    HW130041   1.572   1.889  12.136  2.2223  0.4427 -3.1420
 6193SOL    HW230042   1.549   1.918  11.994  0.3055  3.0635  0.1714
 6194SOL     OW30043   0.737   0.923   8.173 -0.5245  1.0370  0.4703
 6194SOL    HW130044   0.793   0.977   8.229 -0.3696 -0.6734  1.9873
 6194SOL    HW230045   0.658   0.975   8.180 -0.3133  1.6068 -1.4650
 6195SOL     OW30046   1.384   1.828   6.793  0.2118 -0.2871 -0.4013
 6195SOL    HW130047   1.444   1.756   6.810  0.2896 -0.3876 -1.0872
 6195SOL    HW230048   1.300   1.786   6.808 -0.3498  0.3642 -1.7192
 6196SOL     OW30049   1.225   1.193   3.601 -0.0188  0.6557  0.6632
 6196SOL    HW130050   1.307   1.207   3.554  1.1950  0.4845  2.7491
 6196SOL    HW230051   1.232   1.257   3.672  2.9020 -0.9033  1.7799
 6197SOL     OW30052   4.331   2.678   7.272 -0.0433  0.1454 -0.0516
 6197SOL    HW130053   4.405   2.633   7.231  0.2189  0.3465  0.1990
 6197SOL    HW230054   4.361   2.689   7.362  0.4920  0.8953 -0.3200
 6198SOL     OW30055   4.672   4.300   6.452  0.1498  0.2989  0.0054
 6198SOL    HW130056   0.013   4.361   6.417  1.5495 -0.9521  0.3764
 6198SOL    HW230057   0.015   4.236   6.479  1.7701  1.7980 -0.4333
 6199SOL     OW30058   4.395   0.529  14.256  0.1681 -0.1436 -0.4224
 6199SOL    HW130059   4.367   0.586  14.327  0.8387  1.2693 -1.2991
 6199SOL    HW230060   4.455   0.582  14.204  0.3825  0.7529  0.7447
 6200SOL     OW30061   2.933   0.166   7.329 -0.2056 -0.9918 -0.4316
 6200SOL    HW130062   3.026   0.178   7.310 -0.2108  0.2068  0.3621
 6200SOL    HW230063   2.932   0.074   7.302  0.2499 -1.5182  1.3795
 6201SOL     OW30064   2.481   2.938  16.958  0.4013 -0.4269  0.1376
 6201SOL    HW130065   2.488   2.910  16.866  3.3345  1.8934 -0.3219
 6201SOL    HW230066   2.395   2.981  16.954  0.4391 -0.2572  1.4146
 6202SOL     OW30067   4.425   0.549   2.274  0.3971 -0.3747  0.6747
 6202SOL    HW130068   4.520   0.552   2.262  0.2441  2.4842  0.2165
 6202SOL    HW230069   4.423   0.483   2.344 -0.0341 -0.9319  0.1402
 6203SOL     OW30070   3.767   1.726   9.302 -0.1037  0.2857  0.6599
 6203SOL    HW130071   3.690   1.695   9.255 -0.5770  0.7132  1.1451
 6203SOL    HW230072   3.729   1.781   9.371 -3.2980 -0.5998 -0.4366
 6204SOL     OW30073   3.132   2.931  16.150  0.0554 -0.5013 -0.0034
 6204SOL    HW130074   3.178   2.894  16.075 -1.0897 -0.2431 -0.8493
 6204SOL    HW230075   3.147   3.020  16.120 -1.0280  0.2571  1.7013
 6205SOL     OW30076   3.557   2.225   5.865  0.4690 -0.5632 -0.0824
 6205SOL    HW130077   3.495   2.196   5.932  2.1844  0.0929  1.7797
 6205SOL    HW230078   3.567   2.144   5.815  1.2929 -1.4524  1.5335
 6206SOL     OW30079   2.204   3.388   9.826  0.7034 -0.1074  0.2051
 6206SOL    HW130080   2.218   3.433   9.743  0.6395  0.0005  0.2535
 6206SOL    HW230081   2.124   3.436   9.845  0.8491  0.4821 -0.6669
 6207SOL     OW30082   0.308   1.991   6.308 -0.3280 -0.0195  0.0474
 6207SOL    HW130083   0.396   2.030   6.314  0.1981 -1.0651 -0.9918
 6207SOL    HW230084   0.333   1.913   6.258  1.1623 -0.1013  0.8941
 6208SOL     OW30085   2.530   3.121   0.126  0.3313  0.1961  0.1453
 6208SOL    HW130086   2.457   3.169   0.165  0.7741 -0.5716  1.9460
 6208SOL    HW230087   2.575   3.086   0.203 -0.3277  0.9141  0.8606
 6209SOL     OW30088   3.032   0.425  12.304  0.1421 -0.3965 -0.5624
 6209SOL    HW130089   2.963   0.449  12.366  0.8671  1.4246 -0.4725
 6209SOL    HW230090   3.104   0.463  12.353 -1.7544  2.8054 -0.2988
 6210SOL     OW30091   2.135   4.161   6.435 -0.1930 -0.2908 -0.6291
 6210SOL    HW130092   2.173   4.078   6.407  0.9440  0.5184 -1.4570
 6210SOL    HW230093   2.209   4.217   6.458 -0.2821 -0.3749 -0.1260
 6211SOL     OW30094   0.964   2.281   7.077 -0.5790  0.3062  0.5476
 6211SOL    HW130095   0.975   2.220   7.004  1.8754  0.5477  0.7324
 6211SOL    HW230096   0.871   2.259   7.088  0.4397 -3.8278  0.8978
 6212SOL     OW30097   3.821   2.159   3.419  0.5551 -0.8131  0.3211
 6212SOL    HW130098   3.758   2.088   3.411 -0.2449 -0.0245 -0.4274
 6212SOL    HW230099   3.758   2.231   3.425  1.2906 -0.2535  1.3400
 6213SOL     OW30100   0.034   2.662   3.711 -0.0070  0.1054  0.0605
 6213SOL    HW130101   4.674   2.709   3.703 -0.6059 -0.6982  1.5384
 6213SOL    HW230102   0.100   2.729   3.728  1.4274 -0.9400 -1.3191
 6214SOL     OW30103   0.244   3.604   3.351 -0.0733 -0.1629 -0.7644
 6214SOL    HW130104   0.190   3.527   3.333  1.1175 -0.7214 -1.9395
 6214SOL    HW230105   0.314   3.592   3.287  0.8237 -1.7590  0.5036
 6215SOL     OW30106   3.844   4.188   1.760  0.3658  0.2348 -0.1939
 6215SOL    HW130107   3.773   4.234   1.716  0.9870  0.5140 -0.8807
 6215SOL    HW230108   3.886   4.139   1.690  0.7478  1.2711 -0.6738
 6216SOL     OW30109   2.149   1.960   4.167  0.5702  0.5745 -0.1518
 6216SOL    HW130110   2.148   2.040   4.221 -1.6711  1.2674 -1.2545
 6216SOL    HW230111   2.225   1.977   4.111 -0.1694  2.0413 -0.7053
 6217SOL     OW30112   3.310   4.519   7.343  0.0081 -0.4332 -0.0530
 6217SOL    HW130113   3.402   4.527   7.316  0.2180  4.1013  2.0025
 6217SOL    HW230114   3.286   4.428   7.329  0.2180  0.1285 -4.0385
 6218SOL     OW30115   2.917   3.065  14.960  0.4771 -0.2759 -0.0011
 6218SOL    HW130116   2.924   2.973  14.984 -1.1548 -0.1835  0.7788
 6218SOL    HW230117   2.997   3.093  15.005  0.2986  1.3468 -0.6799
 6219SOL     OW30118   0.748   1.156   5.200  0.3614  0.3027  1.2222
 6219SOL    HW130119   0.745   1.076   5.253  3.5040 -0.5251  0.1554
 6219SOL    HW230120   0.817   1.207   5.242 -0.6692  0.5409  2.6349
 6220SOL     OW30121   2.266   3.915   6.416 -0.0074  0.0746 -0.2566
 6220SOL    HW130122   2.237   3.922   6.325  1.5478  2.7565 -0.5467
 6220SOL    HW230123   2.308   3.829   6.419 -0.7349 -0.2935 -0.7451
 6221SOL     OW30124   0.341   1.206  17.556  0.0090  0.4373  0.5487
 6221SOL    HW130125   0.316   1.298  17.570 -0.7042  0.6764 -2.1739
 6221SOL    HW230126   0.353   1.170  17.644 -1.5064  2.7061  1.6910
 6222SOL     OW30127   3.225   2.883   3.792  0.5835  0.8252  0.0878
 6222SOL    HW130128   3.136   2.905   3.765 -0.4828  0.3919  3.2093
 6222SOL    HW230129   3.211   2.905   3.884  0.3066  1.8114 -0.1945
 6223SOL     OW30130   0.852   0.776   7.706 -0.0325  0.1773 -0.4388
 6223SOL    HW130131   0.810   0.698   7.671  0.1851 -0.2804  0.3124
 6223SOL    HW230132   0.834   0.769   7.799  0.9898 -1.5539 -0.3846
 6224SOL     OW30133   3.484   0.248  17.023  0.0634  0.1881 -0.7464
 6224SOL    HW130134   3.399   0.255  17.066  2.4502  3.6347  3.3956
 6224SOL    HW230135   3.540   0.218  17.094 -0.6998  0.0757 -0.1978
 6225SOL     OW30136   4.654   3.887   6.518  0.5485  0.1700  0.6343
 6225SOL    HW130137   4.628   3.972   6.553 -0.8980 -0.5566  1.3109
 6225SOL    HW230138   4.656   3.831   6.596  0.5553  0.7126  1.0270
 6226SOL     OW30139   1.712   3.886   9.007 -0.6236 -0.2252  0.5895
 6226SOL    HW130140   1.723   3.793   8.988  0.7530 -0.6563  3.4869
 6226SOL    HW230141   1.796   3.902   8.963  0.1501 -0.4987  1.9766
 6227SOL     OW30142   1.998   0.526   9.091  0.1248 -0.5468 -0.0006
 6227SOL    HW130143   1.906   0.540   9.068 -0.5259  1.4693  3.7939
 6227SOL    HW230144   2.042   0.562   9.014  0.1595 -0.7669 -0.0821
 6228SOL     OW30145   2.004   2.420   5.628  0.3406  0.2199  0.0915
 6228SOL    HW130146   1.919   2.379   5.614  0.6275 -0.3743  0.0881
 6228SOL    HW230147   2.058   2.353   5.588 -0.7034 -0.5694  0.0100
 6229SOL     OW30148   2.650   4.395   3.488  0.3330 -0.1056 -0.3475
 6229SOL    HW130149   2.624   4.428   3.402  0.5759  2.3926  0.5661
 6229SOL    HW230150   2.725   4.450   3.511  0.4933 -0.2403 -0.5377
 6230SOL     OW30151   2.124   0.034  13.204  0.0430 -0.4056  0.1079
 6230SOL    HW130152   2.088   0.014  13.291  1.3891 -0.9736  0.5287
 6230SOL    HW230153   2.051   0.017  13.144 -0.5522 -0.3078  0.7985
 6231SOL     OW30154   3.732   2.279   9.592  0.1778 -0.0501 -0.1022
 6231SOL    HW130155   3.669   2.221   9.634 -0.4126  0.2616 -0.5588
 6231SOL    HW230156   3.810   2.225   9.608  0.2471 -0.2403 -1.0863
 6232SOL     OW30157   1.307   4.685   6.347 -0.1798  0.8131 -0.0715
 6232SOL    HW130158   1.317   0.053   6.320  0.5555  0.8639  0.3818
 6232SOL    HW230159   1.330   4.697   6.439 -2.5569 -1.2369  0.8034
 6233SOL     OW30160   1.871   3.431   2.749  0.0411 -0.4054 -0.4739
 6233SOL    HW130161   1.857   3.508   2.694  0.9026 -0.2628 -0.4995
 6233SOL    HW230162   1.914   3.372   2.687 -2.3229 -0.5028 -2.0345
 6234SOL     OW30163   1.780   4.486   5.842 -0.2300 -0.0603 -0.4594
 6234SOL    HW130164   1.808   4.508   5.931  0.3515  1.9662 -1.1448
 6234SOL    HW230165   1.699   4.440   5.866 -0.5513  1.5969  1.7290
 6235SOL     OW30166   4.177   1.564   9.330  0.0301 -0.0473  0.5556
 6235SOL    HW130167   4.168   1.623   9.255 -1.4281  0.1572  0.8907
 6235SOL    HW230168   4.084   1.544   9.335  0.0053 -0.5691 -1.8598
 6236SOL     OW30169   1.793   3.982  15.800  0.0208  0.6450  0.2815
 6236SOL    HW130170   1.877   4.021  15.777 -0.3190  1.8918  1.1922
 6236SOL    HW230171   1.780   3.911  15.737  0.6430  2.3027 -1.7371
 6237SOL     OW30172   2.256   0.434   5.424  0.2124  0.0107 -0.4410
 6237SOL    HW130173   2.280   0.523   5.448  0.7026 -0.4436  0.7643
 6237SOL    HW230174   2.184   0.451   5.363 -1.6559  0.4283  1.8684
 6238SOL     OW30175   3.202   0.213   6.972  0.0018 -0.3971 -0.4321
 6238SOL    HW130176   3.200   0.126   7.011  0.4289 -0.4793 -0.5945
 6238SOL    HW230177   3.118   0.255   6.991 -0.3689 -0.4813 -1.8820
 6239SOL     OW30178   1.854   3.205   3.725  0.0335  0.4011  0.1315
 6239SOL    HW130179   1.859   3.197   3.820 -2.7330  0.1331  0.2640
 6239SOL    HW230180   1.942   3.191   3.689 -0.1065 -1.6252  0.6148
 6240SOL     OW30181   3.164   2.127   6.134 -0.0787  0.3483 -0.0950
 6240SOL    HW130182   3.186   2.126   6.041 -2.1881  2.4568 -0.6182
 6240SOL    HW230183   3.088   2.185   6.130 -0.5248 -0.1951  0.5527
 6241SOL     OW30184   1.279   2.704  11.930 -0.2453 -0.4839  0.1764
 6241SOL    HW130185   1.375   2.696  11.926  0.0305  2.1977  0.9236
 6241SOL    HW230186   1.266   2.768  11.860 -3.6371 -0.4993  0.8025
 6242SOL     OW30187   3.213   4.609  17.460 -0.2037  0.0283 -0.0805
 6242SOL    HW130188   3.169   4.690  17.434 -1.4059 -0.0535  1.7278
 6242SOL    HW230189   3.144   4.558  17.503 -1.3625  1.3660 -0.3679
 6243SOL     OW30190   4.468   0.746  15.455 -0.1568  0.3597 -0.2404
 6243SOL    HW130191   4.491   0.835  15.431  0.3645  0.6261  1.2381
 6243SOL    HW230192   4.415   0.765  15.532 -0.3773 -0.8716 -0.0861
 6244SOL     OW30193   2.083   3.749  15.857 -0.8624  0.5897 -0.1095
 6244SOL    HW130194   1.990   3.736  15.836 -1.4249  1.1031  2.1197
 6244SOL    HW230195   2.125   3.726  15.774 -2.0220 -0.2988 -0.4546
 6245SOL     OW30196   0.463   2.007   9.252 -0.6498  0.6796  0.0180
 6245SOL    HW130197   0.473   1.912   9.263 -1.0144  0.5631 -0.6815
 6245SOL    HW230198   0.519   2.033   9.325  0.6593  0.3113 -0.8530
 6246SOL     OW30199   3.140   3.669   5.230 -0.2406 -0.3357  0.4300
 6246SOL    HW130200   3.080   3.598   5.255 -0.5686  0.2323  1.2781
 6246SOL    HW230201   3.068   3.731   5.212  1.2561  1.2326 -0.1351
 6247SOL     OW30202   0.942   2.690  17.040  0.0872 -0.6256  0.2154
 6247SOL    HW130203   0.943   2.598  17.014  1.6156 -1.0982  1.9987
 6247SOL    HW230204   0.936   2.734  16.955  0.7202  0.9695  0.9834
 6248SOL     OW30205   3.226   4.638  15.728  0.2754  0.0711  0.0296
 6248SOL    HW130206   3.151   4.683  15.767 -0.8616 -1.5915 -0.2023
 6248SOL    HW230207   3.247   4.707  15.666 -1.2577 -0.3990 -1.0024
 6249SOL     OW30208   2.145   3.586   5.711  0.5988 -0.0963 -1.0087
 6249SOL    HW130209   2.236   3.603   5.686  0.1129  0.2418 -2.5432
 6249SOL    HW230210   2.134   3.496   5.679 -0.5026  0.0609 -1.0858
 6250SOL     OW30211   0.469   0.496   6.959 -0.4708 -0.2415  0.4539
 6250SOL    HW130212   0.559   0.481   6.988 -0.8218  1.5235  2.4838
 6250SOL    HW230213   0.470   0.589   6.982 -0.5917 -0.6914  2.3099
 6251SOL     OW30214   0.028   3.318   3.015  0.0917 -0.3024  0.4637
 6251SOL    HW130215   0.094   3.260   2.977  0.6291  0.7777 -0.2343
 6251SOL    HW230216   4.708   3.357   2.939 -0.2744  0.4680  1.0654
 6252SOL     OW30217   1.022   1.253   2.523 -0.0916 -0.0681 -0.2189
 6252SOL    HW130218   1.094   1.220   2.576 -0.4077 -3.8176 -2.0656
 6252SOL    HW230219   0.950   1.190   2.534 -1.2325  1.5602  1.6880
 6253SOL     OW30220   0.163   1.527  14.065 -0.2272  0.5076  0.5398
 6253SOL    HW130221   0.164   1.563  13.976  1.0470  1.0455  0.7683
 6253SOL    HW230222   0.078   1.482  14.068  0.7841 -1.4776 -0.5429
 6254SOL     OW30223   3.924   3.791   8.575 -0.1739  0.2536 -0.3528
 6254SOL    HW130224   4.016   3.764   8.570 -0.9403 -2.1095 -2.0577
 6254SOL    HW230225   3.906   3.800   8.481  1.7389 -0.3475 -0.7928
 6255SOL     OW30226   1.650   4.091   5.754  0.6667 -0.2831  0.3154
 6255SOL    HW130227   1.689   4.120   5.671 -1.5636  1.1927 -0.2133
 6255SOL    HW230228   1.588   4.030   5.714  1.1561 -0.6074  0.0530
 6256SOL     OW30229   2.764   2.350   6.880  0.0744 -0.0758  0.0322
 6256SOL    HW130230   2.683   2.399   6.879 -0.8699 -1.5588  3.4282
 6256SOL    HW230231   2.828   2.407   6.923  1.3151 -1.8302  0.5163
 6257SOL     OW30232   3.126   3.287   3.844 -0.0614 -0.2394  0.2703
 6257SOL    HW130233   3.204   3.342   3.841 -0.3199  0.0913 -0.5367
 6257SOL    HW230234   3.089   3.291   3.755 -0.3682 -0.4041  0.3879
 6258SOL     OW30235   2.334   3.129  11.385 -0.5171  0.1297 -0.5962
 6258SOL    HW130236   2.407   3.189  11.370  1.5561 -1.5365  2.6951
 6258SOL    HW230237   2.374   3.043  11.371 -1.1790 -0.0108 -1.5807
 6259SOL     OW30238   0.106   2.784   6.500  0.3602  0.3769 -0.6129
 6259SOL    HW130239   0.113   2.879   6.509  2.6065  0.2074 -0.6722
 6259SOL    HW230240   0.185   2.778   6.446  1.2411 -1.6007  0.9017
 6260SOL     OW30241   4.352   3.995   8.370 -0.4341  0.4536  0.1155
 6260SOL    HW130242   4.382   4.043   8.293 -1.7339  1.7747  0.4260
 6260SOL    HW230243   4.262   4.028   8.371  0.0415  1.7295  1.0373
 6261SOL     OW30244   1.373   2.940   8.929 -0.5070 -0.1362  1.0836
 6261SOL    HW130245   1.279   2.930   8.944 -0.4784 -0.5300  1.0041
 6261SOL    HW230246   1.371   3.007   8.860 -0.9896  1.8957  3.0771
 6262SOL     OW30247   3.372   1.470   3.538  0.3740 -0.2560  0.5533
 6262SOL    HW130248   3.456   1.516   3.532 -0.2249  0.7503 -0.1584
 6262SOL    HW230249   3.368   1.418   3.458 -0.6800  1.6115 -0.6170
 6263SOL     OW30250   0.384   1.215   8.870 -0.4555 -0.4047 -0.4574
 6263SOL    HW130251   0.350   1.155   8.937  1.1870 -0.4663  0.3170
 6263SOL    HW230252   0.331   1.294   8.878  0.2111 -0.1107  1.1665
 6264SOL     OW30253   0.428   0.539   5.711  0.2048 -0.1166 -0.2886
 6264SOL    HW130254   0.333   0.525   5.717  0.2783  0.0477  1.4123
 6264SOL    HW230255   0.455   0.453   5.744  1.3321 -0.0270 -1.0006
 6265SOL     OW30256   0.697   0.046   3.072 -0.1118  0.0421 -0.4055
 6265SOL    HW130257   0.704   0.139   3.049  0.9838 -0.2543 -1.2526
 6265SOL    HW230258   0.752   0.035   3.149  0.4402  0.3096 -0.7616
 6266SOL     OW30259   2.582   0.450   6.934  0.9198 -0.6097  0.1238
 6266SOL    HW130260   2.621   0.508   6.869 -0.7563  1.1561  0.6818
 6266SOL    HW230261   2.508   0.498   6.970 -1.1454 -2.5247 -1.4949
 6267SOL     OW30262   4.422   0.516  16.439  0.8386 -0.0555  0.0929
 6267SOL    HW130263   4.336   0.507  16.397  1.0326 -0.7095 -0.1690
 6267SOL    HW230264   4.456   0.432  16.407  2.5758  1.5428 -2.2801
 6268SOL     OW30265   1.255   3.008   5.231  0.1324  0.4696 -0.1238
 6268SOL    HW130266   1.270   3.093   5.272  3.3417  0.5845 -1.4694
 6268SOL    HW230267   1.333   2.997   5.177  0.8757  1.9113  0.6446
 6269SOL     OW30268   2.312   3.924   6.678 -0.6848  0.3170  0.1186
 6269SOL    HW130269   2.301   3.935   6.584  0.5383 -1.4212 -0.2148
 6269SOL    HW230270   2.237   3.867   6.695  1.3414 -2.7689 -1.2750
 6270SOL     OW30271   4.261   3.157  15.341  0.1744 -0.0533 -0.1667
 6270SOL    HW130272   4.294   3.172  15.252  1.4172 -2.6225 -0.1360
 6270SOL    HW230273   4.215   3.237  15.366  1.1231  0.4172  0.0895
 6271SOL     OW30274   0.726   4.501   6.051  0.0330 -0.5144 -0.5740
 6271SOL    HW130275   0.815   4.492   6.017  0.1211 -2.6207  0.1938
 6271SOL    HW230276   0.737   4.575   6.111  0.6457 -0.4974 -0.6981
 6272SOL     OW30277   4.702   4.570   6.063 -0.4010  0.5418 -0.2912
 6272SOL    HW130278   0.047   4.615   6.013 -0.6585  0.8359 -0.3750
 6272SOL    HW230279   0.017   4.482   6.064 -1.1147  0.2313 -0.9058
 6273SOL     OW30280   2.905   1.465  12.611 -0.2794 -0.1021 -0.0799
 6273SOL    HW130281   2.850   1.487  12.686  0.5059 -0.3704  0.5819
 6273SOL    HW230282   2.947   1.549  12.593  0.1515 -0.3628 -0.3087
 6274SOL     OW30283   2.291   2.389   1.891 -0.2712  0.4365  0.1716
 6274SOL    HW130284   2.369   2.439   1.868 -2.0388  1.9701 -2.5083
 6274SOL    HW230285   2.330   2.302   1.884 -2.3441 -0.3424 -1.6846
 6275SOL     OW30286   2.235   3.308   3.179  0.1674 -0.3135 -0.2882
 6275SOL    HW130287   2.232   3.303   3.083 -0.5728  1.0303 -0.3408
 6275SOL    HW230288   2.153   3.267   3.207  0.1340 -0.2089 -0.2323
 6276SOL     OW30289   1.518   2.095  13.819 -0.3591 -0.0426 -0.3272
 6276SOL    HW130290   1.472   2.155  13.761  0.5113 -0.2463 -1.2262
 6276SOL    HW230291   1.574   2.155  13.869 -0.5496 -0.0020 -0.1619
 6277SOL     OW30292   4.455   0.747   3.962  0.1516  0.1631  0.3694
 6277SOL    HW130293   4.441   0.841   3.956 -1.2264 -0.1384 -1.2019
 6277SOL    HW230294   4.428   0.714   3.877 -2.8353 -0.3213  1.5014
 6278SOL     OW30295   1.011   3.005  13.952 -0.2849 -0.3443 -0.1799
 6278SOL    HW130296   1.030   2.911  13.955 -0.8875 -0.3954  1.9552
 6278SOL    HW230297   1.056   3.033  14.032  0.9373 -2.3755 -0.1456
 6279SOL     OW30298   1.189   3.137   8.646  0.4655  0.3428  0.6350
 6279SOL    HW130299   1.278   3.108   8.623 -0.2408 -1.3644  0.0869
 6279SOL    HW230300   1.157   3.164   8.560  0.1270  0.9135  0.9378
 6280SOL     OW30301   4.178   0.163   0.733 -0.2049 -0.1486 -0.2406
 6280SOL    HW130302   4.187   0.258   0.742 -0.0135 -0.1414 -0.5377
 6280SOL    HW230303   4.146   0.134   0.818 -1.6758 -1.0831 -1.1072
 6281SOL     OW30304   0.972   4.293   7.209  1.2130 -0.4255 -0.1826
 6281SOL    HW130305   0.929   4.285   7.294 -3.3250  2.0873 -2.2818
 6281SOL    HW230306   1.061   4.314   7.236  0.4384  0.5108  1.6201
 6282SOL     OW30307   0.525   3.856   9.836  0.2076  0.0438  0.0860
 6282SOL    HW130308   0.484   3.897   9.912  0.7098  1.1067 -0.2237
 6282SOL    HW230309   0.495   3.765   9.831 -1.1824  0.3545  2.8835
 6283SOL     OW30310   1.491   4.692  10.118  0.1621  0.6391 -0.0530
 6283SOL    HW130311   1.489   0.017  10.200 -0.7783 -0.4559  0.5768
 6283SOL    HW230312   1.528   0.039  10.065  1.7617 -0.0804  0.1082
 6284SOL     OW30313   0.088   4.284  15.173 -0.2153 -0.6090 -0.1278
 6284SOL    HW130314   0.133   4.204  15.146  1.4494  0.0188  0.7622
 6284SOL    HW230315   0.024   4.285  15.102  0.5643 -0.8012 -0.8438
 6285SOL     OW30316   3.318   2.863   8.751 -0.0471  0.0219 -0.2473
 6285SOL    HW130317   3.241   2.813   8.777  0.2531  0.2796  1.1372
 6285SOL    HW230318   3.313   2.940   8.809 -0.2972  0.4808 -0.8725
 6286SOL     OW30319   1.395   2.698   2.116 -0.4925 -0.4997  0.1845
 6286SOL    HW130320   1.432   2.765   2.058 -0.3747  1.5869  2.6701
 6286SOL    HW230321   1.308   2.731   2.139 -0.3528  0.5307 -0.7717
 6287SOL     OW30322   3.052   2.615   9.399 -0.2540  0.0727  0.2959
 6287SOL    HW130323   3.067   2.626   9.493 -0.1176 -1.0082  0.3956
 6287SOL    HW230324   2.962   2.650   9.398 -0.1328  0.3289 -2.1182
 6288SOL     OW30325   4.046   4.218   4.713  0.1991  0.3658  0.7012
 6288SOL    HW130326   4.079   4.129   4.727  0.5657  0.5704  1.1214
 6288SOL    HW230327   4.123   4.270   4.734  0.3280  0.0412  1.0255
 6289SOL     OW30328   0.131   1.604  13.526 -0.0362  0.1215  0.0084
 6289SOL    HW130329   0.155   1.542  13.457  1.6914  0.4578  0.3190
 6289SOL    HW230330   0.102   1.672  13.465  0.1782 -0.9296 -1.2624
 6290SOL     OW30331   4.458   0.600   9.770  0.2213  0.5080  0.1747
 6290SOL    HW130332   4.408   0.618   9.850  0.4509 -1.4909  0.7617
 6290SOL    HW230333   4.424   0.513   9.753 -1.4715  1.3967 -0.9610
 6291SOL     OW30334   1.576   0.696  10.930 -0.0271  0.4303  0.1745
 6291SOL    HW130335   1.547   0.612  10.966  2.3849 -0.1247  0.8108
 6291SOL    HW230336   1.670   0.679  10.929  0.2384  1.9606 -1.0739
 6292SOL     OW30337   2.998   3.172  11.959  0.6839  0.3201  0.5065
 6292SOL    HW130338   3.083   3.215  11.970  0.9488 -0.4924  1.6217
 6292SOL    HW230339   2.943   3.236  12.004 -0.5318 -2.6602  3.2026
 6293SOL     OW30340   1.543   0.361   7.222 -0.6527  0.1049 -0.0649
 6293SOL    HW130341   1.534   0.365   7.318 -0.0989  0.0046 -0.0091
 6293SOL    HW230342   1.634   0.337   7.205 -0.3007  3.2250 -2.5943
 6294SOL     OW30343   0.566   1.837  16.111  0.0779  0.0372 -0.2324
 6294SOL    HW130344   0.545   1.917  16.063  3.0124  0.9073 -0.0417
 6294SOL    HW230345   0.533   1.772  16.049 -2.2951  1.1133 -0.1217
 6295SOL     OW30346   0.835   0.485   3.936  0.6742 -0.1475 -0.3930
 6295SOL    HW130347   0.841   0.528   3.850  2.0818  0.1718 -0.1289
 6295SOL    HW230348   0.909   0.426   3.923 -1.2975 -2.8859  0.8861
 6296SOL     OW30349   1.099   2.709  14.021  0.2994  0.2227 -0.7907
 6296SOL    HW130350   1.130   2.694  13.932 -0.8637 -0.7608 -1.0285
 6296SOL    HW230351   1.023   2.652  14.025 -0.6488  1.6682  1.6488
 6297SOL     OW30352   4.236   3.933   0.369 -0.0967 -0.1677 -0.3110
 6297SOL    HW130353   4.183   3.925   0.290  0.4900 -1.3170 -0.5865
 6297SOL    HW230354   4.181   3.980   0.431 -1.7272  0.0540 -1.9438
 6298SOL     OW30355   0.760   1.378   4.109 -0.2310 -0.0407  0.0121
 6298SOL    HW130356   0.683   1.381   4.165  0.6040 -1.0172  1.1990
 6298SOL    HW230357   0.723   1.428   4.035 -0.3986 -1.8899 -1.1634
 6299SOL     OW30358   3.428   4.091   0.443  0.6220  0.3715 -0.5082
 6299SOL    HW130359   3.477   4.035   0.503  0.1692  0.1597 -0.3378
 6299SOL    HW230360   3.417   4.029   0.371  0.3672 -0.4011  0.2106
 6300SOL     OW30361   2.520   0.915  14.307  0.1045 -0.3314 -0.3921
 6300SOL    HW130362   2.446   0.866  14.273  0.3583  0.2162 -1.7542
 6300SOL    HW230363   2.511   0.924  14.401 -0.7537 -0.0377 -0.5065
 6301SOL     OW30364   2.143   4.610  12.405  0.0947  0.2111 -0.2768
 6301SOL    HW130365   2.055   4.633  12.375  1.0253 -1.0693 -4.0599
 6301SOL    HW230366   2.194   4.690  12.393  0.3381  0.5307  2.8655
 6302SOL     OW30367   4.658   1.288   8.016  0.4862 -0.2871  0.0941
 6302SOL    HW130368   4.655   1.383   8.023 -2.6080 -0.4148  0.4286
 6302SOL    HW230369   0.011   1.295   7.958  1.7168  0.7853  1.8522
 6303SOL     OW30370   4.332   0.245   8.204 -0.6658  0.1888 -0.0278
 6303SOL    HW130371   4.395   0.315   8.184  0.3630 -0.5286  0.7434
 6303SOL    HW230372   4.266   0.299   8.248 -0.6689  0.3824 -0.2652
 6304SOL     OW30373   0.058   3.659   6.644  0.5219 -0.0552 -0.0119
 6304SOL    HW130374   0.011   3.596   6.589 -1.8345  0.7318  1.1183
 6304SOL    HW230375   0.143   3.656   6.600  0.3383  2.7061 -0.5766
 6305SOL     OW30376   1.533   1.794   8.895  0.7167 -0.3002  0.2042
 6305SOL    HW130377   1.515   1.779   8.802 -2.8191 -1.0784  0.9869
 6305SOL    HW230378   1.570   1.708   8.914  1.2634 -0.1942 -0.3918
 6306SOL     OW30379   0.219   2.947   2.084  0.1113 -0.2548  0.0893
 6306SOL    HW130380   0.176   3.025   2.049  0.8678 -0.1593 -0.6196
 6306SOL    HW230381   0.158   2.908   2.147  1.7493  0.1377  1.9266
 6307SOL     OW30382   4.415   4.243   5.749 -0.4538  0.1697 -0.4055
 6307SOL    HW130383   4.407   4.301   5.673  0.7201  0.1925 -0.5245
 6307SOL    HW230384   4.372   4.301   5.810  0.7725 -0.8683  1.4562
 6308SOL     OW30385   2.312   1.843   6.114  0.2297  0.7920  0.0233
 6308SOL    HW130386   2.253   1.894   6.169 -0.5249  0.8678 -0.8494
 6308SOL    HW230387   2.365   1.901   6.059  0.0286 -0.1047 -1.1202
 6309SOL     OW30388   4.547   4.569  15.281  0.5976 -0.2626 -0.2328
 6309SOL    HW130389   4.616   4.589  15.344 -0.1851  1.5045  0.0779
 6309SOL    HW230390   4.474   4.628  15.300 -1.1770 -3.3179  2.4366
 6310SOL     OW30391   1.279   4.221   5.856  0.2256  0.3254 -0.2330
 6310SOL    HW130392   1.249   4.138   5.818  0.0803  0.1953  0.1634
 6310SOL    HW230393   1.239   4.284   5.797  1.8588  2.8355  1.3558
 6311SOL     OW30394   3.971   3.679   6.327 -0.5699 -0.7495  0.5769
 6311SOL    HW130395   3.904   3.715   6.384  0.3589 -0.7120  1.6551
 6311SOL    HW230396   3.948   3.586   6.329 -1.9913 -0.3859  0.6292
 6312SOL     OW30397   0.738   2.925   4.096 -0.2522 -0.4745  0.1033
 6312SOL    HW130398   0.791   2.989   4.049 -0.3434 -0.4667  0.0112
 6312SOL    HW230399   0.775   2.932   4.184 -0.1256  1.3604 -0.0902
 6313SOL     OW30400   3.229   4.246  16.497 -0.3170 -0.2536 -0.1329
 6313SOL    HW130401   3.282   4.182  16.450 -2.1149 -1.1392 -0.9809
 6313SOL    HW230402   3.243   4.317  16.435  2.0491 -1.6158 -1.1415
 6314SOL     OW30403   3.803   0.503   6.632 -0.7082 -0.8211  0.3362
 6314SOL    HW130404   3.821   0.463   6.717 -1.1104 -1.2912  0.1981
 6314SOL    HW230405   3.874   0.472   6.576 -0.9612  0.2118 -0.5562
 6315SOL     OW30406   2.459   4.500   4.217 -0.6793  0.0076 -0.2473
 6315SOL    HW130407   2.515   4.546   4.281 -0.1502 -0.7389 -0.1780
 6315SOL    HW230408   2.502   4.517   4.133 -0.2511  1.1010  0.1813
 6316SOL     OW30409   1.429   4.515   6.168 -0.0451 -0.5017 -0.0929
 6316SOL    HW130410   1.383   4.576   6.226  1.2590  0.1494  0.2683
 6316SOL    HW230411   1.357   4.478   6.117  1.8667 -2.6781 -1.2214
 6317SOL     OW30412   1.916   2.684   1.645 -0.1888  0.3088  0.2538
 6317SOL    HW130413   1.983   2.753   1.637 -1.1347  0.9659 -1.7757
 6317SOL    HW230414   1.962   2.633   1.712  1.2886 -0.0403 -1.0163
 6318SOL     OW30415   3.640   0.975  17.571  0.0379 -0.0372  0.4440
 6318SOL    HW130416   3.706   0.907  17.581 -1.2002 -1.3510 -0.2840
 6318SOL    HW230417   3.682   1.050  17.611  0.3310 -0.0923  0.2360
 6319SOL     OW30418   3.769   3.273   9.142  0.5138  0.1636  0.0603
 6319SOL    HW130419   3.678   3.246   9.126 -0.1153  1.7453  1.0612
 6319SOL    HW230420   3.752   3.345   9.202  1.9659  1.4037 -1.0177
 6320SOL     OW30421   3.016   3.319  15.814 -0.6662  0.4877  0.3162
 6320SOL    HW130422   3.006   3.231  15.778  1.1634 -0.7751  2.9506
 6320SOL    HW230423   2.933   3.362  15.792 -0.7403  0.4409  0.5085
 6321SOL     OW30424   4.099   4.276   0.579  0.3141 -0.0684 -0.2511
 6321SOL    HW130425   4.057   4.362   0.582  0.2085 -0.1120 -0.5797
 6321SOL    HW230426   4.152   4.271   0.659  1.0226  1.4924 -0.6268
 6322SOL     OW30427   2.868   1.939   5.596 -0.8852 -0.2553 -0.4202
 6322SOL    HW130428   2.952   1.958   5.639  0.3497 -1.7689 -2.1424
 6322SOL    HW230429   2.857   2.016   5.540 -1.2456  1.2767  1.7675
 6323SOL     OW30430   0.462   0.233   1.720 -0.2824  0.2723 -0.2502
 6323SOL    HW130431   0.429   0.147   1.745  2.1395 -0.4598  0.3854
 6323SOL    HW230432   0.544   0.213   1.675  0.0059 -0.1985  0.4864
 6324SOL     OW30433   0.227   2.500   0.610  0.9265 -0.0811  0.3476
 6324SOL    HW130434   0.269   2.551   0.680  1.8030  0.0325 -0.2655
 6324SOL    HW230435   0.287   2.514   0.537  0.2100  2.1084  0.1785
 6325SOL     OW30436   3.784   3.526   6.811  0.3162 -0.9786  0.3385
 6325SOL    HW130437   3.734   3.449   6.842 -1.5644 -0.2758 -0.9388
 6325SOL    HW230438   3.718   3.591   6.834 -0.3217 -1.8846  1.1108
 6326SOL     OW30439   1.709   4.694  15.810  0.2077 -0.0264  0.0046
 6326SOL    HW130440   1.681   0.021  15.734 -2.1835 -1.7727 -0.2653
 6326SOL    HW230441   1.804   4.692  15.800  0.1746 -0.3314 -0.2619
 6327SOL     OW30442   1.648   3.393   1.171 -0.0294  0.3603  0.1654
 6327SOL    HW130443   1.642   3.417   1.264 -1.7872 -0.4001  0.2331
 6327SOL    HW230444   1.627   3.300   1.181  1.6646  0.0649  1.1551
 6328SOL     OW30445   2.420   3.957  16.325  0.6131  0.0196 -0.1399
 6328SOL    HW130446   2.469   3.902  16.385  1.7291  1.1401 -0.0270
 6328SOL    HW230447   2.437   3.909  16.244 -2.2975  0.3287 -0.9580
 6329SOL     OW30448   0.851   0.395  11.851 -0.3080  0.1373  0.0089
 6329SOL    HW130449   0.824   0.305  11.870  0.4422  0.2667  1.6720
 6329SOL    HW230450   0.889   0.419  11.936  2.0098  1.7023 -1.4581
 6330SOL     OW30451   1.389   0.039  12.177  0.3423 -0.1363 -0.2400
 6330SOL    HW130452   1.372   4.716  12.095 -0.5160  0.3262 -0.3212
 6330SOL    HW230453   1.455   0.105  12.154  1.3739 -0.8560  0.6675
 6331SOL     OW30454   2.932   3.080  16.265 -0.8389  0.1800  0.4125
 6331SOL    HW130455   2.923   2.996  16.219  1.0322 -1.2511  2.6818
 6331SOL    HW230456   2.951   3.149  16.202 -0.5988  0.3880  0.7135
 6332SOL     OW30457   3.814   2.836   2.402 -0.2484  0.3666 -0.4016
 6332SOL    HW130458   3.790   2.745   2.423 -1.1613  0.6736 -0.1202
 6332SOL    HW230459   3.875   2.857   2.473  2.8402 -2.2405 -2.3001
 6333SOL     OW30460   4.258   0.062  14.188  0.5851 -0.0095  0.7231
 6333SOL    HW130461   4.234   4.708  14.239 -0.1350 -1.1267 -1.3248
 6333SOL    HW230462   4.353   0.061  14.200  0.9118 -1.8228 -2.2918
 6334SOL     OW30463   2.818   3.213   5.886 -0.3138  0.0541 -0.9150
 6334SOL    HW130464   2.851   3.124   5.900 -0.1397  0.4178  0.9429
 6334SOL    HW230465   2.732   3.195   5.923 -0.3144  1.0306 -0.4611
 6335SOL     OW30466   1.015   1.394   3.973 -0.1370  0.0421 -0.2359
 6335SOL    HW130467   0.932   1.380   4.019  1.5245 -0.0245  2.7104
 6335SOL    HW230468   1.076   1.336   4.018  0.6994  1.2490  0.1914
 6336SOL     OW30469   4.568   2.756  15.478 -0.8989  0.2827  0.5821
 6336SOL    HW130470   4.589   2.673  15.435 -1.8099 -0.9695  2.5421
 6336SOL    HW230471   4.559   2.804  15.395 -3.1070 -4.3090 -1.8316
 6337SOL     OW30472   1.206   2.399  16.801 -0.2486  0.0219  0.1015
 6337SOL    HW130473   1.171   2.461  16.737  1.5300  0.0567 -0.8434
 6337SOL    HW230474   1.127   2.357  16.833 -0.5597 -0.5500 -1.3915
 6338SOL     OW30475   4.264   0.564   0.308  0.5105 -0.5261 -0.1147
 6338SOL    HW130476   4.261   0.604   0.394 -0.2797  1.5266 -1.0881
 6338SOL    HW230477   4.344   0.601   0.272 -0.1485 -0.4670 -1.5341
 6339SOL     OW30478   4.494   2.625   4.514 -0.6759 -0.5926  0.7699
 6339SOL    HW130479   4.419   2.609   4.457 -0.3589  0.1971  0.1366
 6339SOL    HW230480   4.528   2.697   4.461  0.9207 -1.4859  0.5742
 6340SOL     OW30481   3.822   0.569   7.977  0.0388 -0.7442  0.1385
 6340SOL    HW130482   3.909   0.593   8.008 -0.8129  1.2197  1.0372
 6340SOL    HW230483   3.827   0.474   7.991  1.1715 -0.8268 -0.8457
 6341SOL     OW30484   3.270   3.984   6.099 -0.3493  0.4031 -0.3081
 6341SOL    HW130485   3.266   4.057   6.161 -1.7539  0.3645 -0.3663
 6341SOL    HW230486   3.187   3.942   6.120  0.4638 -1.3387 -0.6101
 6342SOL     OW30487   2.275   2.495   4.434  0.8196  0.0512  0.0946
 6342SOL    HW130488   2.251   2.564   4.373  1.4661 -2.7051 -3.2461
 6342SOL    HW230489   2.334   2.539   4.496  1.0679  1.5415 -1.1991
 6343SOL     OW30490   0.309   2.751   4.966  0.3238  0.6097 -0.5032
 6343SOL    HW130491   0.401   2.757   4.940  0.0670 -2.1630 -2.0544
 6343SOL    HW230492   0.310   2.667   5.012  0.6142 -1.0501 -3.5301
 6344SOL     OW30493   0.694   1.331  11.368 -0.3354 -0.0137 -0.6317
 6344SOL    HW130494   0.775   1.283  11.350 -0.6314  0.4744 -3.2387
 6344SOL    HW230495   0.629   1.271  11.332  0.0753 -0.0248 -1.3677
 6345SOL     OW30496   1.472   3.025   2.249  0.3422 -0.5377 -0.1716
 6345SOL    HW130497   1.430   3.012   2.164  0.0909  1.1671 -0.3081
 6345SOL    HW230498   1.508   3.114   2.251 -2.6102  0.6722 -0.1923
 6346SOL     OW30499   4.602   0.489   6.489 -0.1638  0.3532 -1.2025
 6346SOL    HW130500   4.653   0.556   6.443  2.2610 -0.8540 -0.2507
 6346SOL    HW230501   4.542   0.546   6.538 -1.3485  0.5015 -2.8076
 6347SOL     OW30502   2.778   4.250   5.929 -0.0156  0.2235 -0.0215
 6347SOL    HW130503   2.837   4.216   5.996  0.1117 -0.2874 -0.3987
 6347SOL    HW230504   2.825   4.333   5.918 -0.4918  0.4170 -0.5985
 6348SOL     OW30505   1.228   3.220  10.443 -0.3489  0.5482 -0.0782
 6348SOL    HW130506   1.312   3.220  10.395  0.6943 -1.6402  1.7614
 6348SOL    HW230507   1.257   3.261  10.524  0.9524 -0.1900 -0.1594
 6349SOL     OW30508   1.974   2.038  10.123  0.1323  0.0093  0.3525
 6349SOL    HW130509   2.034   1.973  10.086 -0.0936  0.7237 -1.2454
 6349SOL    HW230510   2.022   2.119  10.108  2.2231 -1.1649  0.5856
 6350SOL     OW30511   1.148   1.796   6.012  0.1869  0.4770 -0.6014
 6350SOL    HW130512   1.061   1.773   6.046  1.4525 -2.1576  0.8305
 6350SOL    HW230513   1.184   1.708   6.000  0.7325  0.4854  0.9813
 6351SOL     OW30514   1.943   0.430   1.492 -0.0989  0.2553  0.0690
 6351SOL    HW130515   1.963   0.427   1.399  2.6562  1.4491  0.6211
 6351SOL    HW230516   2.028   0.417   1.535  0.2492  0.7130 -0.4818
 6352SOL     OW30517   2.594   0.424  10.137 -0.3858 -0.0398  0.2681
 6352SOL    HW130518   2.525   0.358  10.142 -0.2724  0.1365  4.0452
 6352SOL    HW230519   2.631   0.407  10.223  0.5998 -1.9420 -0.5320
 6353SOL     OW30520   0.215   2.298   3.619  0.1413 -0.3928  0.4162
 6353SOL    HW130521   0.224   2.203   3.605  1.2166 -0.2093 -0.1193
 6353SOL    HW230522   0.173   2.318   3.536 -1.0050 -1.0975  0.8290
 6354SOL     OW30523   1.670   4.648   6.117 -0.5625  0.1567  0.0887
 6354SOL    HW130524   1.680   4.680   6.207 -2.4342 -0.2211  0.4310
 6354SOL    HW230525   1.585   4.606   6.125 -1.5945  1.5594 -3.9287
 6355SOL     OW30526   3.672   1.328  13.639  0.7618 -0.3931 -0.6268
 6355SOL    HW130527   3.655   1.264  13.708 -1.1104  0.8592  0.0566
 6355SOL    HW230528   3.705   1.406  13.684 -0.7535  0.8319 -1.6558
 6356SOL     OW30529   1.909   3.536   7.293 -0.1752 -0.2279  0.6883
 6356SOL    HW130530   1.914   3.547   7.388 -0.6451 -1.3710  0.8455
 6356SOL    HW230531   1.996   3.502   7.273 -0.1199 -0.2229  0.9247
 6357SOL     OW30532   3.953   4.618  14.916 -0.4218 -0.1624 -0.5587
 6357SOL    HW130533   3.903   4.616  14.834 -0.1934 -0.9727 -0.6758
 6357SOL    HW230534   3.936   4.711  14.931  0.7369  0.0220 -0.3951
 6358SOL     OW30535   0.639   4.517   3.943 -0.3933  0.4855 -0.1356
 6358SOL    HW130536   0.729   4.536   3.968  0.9801 -0.8931 -3.9212
 6358SOL    HW230537   0.597   4.489   4.024  0.6798  0.9979  0.5999
 6359SOL     OW30538   2.328   1.219   5.814 -0.1264  0.2200 -0.4734
 6359SOL    HW130539   2.388   1.289   5.839  0.6678 -0.4765 -0.4384
 6359SOL    HW230540   2.349   1.154   5.881 -0.0762  0.0167 -0.6840
 6360SOL     OW30541   2.000   0.807   2.899  0.1768  0.0512  0.2897
 6360SOL    HW130542   2.080   0.783   2.853  1.3721  1.9032  1.4217
 6360SOL    HW230543   1.939   0.765   2.838  1.2533 -0.1776 -0.6226
 6361SOL     OW30544   1.981   3.797   3.068  0.5577  0.5460 -0.2389
 6361SOL    HW130545   2.049   3.734   3.093  0.9682  1.6654  1.5398
 6361SOL    HW230546   1.974   3.794   2.973  0.2287 -0.1280 -0.1875
 6362SOL     OW30547   3.977   4.526   4.360  0.0820 -0.1379  0.3652
 6362SOL    HW130548   3.969   4.613   4.319 -0.6366 -1.5831 -2.5348
 6362SOL    HW230549   3.973   4.485   4.274 -0.6492 -1.3245  0.9672
 6363SOL     OW30550   3.638   4.505  15.019  0.0102 -0.0952  0.0275
 6363SOL    HW130551   3.569   4.447  14.986 -2.6601  2.2185  1.5334
 6363SOL    HW230552   3.713   4.447  15.035 -1.3882 -1.0585  3.2105
 6364SOL     OW30553   1.232   2.431   2.107 -0.5741 -0.4148  0.1381
 6364SOL    HW130554   1.149   2.469   2.080  0.4912  0.3301 -2.1189
 6364SOL    HW230555   1.300   2.498   2.098  1.0730 -1.9193  1.3553
 6365SOL     OW30556   0.949   2.663   6.754  0.5155 -0.4299  0.3981
 6365SOL    HW130557   1.031   2.614   6.745  0.0544 -1.0491 -0.4334
 6365SOL    HW230558   0.884   2.608   6.710  1.1712  0.7678 -2.1036
 6366SOL     OW30559   0.715   2.429  14.972  0.7303 -0.1835 -0.1040
 6366SOL    HW130560   0.718   2.523  14.957  1.0674 -0.2813 -0.6310
 6366SOL    HW230561   0.620   2.413  14.973  0.6140  0.5502  0.5654
 6367SOL     OW30562   2.503   1.610   4.506 -0.0863  0.1494  0.5646
 6367SOL    HW130563   2.488   1.525   4.547 -2.7076  0.6402  0.5842
 6367SOL    HW230564   2.442   1.601   4.432  2.2291 -0.1949 -1.3262
 6368SOL     OW30565   3.629   0.311   1.912 -0.5824 -0.4050 -0.2138
 6368SOL    HW130566   3.640   0.321   2.007  1.2986 -1.7146 -0.2845
 6368SOL    HW230567   3.680   0.231   1.898 -2.2441 -1.4842 -0.0642
 6369SOL     OW30568   2.759   1.400   5.766  0.5220 -0.1230 -0.2845
 6369SOL    HW130569   2.770   1.389   5.861 -0.7756 -0.2716 -0.1493
 6369SOL    HW230570   2.724   1.489   5.772  2.0851  0.4882 -0.0439
 6370SOL     OW30571   2.729   1.498  12.846  0.9800 -0.2638 -0.2589
 6370SOL    HW130572   2.719   1.410  12.880 -0.2342 -0.0741 -0.1133
 6370SOL    HW230573   2.662   1.495  12.778 -0.4110 -0.4343  1.1247
 6371SOL     OW30574   2.426   4.627   7.448 -0.1777 -0.2319  0.1328
 6371SOL    HW130575   2.464   4.672   7.372 -2.3684  0.7249 -0.3896
 6371SOL    HW230576   2.501   4.592   7.495  0.0570  2.9480  2.0906
 6372SOL     OW30577   3.050   0.190   5.672  0.2014  0.1845 -0.0339
 6372SOL    HW130578   2.963   0.182   5.711  1.2867 -2.4626  1.8461
 6372SOL    HW230579   3.099   0.156   5.747  0.3600  1.0340  0.2545
 6373SOL     OW30580   0.668   0.227   6.690  0.0131  0.4141 -0.0691
 6373SOL    HW130581   0.751   0.237   6.643  0.5982 -2.1666  0.4243
 6373SOL    HW230582   0.646   0.319   6.675  1.0519  0.6673 -0.0205
 6374SOL     OW30583   0.110   4.636   6.720 -0.4218 -0.5458  0.2885
 6374SOL    HW130584   0.061   4.695   6.778  2.2437  0.1474  1.8302
 6374SOL    HW230585   0.140   4.694   6.651 -2.0489 -0.7860 -0.6291
 6375SOL     OW30586   0.182   4.074   6.354  0.3111  0.3516  0.6382
 6375SOL    HW130587   0.143   4.051   6.438  1.6104 -2.0164  0.5958
 6375SOL    HW230588   0.267   4.029   6.359 -2.7215 -5.3589  1.2463
 6376SOL     OW30589   4.498   2.763   3.687  0.2669  0.5631  0.3230
 6376SOL    HW130590   4.484   2.699   3.617 -0.0829 -0.6571  1.5154
 6376SOL    HW230591   4.427   2.827   3.678  1.7785  2.0702 -0.9865
 6377SOL     OW30592   4.621   4.334   2.438 -0.3735  0.4664 -0.1261
 6377SOL    HW130593   4.550   4.311   2.497 -1.5384  1.3914 -1.1651
 6377SOL    HW230594   4.668   4.389   2.502  1.0242 -0.9015  0.0180
 6378SOL     OW30595   3.890   1.628  15.221  0.1790  0.1623 -0.0751
 6378SOL    HW130596   3.985   1.628  15.213  0.3558 -1.2447  1.9969
 6378SOL    HW230597   3.868   1.615  15.128  0.6653  1.1713 -0.3341
 6379SOL     OW30598   0.099   3.539   4.557 -0.1445 -0.3428  0.3886
 6379SOL    HW130599   0.169   3.494   4.509  0.2000  0.5039  0.1026
 6379SOL    HW230600   0.087   3.621   4.510 -0.2910  0.0546  1.1304
 6380SOL     OW30601   0.502   2.576  13.872  0.5653  0.5098  0.5773
 6380SOL    HW130602   0.520   2.492  13.830  3.3967  0.8527  1.1104
 6380SOL    HW230603   0.461   2.551  13.954  1.0814 -1.3195  0.2730
 6381SOL     OW30604   3.539   4.530  11.753 -0.5319  0.3522  0.2960
 6381SOL    HW130605   3.620   4.557  11.796 -0.0237 -0.8308  0.0653
 6381SOL    HW230606   3.563   4.557  11.664  1.5960 -1.0607  0.4745
 6382SOL     OW30607   1.655   2.299  16.998 -0.2080 -0.1071 -0.3720
 6382SOL    HW130608   1.575   2.295  16.945 -0.8315 -3.2544  0.7767
 6382SOL    HW230609   1.710   2.256  16.932 -0.1089 -0.7800  0.1433
 6383SOL     OW30610   3.986   3.608   0.624 -0.6274  0.2263  0.1352
 6383SOL    HW130611   4.072   3.640   0.598  0.3136 -0.0346  2.9338
 6383SOL    HW230612   3.997   3.564   0.708  0.7209 -0.1960 -0.2539
 6384SOL     OW30613   4.673   4.433   3.906  0.0406 -0.5518  0.1372
 6384SOL    HW130614   0.041   4.461   3.904  0.5282 -2.1902  0.2284
 6384SOL    HW230615   4.621   4.509   3.878  1.5269  0.3154 -0.2752
 6385SOL     OW30616   3.613   2.466  15.803 -0.0251 -0.6598  0.5541
 6385SOL    HW130617   3.652   2.397  15.749 -0.1912 -0.7626  0.5633
 6385SOL    HW230618   3.602   2.405  15.876  0.3417 -0.3742  0.8478
 6386SOL     OW30619   1.653   1.590   0.536  0.1298 -0.1816 -0.2056
 6386SOL    HW130620   1.587   1.551   0.594  0.2997 -1.5444 -0.9476
 6386SOL    HW230621   1.724   1.569   0.597 -1.3866  1.4535  2.1053
 6387SOL     OW30622   3.399   2.063   4.946  0.0988 -0.2155 -0.5759
 6387SOL    HW130623   3.431   2.054   4.857 -1.1805 -2.7988 -0.7924
 6387SOL    HW230624   3.458   2.004   4.995 -0.0794 -0.7029 -0.9474
 6388SOL     OW30625   0.164   2.306  15.269 -0.4574  0.1851  0.0256
 6388SOL    HW130626   0.157   2.256  15.349  0.9560  0.9613  0.6407
 6388SOL    HW230627   0.255   2.287  15.245 -0.0351  1.2260  0.7832
 6389SOL     OW30628   3.746   3.911  12.320  0.5669 -0.1589 -0.1929
 6389SOL    HW130629   3.799   3.940  12.245  0.4221  1.9985  0.5493
 6389SOL    HW230630   3.658   3.901  12.284  0.5252  0.5769 -0.3011
 6390SOL     OW30631   1.286   1.559  11.001  0.5735  0.1024 -0.2802
 6390SOL    HW130632   1.253   1.600  11.081  0.2581 -1.6390  0.4722
 6390SOL    HW230633   1.378   1.586  10.999  1.3030 -2.2944  1.4459
 6391SOL     OW30634   0.928   3.904   4.378  0.1730 -0.4230 -0.1922
 6391SOL    HW130635   1.010   3.921   4.333  0.2604 -0.3437 -0.0008
 6391SOL    HW230636   0.956   3.821   4.417 -2.7113  0.0115  2.7333
 6392SOL     OW30637   1.214   2.903   4.452 -0.0912 -0.4370 -0.4551
 6392SOL    HW130638   1.181   2.831   4.398 -1.6732  0.7825 -1.1070
 6392SOL    HW230639   1.129   2.940   4.476 -0.5453 -0.8323 -1.4304
 6393SOL     OW30640   2.346   2.376   8.587 -0.6045  0.6011 -0.1358
 6393SOL    HW130641   2.426   2.422   8.562 -0.6673  1.0253  0.4260
 6393SOL    HW230642   2.303   2.373   8.502 -0.0975  3.1301 -0.4678
 6394SOL     OW30643   3.195   4.618  15.431 -0.1041  0.0799  0.1121
 6394SOL    HW130644   3.224   4.708  15.445 -0.3808  0.1704  0.1155
 6394SOL    HW230645   3.101   4.621  15.448 -0.1324  3.5127 -0.6872
 6395SOL     OW30646   2.438   1.156   4.224 -0.2839 -0.1502  0.0828
 6395SOL    HW130647   2.528   1.149   4.193 -0.5265  1.4524 -1.0195
 6395SOL    HW230648   2.451   1.194   4.311  0.7195  0.1625 -0.1951
 6396SOL     OW30649   0.252   4.241   5.885  0.1679 -0.3175  0.1532
 6396SOL    HW130650   0.335   4.266   5.844  0.5665 -2.0487 -0.1015
 6396SOL    HW230651   0.228   4.326   5.922  1.9971  1.5012 -2.8103
 6397SOL     OW30652   3.743   4.547   5.808  0.6402 -0.2628 -0.2231
 6397SOL    HW130653   3.652   4.575   5.811  0.0266 -2.3839  1.3358
 6397SOL    HW230654   3.759   4.556   5.714 -0.7523 -2.2755 -0.6537
 6398SOL     OW30655   2.279   0.736  10.240 -0.2886 -0.1738 -0.2644
 6398SOL    HW130656   2.207   0.751  10.179 -1.4679 -1.2671  0.8600
 6398SOL    HW230657   2.318   0.823  10.245  0.9972 -0.7148 -0.9260
 6399SOL     OW30658   1.651   2.498   4.793  0.2105  0.2562  0.2450
 6399SOL    HW130659   1.621   2.551   4.867  0.5684  1.3985 -0.4388
 6399SOL    HW230660   1.625   2.554   4.720 -2.0486 -2.0310 -0.6926
 6400SOL     OW30661   2.740   2.370   9.514 -0.2393 -0.2250 -0.1469
 6400SOL    HW130662   2.765   2.394   9.425  0.7447 -0.0902  0.1733
 6400SOL    HW230663   2.733   2.453   9.562 -0.4665 -1.0264  1.2000
 6401SOL     OW30664   0.521   3.740   3.424  0.2846  0.4271  0.4881
 6401SOL    HW130665   0.604   3.768   3.461  1.1878 -1.4577 -0.1221
 6401SOL    HW230666   0.496   3.820   3.378 -0.0328 -0.0054 -0.0967
 6402SOL     OW30667   2.104   2.093   2.105  0.3283 -0.0249 -0.2518
 6402SOL    HW130668   2.157   2.145   2.165  0.9982 -3.0542  1.7439
 6402SOL    HW230669   2.028   2.148   2.089  0.4114 -0.1499 -1.0979
 6403SOL     OW30670   3.609   3.243   3.804  0.2016 -0.2054 -0.0544
 6403SOL    HW130671   3.664   3.175   3.842  0.9585 -0.5640 -1.7820
 6403SOL    HW230672   3.568   3.281   3.882  1.0673 -2.9519  1.7091
 6404SOL     OW30673   3.116   1.558   4.196 -0.2863 -0.3700 -0.1007
 6404SOL    HW130674   3.179   1.628   4.212  0.8852 -1.4720  0.2084
 6404SOL    HW230675   3.168   1.531   4.119  0.1351  1.2953 -0.3935
 6405SOL     OW30676   0.138   3.387   5.567 -0.1384 -0.1418 -0.1739
 6405SOL    HW130677   0.087   3.333   5.628  1.4686  1.7279  2.8168
 6405SOL    HW230678   0.064   3.417   5.513  0.4266  0.7481 -0.4556
 6406SOL     OW30679   1.002   3.143   5.378 -0.0836 -0.1540  0.1081
 6406SOL    HW130680   1.032   3.136   5.468  0.2624 -2.3394 -0.1861
 6406SOL    HW230681   1.066   3.208   5.348  1.9006 -1.4986  1.4318
 6407SOL     OW30682   1.499   3.107  15.014 -0.1320  0.6619  0.2112
 6407SOL    HW130683   1.499   3.011  15.007  1.6594  0.7000 -0.4631
 6407SOL    HW230684   1.535   3.116  15.102 -1.5000 -0.2768  0.8595
 6408SOL     OW30685   1.226   1.094  13.893  0.0275  0.5529 -0.0602
 6408SOL    HW130686   1.219   1.159  13.824  0.0334  1.9729  1.2782
 6408SOL    HW230687   1.298   1.136  13.940  0.6568 -2.0882  1.3393
 6409SOL     OW30688   2.757   2.631  16.945  0.7235  0.5005 -0.3910
 6409SOL    HW130689   2.665   2.626  16.970  0.9087  0.0261  0.2038
 6409SOL    HW230690   2.803   2.593  17.020 -0.1276  2.3730  1.0861
 6410SOL     OW30691   0.795   4.328   9.713  0.5484 -0.1353 -0.9128
 6410SOL    HW130692   0.869   4.383   9.738 -2.2672  2.8521  0.8698
 6410SOL    HW230693   0.737   4.372   9.775  0.8683 -0.0012 -0.7090
 6411SOL     OW30694   0.621   3.825  16.988  0.1105  0.2699 -0.5217
 6411SOL    HW130695   0.581   3.873  16.915  1.2249  0.5357 -0.9616
 6411SOL    HW230696   0.540   3.843  17.036  0.0022 -2.0170  0.1349
 6412SOL     OW30697   4.328   0.694  10.013  0.3772  0.2375  0.6770
 6412SOL    HW130698   4.411   0.738  10.034  1.2377 -1.2571  0.4503
 6412SOL    HW230699   4.272   0.761   9.973 -0.4228 -0.4313  0.6897
 6413SOL     OW30700   3.157   4.076   8.234  0.0807 -0.0442 -0.0545
 6413SOL    HW130701   3.216   4.147   8.208  1.3109 -0.8729  0.4869
 6413SOL    HW230702   3.146   4.035   8.148 -0.2870  2.5465 -1.2601
 6414SOL     OW30703   4.495   3.014   7.351  0.1599  0.0251 -0.0685
 6414SOL    HW130704   4.495   3.021   7.446 -3.7542  0.8528 -0.1259
 6414SOL    HW230705   4.566   2.952   7.336  0.1461 -0.1542  0.6342
 6415SOL     OW30706   4.152   3.957  10.030  0.2390 -0.2030 -0.3087
 6415SOL    HW130707   4.165   4.025   9.964  0.1223  0.2483  0.1321
 6415SOL    HW230708   4.060   3.936  10.014  0.3453  0.2975 -1.5626
 6416SOL     OW30709   1.022   0.245   3.009  0.1445 -0.4739 -0.2981
 6416SOL    HW130710   1.070   0.164   2.991 -1.8136 -1.6535 -0.2017
 6416SOL    HW230711   1.042   0.287   2.926 -3.0177 -0.0931 -0.8648
 6417SOL     OW30712   3.454   2.949   4.175 -0.3160 -0.6719 -0.7873
 6417SOL    HW130713   3.425   3.032   4.137 -2.0889 -1.3248 -0.8569
 6417SOL    HW230714   3.367   2.915   4.197 -0.6607  0.7834  0.0734
 6418SOL     OW30715   4.713   4.671   2.887 -0.2959 -0.4144  0.4954
 6418SOL    HW130716   4.684   0.039   2.890 -0.9841 -0.6028 -0.5295
 6418SOL    HW230717   0.029   4.662   2.974 -1.1103  0.7201  0.9884
 6419SOL     OW30718   0.080   1.175   4.163  0.2428  0.3155 -0.2403
 6419SOL    HW130719   0.164   1.130   4.168 -0.6908 -1.6123 -1.8056
 6419SOL    HW230720   0.017   1.105   4.148  0.4051  0.1332 -0.0798
 6420SOL     OW30721   4.038   4.023   3.382 -0.3565 -0.3690  0.0292
 6420SOL    HW130722   4.122   4.027   3.336  0.6578 -0.3951  1.8570
 6420SOL    HW230723   4.054   4.065   3.467  1.1079 -0.6181 -0.1295
 6421SOL     OW30724   2.653   2.692   9.290 -0.9168 -0.8588 -0.7441
 6421SOL    HW130725   2.696   2.634   9.227  0.8173 -0.4651  0.0774
 6421SOL    HW230726   2.720   2.687   9.359 -1.5416  1.1597 -0.0066
 6422SOL     OW30727   2.479   1.550   7.946  0.1973 -0.1697 -0.2000
 6422SOL    HW130728   2.438   1.635   7.960 -1.8600 -0.8697 -1.9656
 6422SOL    HW230729   2.572   1.571   7.952  0.0317  0.4684  0.1141
 6423SOL     OW30730   1.602   3.512  10.818  0.3548  0.3790  0.0619
 6423SOL    HW130731   1.531   3.531  10.757 -1.7668  0.6099  2.6449
 6423SOL    HW230732   1.679   3.556  10.782 -0.2771  0.5998 -1.0391
 6424SOL     OW30733   1.021   0.320   4.601 -0.1853  0.1121  0.8473
 6424SOL    HW130734   1.073   0.293   4.525 -1.1014  0.4681  0.1014
 6424SOL    HW230735   1.076   0.381   4.651  0.6904  0.5623 -0.6571
 6425SOL     OW30736   1.007   3.341   0.979 -0.7283  0.0964  0.4892
 6425SOL    HW130737   1.044   3.423   1.013 -1.1282 -0.2277  1.7197
 6425SOL    HW230738   0.991   3.306   1.067  0.0830 -0.0891  0.5576
 6426SOL     OW30739   1.508   2.242   3.173 -0.1402  0.1087  0.5945
 6426SOL    HW130740   1.534   2.333   3.159  2.5403 -0.7500  0.1658
 6426SOL    HW230741   1.514   2.201   3.087 -0.3777  1.1020  0.1029
 6427SOL     OW30742   1.256   1.781  12.067  0.0976  0.2313 -0.3531
 6427SOL    HW130743   1.209   1.865  12.060 -0.2616  0.0156 -0.5482
 6427SOL    HW230744   1.346   1.812  12.066  0.5796 -1.1842 -0.1291
 6428SOL     OW30745   4.249   2.201   6.467 -0.0900  0.3308 -0.1503
 6428SOL    HW130746   4.257   2.279   6.521 -0.0012  1.6810 -2.1218
 6428SOL    HW230747   4.333   2.192   6.422 -2.2260  1.8118 -4.4351
 6429SOL     OW30748   1.956   3.084   4.213 -0.0054 -0.3185  0.2488
 6429SOL    HW130749   2.019   3.155   4.223  0.0060  0.1092 -2.8772
 6429SOL    HW230750   1.995   3.035   4.140 -2.3442  0.8872 -1.8257
 6430SOL     OW30751   3.359   0.415   0.196 -0.1139 -0.0866  0.9278
 6430SOL    HW130752   3.367   0.320   0.196  0.9645  0.0183 -1.0109
 6430SOL    HW230753   3.395   0.444   0.280  1.1077 -0.9188  0.6924
 6431SOL     OW30754   2.476   1.459  15.430 -0.3061  0.6361 -0.1469
 6431SOL    HW130755   2.447   1.484  15.342  1.0668  0.2585 -0.6969
 6431SOL    HW230756   2.394   1.412  15.444 -0.6995  1.5292  0.5323
 6432SOL     OW30757   1.494   1.549   2.738  0.6186  0.6731  0.3211
 6432SOL    HW130758   1.434   1.537   2.664  1.2772  1.2281 -0.3052
 6432SOL    HW230759   1.567   1.497   2.706 -0.2612 -1.1946  1.3824
 6433SOL     OW30760   0.724   4.350   9.080  0.4758 -0.3175  0.0366
 6433SOL    HW130761   0.708   4.256   9.085 -0.8802 -0.0187  1.2933
 6433SOL    HW230762   0.686   4.373   9.164 -0.3772 -0.9851 -0.1697
 6434SOL     OW30763   3.150   2.884   1.867 -0.1568 -0.9201 -0.5543
 6434SOL    HW130764   3.081   2.880   1.801 -0.3800 -2.1830 -0.2408
 6434SOL    HW230765   3.220   2.852   1.810 -1.6741 -1.0670 -2.3413
 6435SOL     OW30766   1.475   2.221   7.339 -0.4343  0.6206 -0.6282
 6435SOL    HW130767   1.493   2.309   7.371  0.9052  0.1416 -0.0764
 6435SOL    HW230768   1.541   2.208   7.271  0.8517  1.7303  0.3962
 6436SOL     OW30769   0.829   1.463   4.718 -0.5791 -0.3030 -0.1123
 6436SOL    HW130770   0.829   1.435   4.810  1.8429 -0.8024 -0.2671
 6436SOL    HW230771   0.913   1.510   4.721 -0.1987 -0.8952 -1.3813
 6437SOL     OW30772   0.604   1.508   4.587  0.3335  0.1673  0.0726
 6437SOL    HW130773   0.609   1.569   4.513  1.3151 -1.2771 -1.0639
 6437SOL    HW230774   0.697   1.494   4.604  0.4317  3.6185  2.1694
 6438SOL     OW30775   1.098   0.949   2.721  0.3735  0.1204  0.0349
 6438SOL    HW130776   1.141   0.902   2.648  0.8470  1.2157 -0.3865
 6438SOL    HW230777   1.152   1.028   2.724  0.3872  0.1163 -0.0796
 6439SOL     OW30778   2.130   2.245   4.052  0.5476 -0.0373 -0.1185
 6439SOL    HW130779   2.088   2.304   4.115 -0.7696 -0.5083 -0.5730
 6439SOL    HW230780   2.222   2.256   4.077  0.8633 -1.3809 -0.6979
 6440SOL     OW30781   3.277   3.751   0.640 -0.2219  0.6772 -0.0178
 6440SOL    HW130782   3.306   3.663   0.615  0.6866  0.5046  1.6123
 6440SOL    HW230783   3.216   3.726   0.709 -1.3920  2.2209 -0.5060
 6441SOL     OW30784   4.557   4.052   8.539 -0.1181 -0.0814  0.4092
 6441SOL    HW130785   4.539   4.029   8.630  0.6894  1.4214  0.9496
 6441SOL    HW230786   4.473   4.041   8.494 -2.0854  1.4914  3.7276
 6442SOL     OW30787   4.557   1.900  15.840  0.4402 -0.4636  0.6240
 6442SOL    HW130788   4.491   1.831  15.845 -0.4171  0.2035 -1.6956
 6442SOL    HW230789   4.597   1.884  15.925  0.8962 -0.6433  0.3746
 6443SOL     OW30790   4.420   1.969   8.738 -0.1628  0.1386  0.2029
 6443SOL    HW130791   4.504   1.994   8.775  0.7438 -0.4209 -1.5034
 6443SOL    HW230792   4.388   2.051   8.699  0.7529  1.3912  2.0532
 6444SOL     OW30793   4.624   0.759  15.786  0.0271  0.4067 -0.5971
 6444SOL    HW130794   4.549   0.793  15.736 -0.8167 -0.7827 -0.1435
 6444SOL    HW230795   4.687   0.830  15.794  0.2128 -0.0021  1.4959
 6445SOL     OW30796   0.864   0.220   8.410 -0.0372  0.2277 -0.8657
 6445SOL    HW130797   0.951   0.218   8.370  0.2185  2.4902 -0.4050
 6445SOL    HW230798   0.853   0.132   8.445 -0.0990  0.4978 -0.2194
 6446SOL     OW30799   3.122   2.126  11.730  0.1796 -0.0278  0.0348
 6446SOL    HW130800   3.156   2.202  11.778 -2.9788  0.7264  1.1137
 6446SOL    HW230801   3.153   2.061  11.792 -1.1295  1.2128  1.9890
 6447SOL     OW30802   0.675   4.135   0.632  0.1326 -0.0504  0.0539
 6447SOL    HW130803   0.648   4.046   0.657 -1.3483  0.7259  1.1890
 6447SOL    HW230804   0.674   4.127   0.537 -0.1162 -1.1226  0.1466
 6448SOL     OW30805   2.634   2.793   2.472 -0.7750 -0.3148  0.2218
 6448SOL    HW130806   2.729   2.780   2.466 -0.7653 -0.5567  0.8402
 6448SOL    HW230807   2.620   2.833   2.386  3.3515 -0.2127 -0.3998
 6449SOL     OW30808   3.606   2.212  11.440  0.3524 -0.1379 -0.2852
 6449SOL    HW130809   3.617   2.125  11.478 -0.5924 -0.2068 -0.1693
 6449SOL    HW230810   3.660   2.271  11.493  2.3312 -1.8986 -0.3430
 6450SOL     OW30811   4.103   1.668   7.338  0.2621 -0.1380 -0.3177
 6450SOL    HW130812   4.144   1.605   7.279 -0.8726  0.2712 -1.5572
 6450SOL    HW230813   4.174   1.694   7.396 -0.9394  1.0374  0.6251
 6451SOL     OW30814   0.172   1.718   4.498  0.2276  0.5431 -0.3280
 6451SOL    HW130815   0.149   1.648   4.437 -0.2217 -0.5667  1.1005
 6451SOL    HW230816   0.225   1.777   4.445 -0.7989  0.6991 -1.1872
 6452SOL     OW30817   2.889   1.898   6.269  0.0537  0.0205  0.0094
 6452SOL    HW130818   2.909   1.837   6.198 -0.5574  0.1578 -0.2857
 6452SOL    HW230819   2.948   1.872   6.338  0.4723  1.8784  0.3590
 6453SOL     OW30820   3.031   0.427   7.554 -0.4009 -0.0891 -0.2299
 6453SOL    HW130821   3.074   0.509   7.577 -1.7156  0.3480  0.6628
 6453SOL    HW230822   3.067   0.362   7.613  0.4026 -0.4419 -1.1095
 6454SOL     OW30823   0.350   2.446   4.743 -0.1324 -0.1236  0.5141
 6454SOL    HW130824   0.321   2.448   4.652  2.9322  0.0446 -0.4365
 6454SOL    HW230825   0.277   2.484   4.793  1.2583  0.1067  2.4087
 6455SOL     OW30826   2.430   2.781  14.869  0.0242 -0.3082 -0.3520
 6455SOL    HW130827   2.519   2.794  14.837  0.5871  1.5130  1.9355
 6455SOL    HW230828   2.395   2.870  14.855 -0.8572 -0.6673 -0.4533
 6456SOL     OW30829   2.354   2.661   6.164  0.5235 -0.1228 -0.3177
 6456SOL    HW130830   2.265   2.672   6.130  0.4609  0.9820  0.1935
 6456SOL    HW230831   2.336   2.664   6.258 -0.2615 -2.3434 -0.3943
 6457SOL     OW30832   4.187   2.427   8.127 -0.0142  0.4565  0.8814
 6457SOL    HW130833   4.202   2.345   8.175 -0.7571 -1.1307 -1.5647
 6457SOL    HW230834   4.244   2.418   8.051 -1.8942  0.0900 -0.4728
 6458SOL     OW30835   1.662   2.454   0.513  0.3830  0.0670 -0.0234
 6458SOL    HW130836   1.616   2.408   0.443  0.9049 -1.1859  0.4550
 6458SOL    HW230837   1.669   2.377   0.569  1.1450 -0.2294 -0.5271
 6459SOL     OW30838   1.267   2.383   2.942  0.3043  0.0961 -0.6638
 6459SOL    HW130839   1.298   2.402   2.854 -3.0830  4.5264 -0.9358
 6459SOL    HW230840   1.233   2.294   2.933  1.6457 -0.4767 -0.0132
 6460SOL     OW30841   4.300   0.168  10.803  0.5918  0.1154 -0.0874
 6460SOL    HW130842   4.360   0.241  10.787 -0.1988  0.9745  0.9008
 6460SOL    HW230843   4.212   0.204  10.789  0.5235 -0.4111 -1.0281
 6461SOL     OW30844   2.905   0.758   7.544 -0.3914 -0.2224  0.9775
 6461SOL    HW130845   2.890   0.759   7.638 -0.6523  1.2039  0.9223
 6461SOL    HW230846   2.996   0.730   7.547 -0.8157 -1.5372  1.3950
 6462SOL     OW30847   3.286   2.337   2.855 -0.0048  0.3067 -0.4733
 6462SOL    HW130848   3.318   2.251   2.829  1.6910  0.7702  0.0760
 6462SOL    HW230849   3.250   2.368   2.772  1.4197 -0.2816 -1.3241
 6463SOL     OW30850   1.478   3.076   3.940 -0.0652 -0.2842  0.1954
 6463SOL    HW130851   1.428   3.094   4.021  2.0037 -0.8444  1.5958
 6463SOL    HW230852   1.408   3.030   3.894  2.2196 -1.4334 -2.1285
 6464SOL     OW30853   1.654   0.257   9.740 -0.7455  0.3298  0.5068
 6464SOL    HW130854   1.630   0.298   9.657 -0.8674  1.0290  0.8882
 6464SOL    HW230855   1.739   0.285   9.774  0.0331  1.8528 -2.8124
 6465SOL     OW30856   1.296   1.976   5.697  0.3429 -0.1641 -0.1145
 6465SOL    HW130857   1.388   1.969   5.722  0.4497  1.4382 -0.0931
 6465SOL    HW230858   1.276   1.891   5.657 -3.8900  1.1596 -0.7640
 6466SOL     OW30859   1.086   3.165   0.785  0.2584 -0.0744  0.5231
 6466SOL    HW130860   1.002   3.177   0.740  0.8845  1.1682 -0.3163
 6466SOL    HW230861   1.084   3.248   0.833 -2.4005 -0.1334  0.5345
 6467SOL     OW30862   3.437   1.248   2.262  0.0078 -0.7580  0.0655
 6467SOL    HW130863   3.395   1.326   2.227  0.7278 -0.8674 -1.0557
 6467SOL    HW230864   3.515   1.291   2.296 -1.5781  1.0349  1.4790
 6468SOL     OW30865   4.090   1.159   7.767  0.3002  0.3873 -0.0444
 6468SOL    HW130866   4.081   1.104   7.845  0.7003 -1.8882 -1.6185
 6468SOL    HW230867   4.103   1.246   7.804 -0.2230  0.5513 -0.2431
 6469SOL     OW30868   1.259   4.065   9.208  0.0859 -0.2062  0.2063
 6469SOL    HW130869   1.203   4.139   9.185  0.2863  0.6630  2.5863
 6469SOL    HW230870   1.191   3.999   9.222 -2.1347  2.1049  0.4312
 6470SOL     OW30871   4.157   3.885   2.238 -0.1968  0.0516  0.3296
 6470SOL    HW130872   4.235   3.876   2.293 -0.3670  4.3332  1.2732
 6470SOL    HW230873   4.083   3.847   2.286  0.5212 -0.9424  0.6526
 6471SOL     OW30874   4.261   4.625  17.495  0.4299 -0.3754 -0.2110
 6471SOL    HW130875   4.263   4.531  17.516 -1.3848 -0.2653  0.4509
 6471SOL    HW230876   4.165   4.629  17.496  0.5552  2.1904  0.7971
 6472SOL     OW30877   2.392   3.685  15.910 -0.4959 -0.2075 -0.3957
 6472SOL    HW130878   2.423   3.742  15.981 -0.2096 -1.8311  0.7972
 6472SOL    HW230879   2.303   3.719  15.898 -1.6683 -3.6074 -1.1012
 6473SOL     OW30880   4.560   1.597   9.729  0.6026 -0.4011  0.0983
 6473SOL    HW130881   4.507   1.529   9.769 -1.2943  1.2458  0.4003
 6473SOL    HW230882   4.639   1.548   9.704  0.8581 -0.2581  0.6248
 6474SOL     OW30883   2.640   0.330   8.484  0.6182  0.0418  0.5126
 6474SOL    HW130884   2.664   0.396   8.550  0.5314  0.3685  0.2206
 6474SOL    HW230885   2.621   0.249   8.531 -2.0145 -0.7422 -1.8959
 6475SOL     OW30886   4.547   3.340   2.205  0.8293 -0.3663  0.0547
 6475SOL    HW130887   4.462   3.320   2.246  1.7347 -0.5372  1.8508
 6475SOL    HW230888   4.523   3.326   2.113 -0.5072  0.9091  0.2119
 6476SOL     OW30889   4.186   0.361   2.303  0.2799  0.4710  0.3848
 6476SOL    HW130890   4.209   0.399   2.218 -1.1948  0.9143  0.1829
 6476SOL    HW230891   4.092   0.378   2.297  0.7057  2.1963 -1.3694
 6477SOL     OW30892   2.226   4.478   2.174  0.3181  0.0162  0.0606
 6477SOL    HW130893   2.205   4.560   2.217 -1.7856 -1.4686  1.8864
 6477SOL    HW230894   2.139   4.462   2.135  0.6618  1.6197 -1.3666
 6478SOL     OW30895   3.821   2.718  16.387  0.0162 -0.4242  0.5727
 6478SOL    HW130896   3.842   2.768  16.465 -1.0841 -0.9161  1.1845
 6478SOL    HW230897   3.862   2.633  16.405 -0.8557 -0.8974  0.3353
 6479SOL     OW30898   1.538   3.462   8.803  0.3606 -0.4817 -0.1445
 6479SOL    HW130899   1.505   3.376   8.779 -2.3089  1.3630 -3.2310
 6479SOL    HW230900   1.525   3.503   8.717 -0.9772  2.8031  1.5985
 6480SOL     OW30901   0.342   2.298   0.383  0.2085 -0.1328  0.1511
 6480SOL    HW130902   0.305   2.210   0.390 -1.9767  0.7620 -0.4357
 6480SOL    HW230903   0.281   2.343   0.324 -2.2219 -0.5092  2.3881
 6481SOL     OW30904   3.731   2.995   7.358 -0.2565 -0.6627 -0.6324
 6481SOL    HW130905   3.689   3.069   7.403  2.4855  0.1762  0.5829
 6481SOL    HW230906   3.819   3.029   7.376 -1.2303  2.3007 -1.3989
 6482SOL     OW30907   2.657   3.946   6.429  0.1835 -0.0210  0.2063
 6482SOL    HW130908   2.630   3.856   6.409 -0.1066  0.6227 -2.2875
 6482SOL    HW230909   2.745   3.948   6.390  0.0379  0.8492 -0.0806
 6483SOL     OW30910   0.259   2.747  13.064  0.1884  0.8977  0.3122
 6483SOL    HW130911   0.282   2.679  13.001  0.0916  0.0971  1.1379
 6483SOL    HW230912   0.241   2.824  13.010  2.8860  0.9698 -0.4793
 6484SOL     OW30913   1.867   0.853   2.433 -0.1927 -0.6223  0.0136
 6484SOL    HW130914   1.934   0.870   2.367 -0.9681  1.1842 -0.2877
 6484SOL    HW230915   1.928   0.843   2.507  0.9699  1.0186 -0.7294
 6485SOL     OW30916   3.923   0.182   9.065  0.1107 -0.0298 -0.1353
 6485SOL    HW130917   3.879   0.102   9.035  0.4048  1.0824 -3.5907
 6485SOL    HW230918   4.002   0.146   9.104  0.5206 -1.1727 -2.0062
 6486SOL     OW30919   0.661   1.662  14.389  0.0915  0.5458  0.3735
 6486SOL    HW130920   0.738   1.694  14.438  2.4275 -2.5866 -1.2697
 6486SOL    HW230921   0.599   1.652  14.461  0.6581  0.8870  0.9147
 6487SOL     OW30922   4.141   3.332   1.546  0.0576  0.2163  0.1056
 6487SOL    HW130923   4.218   3.380   1.579  0.2065 -1.1033  1.7193
 6487SOL    HW230924   4.132   3.269   1.619 -2.5306 -1.4123 -1.6293
 6488SOL     OW30925   3.998   0.701   3.345  0.2237 -0.1013 -0.4047
 6488SOL    HW130926   3.925   0.645   3.318 -1.3017  2.6536 -2.0340
 6488SOL    HW230927   3.999   0.755   3.265  1.6865  0.4749  0.0007
 6489SOL     OW30928   3.497   4.596   8.934 -0.0725  0.4362  0.1947
 6489SOL    HW130929   3.517   4.556   8.849  1.6188  1.3096  0.1813
 6489SOL    HW230930   3.405   4.570   8.945  0.6290 -2.3934 -0.8008
 6490SOL     OW30931   1.502   0.801   1.932 -0.0530 -0.1664  0.0621
 6490SOL    HW130932   1.513   0.849   2.014  1.3980  0.3148 -0.4170
 6490SOL    HW230933   1.406   0.807   1.924  0.1814  3.0174 -0.4429
 6491SOL     OW30934   3.981   2.685   6.062 -0.4920  0.2469 -0.6262
 6491SOL    HW130935   3.973   2.736   6.142  2.2300 -1.6868  0.8772
 6491SOL    HW230936   4.061   2.722   6.024 -0.3583  1.5178  0.9117
 6492SOL     OW30937   1.549   4.129  13.649 -0.7513  0.0614 -0.1515
 6492SOL    HW130938   1.558   4.038  13.675 -1.1076 -0.4544 -1.8792
 6492SOL    HW230939   1.596   4.127  13.565  1.8790 -0.5062  1.3218
 6493SOL     OW30940   4.020   0.325   6.573 -0.5760 -0.0111  0.0636
 6493SOL    HW130941   4.005   0.298   6.663 -0.8558 -1.0626 -0.3045
 6493SOL    HW230942   4.086   0.394   6.582 -0.6724  0.1902 -0.7213
 6494SOL     OW30943   3.499   0.437   3.706 -0.4011 -0.0184  0.5287
 6494SOL    HW130944   3.495   0.384   3.627 -0.2241  1.4910 -0.4895
 6494SOL    HW230945   3.476   0.526   3.679  0.2454  0.3635  1.2171
 6495SOL     OW30946   1.435   0.083   3.531 -0.2301  0.4162  0.1216
 6495SOL    HW130947   1.420   0.032   3.452 -0.7463 -0.1363  0.5773
 6495SOL    HW230948   1.451   0.170   3.494  1.3809  0.0975  0.1111
 6496SOL     OW30949   0.101   0.140   7.514  0.0915  0.3863  0.3783
 6496SOL    HW130950   0.111   0.194   7.593 -1.8221 -2.9752  2.9429
 6496SOL    HW230951   0.020   0.099   7.545  1.1003 -0.8222  1.4036
 6497SOL     OW30952   4.012   3.210   9.306 -0.3837 -0.4403 -0.1672
 6497SOL    HW130953   3.926   3.248   9.290  0.4076  1.0769 -0.7595
 6497SOL    HW230954   3.992   3.145   9.373  0.1410 -0.2410  0.1829
 6498SOL     OW30955   1.403   3.880   2.938 -0.3934 -0.6278 -0.0575
 6498SOL    HW130956   1.340   3.891   2.867 -0.2557  0.9191  0.0681
 6498SOL    HW230957   1.470   3.838   2.884 -0.0758 -0.0254 -0.1269
 6499SOL     OW30958   4.449   2.740  12.911 -0.6771 -0.1970  0.5812
 6499SOL    HW130959   4.441   2.647  12.893  1.8340 -0.5799  1.4626
 6499SOL    HW230960   4.480   2.774  12.827  0.8798 -3.3471 -0.0990
 6500SOL     OW30961   0.684   2.211   5.442 -0.6488  0.1672 -0.0249
 6500SOL    HW130962   0.754   2.234   5.503  0.8343  1.2228 -2.1018
 6500SOL    HW230963   0.706   2.125   5.406  2.2043 -0.2032  2.6203
 6501SOL     OW30964   2.653   3.906   8.338 -0.0860  0.0163 -0.0448
 6501SOL    HW130965   2.675   3.835   8.398  0.7454  0.6452  0.3871
 6501SOL    HW230966   2.731   3.960   8.349  1.8314 -2.4009 -1.8696
 6502SOL     OW30967   2.601   3.979   5.662 -0.0152 -0.6779  0.0173
 6502SOL    HW130968   2.602   3.904   5.602 -2.5892 -0.3026 -0.4716
 6502SOL    HW230969   2.507   3.983   5.677  0.2306  1.3823  1.0485
 6503SOL     OW30970   0.123   1.461  11.576 -0.3301 -0.7398  0.4155
 6503SOL    HW130971   0.072   1.540  11.555 -1.1965 -0.9097  1.8382
 6503SOL    HW230972   0.190   1.479  11.510 -2.1228  1.4452 -0.8596
 6504SOL     OW30973   3.782   2.288  12.567  0.6334 -0.1246 -0.0947
 6504SOL    HW130974   3.745   2.374  12.545 -1.6676 -1.0127  0.2954
 6504SOL    HW230975   3.813   2.306  12.655 -0.6157  0.5566  0.2106
 6505SOL     OW30976   3.149   4.159  11.661 -0.1227  0.1478  0.1976
 6505SOL    HW130977   3.147   4.105  11.740  1.2391 -0.5183 -0.2256
 6505SOL    HW230978   3.130   4.246  11.695 -2.8070 -0.3331 -0.0838
 6506SOL     OW30979   0.017   3.341   2.532 -0.5615 -0.4147 -0.4383
 6506SOL    HW130980   4.646   3.338   2.520 -0.7734  1.7470  0.7025
 6506SOL    HW230981   0.050   3.286   2.461 -2.1367 -1.3600 -0.4409
 6507SOL     OW30982   1.408   3.803   5.482  0.7212  0.2196 -0.0474
 6507SOL    HW130983   1.332   3.746   5.494  1.9515 -1.0266  1.9196
 6507SOL    HW230984   1.431   3.781   5.391 -0.8636 -1.0205 -0.1531
 6508SOL     OW30985   0.106   0.742   3.013 -0.0033 -0.0719 -0.1744
 6508SOL    HW130986   0.018   0.722   2.982  0.5925 -1.3573 -1.0170
 6508SOL    HW230987   0.130   0.660   3.057 -2.1980  0.3569  1.8237
 6509SOL     OW30988   2.746   1.772   9.083 -0.2565  0.1552  0.3140
 6509SOL    HW130989   2.717   1.743   8.996 -1.1146  0.0185  0.6566
 6509SOL    HW230990   2.698   1.708   9.135 -1.8122  1.5868  0.6116
 6510SOL     OW30991   3.965   1.441  13.428  0.5004 -0.0428  0.0454
 6510SOL    HW130992   4.044   1.435  13.373  0.3972 -0.7689 -0.0235
 6510SOL    HW230993   4.008   1.432  13.513 -0.9316 -1.1785  0.6540
 6511SOL     OW30994   0.425   3.172   5.213 -0.5410 -0.2193  0.6505
 6511SOL    HW130995   0.399   3.146   5.301  2.0423  0.4184  1.6062
 6511SOL    HW230996   0.492   3.105   5.199 -1.5846 -0.9999 -0.6409
 6512SOL     OW30997   3.284   4.627   4.810  0.0866 -0.0641  0.5785
 6512SOL    HW130998   3.255   4.583   4.730  0.3879  0.4542  0.1804
 6512SOL    HW230999   3.211   4.604   4.867 -1.9684  1.5792 -1.3742
 6513SOL     OW31000   2.960   2.663   0.193 -0.8065  0.0391  0.5969
 6513SOL    HW131001   3.047   2.642   0.226 -0.8945 -2.9934 -1.1593
 6513SOL    HW231002   2.910   2.588   0.225 -0.0707 -0.2926  0.9727
 6514SOL     OW31003   0.755   2.236  15.580 -0.6632  0.1318  0.1466
 6514SOL    HW131004   0.727   2.221  15.490 -0.9537 -1.7947  0.5535
 6514SOL    HW231005   0.776   2.329  15.589 -1.4979  0.0962  2.4864
 6515SOL     OW31006   4.721   0.324  10.564 -0.0202 -0.0768 -0.7914
 6515SOL    HW131007   0.010   0.339  10.657 -0.4133  0.6488 -0.8588
 6515SOL    HW231008   0.049   0.243  10.561 -0.3449 -0.3840  2.3611
 6516SOL     OW31009   0.012   0.647   6.305  0.3697 -0.2650  0.1689
 6516SOL    HW131010   0.018   0.740   6.282  2.9148  0.3482  3.3571
 6516SOL    HW231011   0.106   0.646   6.322  0.4596 -0.4547 -0.3320
 6517SOL     OW31012   1.676   0.706   9.583 -0.1424  0.2314 -0.7366
 6517SOL    HW131013   1.716   0.724   9.668 -1.2951 -1.7151  0.2285
 6517SOL    HW231014   1.723   0.775   9.537 -1.4738  0.3716 -1.8972
 6518SOL     OW31015   0.048   2.163   8.262 -0.0625  0.1917 -0.0737
 6518SOL    HW131016   0.010   2.210   8.187 -0.9807  1.2612  1.0569
 6518SOL    HW231017   0.044   2.075   8.225  1.0946  0.3975 -0.6881
 6519SOL     OW31018   1.725   0.086   8.461 -0.1594  0.3865  0.1800
 6519SOL    HW131019   1.773   0.013   8.420 -0.7628  1.1862 -1.9376
 6519SOL    HW231020   1.751   0.158   8.404 -1.9333  0.3784 -0.6522
 6520SOL     OW31021   2.338   4.669   6.655  1.1786  0.0469 -0.2274
 6520SOL    HW131022   2.375   0.023   6.698  2.1498 -0.1604 -0.7064
 6520SOL    HW231023   2.248   4.702   6.650  1.4842  0.8352 -0.6626
 6521SOL     OW31024   0.376   1.661   4.105  0.4121  0.1440 -0.1308
 6521SOL    HW131025   0.421   1.741   4.079  2.7361 -1.6758 -1.6993
 6521SOL    HW231026   0.384   1.657   4.201 -0.0471 -1.6408 -0.1532
 6522SOL     OW31027   4.589   0.704  12.323  0.9361 -1.2027  0.7561
 6522SOL    HW131028   4.585   0.744  12.236  0.3611 -1.1466  0.8081
 6522SOL    HW231029   4.503   0.665  12.339 -0.0227  0.5176 -0.2042
 6523SOL     OW31030   2.088   2.149   1.450 -0.2171 -0.1110  0.2201
 6523SOL    HW131031   1.998   2.120   1.465  0.4012 -2.1038  0.0937
 6523SOL    HW231032   2.097   2.095   1.371 -0.0259 -0.9577  0.8239
 6524SOL     OW31033   3.991   0.517   2.656  0.0133 -0.1032 -0.3235
 6524SOL    HW131034   4.077   0.538   2.619  1.0369 -0.7004  1.7749
 6524SOL    HW231035   3.977   0.429   2.622  0.2273 -0.3800  0.3229
 6525SOL     OW31036   0.969   1.874   2.208  0.5989 -0.1053 -0.2920
 6525SOL    HW131037   0.878   1.852   2.225  0.2067  0.8974 -1.1055
 6525SOL    HW231038   0.973   1.875   2.113 -4.9857  0.0532 -0.5239
 6526SOL     OW31039   0.522   2.361   2.368 -0.1584 -0.1172  0.1881
 6526SOL    HW131040   0.444   2.391   2.321 -0.2319  1.2915  1.2138
 6526SOL    HW231041   0.494   2.275   2.399  4.5002 -1.2927  1.1108
 6527SOL     OW31042   1.615   0.348   5.764 -0.2399  0.5776 -0.2255
 6527SOL    HW131043   1.700   0.307   5.747 -0.9903 -0.8886 -0.3956
 6527SOL    HW231044   1.628   0.429   5.715  1.0164 -1.0672 -2.6268
 6528SOL     OW31045   2.861   0.865   8.300  0.1337 -0.4485  0.3853
 6528SOL    HW131046   2.882   0.910   8.218  1.3762  0.3770  1.1774
 6528SOL    HW231047   2.943   0.875   8.347  0.1668 -1.0579  0.4628
 6529SOL     OW31048   4.526   2.540   2.075  0.0609 -0.5436  0.5155
 6529SOL    HW131049   4.508   2.493   1.994  3.0896 -2.1540  0.7842
 6529SOL    HW231050   4.454   2.603   2.082 -0.2841 -0.6337 -2.1626
 6530SOL     OW31051   1.073   4.142   7.707 -0.3262 -0.1103 -0.7161
 6530SOL    HW131052   1.068   4.047   7.719 -0.2045  0.3304  2.8547
 6530SOL    HW231053   1.168   4.152   7.700  0.0741 -2.6020  1.0612
 6531SOL     OW31054   4.581   1.215   3.657 -0.0356 -0.5271  0.1019
 6531SOL    HW131055   4.646   1.175   3.715 -1.3858 -2.6856  0.1389
 6531SOL    HW231056   4.598   1.304   3.689  1.6913 -1.0981  0.7980
 6532SOL     OW31057   3.912   2.898   5.153  0.2442 -0.3507  0.4406
 6532SOL    HW131058   3.895   2.857   5.238 -0.8793 -0.5999  0.0924
 6532SOL    HW231059   4.007   2.889   5.140  0.2222  1.9014 -1.1599
 6533SOL     OW31060   1.924   4.056  12.616  0.4473  0.0993 -0.8474
 6533SOL    HW131061   1.932   4.133  12.673  0.7413 -1.1484  0.7805
 6533SOL    HW231062   1.896   4.108  12.540 -3.1337  2.8055  2.3116
 6534SOL     OW31063   0.747   2.879   4.577  0.0026 -0.8026 -0.1890
 6534SOL    HW131064   0.738   2.948   4.643 -0.7680 -0.7549 -0.3481
 6534SOL    HW231065   0.766   2.939   4.504 -1.4323 -1.7480 -1.3613
 6535SOL     OW31066   3.221   0.513  14.540 -0.2031 -0.5404  0.2557
 6535SOL    HW131067   3.313   0.506  14.513 -0.0958 -0.5886  0.6342
 6535SOL    HW231068   3.175   0.456  14.479 -0.0336  1.0490 -1.3633
 6536SOL     OW31069   1.412   3.606   3.774  0.4339 -0.2245 -0.4785
 6536SOL    HW131070   1.348   3.551   3.728 -1.3192  1.8933 -0.5348
 6536SOL    HW231071   1.467   3.538   3.814 -0.3776 -0.9068 -0.5308
 6537SOL     OW31072   0.771   2.750   3.340  0.1067 -0.0182  0.0235
 6537SOL    HW131073   0.706   2.679   3.343 -0.7537  0.7542 -0.2638
 6537SOL    HW231074   0.719   2.827   3.361  0.7700  0.4979 -0.2522
 6538SOL     OW31075   0.763   2.525   5.679 -0.1481 -0.0323  0.3927
 6538SOL    HW131076   0.819   2.466   5.629 -0.2848 -1.0439  1.4600
 6538SOL    HW231077   0.792   2.611   5.648 -0.7279 -0.6780 -2.0124
 6539SOL     OW31078   4.099   2.537  15.102 -0.1976  0.0301 -0.4153
 6539SOL    HW131079   4.055   2.514  15.183 -2.8102  2.2497 -1.1706
 6539SOL    HW231080   4.189   2.523  15.131 -0.7229 -0.8680  0.7628
 6540SOL     OW31081   3.098   1.864   7.788  0.5024 -0.5010 -0.0143
 6540SOL    HW131082   3.126   1.924   7.719  0.1654 -0.5081 -0.1526
 6540SOL    HW231083   3.155   1.791   7.764 -1.0716 -1.0934 -1.8641
 6541SOL     OW31084   3.483   3.818   8.617 -0.0269 -0.2909 -0.4081
 6541SOL    HW131085   3.393   3.841   8.642 -0.1798  0.2766 -1.5088
 6541SOL    HW231086   3.511   3.790   8.704  1.0509 -3.5462 -1.7937
 6542SOL     OW31087   2.147   0.035   9.684 -0.4154  0.0018  0.0742
 6542SOL    HW131088   2.229   0.084   9.675 -0.7178  0.3972 -0.5483
 6542SOL    HW231089   2.114   0.052   9.596  2.7915  2.8417 -0.6008
 6543SOL     OW31090   0.732   2.337   8.121  0.6222  0.3473  0.7352
 6543SOL    HW131091   0.665   2.334   8.052 -1.0784 -2.2226  2.4899
 6543SOL    HW231092   0.672   2.304   8.187  1.3875  0.5400  1.5167
 6544SOL     OW31093   1.905   0.288   5.044 -0.1767  0.1835  0.1106
 6544SOL    HW131094   1.867   0.259   5.127 -0.1472  1.7198  0.6574
 6544SOL    HW231095   1.909   0.204   4.997  1.1940  0.3454 -0.0816
 6545SOL     OW31096   1.750   3.154   2.102  0.6733  0.3963 -0.1384
 6545SOL    HW131097   1.811   3.182   2.033 -0.4001  2.6860 -0.1611
 6545SOL    HW231098   1.668   3.185   2.064 -0.3258 -2.0758 -0.0058
 6546SOL     OW31099   3.593   0.694   5.973 -0.0076  0.7379  0.0098
 6546SOL    HW131100   3.600   0.646   5.890  1.9462 -0.1888  0.7291
 6546SOL    HW231101   3.608   0.782   5.940 -0.4882  2.0692  3.3657
 6547SOL     OW31102   2.297   2.370   7.329  0.2674 -0.1164  0.7570
 6547SOL    HW131103   2.301   2.274   7.329 -1.3845 -0.1903 -2.7091
 6547SOL    HW231104   2.368   2.391   7.268  0.8390  1.3828  1.9662
 6548SOL     OW31105   3.360   3.246   4.673  0.1636 -0.0055 -0.3009
 6548SOL    HW131106   3.435   3.222   4.617  1.1666 -1.0300  1.4713
 6548SOL    HW231107   3.379   3.339   4.688 -1.4701  0.4428 -1.0795
 6549SOL     OW31108   3.351   0.575   6.368  0.1308  0.1319  0.5827
 6549SOL    HW131109   3.400   0.657   6.374  2.0485 -1.0877  1.8470
 6549SOL    HW231110   3.327   0.572   6.275 -2.0162 -1.4730  1.1961
 6550SOL     OW31111   2.961   1.568  17.273  0.0448  0.6680 -0.2623
 6550SOL    HW131112   2.871   1.580  17.242  0.3003 -0.8344 -1.5657
 6550SOL    HW231113   2.937   1.505  17.340  0.9827 -0.7901 -1.3044
 6551SOL     OW31114   1.647   3.276   1.871 -0.6503  0.6564  0.3863
 6551SOL    HW131115   1.685   3.363   1.858 -1.7804  1.0502 -0.2590
 6551SOL    HW231116   1.554   3.294   1.861 -0.8818  0.3126  1.7871
 6552SOL     OW31117   1.758   2.114   2.883  0.5062 -0.4161 -0.0879
 6552SOL    HW131118   1.777   2.165   2.804 -0.2911  0.7286  0.4517
 6552SOL    HW231119   1.662   2.114   2.886  0.5186 -0.7373  0.3676
 6553SOL     OW31120   1.665   0.936   5.173  0.1329  0.1648  0.3211
 6553SOL    HW131121   1.696   0.999   5.237 -0.2457 -0.4624  1.1235
 6553SOL    HW231122   1.751   0.922   5.133  0.5466  1.1669  0.8738
 6554SOL     OW31123   2.134   1.277   7.221 -0.4032  0.2540  0.1196
 6554SOL    HW131124   2.176   1.218   7.284 -1.2988 -1.1018 -0.5343
 6554SOL    HW231125   2.157   1.240   7.135  0.5373 -0.4990  0.6874
 6555SOL     OW31126   4.300   0.729   0.534 -0.4422 -0.2600 -0.6510
 6555SOL    HW131127   4.358   0.777   0.476 -0.2661  1.1028  0.6644
 6555SOL    HW231128   4.361   0.720   0.607  1.7974 -1.2211 -2.6527
 6556SOL     OW31129   4.639   1.857   7.172  0.3483 -0.0848 -0.2117
 6556SOL    HW131130   4.617   1.828   7.084  0.6664  0.0517 -0.3399
 6556SOL    HW231131   0.008   1.832   7.181 -0.0026 -1.0107  0.8127
 6557SOL     OW31132   3.276   4.093   0.839  1.0152  0.2886 -0.4495
 6557SOL    HW131133   3.313   4.104   0.752 -0.1950  1.1707 -0.8455
 6557SOL    HW231134   3.190   4.134   0.832  0.7735 -0.4401 -1.5805
 6558SOL     OW31135   3.585   0.709  12.509 -0.0267 -0.3678 -0.0760
 6558SOL    HW131136   3.546   0.722  12.423 -0.7417  0.2067  0.3276
 6558SOL    HW231137   3.515   0.742  12.566 -0.8865  0.7630 -1.7735
 6559SOL     OW31138   1.474   3.535   2.939  0.1130 -0.9067  0.1868
 6559SOL    HW131139   1.569   3.542   2.927 -0.5130  5.5446 -1.4278
 6559SOL    HW231140   1.451   3.540   2.846 -0.9618  0.1228  0.5132
 6560SOL     OW31141   1.358   3.520   6.663 -0.0702  0.1050  0.5323
 6560SOL    HW131142   1.280   3.510   6.716 -0.8610  2.8949 -0.1160
 6560SOL    HW231143   1.327   3.578   6.594  0.6556 -1.4821 -1.1560
 6561SOL     OW31144   2.569   2.919   2.723  0.0644  0.1714  0.1486
 6561SOL    HW131145   2.596   2.904   2.632 -0.7648 -0.6027  0.0303
 6561SOL    HW231146   2.659   2.922   2.756 -0.6080 -1.1809  2.1163
 6562SOL     OW31147   0.055   3.819   7.211  0.5434 -0.0264  0.4326
 6562SOL    HW131148   0.031   3.908   7.186  0.7379 -0.1670 -0.2674
 6562SOL    HW231149   0.134   3.801   7.160 -0.8377  1.4059 -2.2177
 6563SOL     OW31150   4.648   2.616  17.454  0.8104 -0.6969  0.2438
 6563SOL    HW131151   4.662   2.530  17.415  1.2010 -0.0137 -1.1555
 6563SOL    HW231152   4.723   2.668  17.424  0.9893 -1.1133 -0.0252
 6564SOL     OW31153   3.204   0.987   7.278  0.1455  0.0064  0.0595
 6564SOL    HW131154   3.109   1.002   7.278 -0.2062 -2.2634  0.5645
 6564SOL    HW231155   3.221   0.897   7.251  2.4055 -0.3441  2.5935
 6565SOL     OW31156   1.101   1.949  15.458  0.3689  0.5661 -0.3487
 6565SOL    HW131157   1.162   1.913  15.393 -1.5560 -1.6711 -0.9015
 6565SOL    HW231158   1.033   1.991  15.405 -1.9315 -0.7756  1.5386
 6566SOL     OW31159   1.886   0.402   9.351  0.4221  0.0133  0.1743
 6566SOL    HW131160   1.806   0.454   9.354  0.7708  0.3926  2.4174
 6566SOL    HW231161   1.932   0.439   9.276 -0.7862 -1.1393 -1.1335
 6567SOL     OW31162   0.092   3.453   7.305 -0.5099 -0.1523 -0.1814
 6567SOL    HW131163   0.008   3.492   7.281 -0.6352 -0.1449  0.2804
 6567SOL    HW231164   0.086   3.401   7.385 -1.9397 -0.0789 -0.2488
 6568SOL     OW31165   0.042   1.663   5.117 -0.1465  0.1784  0.4016
 6568SOL    HW131166   0.051   1.586   5.172 -1.5784  1.3982  2.3332
 6568SOL    HW231167   4.686   1.707   5.149 -0.9487 -0.9420 -0.0327
 6569SOL     OW31168   4.201   0.721  15.572 -0.1398  0.0854  0.1480
 6569SOL    HW131169   4.197   0.773  15.653  0.6121 -1.9506  1.5132
 6569SOL    HW231170   4.216   0.633  15.608  0.3535  0.4367  0.8051
 6570SOL     OW31171   1.756   3.560   2.947 -0.1386  0.1366 -0.3970
 6570SOL    HW131172   1.808   3.506   3.008  1.0047 -0.5962 -2.0102
 6570SOL    HW231173   1.785   3.505   2.875 -0.6047 -0.9961  0.2746
 6571SOL     OW31174   3.668   1.765  12.464 -0.2830  0.4242  0.2860
 6571SOL    HW131175   3.691   1.795  12.376  0.0717  2.1519  0.9746
 6571SOL    HW231176   3.756   1.740  12.493  0.0691  0.5445 -0.6714
 6572SOL     OW31177   3.916   2.773   3.653 -0.2231 -0.2779  0.5976
 6572SOL    HW131178   3.997   2.738   3.617  0.1219 -0.2534  1.3529
 6572SOL    HW231179   3.855   2.725   3.596  0.3820 -0.0384 -0.2463
 6573SOL     OW31180   4.277   4.570   8.905 -0.4454  0.1394 -0.1168
 6573SOL    HW131181   4.272   4.476   8.920 -0.4276 -0.0711 -1.4270
 6573SOL    HW231182   4.195   4.609   8.938  0.3030  0.6201  1.1813
 6574SOL     OW31183   3.636   3.883   1.870  0.3006  0.0645 -0.5079
 6574SOL    HW131184   3.727   3.855   1.872  0.0505 -0.6500  0.5231
 6574SOL    HW231185   3.643   3.914   1.779  0.1143  1.8842  0.0852
 6575SOL     OW31186   1.265   3.964   3.280 -0.3406 -0.6258  0.1343
 6575SOL    HW131187   1.348   4.010   3.271 -0.3026 -0.2828  2.3884
 6575SOL    HW231188   1.286   3.884   3.328  1.7398  0.1295  0.5040
 6576SOL     OW31189   2.489   4.532   3.284 -0.0482 -0.4027  0.2212
 6576SOL    HW131190   2.407   4.506   3.327  0.1978 -2.0553 -0.3036
 6576SOL    HW231191   2.505   4.457   3.226  0.9250 -0.4222  0.5169
 6577SOL     OW31192   4.618   4.632   7.788 -0.0798  0.2111 -0.2583
 6577SOL    HW131193   4.613   4.716   7.834  0.0482  0.5887 -0.9299
 6577SOL    HW231194   4.628   4.665   7.699 -0.4706 -0.3155 -0.4928
 6578SOL     OW31195   1.353   3.908   2.396 -0.1560 -0.2357  0.1973
 6578SOL    HW131196   1.371   3.822   2.433 -1.0394 -1.2123 -1.6179
 6578SOL    HW231197   1.342   3.891   2.302  0.5438  2.0939 -0.3081
 6579SOL     OW31198   1.189   3.963   3.863 -0.3411  0.2454 -0.2839
 6579SOL    HW131199   1.175   3.906   3.787  0.7281  0.3095 -0.5268
 6579SOL    HW231200   1.241   3.910   3.924  1.2854  2.8387  0.5829
 6580SOL     OW31201   0.737   2.267  10.450 -0.2420  0.0060  0.5273
 6580SOL    HW131202   0.662   2.270  10.509 -0.3753 -2.4170  0.4528
 6580SOL    HW231203   0.720   2.191  10.395 -1.0190 -0.0688  0.8651
 6581SOL     OW31204   2.485   1.943   5.896 -0.1791  0.3760  0.3683
 6581SOL    HW131205   2.578   1.949   5.876 -0.6937 -2.0882 -2.7270
 6581SOL    HW231206   2.459   2.034   5.910  0.5482  0.2187  2.7633
 6582SOL     OW31207   4.126   0.452  14.153  0.2582  0.2208 -0.3569
 6582SOL    HW131208   4.202   0.475  14.207  0.6894 -0.9470 -0.4725
 6582SOL    HW231209   4.178   0.449  14.073 -0.8384 -1.7713 -0.9819
 6583SOL     OW31210   4.073   4.663   0.271 -0.5414  0.2700 -0.4075
 6583SOL    HW131211   4.151   4.712   0.297 -2.5609  3.1777  0.2483
 6583SOL    HW231212   4.113   4.597   0.215 -2.3844 -1.1575 -0.0580
 6584SOL     OW31213   1.719   2.816   7.088 -0.1248  0.4946  0.2145
 6584SOL    HW131214   1.764   2.827   7.172  0.8339 -0.0647 -0.2310
 6584SOL    HW231215   1.678   2.730   7.096  0.5929 -0.0536 -2.2436
 6585SOL     OW31216   2.050   0.298   8.665  0.0178  0.6009 -0.6211
 6585SOL    HW131217   2.014   0.360   8.602 -2.4900 -0.5422 -0.2927
 6585SOL    HW231218   2.127   0.343   8.700 -0.3679  0.6711  0.1259
 6586SOL     OW31219   3.023   3.255   3.577  0.0293  0.0436  0.7864
 6586SOL    HW131220   3.017   3.258   3.481  0.4333 -0.1435  0.7554
 6586SOL    HW231221   2.935   3.232   3.605  0.5931 -0.2548  2.2965
 6587SOL     OW31222   4.719   2.960   3.477  0.1901  0.0053  0.1105
 6587SOL    HW131223   4.640   2.975   3.528 -1.0090  1.3561 -2.1734
 6587SOL    HW231224   0.068   3.008   3.519 -0.2144  0.2845  0.4935
 6588SOL     OW31225   3.084   2.128   4.305  0.2761 -0.3756 -0.2396
 6588SOL    HW131226   2.997   2.096   4.329 -0.3906  0.4019 -1.6122
 6588SOL    HW231227   3.108   2.188   4.376  0.1452  2.4606 -2.6025
 6589SOL     OW31228   2.636   3.372   4.941 -0.0080  0.0043 -0.4682
 6589SOL    HW131229   2.722   3.331   4.940  0.6250  1.3004  1.4943
 6589SOL    HW231230   2.642   3.449   4.997 -1.6067 -0.0678 -0.1976
 6590SOL     OW31231   3.988   1.633  15.487  0.0560  0.0614 -0.1056
 6590SOL    HW131232   4.023   1.709  15.533 -0.3079  0.7129 -0.9081
 6590SOL    HW231233   3.937   1.677  15.419 -1.2198  1.1086  1.5347
 6591SOL     OW31234   4.124   3.375   2.985 -0.0361  0.0884  0.4150
 6591SOL    HW131235   4.182   3.302   3.006 -0.9499 -1.2112 -1.6184
 6591SOL    HW231236   4.060   3.365   3.055  0.1636 -0.9551  0.4487
 6592SOL     OW31237   0.508   2.218  11.409  0.2875 -0.4010 -0.1074
 6592SOL    HW131238   0.472   2.228  11.496 -1.5356  1.1311 -1.0508
 6592SOL    HW231239   0.432   2.174  11.371  1.0684  0.8562 -3.1638
 6593SOL     OW31240   3.443   2.517   6.893 -0.4136 -0.0502 -0.3042
 6593SOL    HW131241   3.363   2.562   6.870 -0.2316  0.2863 -0.2796
 6593SOL    HW231242   3.462   2.549   6.982  1.6708  1.9015 -1.4407
 6594SOL     OW31243   4.308   2.843   4.630 -0.2757 -0.3895 -0.2489
 6594SOL    HW131244   4.286   2.935   4.615 -0.1466 -0.0568  1.6220
 6594SOL    HW231245   4.398   2.836   4.600  0.3038  0.2428  1.3293
 6595SOL     OW31246   4.475   1.107  16.110  0.3128 -0.0250  0.7153
 6595SOL    HW131247   4.521   1.179  16.152  1.6271 -0.6349  0.3355
 6595SOL    HW231248   4.507   1.030  16.158 -3.0896 -0.4862  2.2365
 6596SOL     OW31249   1.874   0.338   6.888 -0.0954 -0.0332  0.1498
 6596SOL    HW131250   1.849   0.338   6.796  0.5888  1.8925 -0.0432
 6596SOL    HW231251   1.970   0.330   6.891 -0.1126 -1.2942 -2.4376
 6597SOL     OW31252   2.598   3.899   7.203 -0.1024 -0.0639  0.2551
 6597SOL    HW131253   2.613   3.874   7.112 -0.2126  1.4603 -0.1917
 6597SOL    HW231254   2.591   3.995   7.197  0.3834 -0.0411  0.0512
 6598SOL     OW31255   3.866   1.178   5.154 -0.5240 -0.2498 -0.8911
 6598SOL    HW131256   3.954   1.167   5.119 -0.3131 -0.0409 -0.4381
 6598SOL    HW231257   3.863   1.274   5.152 -2.3899 -0.2068  4.3580
 6599SOL     OW31258   1.762   2.411  16.170 -0.7742 -0.3931  0.0860
 6599SOL    HW131259   1.690   2.434  16.229 -0.6961  1.5941 -0.5861
 6599SOL    HW231260   1.724   2.417  16.082  0.3444 -2.6863 -0.5415
 6600SOL     OW31261   2.765   3.911  10.408 -0.5639  0.0694 -0.4946
 6600SOL    HW131262   2.781   3.995  10.453 -2.3505 -1.2441  2.5991
 6600SOL    HW231263   2.707   3.947  10.341 -1.0929  2.3089  1.1619
 6601SOL     OW31264   0.038   2.974  12.208 -0.6857 -0.3155  0.1634
 6601SOL    HW131265   0.100   2.926  12.152 -0.6426 -1.0120  0.8113
 6601SOL    HW231266   0.082   3.059  12.213  1.0329 -1.1530 -0.5638
 6602SOL     OW31267   2.515   2.464  12.040  0.3656 -0.0966 -0.5165
 6602SOL    HW131268   2.574   2.459  11.965  0.8865 -0.6389 -0.0746
 6602SOL    HW231269   2.436   2.479  11.988 -0.3395  1.5710  1.0145
 6603SOL     OW31270   3.231   3.468   1.618  0.2466 -0.4745  0.0801
 6603SOL    HW131271   3.228   3.487   1.524 -1.2011 -0.9388  0.0200
 6603SOL    HW231272   3.310   3.414   1.619  0.9627  0.5627 -0.4123
 6604SOL     OW31273   1.862   4.533  11.531 -0.7169 -0.0768 -0.1877
 6604SOL    HW131274   1.871   4.515  11.437  0.9475  0.2260 -0.0801
 6604SOL    HW231275   1.909   4.459  11.569 -2.6223 -1.5312 -0.6515
 6605SOL     OW31276   2.051   3.559   1.849 -0.0483  0.3989  0.3109
 6605SOL    HW131277   2.032   3.518   1.933  1.0863  0.0899  0.4133
 6605SOL    HW231278   2.136   3.600   1.866  0.0225  0.1855  0.4558
 6606SOL     OW31279   0.669   3.358   4.843  0.3966  0.3253  0.4478
 6606SOL    HW131280   0.693   3.297   4.913 -1.5925 -0.9908 -0.0238
 6606SOL    HW231281   0.599   3.400   4.892  0.3125  0.4811  0.1896
 6607SOL     OW31282   0.918   3.335  15.392  0.2412 -0.2687 -0.8023
 6607SOL    HW131283   0.994   3.393  15.403 -0.9781  1.2582 -0.3180
 6607SOL    HW231284   0.860   3.391  15.340  0.2722  2.1588  1.7501
 6608SOL     OW31285   4.389   4.039   7.136  0.5346  0.4541 -0.5818
 6608SOL    HW131286   4.376   4.096   7.060  0.4166 -0.0450 -0.9358
 6608SOL    HW231287   4.416   3.963   7.085  1.6484  1.3637 -1.3284
 6609SOL     OW31288   3.757   1.550   3.676  0.0693  1.1358 -0.2340
 6609SOL    HW131289   3.832   1.531   3.733  0.6168  0.4888 -1.1618
 6609SOL    HW231290   3.785   1.620   3.618 -0.8487  0.8571 -1.0189
 6610SOL     OW31291   1.392   3.352   2.023  0.2027 -0.0859  1.0536
 6610SOL    HW131292   1.394   3.347   1.928  0.9662 -2.0490  1.1607
 6610SOL    HW231293   1.321   3.414   2.035  1.5823  1.5186  0.9678
 6611SOL     OW31294   2.305   1.775   5.706 -0.2238 -0.0380  0.5971
 6611SOL    HW131295   2.334   1.795   5.617 -1.3225  0.8944  0.4511
 6611SOL    HW231296   2.356   1.833   5.761  0.0422  0.7306 -0.4556
 6612SOL     OW31297   3.268   4.236   3.617  0.5218 -0.0841  0.1099
 6612SOL    HW131298   3.245   4.193   3.535  2.3915 -0.6473 -0.1077
 6612SOL    HW231299   3.202   4.305   3.613 -0.5074 -1.0565  0.2937
 6613SOL     OW31300   2.697   2.960   6.663  0.0298 -0.8240  0.0187
 6613SOL    HW131301   2.710   3.001   6.749  0.3119  0.3469 -0.5758
 6613SOL    HW231302   2.780   2.985   6.623  0.8665 -0.3219  2.0616
 6614SOL     OW31303   1.974   1.774  11.491  0.2635 -0.0428  0.5818
 6614SOL    HW131304   1.899   1.822  11.526 -1.6640 -0.9532 -2.2890
 6614SOL    HW231305   2.021   1.765  11.574 -0.1962  1.4880  1.0158
 6615SOL     OW31306   2.581   4.153   7.165 -0.1033  0.1786 -0.6096
 6615SOL    HW131307   2.493   4.179   7.192  0.2428 -1.8670  2.5283
 6615SOL    HW231308   2.629   4.236   7.158 -0.4165  0.0771 -3.6497
 6616SOL     OW31309   4.450   1.170   5.564  0.2962 -0.2823 -0.0242
 6616SOL    HW131310   4.369   1.220   5.549  0.2473 -0.1676  0.6293
 6616SOL    HW231311   4.417   1.081   5.567 -1.1415  0.1254 -2.9219
 6617SOL     OW31312   2.045   3.491  11.103  0.2000  0.6433  0.0042
 6617SOL    HW131313   2.041   3.418  11.165  1.1085  1.1329  0.6489
 6617SOL    HW231314   2.138   3.505  11.087  0.8193 -2.1263  1.0828
 6618SOL     OW31315   1.341   3.621   2.425 -0.7017  0.7660 -0.1960
 6618SOL    HW131316   1.353   3.559   2.496 -0.6155 -0.7849 -1.5769
 6618SOL    HW231317   1.255   3.607   2.386 -0.4638 -1.0559 -0.0757
 6619SOL     OW31318   3.555   2.810   5.699 -0.6046  0.3925  0.2053
 6619SOL    HW131319   3.600   2.894   5.700  0.0014  0.0673  0.6348
 6619SOL    HW231320   3.527   2.807   5.608 -1.2272 -2.5569  0.4849
 6620SOL     OW31321   3.801   0.407   7.425 -0.5276 -0.6711  0.6232
 6620SOL    HW131322   3.723   0.432   7.474  0.4006  2.3580  0.5314
 6620SOL    HW231323   3.804   0.312   7.431  0.6753 -0.6729 -0.0205
 6621SOL     OW31324   4.034   1.052  14.369  0.2793 -0.0007 -0.3279
 6621SOL    HW131325   4.046   1.097  14.453  3.3009 -2.6668  0.6672
 6621SOL    HW231326   4.098   0.982  14.383  0.4197  0.2053  0.0637
 6622SOL     OW31327   0.492   0.470   6.168 -0.2702 -0.2911 -0.5042
 6622SOL    HW131328   0.447   0.514   6.095  0.8408 -0.6155 -1.3812
 6622SOL    HW231329   0.425   0.491   6.233  0.8263  2.1582 -0.1889
 6623SOL     OW31330   2.034   2.571   3.398  0.3759  0.2302  0.3648
 6623SOL    HW131331   2.051   2.548   3.307  0.8921 -1.5135  0.9067
 6623SOL    HW231332   1.997   2.490   3.433  1.3949  0.1998  1.3915
 6624SOL     OW31333   0.013   3.897   8.774 -0.3598 -0.4906  0.8513
 6624SOL    HW131334   0.050   3.861   8.855 -0.5444  1.9369  2.0272
 6624SOL    HW231335   0.053   3.984   8.770  2.3517 -1.6835  1.8100
 6625SOL     OW31336   1.317   3.494   5.779  0.8425 -0.2882 -0.2947
 6625SOL    HW131337   1.253   3.449   5.834  1.2732  0.7102  1.0194
 6625SOL    HW231338   1.364   3.541   5.848  2.8588 -0.1480 -1.7701
 6626SOL     OW31339   3.787   1.957  11.866  0.1436 -0.7276 -0.2268
 6626SOL    HW131340   3.778   2.011  11.945  0.6836 -0.2140 -0.5160
 6626SOL    HW231341   3.838   1.884  11.899  2.3252  0.6628 -0.5592
 6627SOL     OW31342   3.316   3.219   5.138  0.3743 -0.2843 -0.0501
 6627SOL    HW131343   3.358   3.270   5.069 -0.0565 -0.3785 -0.3780
 6627SOL    HW231344   3.342   3.131   5.112  2.8882  0.5161 -0.3282
 6628SOL     OW31345   0.253   2.442   5.616  0.0635 -0.0939 -0.3849
 6628SOL    HW131346   0.331   2.494   5.594 -0.5022  0.8038 -0.2474
 6628SOL    HW231347   0.280   2.434   5.707  0.6119 -0.6180 -0.5977
 6629SOL     OW31348   2.633   1.172   3.307  0.1018 -0.3540 -0.0883
 6629SOL    HW131349   2.569   1.238   3.281  0.8665  0.5303  0.2280
 6629SOL    HW231350   2.584   1.091   3.318  1.4986 -1.0212  1.2276
 6630SOL     OW31351   0.713   3.516   2.247 -0.1624 -0.0013  0.6949
 6630SOL    HW131352   0.622   3.537   2.268 -0.0708 -0.2233  1.3188
 6630SOL    HW231353   0.697   3.470   2.165 -2.1555  1.0481  0.4902
 6631SOL     OW31354   0.297   3.669   6.026  0.2408  0.0066 -0.2865
 6631SOL    HW131355   0.248   3.683   5.945  0.3160 -0.0499 -0.3423
 6631SOL    HW231356   0.276   3.576   6.036  1.9051 -0.1850  1.2735
 6632SOL     OW31357   4.199   1.697   9.061 -0.3605  0.3280  0.2307
 6632SOL    HW131358   4.148   1.775   9.086 -2.3793 -1.3313  1.2812
 6632SOL    HW231359   4.241   1.744   8.989 -1.5331 -1.5044 -1.6523
 6633SOL     OW31360   0.198   2.472   8.353 -0.2175  0.3415 -0.7115
 6633SOL    HW131361   0.249   2.541   8.310 -0.3362  0.4408 -0.6918
 6633SOL    HW231362   0.160   2.423   8.280  0.6200 -0.5422 -0.5541
 6634SOL     OW31363   2.936   2.572  10.820  0.1942  0.0541  0.2319
 6634SOL    HW131364   2.841   2.564  10.826  0.3519 -2.2195 -0.1094
 6634SOL    HW231365   2.947   2.637  10.889 -2.6631  0.4068  0.3250
 6635SOL     OW31366   0.383   4.563  14.371  0.2211 -0.3228  0.2861
 6635SOL    HW131367   0.363   4.574  14.464 -1.0777 -0.6955  0.0502
 6635SOL    HW231368   0.327   4.635  14.342  1.7329  0.3368 -0.9918
 6636SOL     OW31369   3.303   3.741  17.466 -0.3559 -0.0023 -0.1442
 6636SOL    HW131370   3.393   3.724  17.438 -0.4615  0.0670 -0.5286
 6636SOL    HW231371   3.260   3.679  17.407 -2.7246  0.0684  1.5226
 6637SOL     OW31372   0.805   0.163  11.096 -0.2711  0.0245 -0.2199
 6637SOL    HW131373   0.757   0.094  11.142  1.7543 -0.1731  1.5934
 6637SOL    HW231374   0.816   0.119  11.011  2.0859  4.6226 -2.2820
 6638SOL     OW31375   0.481   3.078  14.129  0.1181  0.3414  0.5335
 6638SOL    HW131376   0.399   3.119  14.158  0.4135  0.3776  1.3150
 6638SOL    HW231377   0.461   2.984  14.127 -0.8704  0.5283  1.3022
 6639SOL     OW31378   0.111   1.858  12.990 -0.4901  0.6348 -0.2468
 6639SOL    HW131379   0.134   1.861  12.897 -1.8987 -0.9881 -0.6430
 6639SOL    HW231380   0.194   1.826  13.025  0.1535  3.1009  0.5041
 6640SOL     OW31381   1.968   1.476   2.681  0.4228  0.6718 -0.0162
 6640SOL    HW131382   1.995   1.541   2.616  0.2372 -0.3106 -1.0685
 6640SOL    HW231383   2.005   1.402   2.634  1.4014  1.2267 -0.1321
 6641SOL     OW31384   1.469   1.943  16.978  0.1907  0.3851 -0.6329
 6641SOL    HW131385   1.400   2.001  16.944  0.3665  0.0786 -1.5143
 6641SOL    HW231386   1.415   1.880  17.026  1.0667 -1.2153 -1.7520
 6642SOL     OW31387   1.254   4.203   5.071  0.2447 -0.1161 -0.0934
 6642SOL    HW131388   1.182   4.141   5.076 -1.3301  1.7289  0.3578
 6642SOL    HW231389   1.285   4.196   4.980 -2.8969  1.4476 -1.3030
 6643SOL     OW31390   0.991   4.516   5.955  0.1228 -0.1477  0.0715
 6643SOL    HW131391   1.055   4.581   5.925  1.1175  0.1425  2.8581
 6643SOL    HW231392   1.045   4.454   6.003  2.0229  1.3194 -0.2080
 6644SOL     OW31393   0.125   0.348   8.411 -0.5342 -0.6160  0.1723
 6644SOL    HW131394   0.109   0.442   8.408 -0.6999 -0.5696  2.5284
 6644SOL    HW231395   0.214   0.335   8.378 -1.2726 -0.1533 -2.0036
 6645SOL     OW31396   0.765   1.691  15.749 -0.0683  0.6528 -0.4394
 6645SOL    HW131397   0.792   1.778  15.718  0.0383  0.3965 -1.0507
 6645SOL    HW231398   0.804   1.698  15.837 -0.5755 -1.2538 -0.0813
 6646SOL     OW31399   4.452   1.623   4.998  0.2324  0.3992 -0.1081
 6646SOL    HW131400   4.453   1.700   5.055 -0.5039 -0.5319  1.1585
 6646SOL    HW231401   4.425   1.550   5.054 -0.8750  1.2101  0.4024
 6647SOL     OW31402   0.234   1.446   8.900 -0.9348 -0.0878  0.0348
 6647SOL    HW131403   0.204   1.477   8.986 -1.3736  1.2290 -0.5921
 6647SOL    HW231404   0.312   1.502   8.892 -0.5576 -0.4804  0.9757
 6648SOL     OW31405   4.638   0.127   7.180 -0.8697  0.2377  0.1745
 6648SOL    HW131406   0.004   0.100   7.202 -1.1165  1.7807  3.0573
 6648SOL    HW231407   4.649   0.222   7.178  1.3396 -0.1075 -3.4718
 6649SOL     OW31408   2.744   3.711   6.639 -0.2627 -0.0215 -0.0977
 6649SOL    HW131409   2.783   3.625   6.624 -0.4221 -0.1711  0.3443
 6649SOL    HW231410   2.664   3.673   6.676 -0.9709  0.4586 -1.1320
 6650SOL     OW31411   1.656   3.740   8.299  0.3003 -0.4030  0.1923
 6650SOL    HW131412   1.592   3.688   8.249  0.8686 -1.5456  0.6549
 6650SOL    HW231413   1.614   3.744   8.385  0.7741 -0.7049  0.4389
 6651SOL     OW31414   0.338   3.975  17.130 -0.2100 -0.3043  0.6266
 6651SOL    HW131415   0.352   4.061  17.169 -0.4334  0.0244 -0.0195
 6651SOL    HW231416   0.267   3.932  17.177 -0.8652  0.0955  0.0099
 6652SOL     OW31417   2.703   1.529   7.551  0.4659 -0.1945 -0.2192
 6652SOL    HW131418   2.713   1.483   7.635 -2.0146  0.3263  0.3464
 6652SOL    HW231419   2.750   1.610   7.571  0.2432  0.3295 -1.8309
 6653SOL     OW31420   1.177   3.334   8.839 -0.4871 -0.1339 -0.1134
 6653SOL    HW131421   1.186   3.245   8.805  0.3133 -0.2080  0.3067
 6653SOL    HW231422   1.189   3.385   8.759  1.3521  1.1585  0.9931
 6654SOL     OW31423   0.351   2.918   3.561  0.3999  0.7127  0.0862
 6654SOL    HW131424   0.295   2.952   3.631 -2.1770 -0.1018 -1.5794
 6654SOL    HW231425   0.311   2.835   3.534  2.2057  0.1253 -0.7837
 6655SOL     OW31426   1.566   3.671  12.498  0.1198 -0.0395 -0.8283
 6655SOL    HW131427   1.498   3.700  12.439  2.5690  2.9318 -2.1764
 6655SOL    HW231428   1.608   3.755  12.518 -0.1111 -0.1182 -0.0031
 6656SOL     OW31429   1.328   1.163  12.719  0.9064 -0.6001 -0.2038
 6656SOL    HW131430   1.356   1.105  12.790  1.0872 -0.2291  0.0284
 6656SOL    HW231431   1.296   1.100  12.655 -0.2782  0.1854 -0.3935
 6657SOL     OW31432   3.321   0.886   2.002 -0.4186 -0.6768  0.0685
 6657SOL    HW131433   3.287   0.946   1.936  0.7279  1.5169  1.4709
 6657SOL    HW231434   3.275   0.923   2.077 -3.1218  1.9045 -2.8454
 6658SOL     OW31435   0.063   2.076   6.918 -0.0636 -0.3227 -0.0004
 6658SOL    HW131436   4.692   2.088   6.911 -0.1377 -0.5388  0.5475
 6658SOL    HW231437   0.099   2.150   6.966 -2.0883 -0.9237  2.5079
 6659SOL     OW31438   3.798   4.315   8.964 -0.6628 -0.0170 -0.5425
 6659SOL    HW131439   3.703   4.321   8.978 -0.6176 -0.1999 -0.1289
 6659SOL    HW231440   3.803   4.282   8.875 -0.9320 -1.2592 -0.0881
 6660SOL     OW31441   3.582   4.135   2.385  0.4340  0.1435 -1.3365
 6660SOL    HW131442   3.607   4.198   2.318 -2.0168  1.0030 -1.4560
 6660SOL    HW231443   3.599   4.057   2.333  1.2029 -0.4892 -0.1544
 6661SOL     OW31444   1.612   4.233   3.207  0.0620  1.0170 -0.9015
 6661SOL    HW131445   1.587   4.142   3.193  0.2771  0.6648  1.0051
 6661SOL    HW231446   1.662   4.240   3.127 -1.2809  0.0491 -1.8343
 6662SOL     OW31447   0.091   4.130   6.624  0.0361 -0.0231 -0.3476
 6662SOL    HW131448   0.185   4.139   6.639 -0.0559 -0.8529  0.7791
 6662SOL    HW231449   0.053   4.085   6.700 -0.5260  2.5802  0.9030
 6663SOL     OW31450   2.043   1.940  14.311  0.3354 -0.0961  0.1309
 6663SOL    HW131451   2.064   2.007  14.246 -1.2597  0.1785 -0.1022
 6663SOL    HW231452   1.956   1.917  14.279  0.7726 -1.0326 -0.4022
 6664SOL     OW31453   0.206   1.722  12.200  0.5417 -0.0504  0.0031
 6664SOL    HW131454   0.227   1.775  12.124  1.2757 -0.0000  0.2427
 6664SOL    HW231455   0.232   1.637  12.164  1.4750  0.3448 -0.2391
 6665SOL     OW31456   2.706   2.331   4.855  0.3519  0.7700  0.1356
 6665SOL    HW131457   2.794   2.295   4.851 -1.0212 -2.6543  0.0877
 6665SOL    HW231458   2.666   2.300   4.774 -0.1021 -2.5409  1.5882
 6666SOL     OW31459   2.950   0.829   7.822 -0.1472  0.6690 -0.1606
 6666SOL    HW131460   2.951   0.775   7.901  0.3179  0.4098 -0.3401
 6666SOL    HW231461   3.039   0.864   7.827 -0.9925  2.4199  2.9281
 6667SOL     OW31462   0.461   4.621   7.993 -0.0581  0.5163  0.1220
 6667SOL    HW131463   0.461   4.701   8.045 -1.2087  1.4896 -1.4027
 6667SOL    HW231464   0.534   4.577   8.039 -0.6596 -0.6002  0.0118
 6668SOL     OW31465   2.597   2.396   7.267  0.0186 -0.2326  0.3507
 6668SOL    HW131466   2.630   2.342   7.339  0.4518 -1.6634 -0.9163
 6668SOL    HW231467   2.561   2.327   7.212 -1.5971  1.0681 -0.2067
 6669SOL     OW31468   4.074   2.736   6.614 -0.0846 -0.0089 -0.0818
 6669SOL    HW131469   4.085   2.683   6.535 -1.3166  0.6239 -0.6765
 6669SOL    HW231470   4.107   2.822   6.589  0.3907 -1.1302 -3.3388
 6670SOL     OW31471   2.867   1.842   0.671 -0.7569 -0.5500  0.0206
 6670SOL    HW131472   2.940   1.875   0.620 -0.5045 -0.8172  0.2082
 6670SOL    HW231473   2.832   1.919   0.715 -2.2023 -0.1410 -1.8102
 6671SOL     OW31474   0.108   2.269   7.157 -0.0841 -0.5089  0.8017
 6671SOL    HW131475   0.081   2.200   7.218 -2.2856 -0.1183  0.2652
 6671SOL    HW231476   0.104   2.351   7.206  2.1528 -0.2038  0.4604
 6672SOL     OW31477   3.326   4.167  10.198 -0.1150  0.1287  0.4912
 6672SOL    HW131478   3.357   4.097  10.140 -1.0496  0.2856 -0.1911
 6672SOL    HW231479   3.298   4.231  10.132 -0.6837 -0.5611  0.0534
 6673SOL     OW31480   3.178   4.375  10.387  0.3423  0.4817 -0.0090
 6673SOL    HW131481   3.192   4.453  10.440  1.5863 -1.8052  3.0156
 6673SOL    HW231482   3.083   4.372  10.375  0.4866  0.1562 -1.0983
 6674SOL     OW31483   3.111   0.649   5.404 -0.2850  0.3799 -0.5955
 6674SOL    HW131484   3.165   0.684   5.474  0.1744  0.0835 -0.7959
 6674SOL    HW231485   3.053   0.590   5.452 -0.4199  0.7774 -0.2733
 6675SOL     OW31486   2.724   1.299   5.350 -0.4624 -0.8328  0.2950
 6675SOL    HW131487   2.801   1.355   5.358 -0.5255 -1.0003  2.1783
 6675SOL    HW231488   2.736   1.274   5.259 -0.4494  2.3010 -0.5939
 6676SOL     OW31489   1.136   1.049  14.181  0.1636 -0.2438  0.6686
 6676SOL    HW131490   1.193   1.126  14.178 -0.4935  0.2176 -0.1846
 6676SOL    HW231491   1.152   1.027  14.090  2.5390  4.1869 -0.0172
 6677SOL     OW31492   1.684   4.142  12.862 -0.2276 -0.6498 -0.4382
 6677SOL    HW131493   1.770   4.164  12.825  0.0628 -1.7272 -0.3940
 6677SOL    HW231494   1.624   4.215  12.848 -2.0564 -1.6199  2.3453
 6678SOL     OW31495   1.156   0.982   6.183  0.0186  0.0562 -0.3346
 6678SOL    HW131496   1.088   0.916   6.184  0.8488 -0.7716  2.2612
 6678SOL    HW231497   1.179   0.971   6.091 -1.5490 -1.0188 -0.5913
 6679SOL     OW31498   4.207   3.440   7.135  0.2470  0.6643  0.3604
 6679SOL    HW131499   4.202   3.528   7.173  0.9704  1.1466 -0.6483
 6679SOL    HW231500   4.173   3.459   7.047  0.9517  0.3123  0.0188
 6680SOL     OW31501   0.122   2.777  15.120 -0.9863  0.2763 -0.1214
 6680SOL    HW131502   0.208   2.793  15.159  0.0935  2.8509 -3.5019
 6680SOL    HW231503   0.111   2.853  15.063  0.4107 -0.2145 -1.0374
 6681SOL     OW31504   3.379   0.352  11.807  0.8880 -0.1276  0.3421
 6681SOL    HW131505   3.390   0.309  11.722  2.5912  0.5167  0.2507
 6681SOL    HW231506   3.286   0.372  11.795  0.7741 -2.0073 -1.9810
 6682SOL     OW31507   1.868   1.814   2.875  0.0037 -0.4555 -0.0579
 6682SOL    HW131508   1.848   1.826   2.782 -3.2939  0.1817  0.7338
 6682SOL    HW231509   1.780   1.802   2.912 -1.5830  0.8782 -3.4268
 6683SOL     OW31510   1.005   0.171  12.793 -0.8119  0.7718  0.3679
 6683SOL    HW131511   1.079   0.122  12.758  0.5078  1.2386  2.4453
 6683SOL    HW231512   0.942   0.101  12.811  0.8599 -0.6310  0.7027
 6684SOL     OW31513   2.385   1.482   4.294 -0.4190 -0.5834 -0.0598
 6684SOL    HW131514   2.437   1.552   4.253 -2.3509  0.2418 -1.0726
 6684SOL    HW231515   2.338   1.438   4.224  1.8615 -0.9345 -1.3630
 6685SOL     OW31516   0.078   3.376  15.357  0.8266  0.3830  0.9040
 6685SOL    HW131517   0.047   3.406  15.272 -0.7168 -0.3486  1.2025
 6685SOL    HW231518   0.028   3.295  15.369  1.7976 -0.4505 -0.8080
 6686SOL     OW31519   1.015   0.831   3.115  0.1061  0.9329 -0.7850
 6686SOL    HW131520   1.055   0.744   3.122 -2.1708 -0.1364 -0.8555
 6686SOL    HW231521   0.989   0.857   3.203 -1.0326  0.5057 -0.9933
 6687SOL     OW31522   3.899   1.780   7.100 -0.2522 -0.1600 -0.1401
 6687SOL    HW131523   3.885   1.707   7.040 -0.3242  1.1582 -1.7209
 6687SOL    HW231524   3.995   1.781   7.097 -0.1661 -0.6218  2.0256
 6688SOL     OW31525   0.547   3.700  13.808 -0.1339  0.7439 -0.1076
 6688SOL    HW131526   0.629   3.748  13.821  0.3637 -0.0404 -0.3425
 6688SOL    HW231527   0.501   3.759  13.748  0.5183 -0.5401 -1.8805
 6689SOL     OW31528   1.002   3.446   8.424  0.1618 -0.1557 -0.2955
 6689SOL    HW131529   0.915   3.448   8.384  0.2513 -1.3947 -0.5389
 6689SOL    HW231530   1.026   3.359   8.394  1.4968 -0.3930  1.4817
 6690SOL     OW31531   3.572   3.709   0.405 -0.1745  0.0911 -0.0604
 6690SOL    HW131532   3.526   3.631   0.375 -1.4016 -0.0272  2.1322
 6690SOL    HW231533   3.536   3.779   0.352 -2.0332 -1.4575 -0.8453
 6691SOL     OW31534   0.401   0.870  17.327 -0.6141 -0.3175 -0.4568
 6691SOL    HW131535   0.485   0.825  17.320 -0.0660  0.7076 -0.5730
 6691SOL    HW231536   0.345   0.794  17.317 -1.5166  0.3350 -0.3546
 6692SOL     OW31537   2.292   2.256  16.421  0.5582  0.5109  1.0581
 6692SOL    HW131538   2.320   2.180  16.370  0.2080  0.3129  1.1642
 6692SOL    HW231539   2.302   2.327  16.358 -0.1035  2.0744  2.7307
 6693SOL     OW31540   3.214   0.711   8.952  0.3818 -0.1958  0.8705
 6693SOL    HW131541   3.165   0.676   9.026 -0.4295  2.0984  1.4233
 6693SOL    HW231542   3.304   0.704   8.983  0.7234  1.5903  0.2824
 6694SOL     OW31543   4.037   4.594  14.075  0.3414 -0.3853  0.5939
 6694SOL    HW131544   4.058   4.687  14.061  0.1716 -0.0531  2.5421
 6694SOL    HW231545   4.057   4.561  13.987 -0.1105 -0.8211  0.6536
 6695SOL     OW31546   4.075   2.172  12.001  0.5676 -0.4007  0.2515
 6695SOL    HW131547   4.129   2.155  11.924  0.1914 -2.4202  0.4190
 6695SOL    HW231548   3.999   2.221  11.968  0.3556 -1.5940 -1.0433
 6696SOL     OW31549   3.970   0.244   2.613  0.0000  0.1651  0.7935
 6696SOL    HW131550   4.050   0.200   2.644  0.1179  0.6120  1.1222
 6696SOL    HW231551   3.923   0.175   2.567  1.2564  1.1618 -2.0164
 6697SOL     OW31552   1.211   1.359   7.692  0.1817  0.3041  0.6172
 6697SOL    HW131553   1.299   1.389   7.712  0.4192  0.6521 -0.9029
 6697SOL    HW231554   1.185   1.289   7.751  1.3315 -1.3755 -0.8673
 6698SOL     OW31555   3.373   0.237  11.014 -0.1449 -0.5372 -0.3151
 6698SOL    HW131556   3.411   0.225  11.101  1.4490 -0.1141 -0.9611
 6698SOL    HW231557   3.294   0.284  11.043  0.6928  0.7660 -0.1647
 6699SOL     OW31558   4.321   1.483   3.636  0.3973 -0.1462 -0.5951
 6699SOL    HW131559   4.308   1.397   3.595  1.5534 -0.0989 -1.0619
 6699SOL    HW231560   4.271   1.533   3.572  3.2521  0.9288 -2.0120
 6700SOL     OW31561   4.570   4.431   9.916  0.0027  0.6246  0.1535
 6700SOL    HW131562   4.576   4.339   9.942  2.3385  1.3848  2.2391
 6700SOL    HW231563   4.605   4.477   9.992  3.3671 -1.8063  0.0676
 6701SOL     OW31564   0.607   1.226   9.164 -0.2802  0.3062  0.2785
 6701SOL    HW131565   0.645   1.139   9.153  0.1652  0.6240 -0.6498
 6701SOL    HW231566   0.578   1.211   9.254  0.3812 -2.5213  0.0222
 6702SOL     OW31567   1.906   4.592   1.153  0.2851  0.1040 -0.5567
 6702SOL    HW131568   1.945   4.526   1.210  1.1036 -0.1441 -1.4066
 6702SOL    HW231569   1.948   4.674   1.180 -0.8835  0.2098  0.9777
 6703SOL     OW31570   1.329   4.149   7.668 -0.9420 -0.1929  0.2760
 6703SOL    HW131571   1.330   4.237   7.706 -0.4455  1.4670 -3.5876
 6703SOL    HW231572   1.418   4.122   7.690 -0.2961  2.3237  0.8352
 6704SOL     OW31573   1.258   1.423   1.023  0.0625  0.3173 -0.2239
 6704SOL    HW131574   1.262   1.489   1.092  0.6241 -0.3254  0.3594
 6704SOL    HW231575   1.172   1.383   1.037  0.8338 -1.1955  0.1987
 6705SOL     OW31576   2.909   0.170   2.386  0.1499 -0.0803 -0.2545
 6705SOL    HW131577   2.963   0.131   2.318 -1.9580  1.3121 -2.7253
 6705SOL    HW231578   2.903   0.113   2.463  1.6759  1.2993  0.9020
 6706SOL     OW31579   0.979   3.322   6.930  0.4373 -0.6820  0.1387
 6706SOL    HW131580   0.918   3.375   6.981  2.0594  1.4988 -0.1652
 6706SOL    HW231581   0.942   3.234   6.934  2.5365 -1.5744  0.0340
 6707SOL     OW31582   3.803   0.207  10.995 -0.4167  0.2911  0.6518
 6707SOL    HW131583   3.898   0.195  10.991 -0.6217 -1.6453  1.3542
 6707SOL    HW231584   3.788   0.155  11.074 -0.6004 -0.4644  0.1226
 6708SOL     OW31585   2.574   0.605   4.421 -0.5731 -0.5062 -0.5598
 6708SOL    HW131586   2.602   0.611   4.330  0.7164 -0.7044 -0.1760
 6708SOL    HW231587   2.520   0.684   4.427  1.0611  0.3145  3.5505
 6709SOL     OW31588   1.963   2.818   3.109  0.2901 -0.4279 -0.6485
 6709SOL    HW131589   1.869   2.814   3.088  0.3790  0.1900 -1.1691
 6709SOL    HW231590   1.985   2.730   3.080  1.9645 -0.8239  1.8497
 6710SOL     OW31591   3.577   4.073  14.428  0.2322  0.2427  0.1354
 6710SOL    HW131592   3.539   4.070  14.340  0.7588  2.3155 -0.1572
 6710SOL    HW231593   3.656   4.022  14.409  1.6285  1.3759  2.8366
 6711SOL     OW31594   2.707   0.248   6.254  0.6808  0.3880  0.4458
 6711SOL    HW131595   2.632   0.298   6.223 -0.1849 -1.6245 -0.6895
 6711SOL    HW231596   2.763   0.250   6.177  0.0375  0.2537 -0.0301
 6712SOL     OW31597   2.911   2.308  13.947  0.4787  0.7531  0.6555
 6712SOL    HW131598   2.838   2.366  13.967  1.6955  2.2624  0.7642
 6712SOL    HW231599   2.906   2.262  14.031  0.7868  1.1935  0.9138
 6713SOL     OW31600   3.510   2.314  16.010 -0.1573 -0.5337 -0.5677
 6713SOL    HW131601   3.422   2.285  16.036 -0.9712  3.0434  0.6269
 6713SOL    HW231602   3.546   2.363  16.084 -2.6751 -0.2697  0.4987
 6714SOL     OW31603   0.726   0.534  13.095  0.0888 -0.1320  0.2217
 6714SOL    HW131604   0.820   0.519  13.108  0.4606  0.6541 -1.5548
 6714SOL    HW231605   0.704   0.622  13.127 -1.4328 -0.7887  0.9692
 6715SOL     OW31606   0.372   1.697   8.355 -0.0693 -0.5077 -0.0476
 6715SOL    HW131607   0.384   1.616   8.404 -0.9061 -1.4514 -1.3990
 6715SOL    HW231608   0.310   1.736   8.417  0.9010  0.5907  0.2182
 6716SOL     OW31609   2.987   4.335   8.863 -0.2523 -0.8523 -0.0902
 6716SOL    HW131610   2.927   4.391   8.913  0.3410 -1.8164  1.7062
 6716SOL    HW231611   2.980   4.385   8.781  0.5625  0.8205  0.8529
 6717SOL     OW31612   0.285   0.271   8.784 -0.2340  0.7278  0.1425
 6717SOL    HW131613   0.378   0.250   8.784 -0.3595  0.1823  0.8548
 6717SOL    HW231614   0.246   0.185   8.800  0.3900  0.6329  1.0970
 6718SOL     OW31615   3.555   0.480   4.545  0.1515 -0.2974 -0.2745
 6718SOL    HW131616   3.570   0.517   4.632 -1.0575  3.0142 -1.4655
 6718SOL    HW231617   3.532   0.390   4.570 -2.8212  0.9008  1.4062
 6719SOL     OW31618   2.772   2.518  14.020 -0.3842 -0.6360  1.0141
 6719SOL    HW131619   2.691   2.491  14.063 -0.1441 -2.9943 -0.0387
 6719SOL    HW231620   2.799   2.575  14.091  0.2634 -2.3937  2.1640
 6720SOL     OW31621   3.011   2.446   7.344  0.0800  0.3200  0.0941
 6720SOL    HW131622   2.929   2.474   7.304 -0.4977  0.2449  1.2144
 6720SOL    HW231623   3.075   2.452   7.273  0.4332 -0.1930  0.3644
 6721SOL     OW31624   0.514   0.091  14.180  0.7327 -0.0330  0.1968
 6721SOL    HW131625   0.540   0.178  14.212  0.6183 -0.5372  1.6461
 6721SOL    HW231626   0.436   0.070  14.231  0.5204  2.3498  0.8449
 6722SOL     OW31627   2.870   4.560   3.593  0.2778  0.2452  0.6358
 6722SOL    HW131628   2.902   4.648   3.614 -0.4159  0.5783  0.3190
 6722SOL    HW231629   2.888   4.511   3.673 -0.1021 -1.5171 -0.3570
 6723SOL     OW31630   0.830   4.245   5.315 -0.5520 -0.8885 -0.2797
 6723SOL    HW131631   0.747   4.263   5.271  0.9463  0.7152 -2.4524
 6723SOL    HW231632   0.842   4.150   5.315  0.9585 -0.7120  3.6438
 6724SOL     OW31633   1.401   3.391   4.595  0.6351  0.0470 -0.1154
 6724SOL    HW131634   1.335   3.335   4.636  1.2841  0.1245  1.0281
 6724SOL    HW231635   1.396   3.377   4.501 -1.1195 -0.1894  0.0156
 6725SOL     OW31636   1.986   3.884   4.080  0.4979 -0.3840  0.2229
 6725SOL    HW131637   1.967   3.963   4.131 -2.9412 -1.7119  0.9835
 6725SOL    HW231638   2.080   3.899   4.082  0.4280  0.1057 -0.0915
 6726SOL     OW31639   2.434   3.296   7.180  0.4989 -0.2216 -0.4629
 6726SOL    HW131640   2.469   3.384   7.196  0.9297 -0.4836  0.0306
 6726SOL    HW231641   2.460   3.294   7.088  0.9042  0.4557 -0.3665
 6727SOL     OW31642   2.155   1.065   5.102  0.4254  0.4667  0.3707
 6727SOL    HW131643   2.140   1.146   5.054 -0.2749 -0.2216 -0.5747
 6727SOL    HW231644   2.177   1.104   5.187  0.7375  0.8892  0.0950
 6728SOL     OW31645   1.956   1.433   3.150 -0.4253  0.2334 -0.3230
 6728SOL    HW131646   2.022   1.451   3.217  0.4166  0.2313 -1.1493
 6728SOL    HW231647   1.984   1.489   3.078  1.1887 -0.6303 -0.3544
 6729SOL     OW31648   2.002   0.549  16.167 -0.3374  0.4883  0.2182
 6729SOL    HW131649   2.078   0.504  16.132 -1.0053  0.6763 -1.4989
 6729SOL    HW231650   1.949   0.562  16.088 -2.4305  0.0862  1.5553
 6730SOL     OW31651   1.064   4.598   3.659  0.0831 -0.2285  0.3766
 6730SOL    HW131652   0.970   4.601   3.678 -0.1841  2.4248 -1.3589
 6730SOL    HW231653   1.067   4.568   3.569  0.5151 -1.2878  0.7362
 6731SOL     OW31654   0.004   1.614   7.737  0.5605  0.0061 -0.4088
 6731SOL    HW131655   0.084   1.647   7.697  2.0714 -0.8966  1.8269
 6731SOL    HW231656   0.016   1.519   7.742  1.5455  0.1868  0.8686
 6732SOL     OW31657   0.783   0.849   1.681  0.3353 -0.0274  0.0864
 6732SOL    HW131658   0.841   0.798   1.737 -0.7150 -1.1349  0.1702
 6732SOL    HW231659   0.702   0.798   1.682  0.5998 -0.4257  0.6592
 6733SOL     OW31660   1.611   0.357   8.483  0.4704  0.2679 -0.7361
 6733SOL    HW131661   1.629   0.347   8.577 -0.6490  1.1795 -0.4262
 6733SOL    HW231662   1.604   0.452   8.469 -0.1677  0.0737 -1.7535
 6734SOL     OW31663   3.197   1.339   0.390 -0.4322  0.2215 -0.3453
 6734SOL    HW131664   3.113   1.296   0.377  1.1656 -3.5086  1.7799
 6734SOL    HW231665   3.189   1.416   0.334 -0.1422 -0.1826 -0.9387
 6735SOL     OW31666   1.076   3.821   3.103  0.1051  0.0159 -0.2129
 6735SOL    HW131667   1.143   3.889   3.114  0.9515 -1.2736  2.8134
 6735SOL    HW231668   1.136   3.746   3.103 -1.3175 -1.1216  0.6391
 6736SOL     OW31669   1.734   0.936   7.630 -0.1679  0.0473 -0.5092
 6736SOL    HW131670   1.820   0.932   7.672 -0.2850  1.6437 -0.1342
 6736SOL    HW231671   1.686   0.870   7.682  1.5725  0.7629  2.0223
 6737SOL     OW31672   1.574   4.674   2.983  0.2579 -0.5600  0.5209
 6737SOL    HW131673   1.637   4.719   2.926  0.6666 -1.3032  0.3780
 6737SOL    HW231674   1.497   4.660   2.928  2.0038 -0.5830 -1.9070
 6738SOL     OW31675   3.586   0.231   5.178 -0.5235 -0.4353  0.1006
 6738SOL    HW131676   3.626   0.145   5.167 -0.5317 -0.7435  2.3288
 6738SOL    HW231677   3.606   0.267   5.092  0.0216 -1.4124 -0.1725
 6739SOL     OW31678   0.014   1.660   6.978  0.3072  0.1698  0.6962
 6739SOL    HW131679   0.028   1.631   7.069  0.7451  1.0899  0.9212
 6739SOL    HW231680   0.035   1.575   6.939 -0.8179  0.3869 -0.3408
 6740SOL     OW31681   2.386   0.021  13.183  0.1805  0.1252 -0.0099
 6740SOL    HW131682   2.290   0.020  13.186  0.2182  1.6389  1.8745
 6740SOL    HW231683   2.393   4.667  13.240  0.5727  1.2348  1.4623
 6741SOL     OW31684   4.221   0.996   4.296  0.2569 -0.5991  0.0588
 6741SOL    HW131685   4.282   0.947   4.351  1.1496  1.1032  0.5940
 6741SOL    HW231686   4.281   1.068   4.277 -0.1538 -0.4537 -0.6768
 6742SOL     OW31687   3.432   0.834   0.275  0.6571 -0.1354 -0.9989
 6742SOL    HW131688   3.371   0.848   0.203  0.0125  0.6638 -0.2853
 6742SOL    HW231689   3.371   0.784   0.330  1.5304 -0.1476 -0.0373
 6743SOL     OW31690   0.231   0.044   3.115  0.3868 -0.1611 -0.6387
 6743SOL    HW131691   0.293   0.005   3.053  0.8385 -0.5742  0.0766
 6743SOL    HW231692   0.167   4.696   3.117 -0.2432  0.4630  1.3217
 6744SOL     OW31693   4.555   3.438   0.351  0.1251 -0.0564  0.0822
 6744SOL    HW131694   4.512   3.452   0.267 -0.9827  0.3020  0.7030
 6744SOL    HW231695   4.543   3.520   0.399  0.0938 -0.4414  0.7266
 6745SOL     OW31696   3.616   4.324   8.127  0.1650 -0.5417 -0.4881
 6745SOL    HW131697   3.696   4.272   8.137  0.1527 -0.5828 -0.6009
 6745SOL    HW231698   3.642   4.383   8.057  0.3196  0.9801  0.8588
 6746SOL     OW31699   4.547   2.456   6.679  0.2378  0.2790 -0.2076
 6746SOL    HW131700   4.545   2.481   6.772 -1.2738 -1.1044  0.1314
 6746SOL    HW231701   4.634   2.490   6.660 -0.1685  1.7464  0.5466
 6747SOL     OW31702   4.295   2.232   4.834  0.7477  0.0027  0.1284
 6747SOL    HW131703   4.385   2.198   4.836  0.6986 -0.2303 -1.8913
 6747SOL    HW231704   4.267   2.228   4.925 -0.4499  0.5296 -0.2166
 6748SOL     OW31705   0.678   2.268   4.475  1.1592 -0.5939 -0.1324
 6748SOL    HW131706   0.739   2.198   4.455  0.1516 -1.7089  0.7091
 6748SOL    HW231707   0.693   2.330   4.403 -1.9059 -1.0858 -1.2086
 6749SOL     OW31708   3.472   4.681   7.633  0.6675  0.7978  0.2714
 6749SOL    HW131709   3.410   0.030   7.630 -0.2584  0.0124  0.7686
 6749SOL    HW231710   3.522   4.696   7.552 -3.1322  1.3918 -1.9863
 6750SOL     OW31711   1.714   4.372   2.348 -0.4174  0.5979 -0.3384
 6750SOL    HW131712   1.672   4.406   2.269 -1.3730 -0.2221 -0.1790
 6750SOL    HW231713   1.790   4.326   2.312  0.3201  0.3249  1.5471
 6751SOL     OW31714   3.046   3.814   6.164  0.1045  0.0140  0.3905
 6751SOL    HW131715   2.989   3.770   6.102  1.3216 -1.0477  0.0213
 6751SOL    HW231716   3.126   3.762   6.166  0.5019  0.5876 -0.5257
 6752SOL     OW31717   1.326   2.463   2.684  0.3975  0.3189 -0.2046
 6752SOL    HW131718   1.398   2.402   2.697  1.3691  1.4359 -0.3949
 6752SOL    HW231719   1.341   2.485   2.592 -0.2343  2.0098  0.0914
 6753SOL     OW31720   2.412   1.526   5.457  0.4078 -0.1363 -0.3621
 6753SOL    HW131721   2.478   1.587   5.490  0.1656  0.0901 -0.2989
 6753SOL    HW231722   2.442   1.521   5.366 -0.9051 -1.0825 -0.7367
 6754SOL     OW31723   0.368   2.742   2.315  0.4460  0.0056  0.2540
 6754SOL    HW131724   0.415   2.739   2.231 -1.5626 -0.7229 -0.8611
 6754SOL    HW231725   0.429   2.686   2.361 -0.7249 -0.4900  1.2120
 6755SOL     OW31726   1.982   4.042   9.306  0.4831  0.2364  0.1461
 6755SOL    HW131727   1.914   3.977   9.292  0.6395 -0.2146  1.4349
 6755SOL    HW231728   2.032   4.005   9.379 -1.7034 -1.7419  0.6273
 6756SOL     OW31729   4.532   1.728   6.803  0.1415 -0.0239 -0.0162
 6756SOL    HW131730   4.474   1.769   6.867  0.0253  0.6381 -0.5520
 6756SOL    HW231731   4.607   1.729   6.863  0.5239 -0.2136 -0.4897
 6757SOL     OW31732   2.146   2.404  16.159 -0.2920  0.0693  0.4798
 6757SOL    HW131733   2.121   2.495  16.144  2.4106  0.8963  0.9929
 6757SOL    HW231734   2.138   2.378  16.067 -1.1160  0.4509  0.4488
 6758SOL     OW31735   2.047   3.976   1.874  0.3461 -0.2438 -0.0789
 6758SOL    HW131736   2.051   3.882   1.891 -4.1826 -0.4280 -0.2506
 6758SOL    HW231737   2.123   3.996   1.929 -0.9717 -3.2012  2.7782
 6759SOL     OW31738   4.581   1.282   3.045 -0.1036  0.2788  0.4123
 6759SOL    HW131739   4.498   1.235   3.039  0.1177  0.1103 -1.2426
 6759SOL    HW231740   4.592   1.310   2.954 -0.7274  1.4058  0.6867
 6760SOL     OW31741   4.031   4.045  14.169  0.3947  0.7791 -0.7164
 6760SOL    HW131742   4.110   3.999  14.141  2.2254  3.0127  0.8242
 6760SOL    HW231743   4.026   4.039  14.264 -0.9744 -1.0924 -0.8993
 6761SOL     OW31744   0.819   1.645   8.061  0.1553 -0.2932 -0.0346
 6761SOL    HW131745   0.863   1.645   8.147  1.3620 -2.1685 -0.6614
 6761SOL    HW231746   0.895   1.652   8.003  1.2867  0.0768  1.4822
 6762SOL     OW31747   4.029   3.533   4.723  0.2864 -0.3756 -0.3019
 6762SOL    HW131748   3.968   3.607   4.736  3.1086  1.8915  0.0215
 6762SOL    HW231749   3.987   3.497   4.645  0.2008 -1.5263  0.2735
 6763SOL     OW31750   3.373   2.112  12.572  0.0957  0.7577  0.1161
 6763SOL    HW131751   3.374   2.152  12.484 -2.2568 -0.0224 -0.2727
 6763SOL    HW231752   3.280   2.104  12.593  0.0111 -1.4850 -1.1032
 6764SOL     OW31753   2.188   0.805   9.516  0.2286  0.2966 -0.0626
 6764SOL    HW131754   2.185   0.749   9.438  0.8284  1.3366 -0.8289
 6764SOL    HW231755   2.202   0.894   9.483  0.3672 -0.3109 -1.6581
 6765SOL     OW31756   4.109   1.684   3.254  0.0030  0.0705  0.1041
 6765SOL    HW131757   4.122   1.719   3.342 -0.1859  0.3673  0.0123
 6765SOL    HW231758   4.133   1.593   3.272  1.1034  0.4383  0.4749
 6766SOL     OW31759   2.576   1.945   8.842 -0.2420  0.5416 -0.7057
 6766SOL    HW131760   2.573   1.923   8.749 -1.4205 -4.3983  0.4940
 6766SOL    HW231761   2.482   1.948   8.862  0.3128 -1.3719  2.2683
 6767SOL     OW31762   2.086   3.973   3.238 -0.5137  0.2811 -0.3416
 6767SOL    HW131763   2.033   3.927   3.172 -1.4175  1.2506 -0.2972
 6767SOL    HW231764   2.175   3.942   3.226 -0.1729  0.8397  0.7796
 6768SOL     OW31765   0.658   2.609   7.157  0.0268  0.2435  0.0467
 6768SOL    HW131766   0.648   2.537   7.219 -0.1637 -1.1025 -1.5464
 6768SOL    HW231767   0.750   2.598   7.132 -0.2179 -0.0392 -0.7233
 6769SOL     OW31768   3.781   0.317   8.078  0.1311  0.1967  0.0468
 6769SOL    HW131769   3.836   0.270   8.015 -0.3974 -1.3560  0.7570
 6769SOL    HW231770   3.786   0.259   8.154  0.8459 -1.3887 -1.2062
 6770SOL     OW31771   1.798   0.889  16.045  0.4318 -0.2732  0.6482
 6770SOL    HW131772   1.734   0.826  16.010  1.6738 -1.4617  0.4716
 6770SOL    HW231773   1.867   0.879  15.979 -1.7824  2.2628 -2.0219
 6771SOL     OW31774   0.196   2.731   2.557 -0.5883 -0.6415 -0.4321
 6771SOL    HW131775   0.259   2.749   2.627 -1.5856  0.5128  0.1743
 6771SOL    HW231776   0.257   2.733   2.483  1.2815  0.7727  1.1611
 6772SOL     OW31777   2.683   1.288  17.275  0.3663 -0.5521  0.6123
 6772SOL    HW131778   2.589   1.273  17.267  0.1795 -0.3853  2.4198
 6772SOL    HW231779   2.683   1.364  17.217  1.5846  0.8292  2.3921
 6773SOL     OW31780   0.555   2.718   6.180  0.9065 -0.2595 -0.4048
 6773SOL    HW131781   0.584   2.695   6.092 -1.4043 -0.7226 -1.0317
 6773SOL    HW231782   0.474   2.765   6.162  0.3293 -0.1204  2.5645
 6774SOL     OW31783   2.938   0.480   2.135  0.4116 -0.1592 -0.2585
 6774SOL    HW131784   2.977   0.557   2.092  0.5952  0.6395  1.3474
 6774SOL    HW231785   2.861   0.528   2.165 -1.0025 -0.7678 -2.9067
 6775SOL     OW31786   3.377   1.284   3.340  0.1321  0.2182  0.6957
 6775SOL    HW131787   3.305   1.225   3.361 -0.5530  0.4037 -1.1428
 6775SOL    HW231788   3.457   1.236   3.359 -1.0666 -1.0184  2.6669
 6776SOL     OW31789   4.015   1.369   7.459  0.0621 -0.2562  0.3736
 6776SOL    HW131790   4.094   1.410   7.494 -0.0542  0.9788 -0.8004
 6776SOL    HW231791   4.014   1.393   7.366  1.0891 -2.2246 -0.1463
 6777SOL     OW31792   0.382   3.995   7.649  0.0033 -0.0214  0.5859
 6777SOL    HW131793   0.297   4.000   7.606  0.3227  0.0958 -0.0421
 6777SOL    HW231794   0.372   4.058   7.720  2.0085  2.0002 -0.9367
 6778SOL     OW31795   2.786   1.899   2.189  0.8675  0.6856  0.3268
 6778SOL    HW131796   2.691   1.897   2.194  1.0297 -0.2897  2.8143
 6778SOL    HW231797   2.798   1.983   2.143  1.6283 -0.0896 -0.8922
 6779SOL     OW31798   1.730   0.973   8.254 -0.5238 -0.5004  0.1938
 6779SOL    HW131799   1.746   0.897   8.309  2.0125  0.2355  0.4786
 6779SOL    HW231800   1.639   0.953   8.234 -0.1979 -3.2185  1.5172
 6780SOL     OW31801   4.309   1.848   1.273  0.0738 -0.0602 -0.0958
 6780SOL    HW131802   4.392   1.884   1.306  0.5491 -2.2493  1.0692
 6780SOL    HW231803   4.299   1.901   1.194 -0.3731  1.7173  1.1441
 6781SOL     OW31804   0.093   3.176  11.073 -0.5934 -0.3675 -0.2415
 6781SOL    HW131805   0.174   3.224  11.091  1.1027 -3.0263 -0.6455
 6781SOL    HW231806   0.049   3.184  11.157  0.6976  2.2360  0.1721
 6782SOL     OW31807   4.008   0.451   4.231  0.0874  0.3713  0.5159
 6782SOL    HW131808   4.033   0.542   4.248  3.2341 -0.5756  0.9544
 6782SOL    HW231809   4.041   0.414   4.313 -0.5740  1.4469  1.2664
 6783SOL     OW31810   2.655   1.491   3.353  0.6093  0.3545 -0.1721
 6783SOL    HW131811   2.711   1.517   3.279 -0.3172 -0.8031 -1.2827
 6783SOL    HW231812   2.706   1.524   3.427 -1.2912 -1.2727  1.8604
 6784SOL     OW31813   2.792   1.902  17.267  0.1607 -0.3646 -0.3253
 6784SOL    HW131814   2.867   1.927  17.321 -2.2755  1.7646  2.1067
 6784SOL    HW231815   2.749   1.827  17.307 -1.1345  0.8797  0.6248
 6785SOL     OW31816   0.860   3.366   2.492 -0.0502 -0.3516  0.1995
 6785SOL    HW131817   0.823   3.423   2.424  0.7067  0.2531  0.2909
 6785SOL    HW231818   0.816   3.282   2.479 -2.6306  0.7217  1.9979
 6786SOL     OW31819   0.587   4.080  10.642  0.4285 -0.6436  0.0006
 6786SOL    HW131820   0.498   4.115  10.649  0.8595  0.5206 -0.4142
 6786SOL    HW231821   0.592   4.082  10.547 -0.1672 -2.1787 -0.0640
 6787SOL     OW31822   3.611   2.150   8.733  0.2422  0.1554 -0.3303
 6787SOL    HW131823   3.701   2.174   8.710 -0.1803  2.2236  0.1959
 6787SOL    HW231824   3.609   2.058   8.707 -0.2311  0.0661  0.0322
 6788SOL     OW31825   4.496   4.398   5.128 -0.0842 -0.1073 -0.0630
 6788SOL    HW131826   4.480   4.490   5.151  0.1241 -0.1618  0.3038
 6788SOL    HW231827   4.413   4.353   5.145  0.1399 -1.3453 -2.2754
 6789SOL     OW31828   2.643   2.749   7.788 -0.0624 -0.0981  0.2026
 6789SOL    HW131829   2.586   2.674   7.803 -0.3920  0.4168  1.4898
 6789SOL    HW231830   2.727   2.711   7.764  0.1095 -0.0125  0.6689
 6790SOL     OW31831   1.710   2.802  13.891  0.0493 -0.0298  0.0881
 6790SOL    HW131832   1.669   2.816  13.977  0.3942 -3.1523  0.7565
 6790SOL    HW231833   1.792   2.851  13.896 -0.2177  0.4227 -0.0127
 6791SOL     OW31834   4.046   3.457   2.742 -0.0349  0.3320 -0.6629
 6791SOL    HW131835   3.955   3.469   2.767  0.2051 -0.4057  0.5792
 6791SOL    HW231836   4.084   3.453   2.830 -1.9747 -0.0540  0.1487
 6792SOL     OW31837   4.364   1.847   7.961 -0.1070  0.1683  0.2194
 6792SOL    HW131838   4.363   1.942   7.965 -0.4061  0.2576 -1.8356
 6792SOL    HW231839   4.309   1.833   7.884 -0.5138 -0.9251  0.7033
 6793SOL     OW31840   4.703   1.652   8.807  0.1391  0.2569  0.3540
 6793SOL    HW131841   4.681   1.728   8.861  2.2152  1.2585 -0.1901
 6793SOL    HW231842   4.704   1.584   8.875 -2.2195  1.8457  1.9847
 6794SOL     OW31843   2.797   1.937  15.198 -0.1076  0.2267 -0.2717
 6794SOL    HW131844   2.764   1.914  15.112 -0.6536 -0.5188  0.1392
 6794SOL    HW231845   2.744   1.882  15.256 -0.7279 -0.0776 -1.1349
 6795SOL     OW31846   4.528   2.510   3.481 -0.4217 -0.3457 -0.6025
 6795SOL    HW131847   4.603   2.473   3.434 -0.5063  0.4977 -1.4051
 6795SOL    HW231848   4.451   2.471   3.438 -0.0469 -1.1815 -0.5255
 6796SOL     OW31849   0.575   0.303   3.507 -0.4169 -0.0577  0.3064
 6796SOL    HW131850   0.512   0.372   3.486 -0.8038 -0.4361  0.2212
 6796SOL    HW231851   0.544   0.283   3.595 -0.9648 -0.2908  0.0666
 6797SOL     OW31852   1.322   0.921   2.460  0.0773 -0.0021  0.0368
 6797SOL    HW131853   1.244   0.955   2.416 -0.2922  1.0193  1.4515
 6797SOL    HW231854   1.382   0.994   2.443  1.4446 -0.7083  1.7910
 6798SOL     OW31855   3.717   3.345   7.404 -0.0172 -0.4149 -0.0207
 6798SOL    HW131856   3.792   3.297   7.368 -0.0054 -1.7133  1.7053
 6798SOL    HW231857   3.759   3.416   7.452  0.2325 -0.8126  0.3507
 6799SOL     OW31858   4.514   2.706  13.513  0.5166 -0.8005  0.3256
 6799SOL    HW131859   4.496   2.667  13.598  0.1608  0.1361  0.6853
 6799SOL    HW231860   4.445   2.669  13.458  0.7966 -0.0316 -0.5501
 6800SOL     OW31861   1.813   2.754  15.769 -0.4371  0.3635  0.4752
 6800SOL    HW131862   1.749   2.712  15.711  0.9862 -0.2378 -0.6460
 6800SOL    HW231863   1.877   2.683  15.766 -0.1693  0.6964 -1.7816
 6801SOL     OW31864   3.383   4.293   4.174  0.6497 -0.0100  0.5625
 6801SOL    HW131865   3.313   4.354   4.199  0.8026  0.4981 -0.3006
 6801SOL    HW231866   3.379   4.217   4.234  2.3571 -0.0213  0.6606
 6802SOL     OW31867   2.948   4.350   6.638 -0.1431 -0.1007 -0.3584
 6802SOL    HW131868   2.869   4.308   6.673 -1.3923  0.8244 -2.0620
 6802SOL    HW231869   2.967   4.402   6.716  1.1741 -1.5327  0.2821
 6803SOL     OW31870   3.954   4.710   6.907 -0.3855 -0.1535 -0.3327
 6803SOL    HW131871   4.018   4.650   6.869 -1.4059 -0.9806 -0.7562
 6803SOL    HW231872   3.876   4.684   6.857 -2.2410 -0.3286  2.6221
 6804SOL     OW31873   1.936   4.254  12.792  0.0787 -0.9700  0.0473
 6804SOL    HW131874   2.011   4.228  12.845  0.2178 -3.3873 -1.3293
 6804SOL    HW231875   1.952   4.347  12.774 -0.1556 -1.1370 -1.0023
 6805SOL     OW31876   3.582   0.509   0.852  0.4494 -0.0097  0.1341
 6805SOL    HW131877   3.568   0.587   0.906 -0.8012 -0.2536  0.1680
 6805SOL    HW231878   3.507   0.510   0.793 -0.6803 -0.0506  1.5471
 6806SOL     OW31879   0.810   3.748   8.728 -0.4118 -0.0915 -0.3617
 6806SOL    HW131880   0.742   3.717   8.788 -2.0655  1.5038 -1.4513
 6806SOL    HW231881   0.794   3.693   8.652 -0.5184  1.3833 -1.3864
 6807SOL     OW31882   3.211   0.393   9.064 -0.0163 -0.3465 -0.2279
 6807SOL    HW131883   3.284   0.401   9.126  0.1026 -0.8915 -0.2961
 6807SOL    HW231884   3.144   0.346   9.114 -1.4336 -0.1751 -1.9549
 6808SOL     OW31885   1.715   3.742   3.145  0.3151 -0.0329  0.6138
 6808SOL    HW131886   1.802   3.782   3.145  1.6967 -3.0074  0.6436
 6808SOL    HW231887   1.712   3.675   3.077  1.3030  1.6479 -1.0888
 6809SOL     OW31888   3.975   4.344   6.398  0.0034  0.3219 -0.4439
 6809SOL    HW131889   4.036   4.288   6.447 -2.2054 -1.1755  0.5736
 6809SOL    HW231890   3.955   4.408   6.467  1.3952 -0.2641  0.5226
 6810SOL     OW31891   3.550   1.015   1.723 -0.0438 -0.5405  0.2092
 6810SOL    HW131892   3.533   1.081   1.790 -1.3380 -0.6184 -0.0426
 6810SOL    HW231893   3.546   0.937   1.778 -1.1218 -0.0535  0.8260
 6811SOL     OW31894   4.445   2.064   2.321 -0.1213 -0.2408  0.1502
 6811SOL    HW131895   4.444   1.969   2.318 -1.7647 -0.1651 -1.6431
 6811SOL    HW231896   4.357   2.094   2.299  0.3880  0.3350 -1.1415
 6812SOL     OW31897   2.732   0.527   6.718  0.1345 -0.1351 -0.1610
 6812SOL    HW131898   2.802   0.581   6.755 -1.4221  1.1300  0.9839
 6812SOL    HW231899   2.780   0.467   6.662  1.9618 -0.1621  1.4218
 6813SOL     OW31900   0.569   2.423   5.297 -0.0581 -0.2889 -0.1426
 6813SOL    HW131901   0.632   2.374   5.351 -0.3137 -1.1880 -0.6626
 6813SOL    HW231902   0.584   2.371   5.218  0.6249 -0.1944 -0.0757
 6814SOL     OW31903   2.496   3.206   6.695 -0.4759 -0.3703 -0.4881
 6814SOL    HW131904   2.440   3.135   6.727  0.6557 -0.2359  1.7335
 6814SOL    HW231905   2.571   3.157   6.661 -0.3927  0.8722 -2.1081
 6815SOL     OW31906   4.168   4.570   4.560 -0.5656 -0.2411 -0.2901
 6815SOL    HW131907   4.088   4.545   4.515 -0.6143 -2.8584  1.2451
 6815SOL    HW231908   4.227   4.587   4.487  0.1482  0.5054  0.4552
 6816SOL     OW31909   3.504   3.415   9.399  0.1945 -0.4768 -0.8369
 6816SOL    HW131910   3.429   3.376   9.355 -0.3747 -0.0426 -0.2629
 6816SOL    HW231911   3.499   3.364   9.480  0.8404  0.6409 -0.0763
 6817SOL     OW31912   3.244   3.657   1.846 -0.5247  0.1514 -0.1378
 6817SOL    HW131913   3.243   3.597   1.772  0.9987 -0.8196  0.6155
 6817SOL    HW231914   3.191   3.609   1.910  0.1885 -1.4560 -0.7429
 6818SOL     OW31915   4.271   3.002   2.099 -0.2675  0.2794 -0.1580
 6818SOL    HW131916   4.280   3.065   2.027  2.2422 -0.8590 -0.8672
 6818SOL    HW231917   4.193   3.041   2.137  1.0234  0.2520  2.5022
 6819SOL     OW31918   3.261   2.526  13.104  0.0371 -0.3253  0.4907
 6819SOL    HW131919   3.303   2.533  13.018  2.8161 -1.7620  1.7495
 6819SOL    HW231920   3.268   2.610  13.148  1.6123 -0.2293  0.0735
 6820SOL     OW31921   0.200   1.262  11.740  0.2130  0.1429 -0.2258
 6820SOL    HW131922   0.227   1.196  11.676 -0.5360  0.0729 -0.4610
 6820SOL    HW231923   0.182   1.338  11.684  0.3100  1.3659  1.3918
 6821SOL     OW31924   2.133   2.433  14.715 -0.2470  0.7090  0.6441
 6821SOL    HW131925   2.185   2.375  14.771  1.9341  1.8542 -0.2188
 6821SOL    HW231926   2.145   2.401  14.626  0.7897  1.7383  0.4111
 6822SOL     OW31927   0.756   3.228   2.034 -0.1197  0.1698 -0.0994
 6822SOL    HW131928   0.735   3.179   1.955 -0.3611  0.9413 -0.5159
 6822SOL    HW231929   0.675   3.228   2.086  0.5368  0.9077  0.9290
 6823SOL     OW31930   3.682   1.171   3.383 -0.0792  0.2603  0.1311
 6823SOL    HW131931   3.687   1.221   3.465 -1.0943 -0.0418  0.3759
 6823SOL    HW231932   3.607   1.116   3.405  0.9864 -1.3177 -0.1896
 6824SOL     OW31933   2.872   4.649   4.055  0.3197 -0.4193 -0.0769
 6824SOL    HW131934   2.911   4.718   4.109 -0.0077  1.3795 -2.1855
 6824SOL    HW231935   2.953   4.625   4.010  0.4163  1.2133 -0.7610
 6825SOL     OW31936   0.764   3.379   1.291  0.7373  0.0448 -0.1916
 6825SOL    HW131937   0.738   3.360   1.381  0.2423  1.8121  0.0430
 6825SOL    HW231938   0.833   3.315   1.274 -0.0985 -1.0762  0.6201
 6826SOL     OW31939   1.537   0.159   5.501 -0.2376 -0.7225 -0.1251
 6826SOL    HW131940   1.610   0.211   5.468  0.7176 -0.4305  2.3978
 6826SOL    HW231941   1.577   0.075   5.480  1.9439 -0.1828  1.8673
 6827SOL     OW31942   0.048   4.136  13.762 -0.7051  0.1625 -0.0761
 6827SOL    HW131943   0.109   4.197  13.802 -0.4041 -0.1306 -0.0807
 6827SOL    HW231944   0.102   4.066  13.725 -1.3403 -0.8292  0.8787
 6828SOL     OW31945   1.873   3.547   1.615 -0.4142  0.0105  0.1282
 6828SOL    HW131946   1.840   3.636   1.630 -0.1215  0.2665 -0.7509
 6828SOL    HW231947   1.932   3.537   1.690  1.2790  1.8100 -0.9844
 6829SOL     OW31948   2.899   0.418   0.607  0.6151 -0.3742 -0.1934
 6829SOL    HW131949   2.945   0.376   0.534  0.1899 -1.4664  0.1562
 6829SOL    HW231950   2.950   0.381   0.679 -0.6168 -0.3773  0.6814
 6830SOL     OW31951   3.690   0.737  16.515  0.3485 -0.4171  0.0687
 6830SOL    HW131952   3.726   0.826  16.519 -0.7111  0.0166 -0.0710
 6830SOL    HW231953   3.754   0.693  16.571 -0.2679  0.6899  1.6488
 6831SOL     OW31954   1.394   3.293  13.157 -0.2704  0.7679  0.1235
 6831SOL    HW131955   1.410   3.273  13.249 -1.7809 -1.0782 -0.0226
 6831SOL    HW231956   1.465   3.354  13.135 -0.3763  0.5367 -0.8436
 6832SOL     OW31957   1.718   2.520   2.424 -0.0253 -0.5804  0.6713
 6832SOL    HW131958   1.714   2.614   2.441  1.5736 -0.0299 -1.9380
 6832SOL    HW231959   1.655   2.509   2.352  0.4414 -3.3221  0.6532
 6833SOL     OW31960   3.672   3.295   6.883  0.3586 -0.3584 -0.3172
 6833SOL    HW131961   3.650   3.202   6.879  1.9364 -0.6818 -1.4802
 6833SOL    HW231962   3.641   3.321   6.970  1.2487  0.9045 -0.3647
 6834SOL     OW31963   1.904   3.544   5.225  0.3572  0.2082  0.1498
 6834SOL    HW131964   1.895   3.475   5.160  2.3345 -1.1311  1.2951
 6834SOL    HW231965   1.835   3.528   5.289 -1.5310 -0.0765 -1.9688
 6835SOL     OW31966   2.951   0.025   6.887  0.6889 -0.2972  0.3217
 6835SOL    HW131967   2.966   0.092   6.820 -0.4674  1.2788  1.6646
 6835SOL    HW231968   2.900   0.075   6.950  1.4122 -1.8632  2.1618
 6836SOL     OW31969   0.475   3.654   7.778  0.6746 -0.1646 -0.3955
 6836SOL    HW131970   0.435   3.623   7.859  1.3385  0.9472  0.3598
 6836SOL    HW231971   0.533   3.723   7.812 -1.1300  1.2117 -0.0967
 6837SOL     OW31972   0.392   3.100   2.703  0.0083 -0.0698  0.0271
 6837SOL    HW131973   0.481   3.068   2.719  0.4216  0.7119 -0.6808
 6837SOL    HW231974   0.396   3.093   2.608 -0.5592  1.9842 -0.1486
 6838SOL     OW31975   3.328   1.971   5.633 -0.4745  0.0423 -0.4374
 6838SOL    HW131976   3.346   1.877   5.633  0.1243  0.1522 -1.0269
 6838SOL    HW231977   3.386   2.006   5.565  0.9359  0.0375  0.7769
 6839SOL     OW31978   0.285   2.090   5.666 -0.8563  0.6765 -0.3150
 6839SOL    HW131979   0.205   2.143   5.674  0.5509  2.2840  3.0143
 6839SOL    HW231980   0.279   2.056   5.577 -1.9693 -0.4032  0.1801
 6840SOL     OW31981   2.009   3.746   6.412  0.0970 -0.5498  0.6644
 6840SOL    HW131982   1.924   3.786   6.395 -0.9599 -2.6567  1.0213
 6840SOL    HW231983   2.058   3.789   6.342 -2.0247  1.1849  0.2784
 6841SOL     OW31984   2.458   2.298  10.833  0.2160 -0.4655 -0.5193
 6841SOL    HW131985   2.371   2.303  10.794  0.3112 -0.3929 -0.7214
 6841SOL    HW231986   2.519   2.326  10.765  0.0624 -0.5586 -0.6960
 6842SOL     OW31987   1.713   1.824   0.894 -0.6497 -0.9421  0.4555
 6842SOL    HW131988   1.630   1.816   0.942 -0.4803  2.3033  1.2714
 6842SOL    HW231989   1.732   1.731   0.883 -1.2249 -1.1170  0.9572
 6843SOL     OW31990   4.069   3.160   2.294  0.3819  0.2024 -0.2143
 6843SOL    HW131991   4.000   3.099   2.265  0.7650 -0.8212  1.0635
 6843SOL    HW231992   4.047   3.186   2.383 -2.6484  0.0254 -0.8987
 6844SOL     OW31993   2.177   3.274  14.696  0.4399  0.0872  0.0026
 6844SOL    HW131994   2.142   3.313  14.776  0.4111  2.2603 -1.0621
 6844SOL    HW231995   2.197   3.361  14.661  0.1307 -0.4349 -1.4757
 6845SOL     OW31996   0.687   0.786   6.310 -0.7071 -0.4051  0.3768
 6845SOL    HW131997   0.722   0.723   6.373 -2.1609 -0.9517  0.6470
 6845SOL    HW231998   0.711   0.860   6.366 -0.5024 -0.1255 -0.0869
 6846SOL     OW31999   1.955   3.388   1.211  0.0119  0.5313 -0.2867
 6846SOL    HW132000   1.944   3.341   1.128 -1.6324 -1.8102  1.2809
 6846SOL    HW232001   1.887   3.454   1.199  0.1656  0.6103 -0.7176
 6847SOL     OW32002   4.030   2.594  11.027  0.1725 -0.0713 -0.8261
 6847SOL    HW132003   3.975   2.641  10.964  1.3444  1.4277 -0.7496
 6847SOL    HW232004   3.975   2.522  11.056  1.1219 -0.8844 -1.0628
 6848SOL     OW32005   1.789   1.907   5.902  0.2906 -0.1750 -0.2469
 6848SOL    HW132006   1.875   1.917   5.861  0.4726  1.7583  0.5787
 6848SOL    HW232007   1.786   1.812   5.911  0.2788 -0.1829 -0.3325
 6849SOL     OW32008   2.916   1.780  10.845 -0.6675  0.0130  0.4352
 6849SOL    HW132009   2.915   1.857  10.902  0.7441  0.7683 -0.5770
 6849SOL    HW232010   3.010   1.780  10.830 -1.0204  1.3700 -1.7202
 6850SOL     OW32011   4.393   4.600   3.122 -0.2172 -0.0322 -0.0100
 6850SOL    HW132012   4.389   4.561   3.034 -0.2717  3.5573 -1.5744
 6850SOL    HW232013   4.410   4.519   3.170 -0.1792 -0.2256 -0.3456
 6851SOL     OW32014   0.193   0.424   0.249  0.7230  0.2944 -0.1559
 6851SOL    HW132015   0.101   0.429   0.274  0.5526  2.8964 -1.3274
 6851SOL    HW232016   0.192   0.393   0.159 -2.9356  0.1229 -0.0597
 6852SOL     OW32017   4.286   4.657   4.304 -0.4251 -0.5613  0.2966
 6852SOL    HW132018   4.321   0.021   4.285 -0.2856 -1.3490 -3.2245
 6852SOL    HW232019   4.256   4.628   4.217  1.3498  2.0396 -1.2027
 6853SOL     OW32020   2.639   1.271   8.008  0.0502 -0.2944 -0.7323
 6853SOL    HW132021   2.579   1.206   7.973 -2.0101  1.1097  0.2081
 6853SOL    HW232022   2.580   1.330   8.055 -1.3267 -1.6922 -0.7343
 6854SOL     OW32023   3.578   3.446  10.505 -0.3192  1.1459 -0.0162
 6854SOL    HW132024   3.645   3.415  10.566  1.1844  1.3937 -1.5528
 6854SOL    HW232025   3.500   3.402  10.539 -0.8092  0.6957 -1.7477
 6855SOL     OW32026   2.102   2.732   6.165 -0.3102  0.3711 -0.3220
 6855SOL    HW132027   2.041   2.793   6.122 -1.3648  0.0827  0.7711
 6855SOL    HW232028   2.035   2.667   6.187 -1.4901  1.6060 -0.2454
 6856SOL     OW32029   3.059   4.432   4.489 -0.1945  0.4336  0.1569
 6856SOL    HW132030   3.104   4.425   4.405  1.3474 -1.2347  1.1193
 6856SOL    HW232031   2.993   4.498   4.469 -0.5944  0.9951  3.2843
 6857SOL     OW32032   1.110   2.415   9.350 -0.1670 -0.1880  0.3100
 6857SOL    HW132033   1.154   2.339   9.312 -0.6324 -0.8337  1.0559
 6857SOL    HW232034   1.174   2.475   9.389  0.8524 -0.5279 -0.8443
 6858SOL     OW32035   4.159   1.949   1.723  0.4327 -0.1312 -0.4287
 6858SOL    HW132036   4.237   2.004   1.726  0.2217  0.2361 -1.8480
 6858SOL    HW232037   4.134   1.947   1.631  1.6871 -0.3024 -0.7707
 6859SOL     OW32038   2.044   1.690   8.501 -0.4903 -0.1742 -0.6657
 6859SOL    HW132039   2.134   1.690   8.532 -0.8254 -0.8841  0.2794
 6859SOL    HW232040   2.035   1.599   8.472  0.1012  0.0635 -1.5966
 6860SOL     OW32041   0.731   3.290   3.736 -0.2513  0.1057  0.1094
 6860SOL    HW132042   0.754   3.200   3.756  0.5544 -0.1411 -1.8999
 6860SOL    HW232043   0.640   3.281   3.707  0.7071 -2.1777 -2.2016
 6861SOL     OW32044   0.483   1.798   5.553  0.3439 -0.0203  0.0556
 6861SOL    HW132045   0.409   1.757   5.597 -1.0843  0.4145 -1.8984
 6861SOL    HW232046   0.523   1.720   5.516  1.1578 -0.6764  2.3273
 6862SOL     OW32047   1.787   2.633  10.935  0.2914  0.3795  0.1721
 6862SOL    HW132048   1.741   2.637  10.851  1.5766 -1.1514 -0.5957
 6862SOL    HW232049   1.872   2.596  10.913  0.7703  1.7382 -0.3040
 6863SOL     OW32050   3.945   2.631   8.716 -0.1581 -0.3203  0.0176
 6863SOL    HW132051   3.917   2.706   8.769 -0.8235 -1.2934  1.0492
 6863SOL    HW232052   3.865   2.579   8.720  0.2110 -0.7533  1.7319
 6864SOL     OW32053   1.878   1.997  13.551  0.1503 -0.0942  0.2009
 6864SOL    HW132054   1.850   2.088  13.558 -0.5974 -0.3740  1.0401
 6864SOL    HW232055   1.891   1.973  13.643  0.0686 -0.4652  0.1144
 6865SOL     OW32056   1.301   0.404   9.459 -0.2160 -0.4053 -0.2954
 6865SOL    HW132057   1.311   0.498   9.445  0.2143 -0.1454  1.7695
 6865SOL    HW232058   1.228   0.387   9.519 -0.1475  0.7649  0.1080
 6866SOL     OW32059   1.499   3.890  11.349 -0.2172 -0.8057 -0.3434
 6866SOL    HW132060   1.469   3.970  11.307 -2.1350 -1.3159  0.0932
 6866SOL    HW232061   1.443   3.818  11.320  1.6198 -2.8730  1.2070
 6867SOL     OW32062   4.286   0.841   5.970 -0.5619 -0.5144  0.2252
 6867SOL    HW132063   4.323   0.908   6.028 -0.6530  0.1059 -0.4317
 6867SOL    HW232064   4.305   0.762   6.020 -0.1995 -0.3476  0.3593
 6868SOL     OW32065   1.961   4.205   7.603 -0.2207  0.2536  0.1916
 6868SOL    HW132066   2.022   4.277   7.586 -1.2899  1.0198 -0.4434
 6868SOL    HW232067   1.962   4.189   7.697 -0.6889 -1.3032 -0.0765
 6869SOL     OW32068   3.962   0.715   5.153 -0.5866 -0.2793  0.7941
 6869SOL    HW132069   3.926   0.751   5.234  0.8413 -1.9278  2.1644
 6869SOL    HW232070   3.980   0.627   5.184  2.9783 -0.2660 -1.2623
 6870SOL     OW32071   3.922   1.014   4.111 -0.1837  0.0228  0.4925
 6870SOL    HW132072   3.946   1.067   4.188 -0.8429  0.8394  0.1349
 6870SOL    HW232073   3.871   0.941   4.146  1.3085  0.0121  2.7080
 6871SOL     OW32074   4.457   1.286   3.972  0.6723 -0.5303  0.0266
 6871SOL    HW132075   4.401   1.338   3.914 -0.3744  0.0610  1.5572
 6871SOL    HW232076   4.539   1.335   3.976  0.8913 -0.7680 -1.4226
 6872SOL     OW32077   3.650   0.252   0.745 -0.0660 -0.1682  0.0964
 6872SOL    HW132078   3.634   0.326   0.803 -1.8902 -1.2954  1.0085
 6872SOL    HW232079   3.580   0.190   0.765 -0.4073  0.6588  1.4886
 6873SOL     OW32080   2.816   3.668  15.749 -0.1233 -0.3978  0.3179
 6873SOL    HW132081   2.872   3.640  15.677 -0.9950  0.9079 -0.8529
 6873SOL    HW232082   2.748   3.601  15.745  1.5587 -2.2318  2.1249
 6874SOL     OW32083   4.088   2.613   7.211 -0.4319  0.4116 -0.0378
 6874SOL    HW132084   4.178   2.635   7.237  0.2607 -1.7665 -0.5915
 6874SOL    HW232085   4.076   2.529   7.253 -0.4173 -0.3549 -1.5677
 6875SOL     OW32086   0.143   0.910   4.977 -0.4358 -0.8076  0.3725
 6875SOL    HW132087   0.207   0.937   5.043  1.3091 -0.6995 -1.3875
 6875SOL    HW232088   0.153   0.989   4.923  1.0323 -0.5840  0.9694
 6876SOL     OW32089   2.587   4.074  14.471  0.4706  0.0180  0.1854
 6876SOL    HW132090   2.649   4.012  14.432  0.0374 -0.4948  0.3142
 6876SOL    HW232091   2.624   4.088  14.558  1.2546  0.4273 -0.2178
 6877SOL     OW32092   2.498   4.252  10.141 -0.2783 -0.3102  0.1268
 6877SOL    HW132093   2.440   4.268  10.067  0.3097 -1.3531 -0.5525
 6877SOL    HW232094   2.443   4.263  10.219 -1.1557 -0.9437 -0.4104
 6878SOL     OW32095   0.146   2.785  14.140  0.3837  0.4720  0.0252
 6878SOL    HW132096   0.118   2.695  14.121 -2.7804  2.2949 -3.7635
 6878SOL    HW232097   0.169   2.823  14.055  1.5193 -0.1367  0.0557
 6879SOL     OW32098   2.479   2.198   3.883  0.1376  0.1310  0.6212
 6879SOL    HW132099   2.398   2.248   3.871 -0.5397 -0.6448  1.9844
 6879SOL    HW232100   2.511   2.196   3.793  1.2243  1.4489  0.9703
 6880SOL     OW32101   0.640   1.415   7.682 -0.7139 -0.5389 -0.4341
 6880SOL    HW132102   0.731   1.418   7.714 -0.7231  0.6052 -0.4991
 6880SOL    HW232103   0.611   1.478   7.748 -0.8364 -2.0193  0.9257
 6881SOL     OW32104   2.928   3.975   3.102  0.4138  0.0674 -0.2122
 6881SOL    HW132105   2.884   4.059   3.086 -3.3683 -1.8810 -0.0863
 6881SOL    HW232106   3.020   3.999   3.096 -0.1406  1.8829 -1.7697
 6882SOL     OW32107   3.850   1.108   4.781  0.0180 -0.0439 -0.8204
 6882SOL    HW132108   3.911   1.066   4.720  0.9139 -0.3326  0.2545
 6882SOL    HW232109   3.865   1.040   4.848 -0.1349 -0.1076 -0.8513
 6883SOL     OW32110   1.388   0.223   6.281 -0.6757 -0.4511  0.0560
 6883SOL    HW132111   1.480   0.248   6.285 -0.9098  0.2024  1.3717
 6883SOL    HW232112   1.357   0.256   6.366 -0.8067 -0.6987  0.1039
 6884SOL     OW32113   2.234   2.118  11.859 -0.0779  0.0291 -0.1999
 6884SOL    HW132114   2.251   2.119  11.765  0.1791  1.2849 -0.1366
 6884SOL    HW232115   2.245   2.023  11.864 -0.2933  0.1042  1.6545
 6885SOL     OW32116   1.033   1.919   7.863 -0.0354 -0.0472  0.0137
 6885SOL    HW132117   0.967   1.931   7.931  0.4005  2.8373 -0.0634
 6885SOL    HW232118   1.110   1.946   7.913  1.3300 -0.1023 -2.0654
 6886SOL     OW32119   2.336   0.674  13.594 -0.1037  0.8487  0.1150
 6886SOL    HW132120   2.329   0.580  13.576  0.6032  0.5194  1.6356
 6886SOL    HW232121   2.402   0.680  13.662  1.9383  0.8730 -1.8563
 6887SOL     OW32122   4.633   2.414  15.497  0.4252  0.2433  0.0214
 6887SOL    HW132123   4.670   2.329  15.474  3.2971  1.7856 -1.2196
 6887SOL    HW232124   4.680   2.469  15.434  1.8977 -1.9074 -0.7374
 6888SOL     OW32125   4.069   2.568   5.126  0.2695 -0.9409 -0.4682
 6888SOL    HW132126   3.987   2.548   5.172  0.4925  0.8436  0.7059
 6888SOL    HW232127   4.133   2.574   5.197 -1.2998 -0.2212  0.8858
 6889SOL     OW32128   3.131   4.139   9.511  0.3393 -0.0029  0.7307
 6889SOL    HW132129   3.068   4.075   9.544 -0.2563 -0.0467 -0.4957
 6889SOL    HW232130   3.187   4.149   9.588 -0.9960  1.9263  1.4619
 6890SOL     OW32131   3.397   4.062   1.505  0.1445 -0.4390  0.1611
 6890SOL    HW132132   3.423   4.120   1.433  0.4441  2.7726  2.8803
 6890SOL    HW232133   3.479   4.056   1.553  0.3846  0.8969 -0.0833
 6891SOL     OW32134   2.398   0.007   5.863  0.1894  0.0317  0.6476
 6891SOL    HW132135   2.363   0.007   5.952 -0.2419 -1.7467  0.4871
 6891SOL    HW232136   2.316   0.004   5.813  1.3035  2.2782 -1.2905
 6892SOL     OW32137   2.865   3.317   6.374 -0.2996  0.0621  0.0876
 6892SOL    HW132138   2.821   3.255   6.316  1.2825 -0.2931 -0.7255
 6892SOL    HW232139   2.934   3.358   6.322 -1.0291  1.0659 -0.0805
 6893SOL     OW32140   1.479   3.545   8.563 -0.1386 -0.0947  0.0753
 6893SOL    HW132141   1.494   3.635   8.535  1.1229 -0.4419 -0.3887
 6893SOL    HW232142   1.386   3.544   8.582 -0.0993 -0.0009  0.2719
 6894SOL     OW32143   2.001   2.419   6.616 -0.3816 -0.2697 -0.3003
 6894SOL    HW132144   2.055   2.370   6.554  0.5179  0.1496  0.1416
 6894SOL    HW232145   2.026   2.511   6.606 -0.3659 -0.4238 -1.6310
 6895SOL     OW32146   3.563   4.223  16.184  0.5198 -0.5464  0.4058
 6895SOL    HW132147   3.485   4.182  16.221 -0.5012  0.6389 -0.4115
 6895SOL    HW232148   3.576   4.291  16.250  0.8726  1.2976 -1.5544
 6896SOL     OW32149   2.842   2.729  16.157 -0.0382 -0.8768  0.1110
 6896SOL    HW132150   2.887   2.757  16.236  0.3302  0.1281 -0.4559
 6896SOL    HW232151   2.801   2.648  16.188 -2.3456  0.5621  0.8153
 6897SOL     OW32152   3.557   0.519   5.779  0.4066 -0.4691  0.3878
 6897SOL    HW132153   3.568   0.513   5.684  1.0703  2.4166  0.2883
 6897SOL    HW232154   3.513   0.438   5.804 -0.9574  0.3059  0.5165
 6898SOL     OW32155   0.532   3.260  14.456  0.4667 -0.5560 -0.4798
 6898SOL    HW132156   0.440   3.246  14.434  1.0439 -3.0578 -1.2979
 6898SOL    HW232157   0.565   3.302  14.376 -0.4411  2.1001  0.5365
 6899SOL     OW32158   3.792   4.070   0.919 -0.5139  0.1188  0.3984
 6899SOL    HW132159   3.737   4.063   0.997 -0.8599 -0.9291  0.0559
 6899SOL    HW232160   3.878   4.038   0.947  0.5180  0.3243 -2.4940
 6900SOL     OW32161   2.703   1.863   3.005 -0.3548 -0.0620 -0.8415
 6900SOL    HW132162   2.653   1.784   2.985 -1.3652 -0.0344  1.5501
 6900SOL    HW232163   2.793   1.834   2.989 -0.8498 -0.5438 -2.7046
 6901SOL     OW32164   4.125   1.771   1.467 -0.0215  0.4781 -0.4260
 6901SOL    HW132165   4.202   1.750   1.521  0.3653  2.0471 -0.3557
 6901SOL    HW232166   4.178   1.792   1.390  0.9224  0.1649  0.1327
 6902SOL     OW32167   1.172   3.646   2.795  0.1409 -0.2058  0.3719
 6902SOL    HW132168   1.096   3.599   2.829 -0.0118 -1.2507 -1.4152
 6902SOL    HW232169   1.130   3.718   2.747 -0.5098  0.1756  1.5102
 6903SOL     OW32170   1.552   3.650   3.396 -0.1420 -0.0066 -1.1320
 6903SOL    HW132171   1.588   3.664   3.308  1.9774  0.1969 -0.2458
 6903SOL    HW232172   1.600   3.573   3.426 -0.6545  0.7949  1.7265
 6904SOL     OW32173   1.395   4.384   4.138 -0.3111  0.0802  0.2697
 6904SOL    HW132174   1.319   4.327   4.125  0.9122 -1.1139 -1.5831
 6904SOL    HW232175   1.460   4.314   4.145 -0.6737 -0.6473 -3.5893
 6905SOL     OW32176   1.864   1.714   3.592 -0.0874 -0.6939  0.3655
 6905SOL    HW132177   1.838   1.799   3.557 -2.8090 -0.8564  1.9380
 6905SOL    HW232178   1.800   1.665   3.539 -1.4038 -0.3514  1.6197
 6906SOL     OW32179   3.754   1.063   6.861  0.0535 -0.3030  0.5429
 6906SOL    HW132180   3.667   1.045   6.827  0.7513 -2.9082  0.1283
 6906SOL    HW232181   3.743   1.148   6.903  1.3211  0.2904 -0.3252
 6907SOL     OW32182   2.824   1.298   1.917  0.7840  0.1650 -0.0100
 6907SOL    HW132183   2.775   1.356   1.976 -0.7537 -1.5459  0.3758
 6907SOL    HW232184   2.749   1.251   1.881 -0.6757  2.2358  0.3194
 6908SOL     OW32185   0.064   2.012  13.198 -0.6275  0.1260  0.3437
 6908SOL    HW132186   0.079   1.972  13.112 -2.6589  1.4280 -0.6039
 6908SOL    HW232187   0.021   2.095  13.179 -0.3492  0.0884 -0.4589
 6909SOL     OW32188   2.732   2.428  12.194 -0.3641  0.1143 -0.4149
 6909SOL    HW132189   2.792   2.491  12.154 -0.0432  1.0326  1.5207
 6909SOL    HW232190   2.657   2.439  12.135 -0.2707 -0.5614 -0.6580
 6910SOL     OW32191   2.740   4.469   8.047 -0.2725 -0.0814 -0.2736
 6910SOL    HW132192   2.808   4.536   8.054 -0.8432  0.4437  0.3384
 6910SOL    HW232193   2.787   4.389   8.069  1.5326  1.7487  2.5812
 6911SOL     OW32194   3.975   3.752   5.295  0.4355 -0.2602  0.5710
 6911SOL    HW132195   3.884   3.727   5.310  0.8044 -0.5192  2.4584
 6911SOL    HW232196   4.015   3.739   5.381  0.9020  0.4619  0.4650
 6912SOL     OW32197   3.809   1.863   4.897  0.5571 -0.4150  0.1862
 6912SOL    HW132198   3.797   1.841   4.804 -0.4524  0.2830  0.1486
 6912SOL    HW232199   3.903   1.873   4.909  0.3090  0.0844  1.6157
 6913SOL     OW32200   2.287   4.232   3.585 -0.0543 -0.4406  0.8543
 6913SOL    HW132201   2.336   4.299   3.633  1.4281 -1.7930  1.2366
 6913SOL    HW232202   2.205   4.276   3.563 -0.0702 -0.5128  0.7702
 6914SOL     OW32203   0.021   4.436  10.146 -0.8624  0.0650 -0.0093
 6914SOL    HW132204   0.067   4.385  10.213  2.2298 -0.9691 -2.9627
 6914SOL    HW232205   0.080   4.433  10.071 -2.1327 -1.0956 -0.9329
 6915SOL     OW32206   1.978   0.181   8.016 -0.4833  0.5246  0.4101
 6915SOL    HW132207   2.067   0.216   8.004 -1.0696  1.8101 -0.2881
 6915SOL    HW232208   1.983   0.091   7.986 -1.9180  1.6369 -3.1727
 6916SOL     OW32209   2.295   1.666  15.595  0.2583 -0.4108  0.7425
 6916SOL    HW132210   2.220   1.643  15.539 -0.0633  1.6779  0.3020
 6916SOL    HW232211   2.284   1.754  15.631  1.4096 -1.6126  3.9953
 6917SOL     OW32212   4.209   1.906   4.354 -0.0855 -0.3495 -0.5095
 6917SOL    HW132213   4.273   1.903   4.425 -1.4878 -1.1605  0.7250
 6917SOL    HW232214   4.181   1.817   4.374 -0.4017 -0.1043  0.1535
 6918SOL     OW32215   2.728   2.719  11.995  0.0879  0.1772  0.2124
 6918SOL    HW132216   2.796   2.782  11.974 -0.3766  0.9451  1.0040
 6918SOL    HW232217   2.648   2.771  11.990  0.8698  1.4613  1.0476
 6919SOL     OW32218   0.229   4.033  12.332 -0.1418 -0.3893 -0.2082
 6919SOL    HW132219   0.262   4.122  12.327 -2.6566  0.6389  1.4887
 6919SOL    HW232220   0.275   4.008  12.412  1.1018 -1.8857 -1.3834
 6920SOL     OW32221   4.138   4.093   7.257  0.2336 -0.0858  0.4119
 6920SOL    HW132222   4.113   4.001   7.252 -0.5769  0.1992 -0.7940
 6920SOL    HW232223   4.216   4.091   7.202  1.1638 -1.3115  1.8097
 6921SOL     OW32224   3.474   1.205   2.590  0.7633 -0.2438  0.1116
 6921SOL    HW132225   3.452   1.298   2.597  0.6660 -0.2175 -0.5241
 6921SOL    HW232226   3.551   1.208   2.533  1.4144 -1.9658  0.9266
 6922SOL     OW32227   0.609   2.600   2.192 -0.5570 -0.0639  0.1476
 6922SOL    HW132228   0.692   2.553   2.182  0.3161  1.5377  0.0216
 6922SOL    HW232229   0.624   2.653   2.270 -2.6937  2.0022 -0.8736
 6923SOL     OW32230   1.156   3.586   7.886  0.2997 -0.3846  0.5240
 6923SOL    HW132231   1.158   3.561   7.978  1.6106  0.9514  0.8633
 6923SOL    HW232232   1.170   3.503   7.840  0.4776  0.3267 -0.7170
 6924SOL     OW32233   1.264   0.149  12.461  0.1052  0.3715 -0.2482
 6924SOL    HW132234   1.323   0.209  12.414  1.5771  0.7795  2.0940
 6924SOL    HW232235   1.288   0.166  12.552  3.1791 -0.3660 -0.9037
 6925SOL     OW32236   1.805   2.052  11.026  0.5551  0.2528 -0.7907
 6925SOL    HW132237   1.714   2.076  11.011  0.1214 -1.5501 -1.0363
 6925SOL    HW232238   1.798   2.028  11.118 -0.0992  0.4319 -0.7985
 6926SOL     OW32239   0.503   0.688   4.463  0.4898  0.0668  0.3079
 6926SOL    HW132240   0.585   0.652   4.428  0.3978  0.0201  0.1381
 6926SOL    HW232241   0.534   0.762   4.515 -0.7144 -0.2537  1.4638
 6927SOL     OW32242   1.353   3.734   0.809  0.0016 -0.1261  0.1064
 6927SOL    HW132243   1.317   3.822   0.800 -1.1636 -0.5325  0.8711
 6927SOL    HW232244   1.414   3.751   0.882 -1.0194  0.6215  0.7857
 6928SOL     OW32245   3.034   2.526   3.584  0.2487  0.0490  0.0775
 6928SOL    HW132246   3.049   2.433   3.568  0.8463 -0.1427  1.6632
 6928SOL    HW232247   2.939   2.521   3.595 -0.3509  1.4586 -4.4823
 6929SOL     OW32248   1.246   0.393   6.058 -0.5943 -0.0863  0.1246
 6929SOL    HW132249   1.289   0.471   6.024 -0.0311 -0.0213  0.9873
 6929SOL    HW232250   1.271   0.323   5.998 -0.2895 -1.9161  2.4033
 6930SOL     OW32251   2.282   2.752   7.934  0.1283  0.3913  0.3938
 6930SOL    HW132252   2.326   2.788   8.011  2.5630 -1.0378 -0.3305
 6930SOL    HW232253   2.342   2.695   7.885 -0.8851  0.8836 -1.4444
 6931SOL     OW32254   0.764   0.691   2.798 -0.1925  0.2415 -0.3361
 6931SOL    HW132255   0.774   0.627   2.727 -0.3036  0.2769 -0.3834
 6931SOL    HW232256   0.705   0.747   2.747 -1.3223  1.8578  2.7898
 6932SOL     OW32257   4.257   2.542  10.185 -0.2862  0.2328  0.3374
 6932SOL    HW132258   4.236   2.570  10.275  0.5036  0.5935  0.4154
 6932SOL    HW232259   4.184   2.487  10.158 -0.1154 -0.7244  1.7929
 6933SOL     OW32260   2.008   1.688   2.542 -1.0195  0.1769  0.6692
 6933SOL    HW132261   2.042   1.669   2.454  3.1889  1.4695  2.0208
 6933SOL    HW232262   2.066   1.753   2.579  0.9312  0.0910 -2.2358
 6934SOL     OW32263   3.475   2.760   2.665  0.0327  0.2004  0.5817
 6934SOL    HW132264   3.414   2.801   2.604 -1.7322 -0.0503  2.2015
 6934SOL    HW232265   3.523   2.694   2.615 -2.1124 -0.8486 -0.0704
 6935SOL     OW32266   0.482   4.167   6.086 -0.0639 -0.6439 -0.5561
 6935SOL    HW132267   0.424   4.234   6.123 -2.1809 -2.7402 -0.0945
 6935SOL    HW232268   0.422   4.095   6.066  0.0527 -0.7015 -0.6952
 6936SOL     OW32269   2.477   2.701   8.123  0.0855 -0.6289  0.6464
 6936SOL    HW132270   2.444   2.612   8.134 -1.0225  0.0858  3.0363
 6936SOL    HW232271   2.543   2.665   8.064 -1.8134 -0.4442 -1.6049
 6937SOL     OW32272   2.389   3.183   4.490  0.0400  0.6125 -0.4278
 6937SOL    HW132273   2.439   3.105   4.465  2.5908  1.0841  3.1929
 6937SOL    HW232274   2.359   3.162   4.578 -0.5685  0.3207 -0.7080
 6938SOL     OW32275   4.233   1.209  14.232  0.3463 -0.0394 -0.4960
 6938SOL    HW132276   4.193   1.241  14.151  0.0277  0.3081 -0.1986
 6938SOL    HW232277   4.154   1.194  14.284  2.2995 -4.2142  1.2877
 6939SOL     OW32278   2.711   1.267   8.837  0.3441 -0.0278  0.2618
 6939SOL    HW132279   2.664   1.193   8.799 -0.3636 -0.4689  2.0307
 6939SOL    HW232280   2.797   1.230   8.855  0.1688  0.4649  2.0630
 6940SOL     OW32281   1.075   0.883   8.314  0.0840  0.0501 -0.1731
 6940SOL    HW132282   1.103   0.849   8.399  0.9710 -0.6054 -0.7353
 6940SOL    HW232283   0.991   0.916   8.345 -0.7627 -0.5138 -1.8937
 6941SOL     OW32284   2.004   3.486  14.804  0.2326 -0.2078 -0.4565
 6941SOL    HW132285   1.913   3.455  14.805 -0.5630  2.0725 -2.2924
 6941SOL    HW232286   2.000   3.555  14.737 -1.9330 -1.1335 -1.2963
 6942SOL     OW32287   3.650   4.020   8.000 -0.4080  0.7844 -0.0939
 6942SOL    HW132288   3.669   3.993   8.090  1.0160  1.1435 -0.2853
 6942SOL    HW232289   3.726   4.078   7.991  0.5423 -0.7072 -1.7351
 6943SOL     OW32290   2.824   1.242   3.034  0.8144 -0.2701 -0.1687
 6943SOL    HW132291   2.795   1.276   2.949 -1.5214  0.7591  1.0313
 6943SOL    HW232292   2.916   1.265   3.049  0.5357 -0.5248  1.8227
 6944SOL     OW32293   4.499   1.170   5.175 -0.0290  0.2382 -0.1272
 6944SOL    HW132294   4.514   1.076   5.185 -0.6156  0.1961  0.3739
 6944SOL    HW232295   4.579   1.203   5.216  0.4346  2.2820 -2.6638
 6945SOL     OW32296   2.018   4.255   3.466 -0.0913 -0.1367 -0.1450
 6945SOL    HW132297   1.958   4.321   3.499  2.2439  0.1120  3.6392
 6945SOL    HW232298   1.958   4.189   3.433 -0.5863 -0.8902  2.2541
 6946SOL     OW32299   1.492   4.399   5.212 -0.3547 -0.4500 -0.1488
 6946SOL    HW132300   1.413   4.427   5.165  0.7580 -1.0269 -2.3649
 6946SOL    HW232301   1.462   4.403   5.303 -2.1533 -1.8226 -0.6885
 6947SOL     OW32302   3.115   2.137  12.623  0.0324 -0.3555 -0.3698
 6947SOL    HW132303   3.064   2.098  12.693 -0.8652  1.7576  0.1356
 6947SOL    HW232304   3.048   2.199  12.597  1.8620  1.8378  0.1393
 6948SOL     OW32305   0.233   3.598  10.823  0.3047  0.1665 -0.6545
 6948SOL    HW132306   0.243   3.514  10.778  1.3839 -0.1787  0.2434
 6948SOL    HW232307   0.302   3.601  10.889 -1.1737  0.2655  0.8618
 6949SOL     OW32308   4.101   3.033   2.774 -0.4084 -0.0215  0.7205
 6949SOL    HW132309   4.157   3.054   2.849 -2.4676 -0.3605  2.3427
 6949SOL    HW232310   4.062   2.954   2.810  3.1856 -2.3842 -0.5385
 6950SOL     OW32311   3.888   2.487   3.874  0.0666 -0.4821 -0.1774
 6950SOL    HW132312   3.970   2.526   3.843  0.0720 -0.4314 -0.1009
 6950SOL    HW232313   3.867   2.549   3.945 -0.3466 -3.8507  2.6219
 6951SOL     OW32314   1.968   2.773   1.969  0.5422  0.4197 -0.0583
 6951SOL    HW132315   1.991   2.710   1.901  0.6985 -0.7317  1.0486
 6951SOL    HW232316   1.922   2.838   1.915 -2.9652  0.5145  3.0424
 6952SOL     OW32317   3.163   0.178   4.568 -0.6941  0.0335  0.4988
 6952SOL    HW132318   3.116   0.111   4.616 -0.6087 -0.0980  0.3984
 6952SOL    HW232319   3.088   0.225   4.533 -0.1096  0.8353  0.3003
 6953SOL     OW32320   0.501   0.980   7.870  0.1503 -0.1834  0.3279
 6953SOL    HW132321   0.464   0.945   7.951  0.3313  1.1132  0.9755
 6953SOL    HW232322   0.572   1.026   7.914  0.2883  0.5658 -0.6826
 6954SOL     OW32323   0.756   4.093   4.467 -0.0211  0.3236 -0.3876
 6954SOL    HW132324   0.827   4.037   4.436  0.5514 -0.6218  2.6016
 6954SOL    HW232325   0.700   4.023   4.500 -1.6586  1.5980 -0.5060
 6955SOL     OW32326   2.715   3.315  14.936 -0.8227 -0.2546 -0.3263
 6955SOL    HW132327   2.748   3.267  15.013  1.0340  0.8008 -0.4653
 6955SOL    HW232328   2.762   3.398  14.932 -0.7273 -0.4460 -3.3473
 6956SOL     OW32329   4.612   4.648   8.887  0.1272  0.5128  0.1507
 6956SOL    HW132330   4.547   4.636   8.957  0.2588 -1.5009 -0.0739
 6956SOL    HW232331   4.579   0.006   8.848  0.8521  1.7067  2.0288
 6957SOL     OW32332   3.885   3.632   7.257  0.1045  0.1699 -0.4899
 6957SOL    HW132333   3.899   3.585   7.339 -0.7101 -0.9291 -0.9828
 6957SOL    HW232334   3.939   3.708   7.276  2.7952 -1.5204 -1.3975
 6958SOL     OW32335   1.497   1.874   4.162  0.2711 -0.3751 -0.0119
 6958SOL    HW132336   1.493   1.860   4.067  3.2203  1.3759 -0.4161
 6958SOL    HW232337   1.574   1.932   4.159  0.0269 -0.0443  0.1380
 6959SOL     OW32338   2.989   0.135  12.014 -0.2703 -0.1864  0.2875
 6959SOL    HW132339   3.012   0.227  12.004  0.7551 -0.5078 -0.1991
 6959SOL    HW232340   3.070   0.092  11.989  0.1174 -0.2542  1.6169
 6960SOL     OW32341   1.242   1.390   3.830 -0.3041  0.2687  0.1380
 6960SOL    HW132342   1.309   1.409   3.895  0.8545 -0.7632 -0.7509
 6960SOL    HW232343   1.168   1.352   3.877 -1.1884  0.3528 -1.1802
 6961SOL     OW32344   2.985   3.690   9.783 -0.3195  0.3079  0.2042
 6961SOL    HW132345   2.939   3.681   9.866 -1.5817 -1.1557 -0.6356
 6961SOL    HW232346   3.055   3.625   9.792  1.0597  1.3437 -2.9870
 6962SOL     OW32347   2.016   4.023   5.853  0.0014 -0.6693 -1.2145
 6962SOL    HW132348   2.098   4.058   5.819 -0.6449  1.3451 -0.7039
 6962SOL    HW232349   1.983   3.986   5.771 -0.5516 -2.8728 -0.0125
 6963SOL     OW32350   4.337   3.852   6.764  0.0278 -0.0878  0.2943
 6963SOL    HW132351   4.256   3.903   6.775  0.3967  0.7604 -0.9649
 6963SOL    HW232352   4.319   3.829   6.673 -0.4205 -0.1955  0.4084
 6964SOL     OW32353   3.567   0.062  16.601 -0.4030 -0.5198  0.2516
 6964SOL    HW132354   3.559   0.107  16.518  1.5917 -0.7326 -0.0666
 6964SOL    HW232355   3.663   0.058  16.608 -0.4852 -0.2861  1.4985
 6965SOL     OW32356   4.521   2.281   4.578  0.2052 -0.2637  0.4514
 6965SOL    HW132357   4.600   2.335   4.587  1.4210 -2.1037  0.7827
 6965SOL    HW232358   4.498   2.306   4.668 -1.0766 -3.2720  0.9502
 6966SOL     OW32359   1.066   0.140   8.979 -0.0179  0.0450 -0.0138
 6966SOL    HW132360   1.115   0.086   9.040  0.2908  1.1004  0.6646
 6966SOL    HW232361   1.113   0.223   8.984  1.2273 -0.6851  0.3036
 6967SOL     OW32362   3.365   0.903   3.755 -0.0014  0.6484  0.0608
 6967SOL    HW132363   3.352   0.888   3.849 -2.3893  2.4872  0.0451
 6967SOL    HW232364   3.454   0.938   3.753  0.6608 -1.0497 -0.4248
 6968SOL     OW32365   2.754   3.318  15.684 -0.1702  0.6815  0.6280
 6968SOL    HW132366   2.659   3.327  15.676  0.0202  2.6776  0.6333
 6968SOL    HW232367   2.751   3.256  15.757 -0.7210  1.2966  1.1339
 6969SOL     OW32368   4.331   4.105   1.483 -0.6703  0.1977 -0.7820
 6969SOL    HW132369   4.250   4.132   1.524 -0.1242 -0.8277  0.9854
 6969SOL    HW232370   4.319   4.121   1.389  0.8867  2.7878 -0.5305
 6970SOL     OW32371   2.327   3.082   2.707  0.1253  0.9157 -0.4633
 6970SOL    HW132372   2.311   3.064   2.614 -0.0937 -1.1929 -0.0210
 6970SOL    HW232373   2.395   3.016   2.722 -2.3797 -1.6531 -0.2656
 6971SOL     OW32374   0.489   1.645  14.608  0.8445 -0.2140  0.3995
 6971SOL    HW132375   0.482   1.715  14.673  3.2516 -0.8120  1.3136
 6971SOL    HW232376   0.400   1.612  14.608  1.1737 -1.1246 -1.2037
 6972SOL     OW32377   0.705   1.647   5.766  0.3240 -0.1159  0.5684
 6972SOL    HW132378   0.616   1.662   5.735 -0.4499  0.4519  3.1222
 6972SOL    HW232379   0.746   1.731   5.746 -1.2683  0.3966 -0.5487
 6973SOL     OW32380   1.979   3.646   3.393  0.2055 -0.3674  0.9855
 6973SOL    HW132381   2.039   3.645   3.317  0.2378  1.0221  0.9979
 6973SOL    HW232382   2.009   3.563   3.431  2.5781  0.2618  0.4813
 6974SOL     OW32383   3.704   0.269  14.871  0.5923  0.8126  0.8216
 6974SOL    HW132384   3.785   0.236  14.910  0.2389 -0.9675  0.0553
 6974SOL    HW232385   3.659   0.185  14.876  0.4105  0.9293  1.1610
 6975SOL     OW32386   1.251   2.720   2.596  0.1408 -0.1952 -0.1313
 6975SOL    HW132387   1.260   2.625   2.603 -2.7597 -0.3985  0.9177
 6975SOL    HW232388   1.286   2.732   2.508 -1.8110  0.3246 -0.8407
 6976SOL     OW32389   1.316   1.009   0.865 -0.5493 -0.1847 -0.7076
 6976SOL    HW132390   1.233   0.965   0.883 -1.0262  1.2740  0.7311
 6976SOL    HW232391   1.372   0.933   0.854 -1.5531 -1.0427  0.0507
 6977SOL     OW32392   1.529   3.840   8.525 -0.6270  0.5785  0.1933
 6977SOL    HW132393   1.491   3.927   8.511 -1.4856  0.1326 -0.2395
 6977SOL    HW232394   1.603   3.864   8.581  1.1161 -0.0083 -1.8526
 6978SOL     OW32395   3.998   0.434   8.708  0.0408  0.1119 -0.0750
 6978SOL    HW132396   3.956   0.434   8.794  0.4707 -2.3697  0.1473
 6978SOL    HW232397   3.955   0.363   8.660  1.3554 -0.8665  0.2005
 6979SOL     OW32398   2.701   2.082  14.585  0.0287  0.2732  0.3459
 6979SOL    HW132399   2.753   2.119  14.514  1.4230  0.7752  1.6266
 6979SOL    HW232400   2.656   2.166  14.593  1.0746  0.8728 -0.0731
 6980SOL     OW32401   4.285   0.428   0.892 -0.4050  0.4304  0.1462
 6980SOL    HW132402   4.256   0.501   0.947 -1.0741  0.2813 -0.0105
 6980SOL    HW232403   4.307   0.367   0.963  0.4538 -0.4498 -0.8823
 6981SOL     OW32404   1.660   4.548   8.730  0.1885 -0.3865  0.1573
 6981SOL    HW132405   1.700   4.506   8.807  0.7421 -1.6620 -0.8166
 6981SOL    HW232406   1.611   4.478   8.687 -0.9759  0.0704  0.7414
 6982SOL     OW32407   0.313   0.366   9.379 -0.0800  0.2503  0.2969
 6982SOL    HW132408   0.363   0.290   9.410 -0.1814  0.3678  0.7464
 6982SOL    HW232409   0.233   0.365   9.430  1.2091 -2.2638  2.2567
 6983SOL     OW32410   1.502   4.084   5.333  0.5748 -0.0040 -0.5252
 6983SOL    HW132411   1.494   4.120   5.245  0.1353 -0.9399 -0.8679
 6983SOL    HW232412   1.506   3.991   5.312 -1.2825  0.1517 -1.5710
 6984SOL     OW32413   4.641   2.376   3.192 -0.4004 -0.4782 -0.5258
 6984SOL    HW132414   4.640   2.315   3.118  3.2361 -0.4603 -0.5642
 6984SOL    HW232415   4.619   2.458   3.148  3.4036  0.0474 -1.3925
 6985SOL     OW32416   1.750   1.348  14.805 -0.0267 -0.0520 -0.0476
 6985SOL    HW132417   1.801   1.415  14.851 -1.8399  2.2073 -1.3152
 6985SOL    HW232418   1.800   1.267  14.816  2.2508  1.3638 -0.0690
 6986SOL     OW32419   0.266   1.228   2.726  0.5512  0.0699  0.2034
 6986SOL    HW132420   0.309   1.142   2.725 -2.5289 -1.4668  0.7757
 6986SOL    HW232421   0.319   1.281   2.667  0.3000 -0.3330 -0.3832
 6987SOL     OW32422   0.644   3.325  11.022 -0.1376 -0.0364  0.7192
 6987SOL    HW132423   0.549   3.333  11.015 -0.1075 -1.2597 -1.0915
 6987SOL    HW232424   0.663   3.349  10.931  2.1451 -0.9479  0.9522
 6988SOL     OW32425   2.226   1.379  15.473 -0.0304 -0.3185 -0.5029
 6988SOL    HW132426   2.198   1.371  15.382 -0.3832 -1.7674 -0.2552
 6988SOL    HW232427   2.208   1.473  15.482 -0.9847 -0.3804 -1.8435
 6989SOL     OW32428   0.426   0.721   5.520  0.0248 -0.4083 -0.0557
 6989SOL    HW132429   0.441   0.645   5.463  1.1605 -1.9479  2.2844
 6989SOL    HW232430   0.432   0.681   5.606  0.7532  1.0416  0.5590
 6990SOL     OW32431   2.834   0.660   3.869 -0.5956 -0.3829 -0.4533
 6990SOL    HW132432   2.835   0.588   3.806 -0.2705 -0.4673 -0.3506
 6990SOL    HW232433   2.924   0.664   3.900 -0.0717  0.4687 -2.0497
 6991SOL     OW32434   3.523   2.501  16.245  0.1470  0.6335 -0.3666
 6991SOL    HW132435   3.512   2.463  16.333  0.9499  0.5125 -0.3163
 6991SOL    HW232436   3.465   2.577  16.241  3.5803  3.4562  2.6858
 6992SOL     OW32437   1.199   3.798   7.178  0.7584  0.6945 -0.2822
 6992SOL    HW132438   1.238   3.729   7.124 -1.7231  1.2188 -2.7435
 6992SOL    HW232439   1.195   3.760   7.266  0.8886 -0.5641 -0.8198
 6993SOL     OW32440   3.455   1.844  10.246 -0.2012 -0.1503 -0.3253
 6993SOL    HW132441   3.453   1.912  10.312  2.6960 -0.0736 -0.3218
 6993SOL    HW232442   3.368   1.804  10.255 -0.3932  0.2186 -0.5339
 6994SOL     OW32443   0.406   0.782   7.306  0.1739  0.4456 -0.1122
 6994SOL    HW132444   0.396   0.862   7.357 -0.4325 -0.6606  1.5138
 6994SOL    HW232445   0.349   0.718   7.349  0.1480 -0.1999 -1.0978
 6995SOL     OW32446   0.209   3.013   3.783  0.1021 -0.5268 -0.3458
 6995SOL    HW132447   0.143   3.053   3.840  0.5286 -1.5085  0.8442
 6995SOL    HW232448   0.284   2.998   3.842  1.3657 -0.3806 -1.9150
 6996SOL     OW32449   0.465   1.601   8.936  0.0334 -0.3745  0.5317
 6996SOL    HW132450   0.558   1.578   8.934  0.0086 -0.3651 -0.8017
 6996SOL    HW232451   0.465   1.647   9.021 -1.0813  0.1102  0.2621
 6997SOL     OW32452   2.050   1.599   2.266 -0.5594 -0.0846 -0.0338
 6997SOL    HW132453   2.001   1.530   2.220 -3.3802  0.2736  2.4694
 6997SOL    HW232454   2.133   1.553   2.275 -0.0868  0.5790 -0.9692
 6998SOL     OW32455   2.759   1.727   4.708 -0.1667  0.0388  0.0711
 6998SOL    HW132456   2.692   1.709   4.641 -2.7315 -1.1902  2.9434
 6998SOL    HW232457   2.740   1.664   4.778 -0.4015 -0.2979 -0.2922
 6999SOL     OW32458   0.927   1.315   3.024 -0.3113  0.0871  0.1109
 6999SOL    HW132459   0.957   1.225   3.010  3.0983  1.2861 -0.2190
 6999SOL    HW232460   0.862   1.293   3.091  0.3971 -2.2328  0.0329
 7000SOL     OW32461   0.357   1.072  12.894  0.1848 -0.3526  0.0163
 7000SOL    HW132462   0.442   1.055  12.854  0.0625 -0.6140 -0.1335
 7000SOL    HW232463   0.307   1.076  12.812 -0.2973 -0.7446  0.2913
 7001SOL     OW32464   0.473   2.823  14.178 -0.4824 -0.2230 -0.1162
 7001SOL    HW132465   0.438   2.739  14.148  1.0793 -1.4747  1.6006
 7001SOL    HW232466   0.417   2.834  14.255  1.1910  1.2787  0.8607
 7002SOL     OW32467   2.911   3.330   2.492  0.0456  0.7792 -0.3375
 7002SOL    HW132468   3.002   3.335   2.463  0.4882  0.0533  0.9391
 7002SOL    HW232469   2.887   3.422   2.500  0.0498  0.7207  0.3269
 7003SOL     OW32470   0.990   1.194   0.801 -0.4253 -0.5142 -0.3900
 7003SOL    HW132471   0.922   1.244   0.755 -0.3600 -1.6672 -1.7419
 7003SOL    HW232472   1.062   1.199   0.739  0.1696  0.1749  0.3503
 7004SOL     OW32473   2.069   4.699   5.271  0.7729  0.2396  0.0352
 7004SOL    HW132474   2.061   4.608   5.242  0.3477  0.1556  0.4238
 7004SOL    HW232475   2.154   4.697   5.314  0.4022 -0.9066  0.7191
 7005SOL     OW32476   1.853   3.051   2.334 -0.3463 -0.5443 -0.6616
 7005SOL    HW132477   1.843   3.125   2.393 -0.4208 -1.6776  0.7546
 7005SOL    HW232478   1.799   3.079   2.260  0.2689  2.7766  0.1727
 7006SOL     OW32479   4.694   3.226   5.743 -0.3823 -0.1145 -0.4728
 7006SOL    HW132480   4.618   3.184   5.703 -0.8476 -0.3860  0.6918
 7006SOL    HW232481   4.647   3.284   5.804 -2.0154 -1.2821 -0.6182
 7007SOL     OW32482   4.722   4.523  11.219  0.5550  0.6423  0.6628
 7007SOL    HW132483   0.011   4.439  11.264 -1.9586 -0.2835 -0.3518
 7007SOL    HW232484   4.641   4.553  11.260 -0.8657 -1.5391 -0.5306
 7008SOL     OW32485   0.639   2.713  13.604  0.5978  0.2432  0.0825
 7008SOL    HW132486   0.624   2.770  13.679  3.6310  1.5191 -0.3133
 7008SOL    HW232487   0.676   2.636  13.648  1.5936  0.3914 -0.5058
 7009SOL     OW32488   0.222   0.499   7.306 -0.1455  0.0179 -0.0465
 7009SOL    HW132489   0.170   0.520   7.384  1.2031  1.9841  0.3252
 7009SOL    HW232490   0.197   0.577   7.256 -0.0164  0.6714  0.9096
 7010SOL     OW32491   1.029   2.990   3.350 -0.0637  0.6478 -0.2841
 7010SOL    HW132492   0.985   2.991   3.265  0.0846  0.7783 -0.3584
 7010SOL    HW232493   0.961   3.017   3.412  0.8576 -3.3938  2.5238
 7011SOL     OW32494   2.616   0.178   3.041  0.2916 -0.3574 -0.4006
 7011SOL    HW132495   2.548   0.112   3.029  0.5746 -0.5339 -0.9821
 7011SOL    HW232496   2.640   0.206   2.953  0.4222 -0.1582 -0.3031
 7012SOL     OW32497   2.580   1.331   9.113 -0.2590 -0.8044  0.1743
 7012SOL    HW132498   2.615   1.268   9.049  1.3890 -2.3356  2.5599
 7012SOL    HW232499   2.626   1.296   9.190  0.8587 -0.9556 -0.5544
 7013SOL     OW32500   2.008   2.557  11.167  0.0829 -0.1966 -0.0700
 7013SOL    HW132501   2.017   2.644  11.205 -1.2784  0.6967 -1.7781
 7013SOL    HW232502   2.042   2.508  11.242 -0.2497  0.0710  0.2607
 7014SOL     OW32503   4.454   4.243  10.648 -0.0737  0.4116 -0.2905
 7014SOL    HW132504   4.505   4.223  10.727  0.5290 -0.4234 -0.8931
 7014SOL    HW232505   4.381   4.183  10.644 -0.8418  1.3339 -0.0916
 7015SOL     OW32506   3.378   0.964  15.608  0.4831 -0.2338  0.4704
 7015SOL    HW132507   3.400   0.895  15.670  0.3378  0.2364  1.0459
 7015SOL    HW232508   3.421   0.949  15.524  0.4174 -0.6719  0.5191
 7016SOL     OW32509   3.232   0.557  17.210  0.8592 -0.2603  0.0142
 7016SOL    HW132510   3.262   0.467  17.195  2.7444  0.5062 -0.8873
 7016SOL    HW232511   3.189   0.580  17.128  2.1291  0.8116 -0.3572
 7017SOL     OW32512   4.282   2.220  16.791  0.0358  0.0713 -0.0537
 7017SOL    HW132513   4.201   2.205  16.743 -0.2155 -0.8913  0.6681
 7017SOL    HW232514   4.270   2.309  16.823 -2.6935 -0.2473 -0.1828
 7018SOL     OW32515   2.698   3.972   6.701 -0.0715  0.0523 -0.0701
 7018SOL    HW132516   2.668   3.994   6.613  0.5344 -1.4053 -0.6455
 7018SOL    HW232517   2.731   3.885   6.679  0.0414  0.9101 -3.3427
 7019SOL     OW32518   1.465   2.085   2.927 -0.1469  0.8919 -0.0647
 7019SOL    HW132519   1.469   1.997   2.964 -1.6333  1.0428  0.4737
 7019SOL    HW232520   1.371   2.098   2.938 -0.3497  0.3979 -1.2154
 7020SOL     OW32521   1.699   2.171   4.401 -0.0593 -0.2594  0.0718
 7020SOL    HW132522   1.709   2.183   4.307  1.9275  2.7437  0.6776
 7020SOL    HW232523   1.665   2.251   4.441 -2.3506 -0.8465 -0.7010
 7021SOL     OW32524   3.288   4.251  10.656  0.8547 -0.2408  0.0380
 7021SOL    HW132525   3.327   4.330  10.693  1.0285 -0.5712  0.5562
 7021SOL    HW232526   3.208   4.255  10.708  0.8645 -1.9840  0.1987
 7022SOL     OW32527   4.112   1.960   8.910  0.4609 -1.1106 -0.3645
 7022SOL    HW132528   4.021   1.942   8.886  0.0375 -0.0791  0.4537
 7022SOL    HW232529   4.151   1.979   8.824 -0.0789  2.4062  0.1406
 7023SOL     OW32530   3.077   1.554  17.674  0.4572  0.2709  0.6865
 7023SOL    HW132531   3.016   1.593  17.612  2.3753 -0.4333 -1.6491
 7023SOL    HW232532   3.130   1.493  17.624 -1.6811 -0.7784 -0.2915
 7024SOL     OW32533   3.995   4.353  17.642 -0.3064 -0.1984 -0.1194
 7024SOL    HW132534   3.943   4.418  17.594  0.7111  1.6073  1.2144
 7024SOL    HW232535   3.937   4.290  17.684 -0.8615 -0.6329 -1.5472
 7025SOL     OW32536   0.429   4.373   3.768  0.2805 -0.2777 -0.1335
 7025SOL    HW132537   0.525   4.378   3.764  0.2849  0.8928  1.1162
 7025SOL    HW232538   0.409   4.289   3.728  1.7650 -1.3798  1.4665
 7026SOL     OW32539   2.119   3.716  13.802  0.1434 -0.0655  0.5026
 7026SOL    HW132540   2.052   3.648  13.793 -0.6546  0.9312 -1.0736
 7026SOL    HW232541   2.071   3.796  13.784 -1.0160 -0.2021  3.0066
 7027SOL     OW32542   3.977   3.999   2.880 -0.2262  0.7938  0.0685
 7027SOL    HW132543   3.884   3.978   2.882  0.1510 -1.0564 -1.2312
 7027SOL    HW232544   3.979   4.073   2.940  0.1197  1.6059 -0.9508
 7028SOL     OW32545   0.075   1.804  10.865  0.0265 -0.1697 -0.2743
 7028SOL    HW132546   0.002   1.751  10.833 -0.2024 -0.0392  0.0357
 7028SOL    HW232547   0.123   1.745  10.922  0.7300  1.7609  1.1439
 7029SOL     OW32548   4.524   4.537   3.577 -0.4181 -0.3629  0.4200
 7029SOL    HW132549   4.479   4.602   3.524 -0.0117  0.1272  0.6821
 7029SOL    HW232550   4.587   4.594   3.621 -1.1045  0.5895  0.1664
 7030SOL     OW32551   4.209   1.762   8.202  0.4352 -0.7728  0.1043
 7030SOL    HW132552   4.258   1.779   8.122  2.1229  0.8892  1.4856
 7030SOL    HW232553   4.277   1.715   8.251  1.9889  0.3351 -0.9828
 7031SOL     OW32554   1.691   0.259  16.282 -0.4808  0.0375  0.1558
 7031SOL    HW132555   1.691   0.272  16.187  1.2291 -0.0980  0.1378
 7031SOL    HW232556   1.784   0.240  16.295  0.0082  2.0643 -0.5541
 7032SOL     OW32557   3.801   3.821   4.409  0.5737 -0.5448 -0.6611
 7032SOL    HW132558   3.821   3.774   4.328 -1.2410 -2.4666  0.0007
 7032SOL    HW232559   3.816   3.911   4.381  0.5475 -0.4676 -0.4213
 7033SOL     OW32560   1.440   1.982   5.387  0.1557 -0.2526 -0.6972
 7033SOL    HW132561   1.497   1.997   5.462 -0.2659 -0.8214 -0.2541
 7033SOL    HW232562   1.469   2.044   5.321  0.9663 -2.5194 -2.4911
 7034SOL     OW32563   1.159   3.038   9.200 -0.5135  0.0667 -0.3271
 7034SOL    HW132564   1.081   3.072   9.244  0.1474  0.9406  0.1876
 7034SOL    HW232565   1.130   3.002   9.116 -1.5819 -0.4513  0.2660
 7035SOL     OW32566   4.098   1.511  16.351 -0.5144  0.2477 -1.0277
 7035SOL    HW132567   4.109   1.416  16.345  1.1694  0.3177  0.8752
 7035SOL    HW232568   4.002   1.509  16.356 -0.5876 -0.5261 -2.7381
 7036SOL     OW32569   2.748   0.880  16.943  0.4140 -0.0055  0.0259
 7036SOL    HW132570   2.652   0.883  16.934  0.4958  0.4129 -0.6709
 7036SOL    HW232571   2.756   0.940  17.017 -1.1007 -0.1623  0.3270
 7037SOL     OW32572   3.109   0.825   0.920  0.0291  0.4033  0.0456
 7037SOL    HW132573   3.204   0.825   0.937 -0.1173 -2.7829  1.0369
 7037SOL    HW232574   3.108   0.821   0.825 -1.3316 -1.0105  0.1175
 7038SOL     OW32575   3.874   0.900   4.961 -0.2992 -0.2113 -0.2951
 7038SOL    HW132576   3.792   0.854   4.942  0.2726 -1.1390 -0.5438
 7038SOL    HW232577   3.913   0.846   5.031 -0.2892 -2.0670 -1.7215
 7039SOL     OW32578   0.414   4.650   9.258 -0.0458 -0.1952  0.3262
 7039SOL    HW132579   0.502   4.656   9.295 -0.0433  1.9344 -0.0709
 7039SOL    HW232580   0.427   4.591   9.184  1.9642  0.2682  0.3044
 7040SOL     OW32581   2.632   3.951   5.955  0.1222  0.4624 -0.9102
 7040SOL    HW132582   2.652   3.955   5.861  2.0907  1.7245 -0.4386
 7040SOL    HW232583   2.677   4.031   5.982 -2.5208  1.3512  0.8494
 7041SOL     OW32584   2.370   0.433  11.410 -0.7997 -0.2410  0.5073
 7041SOL    HW132585   2.307   0.399  11.347 -0.3117 -2.3785  1.1905
 7041SOL    HW232586   2.389   0.509  11.354  0.8357 -0.6482  0.5089
 7042SOL     OW32587   0.950   2.382   4.488 -0.2746  0.3994 -0.1127
 7042SOL    HW132588   0.938   2.458   4.545  1.7003  1.0439 -0.5548
 7042SOL    HW232589   1.015   2.337   4.543  0.9576  1.5544 -0.6288
 7043SOL     OW32590   2.671   1.753   5.513  0.1220 -0.5486 -0.4443
 7043SOL    HW132591   2.749   1.801   5.542 -0.0371  0.1684 -1.2091
 7043SOL    HW232592   2.694   1.731   5.423  1.3527 -0.7551 -0.0809
 7044SOL     OW32593   0.293   1.245   6.287 -0.0951  0.1541 -0.2953
 7044SOL    HW132594   0.276   1.243   6.193 -0.2083 -1.2199 -0.2438
 7044SOL    HW232595   0.315   1.338   6.285  0.5421  0.0520  1.8781
 7045SOL     OW32596   4.318   2.936   7.145 -0.1097  0.7154 -0.0638
 7045SOL    HW132597   4.376   2.988   7.202  0.1924 -1.1555  1.3486
 7045SOL    HW232598   4.323   2.851   7.190 -0.8630 -0.7855 -2.8139
 7046SOL     OW32599   4.720   2.522   5.655 -0.4507  0.4924  0.4006
 7046SOL    HW132600   0.088   2.521   5.627 -0.4033 -0.0302  0.5765
 7046SOL    HW232601   0.012   2.534   5.748  1.1626 -2.3710  0.4904
 7047SOL     OW32602   0.590   3.125   4.411  0.1021  0.1032 -0.2121
 7047SOL    HW132603   0.503   3.107   4.375 -0.7240  2.9678  0.3634
 7047SOL    HW232604   0.570   3.151   4.501  0.7179 -2.0280  0.5605
 7048SOL     OW32605   1.789   4.409   0.559 -1.0892  0.3015 -0.6531
 7048SOL    HW132606   1.796   4.501   0.534 -1.0249  0.7760  1.1232
 7048SOL    HW232607   1.817   4.410   0.651 -0.1357 -1.5517 -0.9183
 7049SOL     OW32608   3.601   0.025   7.868 -0.9574  0.0801  0.3529
 7049SOL    HW132609   3.620   0.117   7.852  0.7892 -0.7428 -2.2094
 7049SOL    HW232610   3.546   0.000   7.794 -0.6279 -2.5552  0.9723
 7050SOL     OW32611   1.131   2.636   7.260 -0.2940 -0.2073 -0.1406
 7050SOL    HW132612   1.227   2.634   7.266 -0.3798  1.8068  2.1565
 7050SOL    HW232613   1.113   2.726   7.233 -1.8076 -0.8707 -1.3000
 7051SOL     OW32614   3.632   2.505   7.549  0.0234  0.6649  0.0607
 7051SOL    HW132615   3.611   2.583   7.497  0.8318  1.9770  1.7244
 7051SOL    HW232616   3.710   2.471   7.505  1.2746  3.5921  0.0140
 7052SOL     OW32617   3.465   3.542   4.715 -0.5251 -0.1145 -0.4056
 7052SOL    HW132618   3.524   3.600   4.668  0.9056  0.3536  2.0043
 7052SOL    HW232619   3.381   3.578   4.686  0.1014  1.0485 -0.7617
 7053SOL     OW32620   4.441   3.166  15.075 -0.2569 -0.2111 -0.9155
 7053SOL    HW132621   4.475   3.202  14.993 -0.5686  0.0096 -0.9468
 7053SOL    HW232622   4.442   3.071  15.058 -1.8591 -0.6761  1.5450
 7054SOL     OW32623   3.010   4.239  13.512 -0.6203  0.5748 -0.4469
 7054SOL    HW132624   2.931   4.198  13.545  0.2129 -2.3648 -2.1650
 7054SOL    HW232625   2.994   4.248  13.419  1.8508 -1.7722 -1.1118
 7055SOL     OW32626   2.712   1.779   3.341 -0.2069  0.0055  0.1178
 7055SOL    HW132627   2.701   1.873   3.325 -1.6583 -0.1705  0.1522
 7055SOL    HW232628   2.744   1.743   3.258 -1.2212  1.2385 -0.8014
 7056SOL     OW32629   2.426   4.265  11.356  0.2628 -0.4642 -0.2022
 7056SOL    HW132630   2.411   4.192  11.295  1.9987 -0.5699 -0.4772
 7056SOL    HW232631   2.475   4.322  11.297 -1.5815  0.2788 -1.0137
 7057SOL     OW32632   1.241   3.401   6.894  0.2648  0.2616  0.0363
 7057SOL    HW132633   1.276   3.312   6.895 -2.0323 -0.6452  0.8633
 7057SOL    HW232634   1.146   3.388   6.893  0.1002  1.6231 -1.8602
 7058SOL     OW32635   0.306   2.775  13.465 -0.0559  0.4569 -0.1729
 7058SOL    HW132636   0.247   2.700  13.456  1.1957 -0.4103 -1.1737
 7058SOL    HW232637   0.324   2.767  13.558  3.4146 -1.0887 -0.9950
 7059SOL     OW32638   1.376   3.714  12.315 -0.1727 -0.0112  0.2664
 7059SOL    HW132639   1.430   3.656  12.262  1.0303  0.0462  1.4179
 7059SOL    HW232640   1.334   3.746  12.235  0.5597  1.0077  0.2855
 7060SOL     OW32641   0.507   2.797   7.235  0.0996  0.3285  0.6843
 7060SOL    HW132642   0.566   2.735   7.193  1.0625  1.1559  0.8084
 7060SOL    HW232643   0.520   2.872   7.177 -1.9011  0.0907 -0.0915
 7061SOL     OW32644   2.487   0.745   7.218 -0.7697 -0.5797  0.2722
 7061SOL    HW132645   2.574   0.721   7.248 -1.2292 -0.8193  1.4127
 7061SOL    HW232646   2.488   0.839   7.238  2.7522 -0.1041 -2.1475
 7062SOL     OW32647   0.398   1.773   5.047 -0.4010 -0.8500  0.0517
 7062SOL    HW132648   0.446   1.720   4.983  2.2208  1.3136  0.1949
 7062SOL    HW232649   0.422   1.727   5.127 -0.0368 -2.3311 -0.9161
 7063SOL     OW32650   4.538   4.120   5.390  0.2943 -0.1671  0.3551
 7063SOL    HW132651   4.500   4.076   5.465  0.8844 -1.7142 -0.2431
 7063SOL    HW232652   4.538   4.044   5.332  1.0815  0.0152  0.1062
 7064SOL     OW32653   4.466   2.629   6.360 -0.0678 -0.0786  0.5366
 7064SOL    HW132654   4.555   2.634   6.396  0.6499  0.7710 -1.3037
 7064SOL    HW232655   4.461   2.708   6.306 -1.9048  0.0771  0.9514
 7065SOL     OW32656   2.016   1.569   9.928  0.4492  0.4077 -0.6563
 7065SOL    HW132657   1.987   1.564   9.837  0.8051 -1.5365 -0.6593
 7065SOL    HW232658   2.052   1.658   9.927  2.5220 -0.4334  0.3779
 7066SOL     OW32659   1.713   2.701   5.998 -0.0177 -0.0884 -0.2480
 7066SOL    HW132660   1.738   2.634   6.062  0.6535 -0.9804 -1.4367
 7066SOL    HW232661   1.796   2.728   5.960  0.6245 -1.5448  0.1019
 7067SOL     OW32662   3.990   3.267   3.711 -0.1543  0.2105  0.2784
 7067SOL    HW132663   4.010   3.361   3.711 -2.7843  0.7896  0.8128
 7067SOL    HW232664   3.902   3.270   3.674 -0.0104 -0.5425 -0.1069
 7068SOL     OW32665   1.028   0.864   0.664 -0.3510  0.0894  0.0228
 7068SOL    HW132666   0.964   0.914   0.714  0.9503  0.3909  1.3727
 7068SOL    HW232667   0.994   0.875   0.575 -1.0333  1.4897  0.4679
 7069SOL     OW32668   0.244   0.819  13.254  0.1232 -0.6025  0.0750
 7069SOL    HW132669   0.149   0.810  13.258 -0.1479  1.3092 -2.0227
 7069SOL    HW232670   0.281   0.767  13.326 -0.8862 -1.8108 -0.2801
 7070SOL     OW32671   0.971   1.416   3.361  0.0081  0.0381 -0.5048
 7070SOL    HW132672   0.990   1.322   3.364  1.8041  0.4156 -0.2416
 7070SOL    HW232673   0.987   1.453   3.447 -1.9265 -0.4078  0.0460
 7071SOL     OW32674   0.396   3.329   6.591  0.0099 -0.1618 -0.4306
 7071SOL    HW132675   0.332   3.277   6.641 -0.3111 -0.6201 -1.3134
 7071SOL    HW232676   0.407   3.270   6.516  0.0243 -1.2452  0.4240
 7072SOL     OW32677   4.586   3.323  11.538 -0.4069 -0.1775  0.0726
 7072SOL    HW132678   4.643   3.357  11.607 -0.1096 -0.2707 -0.1283
 7072SOL    HW232679   4.543   3.250  11.583  0.8631 -2.1089 -1.8576
 7073SOL     OW32680   3.305   1.332   6.104  0.4400  0.4234 -0.1807
 7073SOL    HW132681   3.331   1.262   6.044  0.3194  0.0017  0.2568
 7073SOL    HW232682   3.363   1.404   6.080  0.6108  0.6817  1.0048
 7074SOL     OW32683   4.060   0.712   6.536  0.4525  0.0361  0.3696
 7074SOL    HW132684   4.019   0.688   6.452  0.9788  3.4083 -0.8502
 7074SOL    HW232685   3.992   0.774   6.563 -1.0740 -1.5872  0.2871
 7075SOL     OW32686   2.144   4.327   4.967  0.2871  0.4302  0.2058
 7075SOL    HW132687   2.110   4.396   4.909 -1.3414  0.2967  1.0010
 7075SOL    HW232688   2.127   4.376   5.048  2.9543 -0.4230  1.2775
 7076SOL     OW32689   1.834   3.771  12.976 -0.4597 -0.0278  0.0171
 7076SOL    HW132690   1.777   3.844  13.002  0.1085 -0.2393  1.8325
 7076SOL    HW232691   1.793   3.755  12.890  0.7832  0.5587 -0.6885
 7077SOL     OW32692   4.322   2.015   1.070  0.3475  0.2941  0.1042
 7077SOL    HW132693   4.368   2.097   1.054 -1.3807  0.8014 -2.2254
 7077SOL    HW232694   4.231   2.034   1.047  0.1342 -1.9647 -0.9439
 7078SOL     OW32695   2.898   2.444   5.766 -0.5837  0.5706  0.3237
 7078SOL    HW132696   2.881   2.358   5.803 -0.2550  0.3578 -0.0200
 7078SOL    HW232697   2.926   2.413   5.680 -1.6363  3.5811 -1.1210
 7079SOL     OW32698   3.311   3.269  11.528  0.0140 -0.5134  0.5374
 7079SOL    HW132699   3.369   3.197  11.504  1.0476  0.5393 -0.0950
 7079SOL    HW232700   3.254   3.222  11.589  0.6605 -1.7068  0.2261
 7080SOL     OW32701   2.770   1.666   8.268 -0.0187 -0.3718  0.2936
 7080SOL    HW132702   2.861   1.636   8.276  1.1022  2.9155  0.1879
 7080SOL    HW232703   2.770   1.648   8.174  1.5554  0.1398  0.1875
 7081SOL     OW32704   1.746   1.519   3.423  0.3926  0.2935 -0.2273
 7081SOL    HW132705   1.831   1.545   3.388  0.2591 -0.5450 -1.1842
 7081SOL    HW232706   1.737   1.425   3.407 -0.8773  0.7529 -2.3390
 7082SOL     OW32707   2.013   2.691   6.540 -0.2749 -0.2429  0.5098
 7082SOL    HW132708   2.011   2.756   6.611  1.0943  0.2730  0.0867
 7082SOL    HW232709   1.930   2.712   6.498  0.8223  1.5200 -0.8208
 7083SOL     OW32710   4.535   0.846   2.623  0.0565 -0.1747 -0.2597
 7083SOL    HW132711   4.498   0.853   2.711 -0.1290  3.6087 -0.6502
 7083SOL    HW232712   4.455   0.833   2.572 -0.2753  2.4888 -0.4461
 7084SOL     OW32713   4.216   0.405  16.286  0.4422 -0.4585 -0.5998
 7084SOL    HW132714   4.153   0.412  16.214 -1.5217 -0.1555  1.1555
 7084SOL    HW232715   4.203   0.311  16.294  0.9991 -0.6269 -1.7345
 7085SOL     OW32716   1.148   3.404   3.119 -0.6135  0.4670 -1.1522
 7085SOL    HW132717   1.194   3.324   3.145 -1.4921 -0.2275 -1.7330
 7085SOL    HW232718   1.101   3.429   3.199 -1.4993 -2.5965 -0.7319
 7086SOL     OW32719   0.561   0.364  17.292 -0.4600  0.4088 -0.2192
 7086SOL    HW132720   0.552   0.441  17.235 -1.6144 -1.0685 -2.0230
 7086SOL    HW232721   0.637   0.387  17.345 -1.0043 -0.9460  1.1463
 7087SOL     OW32722   1.405   1.013  12.054  0.0188  0.2522 -0.4857
 7087SOL    HW132723   1.414   1.094  12.005  2.8720  1.5457  2.1892
 7087SOL    HW232724   1.309   1.008  12.060  0.0433 -2.1067 -2.0817
 7088SOL     OW32725   4.305   1.340  12.785  0.4968  0.7338  0.3799
 7088SOL    HW132726   4.398   1.351  12.768  0.4338  1.7876  0.7681
 7088SOL    HW232727   4.281   1.423  12.826 -0.4359 -0.7468  2.7988
 7089SOL     OW32728   3.098   0.865   8.420 -0.0911 -0.1714  0.2908
 7089SOL    HW132729   3.163   0.935   8.415 -0.4517  0.0414 -1.3329
 7089SOL    HW232730   3.149   0.791   8.451  1.6159  0.3927 -1.1927
 7090SOL     OW32731   2.209   3.843   8.723  0.2284  0.0899  0.0299
 7090SOL    HW132732   2.150   3.895   8.669  1.1135 -0.8963 -1.8776
 7090SOL    HW232733   2.140   3.813   8.782  0.3414  1.1675  0.7043
 7091SOL     OW32734   1.423   2.643  14.732  0.2249 -0.1002  0.0045
 7091SOL    HW132735   1.393   2.717  14.785  1.2533  0.9027 -0.8007
 7091SOL    HW232736   1.399   2.675  14.645  0.9116  0.8674  0.1662
 7092SOL     OW32737   3.978   4.604   1.122 -0.0112 -0.4074 -0.2167
 7092SOL    HW132738   4.025   4.678   1.083 -1.3009 -0.1237 -1.2386
 7092SOL    HW232739   3.900   4.612   1.067 -0.3508 -0.5039  0.2589
 7093SOL     OW32740   4.175   0.355   0.154 -0.0529  0.0324 -0.2558
 7093SOL    HW132741   4.202   0.429   0.208 -1.3709 -0.1390  0.6689
 7093SOL    HW232742   4.079   0.366   0.150 -0.1281 -0.5854 -0.0704
 7094SOL     OW32743   0.116   0.988   8.807  0.2400  0.5886  0.3077
 7094SOL    HW132744   0.174   1.008   8.881 -0.9182  4.2787  0.2403
 7094SOL    HW232745   0.108   0.893   8.811  1.5386  0.4885  0.6917
 7095SOL     OW32746   0.138   0.606  13.539  0.7171 -0.4643  0.5734
 7095SOL    HW132747   0.149   0.605  13.634  3.9798  2.0180  0.2246
 7095SOL    HW232748   0.190   0.529  13.516  0.2767 -0.8607  0.8984
 7096SOL     OW32749   2.625   2.964  13.194 -0.2361 -0.1700  0.3893
 7096SOL    HW132750   2.693   3.028  13.171 -0.5624  0.0233 -0.0391
 7096SOL    HW232751   2.624   2.903  13.120  1.4945 -2.2367  2.0551
 7097SOL     OW32752   2.218   3.379   2.294  0.3709 -0.2008 -0.4363
 7097SOL    HW132753   2.305   3.385   2.255  0.0950  0.6384 -0.9285
 7097SOL    HW232754   2.201   3.285   2.291  0.0066 -0.1912  1.2369
 7098SOL     OW32755   0.472   4.457   4.167 -0.2692 -0.5237 -0.2533
 7098SOL    HW132756   0.494   4.384   4.225  0.8506 -1.2677 -1.6345
 7098SOL    HW232757   0.496   4.536   4.215  1.1286 -1.8451  1.1979
 7099SOL     OW32758   2.960   3.640   3.808  0.7186 -0.0542  0.7742
 7099SOL    HW132759   2.868   3.665   3.801  0.3691 -2.4825 -3.7143
 7099SOL    HW232760   2.990   3.663   3.720 -1.1893  1.1072  0.4268
 7100SOL     OW32761   1.427   2.108   5.128 -0.8666 -0.2888  0.0408
 7100SOL    HW132762   1.367   2.038   5.102 -1.5752  0.4212 -0.2432
 7100SOL    HW232763   1.468   2.147   5.051  1.8839 -2.6055  0.3457
 7101SOL     OW32764   2.377   3.865   5.986  0.3889  0.0339 -0.0961
 7101SOL    HW132765   2.462   3.908   5.996  1.1299 -0.8515 -2.7156
 7101SOL    HW232766   2.404   3.774   5.973  0.1383  0.6497 -4.8642
 7102SOL     OW32767   3.185   1.249   5.729  0.6156  0.2998  0.3256
 7102SOL    HW132768   3.246   1.258   5.656 -0.7670  3.4213 -0.4637
 7102SOL    HW232769   3.138   1.182   5.680  0.3948  0.6733  0.0250
 7103SOL     OW32770   0.943   0.964   4.940  0.0324  0.4979 -0.5435
 7103SOL    HW132771   0.901   0.906   4.877 -1.6833  2.1290 -0.9146
 7103SOL    HW232772   0.858   0.993   4.976 -0.1169 -2.3427  1.3764
 7104SOL     OW32773   0.883   3.536   7.981 -0.3474  0.1844 -0.1611
 7104SOL    HW132774   0.808   3.488   7.947  0.4499 -0.5350 -0.9184
 7104SOL    HW232775   0.855   3.623   7.955 -0.4059  0.3550  0.4639
 7105SOL     OW32776   0.612   1.323   8.921  0.0415  0.4183 -0.1957
 7105SOL    HW132777   0.628   1.291   9.009  1.8200  3.2819  0.5341
 7105SOL    HW232778   0.528   1.285   8.898  0.3754 -0.3338 -0.1556
 7106SOL     OW32779   2.446   3.791   1.761 -0.3505 -0.0367  0.5162
 7106SOL    HW132780   2.363   3.755   1.731 -0.5239  0.7440  0.0684
 7106SOL    HW232781   2.490   3.803   1.676 -2.5659  0.7726 -0.5201
 7107SOL     OW32782   3.821   2.954   6.602 -0.1096 -0.0779  0.0099
 7107SOL    HW132783   3.801   2.896   6.675  2.1681 -0.0684  0.6463
 7107SOL    HW232784   3.917   2.953   6.595 -0.0028  0.8407  1.3728
 7108SOL     OW32785   4.274   3.697   7.217 -0.0407  0.2540  0.5945
 7108SOL    HW132786   4.338   3.725   7.153 -1.1092  0.7576 -0.2568
 7108SOL    HW232787   4.320   3.724   7.297  0.3044 -1.3224  0.9251
 7109SOL     OW32788   0.573   4.438   7.144 -0.5908  0.1848  0.1354
 7109SOL    HW132789   0.561   4.491   7.222  0.3678 -1.1457  1.1811
 7109SOL    HW232790   0.657   4.475   7.117 -0.4801 -0.4203 -0.3685
 7110SOL     OW32791   0.712   1.697   5.201  0.5839  0.4680  0.5823
 7110SOL    HW132792   0.680   1.655   5.281  0.2731  0.2347  0.3348
 7110SOL    HW232793   0.725   1.783   5.240  0.1405  1.5279 -1.6347
 7111SOL     OW32794   2.496   0.981   2.926 -0.1157 -0.3170  0.2598
 7111SOL    HW132795   2.573   1.002   2.978 -1.9879 -2.7941  4.0437
 7111SOL    HW232796   2.539   0.920   2.865 -0.4759  0.8850 -1.2032
 7112SOL     OW32797   2.018   3.274   2.583  0.1942 -0.0318 -0.0582
 7112SOL    HW132798   2.096   3.328   2.573  0.4682 -0.2621  0.8047
 7112SOL    HW232799   1.983   3.278   2.494 -0.2999 -1.1733  0.0943
 7113SOL     OW32800   3.636   3.417  15.385 -0.1365  0.4783  0.5369
 7113SOL    HW132801   3.664   3.483  15.321  3.4826 -1.1779  0.4153
 7113SOL    HW232802   3.541   3.430  15.383 -0.1160  0.2803 -1.7725
 7114SOL     OW32803   0.598   0.191  13.813 -0.9018 -0.3073 -0.3717
 7114SOL    HW132804   0.540   0.116  13.825 -0.2501 -0.7123  0.1912
 7114SOL    HW232805   0.679   0.147  13.838 -0.2334 -0.2530 -2.4695
 7115SOL     OW32806   0.802   3.681  15.578  0.1593  0.3518 -0.0948
 7115SOL    HW132807   0.767   3.648  15.660 -2.1986 -0.6908 -1.5508
 7115SOL    HW232808   0.876   3.621  15.564  3.1985  4.0315  0.0188
 7116SOL     OW32809   0.851   4.519   0.825  0.0471  0.1882 -0.0139
 7116SOL    HW132810   0.766   4.544   0.862 -0.1437 -1.3740  0.5894
 7116SOL    HW232811   0.873   4.590   0.765  1.0799 -0.9693 -1.0115
 7117SOL     OW32812   2.358   4.578   7.936  0.5775  0.3611 -0.1237
 7117SOL    HW132813   2.414   4.609   8.007 -0.2247  0.8911  0.2764
 7117SOL    HW232814   2.363   4.653   7.877 -1.0062  1.2831  0.9510
 7118SOL     OW32815   1.754   2.577   9.072  0.0397  0.0947  0.2431
 7118SOL    HW132816   1.682   2.639   9.085  0.5921  1.9537 -5.5669
 7118SOL    HW232817   1.816   2.592   9.143 -1.1481 -1.2604  1.5783
 7119SOL     OW32818   1.824   2.988  15.639 -0.1343 -0.4116 -0.1413
 7119SOL    HW132819   1.908   2.958  15.603  0.3724  1.3110 -0.3935
 7119SOL    HW232820   1.806   2.909  15.690 -0.7815 -0.0666  0.1640
 7120SOL     OW32821   4.108   1.769   5.771  0.0931 -0.0439 -0.2224
 7120SOL    HW132822   4.163   1.716   5.829 -1.1213  0.0733  1.0482
 7120SOL    HW232823   4.134   1.750   5.681 -0.6619  0.6276 -0.5842
 7121SOL     OW32824   4.509   3.335   3.746  0.1370 -0.2839 -0.0181
 7121SOL    HW132825   4.593   3.373   3.723  0.6760 -0.0872  2.3152
 7121SOL    HW232826   4.459   3.356   3.667  0.9149 -2.4155 -1.0798
 7122SOL     OW32827   4.345   4.026   5.587  0.2382  0.2888  0.0660
 7122SOL    HW132828   4.253   4.045   5.568 -0.2193 -0.7092  1.2853
 7122SOL    HW232829   4.378   4.108   5.623  0.8546 -0.6109  1.5327
 7123SOL     OW32830   2.095   4.111  11.693  0.2740 -0.1615  0.3338
 7123SOL    HW132831   2.088   4.206  11.690 -0.9041 -0.2546  0.1267
 7123SOL    HW232832   2.169   4.104  11.633 -1.0106  1.1200 -1.3895
 7124SOL     OW32833   1.205   2.866  12.425 -0.4518 -0.0179 -0.0662
 7124SOL    HW132834   1.164   2.809  12.490 -1.0934 -1.0746 -1.4065
 7124SOL    HW232835   1.231   2.806  12.355  1.3606  0.3296  0.3071
 7125SOL     OW32836   1.620   2.386   1.119 -0.1228 -0.1079  0.1215
 7125SOL    HW132837   1.605   2.478   1.098 -1.0777 -0.1442  0.6593
 7125SOL    HW232838   1.533   2.352   1.139 -1.0588  1.6980 -0.8733
 7126SOL     OW32839   3.301   3.320   8.620 -0.3556  0.3012  0.2891
 7126SOL    HW132840   3.310   3.283   8.532  0.9095 -0.5032  0.7635
 7126SOL    HW232841   3.388   3.359   8.627  0.2353 -0.8501 -0.6635
 7127SOL     OW32842   4.107   4.648   6.681  1.1668 -0.9264  0.0658
 7127SOL    HW132843   4.176   4.704   6.646 -0.6545 -0.8361 -3.3339
 7127SOL    HW232844   4.152   4.567   6.703 -1.3647 -1.8746  1.7398
 7128SOL     OW32845   1.739   4.054   1.928 -0.2394 -0.0456 -1.0116
 7128SOL    HW132846   1.685   4.026   1.854 -0.6697 -1.9645  0.0137
 7128SOL    HW232847   1.822   4.067   1.883  0.8484  0.0389  1.0247
 7129SOL     OW32848   2.843   2.179   5.505 -0.2897 -0.0304 -0.5530
 7129SOL    HW132849   2.891   2.262   5.501 -1.6752  0.8440  0.7935
 7129SOL    HW232850   2.792   2.196   5.426 -0.5743  3.0092  0.2801
 7130SOL     OW32851   2.094   4.570   3.672 -0.0535 -0.3105 -0.0180
 7130SOL    HW132852   2.095   4.665   3.674  2.6200 -0.3333 -0.5758
 7130SOL    HW232853   2.159   4.554   3.741  0.1942 -0.9990 -0.4121
 7131SOL     OW32854   4.555   3.087   7.600  0.1506 -0.0802 -0.5835
 7131SOL    HW132855   4.500   3.084   7.678  0.4844 -1.1892 -0.3897
 7131SOL    HW232856   4.538   3.175   7.568  0.5166  0.6262  1.1486
 7132SOL     OW32857   1.466   2.472   6.145 -0.4780  0.1701 -0.2784
 7132SOL    HW132858   1.548   2.421   6.150 -0.6680 -0.1023  0.0874
 7132SOL    HW232859   1.451   2.497   6.236 -2.3485 -1.1503 -0.2086
 7133SOL     OW32860   1.114   1.718  11.780 -0.3773 -0.2835 -0.4811
 7133SOL    HW132861   1.084   1.694  11.692 -0.5689 -0.1670 -0.4464
 7133SOL    HW232862   1.194   1.770  11.765  0.4330 -0.7716  2.0809
 7134SOL     OW32863   2.612   3.438  14.088 -0.5709 -0.1354 -0.7918
 7134SOL    HW132864   2.533   3.389  14.068  0.1204 -0.8888 -1.6475
 7134SOL    HW232865   2.621   3.486  14.006  1.0058  0.3141 -0.3681
 7135SOL     OW32866   2.925   2.281   6.272 -0.4279  0.2165  0.3343
 7135SOL    HW132867   2.854   2.336   6.306 -1.4022 -0.6329 -0.3754
 7135SOL    HW232868   2.877   2.224   6.213  1.0087  1.2943 -1.8795
 7136SOL     OW32869   0.662   3.913   1.071 -0.0275  0.3411 -0.1109
 7136SOL    HW132870   0.745   3.899   1.024 -0.2047 -0.0557 -0.3035
 7136SOL    HW232871   0.601   3.868   1.012 -0.8109  0.9656  0.2253
 7137SOL     OW32872   4.403   3.117  12.514  0.1000 -0.1467 -0.5964
 7137SOL    HW132873   4.406   3.209  12.488  1.3854  0.4385  1.6910
 7137SOL    HW232874   4.447   3.077  12.439  0.1038 -1.3307  0.0381
 7138SOL     OW32875   2.623   2.651   3.043 -0.3212  0.8272 -0.1785
 7138SOL    HW132876   2.691   2.672   2.980  2.8705 -0.8246  2.6880
 7138SOL    HW232877   2.595   2.735   3.079 -0.5470  1.3598 -1.6248
 7139SOL     OW32878   0.696   1.910  10.674 -0.6512  0.1145 -0.2914
 7139SOL    HW132879   0.676   1.978  10.738 -0.3415  1.4134 -1.5776
 7139SOL    HW232880   0.783   1.880  10.702  0.2630  1.9420 -1.1868
 7140SOL     OW32881   0.761   3.533  11.784 -0.3296  0.6603 -0.1558
 7140SOL    HW132882   0.796   3.618  11.808  0.6544  0.3204 -0.3935
 7140SOL    HW232883   0.828   3.494  11.729  1.9240  0.2332  2.8980
 7141SOL     OW32884   2.821   3.908   5.388 -0.1414 -0.1250 -0.2934
 7141SOL    HW132885   2.901   3.958   5.399 -1.1604  1.1894  1.1856
 7141SOL    HW232886   2.832   3.895   5.293  0.6828 -1.5779  0.0142
 7142SOL     OW32887   4.000   0.566   7.353 -0.1417  0.3097  0.5130
 7142SOL    HW132888   3.974   0.639   7.297 -1.2070  0.8216  1.6580
 7142SOL    HW232889   3.920   0.513   7.354  1.4380 -2.1142 -0.5557
 7143SOL     OW32890   2.371   3.395   1.949  0.0637 -0.3692 -0.3053
 7143SOL    HW132891   2.429   3.425   1.879  0.4005 -0.2616  0.0210
 7143SOL    HW232892   2.332   3.313   1.920 -1.6544  0.5076 -0.5125
 7144SOL     OW32893   2.496   3.611  10.017  0.2861  0.5053 -0.5775
 7144SOL    HW132894   2.484   3.692   9.966 -1.9961  0.6754  0.2024
 7144SOL    HW232895   2.591   3.605  10.015  0.2424 -0.6600  0.9735
 7145SOL     OW32896   0.498   1.407   4.269 -0.8665  0.0608  0.0439
 7145SOL    HW132897   0.465   1.382   4.355 -1.7847 -3.7623 -1.3899
 7145SOL    HW232898   0.529   1.495   4.287 -0.9286 -1.2394  6.3844
 7146SOL     OW32899   0.170   3.058   4.920 -0.1101 -0.3687  0.3798
 7146SOL    HW132900   0.131   3.066   4.833 -1.3396 -0.5185  0.9256
 7146SOL    HW232901   0.247   3.004   4.903  0.0481 -0.3893  1.1536
 7147SOL     OW32902   1.035   1.592  14.668 -0.2213  0.0157  0.6610
 7147SOL    HW132903   0.989   1.632  14.594 -1.3969 -0.8283  0.9251
 7147SOL    HW232904   1.087   1.524  14.625 -3.2435 -2.0906  0.2674
 7148SOL     OW32905   3.223   4.434  13.620  0.1684  0.1461  0.1734
 7148SOL    HW132906   3.274   4.430  13.538 -0.5879 -0.5416 -0.2659
 7148SOL    HW232907   3.291   4.409  13.682 -0.4965 -0.1862  0.7692
 7149SOL     OW32908   0.140   0.439  15.482  0.4785  0.0173 -0.2907
 7149SOL    HW132909   0.092   0.436  15.399  1.5817  2.0808 -1.0017
 7149SOL    HW232910   0.066   0.446  15.542 -0.8081 -2.2315 -1.6160
 7150SOL     OW32911   2.352   1.493   8.256  0.0317  0.3815 -0.1312
 7150SOL    HW132912   2.358   1.579   8.298  0.5335 -0.1352  0.8380
 7150SOL    HW232913   2.401   1.505   8.174  0.3911 -0.4178 -0.0281
 7151SOL     OW32914   0.813   0.737   6.726  0.0115 -0.5130  0.5457
 7151SOL    HW132915   0.736   0.761   6.777 -1.6429 -1.8771 -1.3225
 7151SOL    HW232916   0.881   0.779   6.778  0.7200  0.4378 -1.1523
 7152SOL     OW32917   2.863   3.289  13.280  0.3584  0.4397  0.3390
 7152SOL    HW132918   2.810   3.239  13.218 -0.0799  1.5529 -0.1765
 7152SOL    HW232919   2.915   3.220  13.320  0.2526  0.0805 -0.1447
 7153SOL     OW32920   1.264   1.890   3.325  0.0983  0.2805  0.1736
 7153SOL    HW132921   1.357   1.886   3.304  0.4921 -0.5367  2.1654
 7153SOL    HW232922   1.219   1.949   3.264  1.1140 -1.3341 -2.1424
 7154SOL     OW32923   1.469   3.109   3.437 -0.3289 -0.0102 -0.6784
 7154SOL    HW132924   1.527   3.093   3.511  0.1538  2.3489 -0.5633
 7154SOL    HW232925   1.410   3.035   3.450 -0.2138  0.2140  1.0783
 7155SOL     OW32926   1.220   1.201   2.732 -0.6860 -0.4283 -0.4854
 7155SOL    HW132927   1.225   1.286   2.776 -0.4763 -0.4172 -0.5299
 7155SOL    HW232928   1.275   1.218   2.655 -0.0377  0.8467  0.2677
 7156SOL     OW32929   0.808   4.273  11.875 -0.3824 -0.1209  0.1460
 7156SOL    HW132930   0.728   4.259  11.925 -1.5174  1.7281 -1.1115
 7156SOL    HW232931   0.863   4.338  11.919  1.4448 -1.6629  0.1086
 7157SOL     OW32932   1.345   3.591   8.932  0.2441 -0.0527  0.1932
 7157SOL    HW132933   1.427   3.572   8.886  0.6090 -1.0009  1.2447
 7157SOL    HW232934   1.332   3.500   8.957  3.6249 -0.5298  0.2399
 7158SOL     OW32935   1.549   4.246   1.954 -0.8954  0.2217  0.3404
 7158SOL    HW132936   1.628   4.192   1.946 -0.2956  1.1100  0.2345
 7158SOL    HW232937   1.482   4.178   1.958 -0.9830  0.2241 -1.1203
 7159SOL     OW32938   2.098   3.881   0.272 -0.1091 -0.1823  0.1598
 7159SOL    HW132939   2.050   3.833   0.205  2.5358 -1.3405 -0.9244
 7159SOL    HW232940   2.058   3.967   0.262  1.2129  0.0843 -2.8906
 7160SOL     OW32941   3.750   3.232  12.515 -0.4935  0.3114  0.2230
 7160SOL    HW132942   3.670   3.275  12.545 -1.6296 -2.3682  1.0166
 7160SOL    HW232943   3.789   3.221  12.602 -2.0695 -1.6243  0.6838
 7161SOL     OW32944   3.663   3.642   7.618  0.2129 -0.5594 -0.0988
 7161SOL    HW132945   3.720   3.714   7.642  0.0463 -0.4395 -0.0628
 7161SOL    HW232946   3.614   3.688   7.550  1.3203  0.6539 -0.0569
 7162SOL     OW32947   4.380   2.903   2.346 -0.2328  0.5156  0.2757
 7162SOL    HW132948   4.443   2.861   2.288  0.2910 -0.8055  1.7826
 7162SOL    HW232949   4.353   2.976   2.291  0.0233 -0.0728 -0.6234
 7163SOL     OW32950   3.009   1.307  13.680 -0.6716  0.1958  0.2867
 7163SOL    HW132951   3.056   1.387  13.656 -1.3789  0.7915  0.8696
 7163SOL    HW232952   3.005   1.321  13.775 -2.0629  0.6966  0.1554
 7164SOL     OW32953   0.306   0.211   5.484 -0.4767 -0.1048  0.2928
 7164SOL    HW132954   0.312   0.307   5.489  1.4117 -0.3432  2.5852
 7164SOL    HW232955   0.396   0.188   5.462  0.1660  0.3126  2.4940
 7165SOL     OW32956   4.699   0.381  16.994 -0.4653  0.3439 -0.5304
 7165SOL    HW132957   0.003   0.363  16.904  1.4884  1.5949 -0.1810
 7165SOL    HW232958   0.023   0.464  17.006 -0.2203  0.1416 -0.1125
 7166SOL     OW32959   1.270   2.714  12.210  0.1106 -0.6809 -0.3753
 7166SOL    HW132960   1.252   2.743  12.121  0.6375 -2.0888 -0.9492
 7166SOL    HW232961   1.218   2.634  12.213  0.3099 -0.8028 -0.1832
 7167SOL     OW32962   4.334   3.612  12.297 -0.2502 -0.0703  0.0889
 7167SOL    HW132963   4.361   3.694  12.338 -1.6899  0.6909 -0.4744
 7167SOL    HW232964   4.332   3.650  12.209 -1.7786  1.9198  0.9801
 7168SOL     OW32965   3.124   4.389  15.627 -0.2120  0.1981 -0.4003
 7168SOL    HW132966   3.139   4.483  15.624  0.6834  0.0763  0.1977
 7168SOL    HW232967   3.213   4.362  15.603 -0.0019  0.5300  0.0163
 7169SOL     OW32968   4.330   1.579  14.556 -0.3189  0.0320  0.4739
 7169SOL    HW132969   4.366   1.643  14.494 -2.4467  0.6210 -0.1653
 7169SOL    HW232970   4.341   1.505  14.496 -2.4763 -0.1622  0.3169
 7170SOL     OW32971   4.701   2.282  17.015 -0.4386  0.5488 -0.4312
 7170SOL    HW132972   0.011   2.193  17.025  0.9491  1.1327  0.0658
 7170SOL    HW232973   4.607   2.268  17.031  0.0578 -0.7857  1.2617
 7171SOL     OW32974   1.529   1.485   1.157  0.2645 -0.7236  0.2843
 7171SOL    HW132975   1.452   1.542   1.159  0.7036 -0.0072 -2.2840
 7171SOL    HW232976   1.584   1.515   1.229  2.7008 -4.0935 -0.1463
 7172SOL     OW32977   0.381   1.735   3.416 -0.3278  0.6105 -0.2025
 7172SOL    HW132978   0.439   1.773   3.482 -1.1989 -0.1599  1.0100
 7172SOL    HW232979   0.375   1.647   3.452  0.1659  0.4253 -0.5706
 7173SOL     OW32980   0.851   2.205  10.986 -0.2280  0.1702  0.3296
 7173SOL    HW132981   0.828   2.192  11.078  2.3575 -2.8609  0.5370
 7173SOL    HW232982   0.857   2.301  10.984 -0.2852  0.1471 -0.9006
 7174SOL     OW32983   4.597   1.023  14.483  0.0516  0.3857  0.2653
 7174SOL    HW132984   4.515   0.996  14.442  0.6547 -0.5002 -0.3497
 7174SOL    HW232985   4.569   0.986  14.567  2.6247 -2.0901  0.0450
 7175SOL     OW32986   2.146   4.392   9.543 -0.4494 -0.0334  0.6740
 7175SOL    HW132987   2.091   4.316   9.522  0.8946 -1.1350  1.0598
 7175SOL    HW232988   2.087   4.464   9.560 -0.3062  0.7524 -2.1986
 7176SOL     OW32989   4.030   3.754   5.044 -0.4357 -0.0309  0.0403
 7176SOL    HW132990   4.077   3.670   5.047 -3.2952 -1.6354  0.2117
 7176SOL    HW232991   4.023   3.753   5.139 -1.7470 -0.6162 -0.0692
 7177SOL     OW32992   0.553   2.848   3.063 -0.4630  0.0582  0.1306
 7177SOL    HW132993   0.463   2.829   3.036  0.0639 -0.3482 -1.3128
 7177SOL    HW232994   0.535   2.928   3.113 -1.7534  0.3274 -0.7540
 7178SOL     OW32995   4.052   3.248   2.569  0.0432 -0.2113  0.4654
 7178SOL    HW132996   4.067   3.332   2.613 -1.4680  1.3144 -1.9744
 7178SOL    HW232997   4.060   3.186   2.642 -0.4016  1.5907  2.0646
 7179SOL     OW32998   0.140   3.555   8.329  0.4169 -0.3114  0.3063
 7179SOL    HW132999   0.210   3.491   8.338  0.9494  0.2986  0.4786
 7179SOL    HW233000   0.079   3.551   8.403  0.5126 -1.0983  0.3381
 7180SOL     OW33001   3.312   1.504  16.530 -0.1200  0.0725 -0.0086
 7180SOL    HW133002   3.311   1.415  16.494  0.6634 -0.6645  1.7850
 7180SOL    HW233003   3.229   1.537  16.496 -0.6926  1.3721  2.6421
 7181SOL     OW33004   1.020   3.808   5.047  0.0513  0.1289 -0.1532
 7181SOL    HW133005   1.019   3.713   5.035  2.1414  0.5473 -3.5044
 7181SOL    HW233006   0.990   3.847   4.965  0.0827  0.1352 -0.1618
 7182SOL     OW33007   4.073   1.040  12.950 -0.4730 -0.7806  0.3420
 7182SOL    HW133008   4.027   1.050  13.033 -1.3554  1.3380 -0.3895
 7182SOL    HW233009   4.003   1.018  12.889 -1.2167  0.1716  0.8407
 7183SOL     OW33010   3.969   4.428   9.455  0.1691  0.0541  0.0034
 7183SOL    HW133011   3.909   4.397   9.387 -1.3831 -0.2086  1.4886
 7183SOL    HW233012   3.931   4.380   9.528 -1.4432  1.2356 -0.0558
 7184SOL     OW33013   4.392   1.566   7.169  0.2596 -0.2856 -0.3343
 7184SOL    HW133014   4.469   1.617   7.193 -0.4957  1.4406 -1.6233
 7184SOL    HW233015   4.408   1.492   7.229  1.2601  1.0728  1.0674
 7185SOL     OW33016   4.414   1.433   5.333  0.4493 -0.3588 -0.0605
 7185SOL    HW133017   4.421   1.340   5.308 -1.1010 -0.9985  1.8973
 7185SOL    HW233018   4.326   1.461   5.308  0.2972 -0.1947  0.6866
 7186SOL     OW33019   2.264   0.588   4.300  0.0835 -0.0533  0.4162
 7186SOL    HW133020   2.268   0.494   4.285 -0.0872  0.3385 -2.1294
 7186SOL    HW233021   2.223   0.601   4.386 -0.6480 -1.8030  0.3208
 7187SOL     OW33022   1.109   1.073  13.414  0.4773  0.7464  0.4369
 7187SOL    HW133023   1.170   1.041  13.481 -0.0253 -0.5415  0.2856
 7187SOL    HW233024   1.031   1.017  13.418  0.4811  0.7176  0.1524
 7188SOL     OW33025   3.880   3.941   9.972 -0.2330  0.0541  0.4566
 7188SOL    HW133026   3.845   4.029   9.957  0.4717  0.1381 -0.7155
 7188SOL    HW233027   3.801   3.891   9.951 -1.3557  2.3263 -0.7754
 7189SOL     OW33028   4.513   1.371  15.669  0.7863  0.3097  0.4368
 7189SOL    HW133029   4.417   1.377  15.667  0.5034 -4.1176 -0.0304
 7189SOL    HW233030   4.540   1.423  15.745  2.9839  1.4849 -1.1521
 7190SOL     OW33031   0.372   0.012   6.567  1.1869  0.2562 -0.0489
 7190SOL    HW133032   0.306   0.056   6.514 -1.0762  1.3485  3.6573
 7190SOL    HW233033   0.456   0.030   6.525 -0.4182 -0.1464 -3.4646
 7191SOL     OW33034   3.991   3.227  15.531 -0.4279 -0.1777 -0.5549
 7191SOL    HW133035   3.903   3.244  15.564 -0.0487  0.7803 -0.0605
 7191SOL    HW233036   3.957   3.187  15.451 -2.9285  0.8955 -0.0219
 7192SOL     OW33037   1.344   0.844  15.228 -0.5156  0.1076  0.2227
 7192SOL    HW133038   1.411   0.912  15.231  0.6185 -0.9518 -0.6101
 7192SOL    HW233039   1.328   0.815  15.317 -1.2763  0.4359  0.1825
 7193SOL     OW33040   4.635   1.378   2.781  0.1837 -0.3042  0.5638
 7193SOL    HW133041   4.539   1.381   2.784  0.0517 -4.4290 -0.2478
 7193SOL    HW233042   4.646   1.433   2.703  0.1228 -0.5361  0.3929
 7194SOL     OW33043   4.679   1.923  16.822  0.7177 -0.4393 -0.1267
 7194SOL    HW133044   4.626   1.988  16.774 -1.9103 -0.7236  2.4302
 7194SOL    HW233045   4.617   1.891  16.887  2.0092 -1.3693  0.6335
 7195SOL     OW33046   1.695   2.310   6.185 -0.4979 -0.0533 -0.3310
 7195SOL    HW133047   1.663   2.231   6.229 -0.2210  0.5926  1.0336
 7195SOL    HW233048   1.693   2.277   6.095 -2.3135  1.4670 -0.8427
 7196SOL     OW33049   4.637   3.772  15.919  0.3413 -0.4507 -0.5228
 7196SOL    HW133050   4.718   3.807  15.882  0.3325 -0.8697 -0.9488
 7196SOL    HW233051   4.669   3.747  16.005 -1.9610 -1.9680 -0.1094
 7197SOL     OW33052   3.013   3.643   5.591  0.2544 -0.4785  0.2117
 7197SOL    HW133053   3.075   3.580   5.627  0.9814  0.0671 -0.0712
 7197SOL    HW233054   3.010   3.717   5.652  0.3791  0.7038 -1.2102
 7198SOL     OW33055   2.363   1.519   7.704 -0.2493 -0.2661  0.2022
 7198SOL    HW133056   2.281   1.559   7.735  0.4974  2.0691 -0.8926
 7198SOL    HW233057   2.417   1.525   7.782 -0.8654  0.5108  0.5678
 7199SOL     OW33058   4.245   1.263   8.030  0.1008 -0.1429 -0.0662
 7199SOL    HW133059   4.167   1.291   7.981  1.1024 -0.2677 -1.7299
 7199SOL    HW233060   4.272   1.354   8.048  0.3629 -0.3542  0.6188
 7200SOL     OW33061   3.348   2.050   6.924 -0.0664  0.1237  0.1735
 7200SOL    HW133062   3.393   1.974   6.961  1.3226 -0.1710 -2.0962
 7200SOL    HW233063   3.381   2.124   6.975  0.1826  1.3833 -1.7870
 7201SOL     OW33064   1.464   2.756   6.294  0.0022  0.2006 -0.7089
 7201SOL    HW133065   1.515   2.795   6.223  1.2980 -1.7632 -0.8429
 7201SOL    HW233066   1.375   2.790   6.277  0.4443  1.2793 -0.8826
 7202SOL     OW33067   3.567   1.552   7.635 -0.1254  0.0481  0.3491
 7202SOL    HW133068   3.601   1.563   7.546  0.4360 -3.1154  0.1829
 7202SOL    HW233069   3.576   1.463   7.669 -2.6812 -0.7982 -1.1815
 7203SOL     OW33070   2.505   1.039   7.170  0.0322  0.2614  0.3404
 7203SOL    HW133071   2.584   1.078   7.206  0.8447 -0.1079 -1.0399
 7203SOL    HW233072   2.433   1.087   7.210  0.1819  1.7901 -1.1984
 7204SOL     OW33073   0.479   4.576  10.006  0.1503 -0.2581  0.1600
 7204SOL    HW133074   0.436   4.601  10.087 -2.2262 -0.5170 -1.0310
 7204SOL    HW233075   0.557   4.632  10.008  0.7835 -1.0076 -2.9715
 7205SOL     OW33076   4.027   0.592   2.318  0.1243  0.1663 -0.0981
 7205SOL    HW133077   4.048   0.630   2.232 -0.2519  0.6954  0.0429
 7205SOL    HW233078   4.038   0.676   2.362 -2.4447  0.4339  0.0219
 7206SOL     OW33079   1.428   3.313   4.332 -0.4064  0.9422 -0.1253
 7206SOL    HW133080   1.423   3.222   4.361  0.4201  1.6144  2.0890
 7206SOL    HW233081   1.523   3.325   4.336 -0.1611 -0.7727 -0.8553
 7207SOL     OW33082   1.562   1.134   6.273  0.4323  0.0476  0.0189
 7207SOL    HW133083   1.549   1.115   6.366 -0.0675  1.1481  0.1695
 7207SOL    HW233084   1.654   1.163   6.274 -0.3814  2.6033 -0.5760
 7208SOL     OW33085   2.090   2.589   1.824  0.2382  0.0030 -0.3577
 7208SOL    HW133086   2.128   2.504   1.845 -0.6234 -0.2331  0.2575
 7208SOL    HW233087   2.156   2.627   1.767 -2.1425  1.1031 -2.4041
 7209SOL     OW33088   0.694   1.788   1.901  0.3047 -0.0296  0.4422
 7209SOL    HW133089   0.748   1.867   1.897 -0.6494  0.6349  0.5610
 7209SOL    HW233090   0.605   1.823   1.909  0.9798  1.4477  1.5719
 7210SOL     OW33091   0.110   3.595   6.313  0.5668 -0.3831 -0.0194
 7210SOL    HW133092   0.193   3.596   6.361 -1.1260 -0.0301  2.9074
 7210SOL    HW233093   0.038   3.575   6.372  2.2653 -0.4211  2.0358
 7211SOL     OW33094   3.516   1.611   5.073 -0.0651 -0.1877  0.0383
 7211SOL    HW133095   3.483   1.559   4.999 -0.3501  1.4836 -0.9922
 7211SOL    HW233096   3.609   1.606   5.052  0.5765  0.7409  2.6736
 7212SOL     OW33097   4.496   3.222  10.585 -0.0842 -0.0148  0.2620
 7212SOL    HW133098   4.453   3.137  10.574 -0.8089  0.0801  2.3955
 7212SOL    HW233099   4.578   3.204  10.631  0.9735 -0.6813 -1.8918
 7213SOL     OW33100   2.293   0.852   2.751 -0.5002 -0.2430 -0.3615
 7213SOL    HW133101   2.299   0.851   2.847 -2.2901  2.7442 -0.2240
 7213SOL    HW233102   2.385   0.856   2.725  0.1066  1.5089  2.0415
 7214SOL     OW33103   1.735   2.709   4.240 -0.1234  0.3546  0.0971
 7214SOL    HW133104   1.824   2.711   4.205 -0.5713  0.3078 -1.0465
 7214SOL    HW233105   1.678   2.751   4.175  2.3675 -1.2214 -3.1183
 7215SOL     OW33106   3.879   2.042   3.839  0.0890 -0.5652  0.3990
 7215SOL    HW133107   3.946   2.094   3.883 -1.0498  1.0655  0.2090
 7215SOL    HW233108   3.804   2.042   3.900 -0.2483 -2.4442 -0.0185
 7216SOL     OW33109   4.266   0.144  15.112  0.4797  0.4187  0.1801
 7216SOL    HW133110   4.187   0.156  15.163 -0.9030  0.5885 -2.0002
 7216SOL    HW233111   4.312   0.228  15.111  1.5861 -0.1368  4.6709
 7217SOL     OW33112   1.578   3.588  11.100 -0.4106  0.3163 -0.0114
 7217SOL    HW133113   1.488   3.585  11.132 -0.2170  1.7173  0.7067
 7217SOL    HW233114   1.577   3.501  11.061 -0.3061  0.4736 -0.3625
 7218SOL     OW33115   0.117   0.512  12.590 -0.2507  0.0835 -0.2796
 7218SOL    HW133116   0.198   0.486  12.547 -0.2845 -0.0450 -0.2664
 7218SOL    HW233117   0.131   0.587  12.648  1.1921 -0.5748  0.2240
 7219SOL     OW33118   1.336   2.267  13.675  0.4898  0.2187 -0.2854
 7219SOL    HW133119   1.406   2.331  13.663  0.0787  0.5467 -0.9518
 7219SOL    HW233120   1.272   2.314  13.729  0.9452 -0.9946  1.2942
 7220SOL     OW33121   2.110   4.689   2.310 -0.1025 -0.7295 -0.3194
 7220SOL    HW133122   2.060   0.032   2.262  0.2926 -1.2266 -1.4189
 7220SOL    HW233123   2.140   0.013   2.388 -4.6906  0.6911  0.5750
 7221SOL     OW33124   1.879   1.213   8.282 -0.2970 -0.1052  0.8146
 7221SOL    HW133125   1.811   1.150   8.258  1.2292 -0.7769 -1.6619
 7221SOL    HW233126   1.900   1.247   8.196 -3.3482 -1.1006 -0.3480
 7222SOL     OW33127   4.544   4.365   2.101  0.2947  0.0288 -0.1717
 7222SOL    HW133128   4.601   4.349   2.177  1.2826  1.2798 -0.6512
 7222SOL    HW233129   4.549   4.276   2.068 -0.7479  0.3128 -1.1132
 7223SOL     OW33130   0.652   3.141   8.745 -0.7443 -0.1918 -0.2227
 7223SOL    HW133131   0.594   3.096   8.807  0.7218  1.1543  2.1164
 7223SOL    HW233132   0.727   3.082   8.753 -0.7418 -0.4521 -2.3146
 7224SOL     OW33133   0.566   2.734  14.848 -0.1821  0.4393 -0.5474
 7224SOL    HW133134   0.596   2.710  14.936 -2.5756  1.0202  0.4257
 7224SOL    HW233135   0.592   2.827  14.851 -0.1918  0.4412 -0.5157
 7225SOL     OW33136   4.700   0.639   4.004 -0.2841 -0.3532 -0.5204
 7225SOL    HW133137   4.611   0.672   3.990 -0.4547 -1.3732 -1.8024
 7225SOL    HW233138   0.021   0.692   3.938  1.9560  0.7919  1.9143
 7226SOL     OW33139   1.450   3.901   5.722  0.1209  0.3078  0.0088
 7226SOL    HW133140   1.363   3.941   5.720  0.5899  1.2916 -0.6949
 7226SOL    HW233141   1.445   3.855   5.639  1.9749 -1.0442  0.6445
 7227SOL     OW33142   1.346   0.584   5.318  0.3317  0.7916 -0.1628
 7227SOL    HW133143   1.391   0.592   5.234  1.1332 -2.7801 -0.0819
 7227SOL    HW233144   1.348   0.488   5.320 -0.3761  0.7622 -1.1124
 7228SOL     OW33145   0.380   2.548   7.968  0.5654  0.0054  0.5141
 7228SOL    HW133146   0.302   2.569   8.019 -0.5575 -0.3088 -1.0802
 7228SOL    HW233147   0.365   2.616   7.903  0.8979 -1.5370 -1.1618
 7229SOL     OW33148   3.243   2.132   3.959 -0.0235  0.0776 -0.0008
 7229SOL    HW133149   3.297   2.148   3.882 -0.1853 -0.3530 -0.2016
 7229SOL    HW233150   3.156   2.138   3.920 -1.7295 -1.5562  3.5180
 7230SOL     OW33151   3.023   0.847  17.633  0.7188  0.2095  0.1900
 7230SOL    HW133152   3.018   0.787  17.558  1.2025  1.9154 -1.2045
 7230SOL    HW233153   3.044   0.785   0.008  0.7545 -1.9342 -1.7034
 7231SOL     OW33154   3.706   0.517   3.050 -0.0449 -0.4043  0.1314
 7231SOL    HW133155   3.614   0.528   3.025 -0.3862  0.1566  1.6691
 7231SOL    HW233156   3.740   0.516   2.960  2.8919  1.6544  1.2119
 7232SOL     OW33157   0.944   3.161   9.356  0.0852  0.0169 -0.1894
 7232SOL    HW133158   0.979   3.241   9.395 -0.4391 -0.5846  1.5171
 7232SOL    HW233159   0.884   3.141   9.428  0.7393  1.9429  0.8834
 7233SOL     OW33160   3.834   3.772   1.534  0.0574 -0.7756 -0.2425
 7233SOL    HW133161   3.787   3.774   1.618  0.1790  2.0950 -0.2133
 7233SOL    HW233162   3.767   3.732   1.479 -0.0765 -1.4372  0.4044
 7234SOL     OW33163   4.654   2.052   4.419  0.1813 -0.1153  0.7902
 7234SOL    HW133164   4.626   2.142   4.435  0.3501  0.0847 -0.0363
 7234SOL    HW233165   0.017   2.056   4.459  1.3065  1.3086 -1.7782
 7235SOL     OW33166   0.712   1.293   2.548  0.4516 -0.1173 -0.5666
 7235SOL    HW133167   0.768   1.332   2.481 -0.2383  1.1361 -0.4091
 7235SOL    HW233168   0.777   1.249   2.604 -1.4784 -0.7543  1.1514
 7236SOL     OW33169   2.237   4.082   5.010 -0.1687 -0.0465 -0.3481
 7236SOL    HW133170   2.182   4.159   4.999 -0.5432 -0.2229  0.2873
 7236SOL    HW233171   2.276   4.072   4.923  1.5065  2.5710  0.0891
 7237SOL     OW33172   3.928   2.525  13.030 -0.7460  0.5538 -0.7019
 7237SOL    HW133173   3.968   2.527  13.117 -1.2072  2.6354 -0.5303
 7237SOL    HW233174   3.910   2.619  13.024  1.3783  0.8826 -1.9123
 7238SOL     OW33175   1.268   1.008   3.313  0.0939  0.2231 -0.3968
 7238SOL    HW133176   1.215   1.050   3.246  1.3265  0.9188 -0.9349
 7238SOL    HW233177   1.340   1.068   3.334  0.2965  0.1574 -0.9126
 7239SOL     OW33178   0.919   1.072  15.405  0.0760 -0.4597 -0.0732
 7239SOL    HW133179   0.841   1.123  15.428  1.1571  1.3469 -0.3686
 7239SOL    HW233180   0.901   0.984  15.437 -0.1476  1.2408  4.4493
 7240SOL     OW33181   0.144   4.481   6.466  0.4826  0.6194  0.2889
 7240SOL    HW133182   0.207   4.416   6.499  1.0773  0.7308 -0.6454
 7240SOL    HW233183   0.114   4.521   6.548 -1.2930  0.1475 -0.1303
 7241SOL     OW33184   2.290   3.513   6.894 -0.7249  0.5086 -0.0749
 7241SOL    HW133185   2.375   3.482   6.924 -0.3821 -0.1417 -1.7366
 7241SOL    HW233186   2.266   3.549   6.980 -1.2357  1.6163 -0.6792
 7242SOL     OW33187   0.162   0.732  12.791  0.5517  0.0924 -0.3375
 7242SOL    HW133188   0.257   0.727  12.780  0.7773 -1.3173  2.3259
 7242SOL    HW233189   0.139   0.823  12.769 -1.3914 -0.4927 -0.7755
 7243SOL     OW33190   0.629   0.642  15.840  0.1308  0.2600  0.2866
 7243SOL    HW133191   0.719   0.674  15.835 -0.0163  0.3596 -1.7040
 7243SOL    HW233192   0.583   0.720  15.872  0.7086 -0.0932  1.9631
 7244SOL     OW33193   1.691   1.114   1.836  0.0246  0.5897  0.4187
 7244SOL    HW133194   1.636   1.039   1.813  2.1559 -1.4537  2.0985
 7244SOL    HW233195   1.678   1.179   1.767 -0.9110 -0.2627 -0.2181
 7245SOL     OW33196   3.974   2.800   6.342 -0.6349 -0.6407  0.0753
 7245SOL    HW133197   4.021   2.727   6.382  2.1542  0.7752 -0.6274
 7245SOL    HW233198   3.913   2.824   6.412 -0.7512  1.3013 -0.6882
 7246SOL     OW33199   4.178   2.709   6.857  0.0378  0.5700 -0.1362
 7246SOL    HW133200   4.177   2.746   6.768 -0.2249 -0.1216 -0.4221
 7246SOL    HW233201   4.144   2.778   6.913 -0.2564  0.5081 -0.2363
 7247SOL     OW33202   0.324   1.460   8.533  0.7159 -0.1619 -0.2410
 7247SOL    HW133203   0.311   1.451   8.627 -0.7870  3.1759 -0.1174
 7247SOL    HW233204   0.376   1.381   8.518  0.2098 -0.3813 -0.8587
 7248SOL     OW33205   4.584   0.071  16.792 -0.0162  0.2855  0.7343
 7248SOL    HW133206   4.513   0.071  16.856  0.3790  0.6268  1.1744
 7248SOL    HW233207   4.609   0.163  16.783 -0.6965  0.4772  0.8079
 7249SOL     OW33208   3.781   3.552  13.219 -0.1624  0.4658 -0.6039
 7249SOL    HW133209   3.804   3.609  13.292  2.5171 -1.1401 -0.1924
 7249SOL    HW233210   3.794   3.613  13.146 -2.0449  1.7081  0.1111
 7250SOL     OW33211   4.460   0.338   4.985  0.0879 -0.2697 -0.2932
 7250SOL    HW133212   4.426   0.424   4.958  1.4341  0.0800 -0.8468
 7250SOL    HW233213   4.544   0.378   5.005 -0.1820 -0.0721  0.4512
 7251SOL     OW33214   1.809   0.961   3.048  0.9643  0.3872  0.0314
 7251SOL    HW133215   1.863   0.914   2.984 -2.8385 -0.3545 -2.6257
 7251SOL    HW233216   1.865   1.038   3.062  1.1156  0.1846  0.5136
 7252SOL     OW33217   0.089   4.419   4.415  0.1462  0.2285  0.5728
 7252SOL    HW133218   0.052   4.444   4.500  0.5566  0.6761  0.6248
 7252SOL    HW233219   0.040   4.470   4.350 -0.2494  1.7276  2.0371
 7253SOL     OW33220   1.949   2.744   4.105  0.0642 -0.1486 -0.1372
 7253SOL    HW133221   1.972   2.667   4.053 -0.3384  0.1231 -0.7160
 7253SOL    HW233222   1.986   2.815   4.054  0.8726 -0.5383 -0.0978
 7254SOL     OW33223   1.520   2.124   0.144 -0.0105  0.8569 -0.3029
 7254SOL    HW133224   1.489   2.046   0.098  0.7637 -1.0364  2.3544
 7254SOL    HW233225   1.614   2.105   0.151 -0.2066 -0.2049 -0.5230
 7255SOL     OW33226   3.485   3.831   6.013 -0.1585  0.0183  0.2223
 7255SOL    HW133227   3.406   3.875   6.047  0.0304  0.7008 -0.2209
 7255SOL    HW233228   3.443   3.766   5.957 -0.4792  0.2138  0.2303
 7256SOL     OW33229   1.788   3.237   8.279  0.7324 -0.1536 -0.4175
 7256SOL    HW133230   1.814   3.172   8.345 -0.0588  0.9912  1.0109
 7256SOL    HW233231   1.701   3.264   8.308  1.4796  0.9233  0.7629
 7257SOL     OW33232   1.796   1.858   4.876  0.4714  0.0778  0.4574
 7257SOL    HW133233   1.738   1.858   4.952 -2.2152 -2.0100 -1.5677
 7257SOL    HW233234   1.768   1.931   4.820  1.5047  0.0096 -0.1593
 7258SOL     OW33235   2.491   1.151   1.141 -0.2904 -0.1127 -0.1670
 7258SOL    HW133236   2.573   1.156   1.091  1.1946 -0.8481  2.1861
 7258SOL    HW233237   2.475   1.057   1.134 -0.0685 -0.0654 -1.2334
 7259SOL     OW33238   1.523   3.183   8.336 -0.0754 -0.3946  0.6514
 7259SOL    HW133239   1.546   3.113   8.275  1.1663 -0.1602  0.8564
 7259SOL    HW233240   1.456   3.224   8.280  0.1205  0.2178  0.8611
 7260SOL     OW33241   2.853   4.570  11.626 -0.5033 -0.2324 -0.1124
 7260SOL    HW133242   2.782   4.531  11.678  1.2383 -1.5505  1.2603
 7260SOL    HW233243   2.923   4.532  11.679  3.2279  3.3599 -2.4817
 7261SOL     OW33244   1.559   3.494   0.450 -0.4280  0.3204 -0.1947
 7261SOL    HW133245   1.482   3.439   0.459  0.6254 -0.9053  1.3493
 7261SOL    HW233246   1.618   3.457   0.516  1.5768  1.3716 -1.3760
 7262SOL     OW33247   2.828   0.899   6.741 -0.3413 -0.2975  0.2365
 7262SOL    HW133248   2.799   0.853   6.662  1.2245 -0.2417 -0.3854
 7262SOL    HW233249   2.920   0.922   6.727 -0.4174  0.9232  1.8318
 7263SOL     OW33250   1.477   0.898   8.192 -0.4564  0.2468 -0.0672
 7263SOL    HW133251   1.458   0.929   8.104 -0.0674  0.0200 -0.2343
 7263SOL    HW233252   1.418   0.825   8.209 -1.2622  0.9380  0.0703
 7264SOL     OW33253   0.965   4.711   0.659 -0.0931  0.1171  0.6886
 7264SOL    HW133254   1.025   0.045   0.708  1.0542 -0.2040 -0.3233
 7264SOL    HW233255   0.895   0.048   0.636  0.2651  1.1775  2.3981
 7265SOL     OW33256   3.422   3.932   4.046 -0.1301  0.1531 -0.2256
 7265SOL    HW133257   3.371   3.986   3.985 -2.0439 -0.4570  0.8576
 7265SOL    HW233258   3.393   3.971   4.129 -2.3595 -3.7552  0.8052
 7266SOL     OW33259   2.666   3.321  12.842  0.2642 -0.2630  0.2583
 7266SOL    HW133260   2.644   3.236  12.806  1.9172 -0.7635  0.4071
 7266SOL    HW233261   2.582   3.365  12.834  1.3210  1.6542 -0.3998
 7267SOL     OW33262   2.745   3.473  10.083 -0.0237 -0.6423 -0.2237
 7267SOL    HW133263   2.684   3.437  10.148  1.4993 -1.2663  0.8469
 7267SOL    HW233264   2.780   3.398  10.036 -1.3391 -1.1060 -0.4558
 7268SOL     OW33265   3.005   2.079   2.912 -0.5871 -0.1792  0.0248
 7268SOL    HW133266   3.039   1.991   2.927  4.0866  2.1086  2.5374
 7268SOL    HW233267   2.997   2.069   2.817 -1.1286 -1.3639  0.1919
 7269SOL     OW33268   2.278   2.973  10.422  0.3093 -0.0240 -0.1686
 7269SOL    HW133269   2.279   2.921  10.502 -0.2931 -1.3490 -1.0069
 7269SOL    HW233270   2.328   3.048  10.453  0.9425 -0.9655  1.0916
 7270SOL     OW33271   3.271   1.216   4.803 -0.2010 -0.2785 -0.0360
 7270SOL    HW133272   3.231   1.167   4.731  1.0884 -1.5329  0.0990
 7270SOL    HW233273   3.316   1.143   4.846  0.4429  1.0289  1.5220
 7271SOL     OW33274   3.642   0.936   3.914 -0.4213  0.1382 -0.3880
 7271SOL    HW133275   3.568   0.899   3.960 -0.5658  0.9811  0.0571
 7271SOL    HW233276   3.716   0.894   3.958  1.1707  1.7492 -1.4698
 7272SOL     OW33277   0.479   3.319  10.568  0.3152 -0.1213 -0.2414
 7272SOL    HW133278   0.490   3.412  10.547 -3.0732  0.1876 -0.6048
 7272SOL    HW233279   0.485   3.278  10.482 -0.3100  1.6627 -1.1344
 7273SOL     OW33280   0.544   0.020   4.388 -0.1925  0.2387 -0.3027
 7273SOL    HW133281   0.525   0.113   4.403 -0.1108  0.2679 -0.3765
 7273SOL    HW233282   0.464   4.703   4.423 -0.1485  0.6608  0.2884
 7274SOL     OW33283   4.483   1.116  15.841 -0.0318  0.0342  0.2267
 7274SOL    HW133284   4.485   1.108  15.937  1.9741 -0.0557  0.1716
 7274SOL    HW233285   4.417   1.177  15.809  0.3013 -0.5123 -1.4887
 7275SOL     OW33286   3.017   2.941   3.170 -0.3138  0.3230 -0.1225
 7275SOL    HW133287   2.977   2.876   3.227  2.6494 -0.1203  1.4391
 7275SOL    HW233288   3.106   2.908   3.184  0.4045  1.6176 -1.6433
 7276SOL     OW33289   4.317   0.315   5.226 -0.0847 -0.2284  0.3021
 7276SOL    HW133290   4.364   0.352   5.151  0.0988 -1.4386 -0.1797
 7276SOL    HW233291   4.288   0.231   5.192 -0.6093 -0.0226  0.2506
 7277SOL     OW33292   1.922   0.930   4.454 -0.2694 -0.4456  0.3271
 7277SOL    HW133293   1.866   0.854   4.435 -0.7962 -0.5161  2.1804
 7277SOL    HW233294   1.867   1.004   4.430  0.3663 -0.1911 -0.3547
 7278SOL     OW33295   1.827   2.963   1.822  0.1877 -0.1926 -0.1397
 7278SOL    HW133296   1.835   3.032   1.888 -1.1825  1.1041 -1.3495
 7278SOL    HW233297   1.813   3.012   1.742  2.0916  2.3221  1.0769
 7279SOL     OW33298   0.652   0.038   3.406  0.2786  0.3078 -0.6732
 7279SOL    HW133299   0.595   0.110   3.436 -1.4501 -1.1203 -0.5239
 7279SOL    HW233300   0.583   4.712   3.361 -0.9115  0.5662  0.8572
 7280SOL     OW33301   2.572   1.014   8.188  0.0299  0.3518  0.4138
 7280SOL    HW133302   2.585   1.096   8.237 -0.8247  0.7674 -0.0523
 7280SOL    HW233303   2.531   0.960   8.256  1.0590 -1.7619 -0.6541
 7281SOL     OW33304   2.446   1.908  10.653 -0.2111  0.0413  0.4808
 7281SOL    HW133305   2.410   1.834  10.701  0.1221 -0.2848  0.2317
 7281SOL    HW233306   2.523   1.932  10.704  0.0473 -1.1374  0.6454
 7282SOL     OW33307   3.264   2.115   5.862 -0.1372  0.1002  0.1664
 7282SOL    HW133308   3.293   2.068   5.784 -1.0565  1.1432 -0.8215
 7282SOL    HW233309   3.307   2.200   5.848  1.3517 -0.9845 -1.8408
 7283SOL     OW33310   4.510   1.785   4.779  0.0362 -0.1237 -0.5362
 7283SOL    HW133311   4.468   1.734   4.849  0.9445  0.5019  0.4569
 7283SOL    HW233312   4.596   1.741   4.775  0.1460 -0.0079  0.6843
 7284SOL     OW33313   4.506   2.515  17.167  0.4927  0.1315 -1.0607
 7284SOL    HW133314   4.571   2.585  17.160  0.4942  0.2452  0.0563
 7284SOL    HW233315   4.558   2.454  17.220 -0.9345 -0.7192 -0.6251
 7285SOL     OW33316   2.055   2.789  11.298  0.3473  0.1782 -0.6959
 7285SOL    HW133317   2.054   2.881  11.273  1.0209  0.1886 -0.6664
 7285SOL    HW233318   2.097   2.792  11.384  0.5449  2.5879 -0.8850
 7286SOL     OW33319   1.542   4.541   9.520 -0.1533  0.0425 -0.4734
 7286SOL    HW133320   1.504   4.501   9.442 -0.8860  1.1936 -0.7026
 7286SOL    HW233321   1.486   4.496   9.583 -1.1253 -0.7523 -1.9044
 7287SOL     OW33322   2.925   0.181   0.489 -0.3407  0.3657 -0.8250
 7287SOL    HW133323   2.979   0.106   0.514  2.0871  2.5814  0.7170
 7287SOL    HW233324   2.851   0.185   0.550  0.9611  0.8266  0.7490
 7288SOL     OW33325   1.319   4.008   0.777  0.0154  0.5286  0.2528
 7288SOL    HW133326   1.263   4.036   0.704 -1.4379 -1.2741  0.6698
 7288SOL    HW233327   1.406   4.022   0.740  1.3080 -3.8472  1.6437
 7289SOL     OW33328   0.056   2.633   2.145 -0.1589  0.3365  0.0510
 7289SOL    HW133329   4.689   2.615   2.120  0.6500 -0.4016 -2.3993
 7289SOL    HW233330   0.036   2.718   2.185 -3.9541 -0.0077 -1.0538
 7290SOL     OW33331   2.002   2.962   5.785 -0.0865  0.2418  0.1842
 7290SOL    HW133332   2.098   2.960   5.790 -0.0736  0.6237  0.1142
 7290SOL    HW233333   1.995   3.038   5.727 -1.7730  1.2684  1.7549
 7291SOL     OW33334   2.803   2.331   4.325 -0.4500  0.5770 -0.0367
 7291SOL    HW133335   2.726   2.377   4.358  0.2633  1.8558 -0.1470
 7291SOL    HW233336   2.773   2.312   4.236 -0.1309  2.0942 -0.4661
 7292SOL     OW33337   3.446   3.285   1.633  0.0687 -0.0460 -0.4268
 7292SOL    HW133338   3.534   3.319   1.618 -0.4799  1.2653 -0.6458
 7292SOL    HW233339   3.446   3.220   1.562 -0.3662 -0.4667 -0.0443
 7293SOL     OW33340   3.208   1.454   8.019 -0.1457  0.4682  0.1399
 7293SOL    HW133341   3.251   1.381   7.974 -0.8372  0.0224  0.2061
 7293SOL    HW233342   3.278   1.516   7.997 -0.1800  0.5324  0.2157
 7294SOL     OW33343   4.165   0.863   9.475  0.0150 -1.0028  0.0405
 7294SOL    HW133344   4.208   0.778   9.476 -1.2511 -1.6485 -0.8558
 7294SOL    HW233345   4.208   0.914   9.407  2.8942 -0.5132  2.2170
 7295SOL     OW33346   0.392   3.835  13.632  0.5436 -0.0892 -0.2638
 7295SOL    HW133347   0.296   3.832  13.640  0.4494  2.9964 -0.3217
 7295SOL    HW233348   0.404   3.929  13.648  4.7752 -0.6438 -0.3219
 7296SOL     OW33349   1.869   1.876   8.598 -0.1673  0.6511  1.1965
 7296SOL    HW133350   1.854   1.830   8.681  1.0070  0.8207  1.5033
 7296SOL    HW233351   1.940   1.822   8.561  0.5658  1.2712  1.7017
 7297SOL     OW33352   1.269   0.282  15.890  0.4151 -0.2096 -0.1840
 7297SOL    HW133353   1.184   0.238  15.883  1.4904 -2.0750 -1.6190
 7297SOL    HW233354   1.242   0.356  15.943 -0.5652 -0.6841 -0.0316
 7298SOL     OW33355   0.441   3.954   6.363  0.1786 -0.3699  0.4634
 7298SOL    HW133356   0.505   4.021   6.390 -0.5110  0.1864  0.7011
 7298SOL    HW233357   0.470   3.886   6.424  1.7880 -1.1217 -1.1422
 7299SOL     OW33358   0.769   4.322   2.772  0.3609 -0.3322 -0.1070
 7299SOL    HW133359   0.807   4.323   2.859  0.6190  1.6318 -0.2423
 7299SOL    HW233360   0.739   4.231   2.762 -2.3309  0.4982  0.4368
 7300SOL     OW33361   4.523   0.147   7.897 -0.2963  0.5452  0.6180
 7300SOL    HW133362   4.520   0.234   7.936 -2.3361  1.4888 -1.6222
 7300SOL    HW233363   4.431   0.129   7.876 -0.0773 -0.8106  0.8428
 7301SOL     OW33364   1.266   2.980   3.780 -0.0813  0.1208  0.0757
 7301SOL    HW133365   1.190   2.925   3.801 -0.9932  1.2102 -0.3592
 7301SOL    HW233366   1.219   3.048   3.733 -1.3460  0.1967  1.4347
 7302SOL     OW33367   0.689   3.441   7.829  0.1701  0.8954  0.1726
 7302SOL    HW133368   0.651   3.506   7.769 -1.1740  0.1830  0.2533
 7302SOL    HW233369   0.697   3.366   7.770 -2.0873 -0.4563  1.5671
 7303SOL     OW33370   3.523   1.730  14.381 -0.0509 -0.1096  0.1560
 7303SOL    HW133371   3.499   1.787  14.455  1.0698  0.6193 -0.0498
 7303SOL    HW233372   3.465   1.655  14.398 -3.5541  2.5668  0.2100
 7304SOL     OW33373   4.419   0.138  17.557 -0.5870 -0.4042  0.4294
 7304SOL    HW133374   4.381   0.197  17.491 -1.1758  1.4799  2.4365
 7304SOL    HW233375   4.383   0.052  17.535  1.9066 -0.7509 -2.2196
 7305SOL     OW33376   3.182   3.796   7.782  0.4178 -0.0636  0.0103
 7305SOL    HW133377   3.270   3.759   7.775  0.1705 -0.5828 -0.4261
 7305SOL    HW233378   3.161   3.815   7.690 -0.1838 -0.5958  0.0354
 7306SOL     OW33379   4.215   1.854   0.093  0.1672  0.3566  0.0969
 7306SOL    HW133380   4.192   1.943   0.065  1.4629  0.8921  0.7751
 7306SOL    HW233381   4.173   1.803   0.024 -0.8738  3.4381 -1.5292
 7307SOL     OW33382   2.008   4.178   5.325  0.0736 -0.3220  0.4980
 7307SOL    HW133383   2.021   4.171   5.420 -0.3585  0.5776  0.6269
 7307SOL    HW233384   1.932   4.120   5.328  1.5141 -2.2423 -0.3442
 7308SOL     OW33385   3.630   3.450  10.206  0.3142  0.5599 -0.5743
 7308SOL    HW133386   3.583   3.370  10.182  0.7134  0.5924 -1.4499
 7308SOL    HW233387   3.620   3.452  10.301 -1.7872  0.1418 -0.7865
 7309SOL     OW33388   0.517   3.010   7.065 -0.1113 -0.1079  0.2577
 7309SOL    HW133389   0.526   2.995   6.971 -0.7991 -0.1355  0.2021
 7309SOL    HW233390   0.434   3.056   7.072 -0.3753 -0.2031 -2.2065
 7310SOL     OW33391   4.334   2.838  11.779 -0.6306  0.7100 -0.2583
 7310SOL    HW133392   4.380   2.834  11.695  0.8079  1.3624  0.4961
 7310SOL    HW233393   4.397   2.886  11.834 -0.1273 -0.4387  0.1756
 7311SOL     OW33394   4.121   3.506   5.111  0.4248  0.0520 -0.0121
 7311SOL    HW133395   4.146   3.434   5.053 -1.4720  0.0408 -0.8241
 7311SOL    HW233396   4.053   3.461   5.162 -2.5291  1.8007 -2.4753
 7312SOL     OW33397   2.736   0.437   5.970  0.1883 -0.4444 -0.1505
 7312SOL    HW133398   2.795   0.401   6.036 -0.0034 -1.5476 -0.5860
 7312SOL    HW233399   2.707   0.363   5.917 -1.4282 -1.0180  1.5520
 7313SOL     OW33400   4.556   3.377   5.944  0.8898 -0.1335  0.3407
 7313SOL    HW133401   4.472   3.422   5.932  0.5212 -0.8293  0.3081
 7313SOL    HW233402   4.541   3.323   6.022 -1.5724 -0.4700 -0.3672
 7314SOL     OW33403   2.399   1.263   1.358 -0.6868  0.6470 -0.1832
 7314SOL    HW133404   2.487   1.287   1.387 -0.9901 -0.3210  1.4898
 7314SOL    HW233405   2.422   1.214   1.279  2.0432 -1.9962  2.2482
 7315SOL     OW33406   4.395   0.501  16.721 -0.3337 -0.0470 -0.3718
 7315SOL    HW133407   4.409   0.520  16.629  0.7103 -2.0414 -0.6071
 7315SOL    HW233408   4.371   0.409  16.715  0.6956 -0.4069  0.9661
 7316SOL     OW33409   3.604   2.385   7.818  0.5199 -0.3397 -0.2739
 7316SOL    HW133410   3.577   2.476   7.832  1.0040 -0.5523  2.0237
 7316SOL    HW233411   3.599   2.379   7.722  1.1004 -0.1572 -0.3176
 7317SOL     OW33412   0.209   3.963   9.035  0.1698 -0.2105  0.2105
 7317SOL    HW133413   0.162   3.950   9.117 -0.4726  0.3978 -0.0586
 7317SOL    HW233414   0.200   4.057   9.023  0.2129  0.0293  2.1329
 7318SOL     OW33415   0.643   4.176   7.735  0.2064 -0.0307 -0.5041
 7318SOL    HW133416   0.649   4.088   7.697  1.7210 -0.8214  1.6271
 7318SOL    HW233417   0.584   4.221   7.674  0.3440  1.2584  0.3225
 7319SOL     OW33418   1.811   4.334   3.011  0.3940  0.7122 -0.3751
 7319SOL    HW133419   1.851   4.405   2.960 -1.5287 -0.1173 -3.0622
 7319SOL    HW233420   1.818   4.256   2.956 -1.1816  0.7771 -0.6708
 7320SOL     OW33421   0.929   1.131   0.482  0.3656  0.4660 -0.4431
 7320SOL    HW133422   0.919   1.214   0.527  0.6346  0.9027 -1.1866
 7320SOL    HW233423   1.021   1.113   0.499 -0.9560 -3.4661  2.7271
 7321SOL     OW33424   2.879   0.916   1.003  0.0122  0.1763  0.0610
 7321SOL    HW133425   2.967   0.897   0.970 -0.2760 -0.6363 -0.2526
 7321SOL    HW233426   2.869   0.832   1.049  0.5238 -0.6073 -1.2449
 7322SOL     OW33427   0.706   4.066   3.228 -0.9995  0.5085 -0.2510
 7322SOL    HW133428   0.633   4.004   3.239 -1.1791  0.7512 -0.0771
 7322SOL    HW233429   0.671   4.134   3.286 -0.1482 -1.5421  2.7197
 7323SOL     OW33430   0.687   0.303   4.868  0.0987  0.0727 -0.4904
 7323SOL    HW133431   0.744   0.271   4.937 -2.0266  0.2292  1.3331
 7323SOL    HW233432   0.614   0.240   4.867 -0.8994  1.2345  0.9780
 7324SOL     OW33433   1.614   1.434  14.121 -0.1738 -0.5104 -0.4584
 7324SOL    HW133434   1.532   1.481  14.133  1.2189  1.7071  0.3799
 7324SOL    HW233435   1.584   1.365  14.062 -1.1895  0.5966 -1.2568
 7325SOL     OW33436   2.416   3.859  10.442  0.0355 -0.2062 -0.1840
 7325SOL    HW133437   2.495   3.887  10.489 -0.5792  0.6106  0.3592
 7325SOL    HW233438   2.418   3.921  10.370  2.0689  0.4141  0.3977
 7326SOL     OW33439   0.099   4.160   8.866  0.1254  0.4063  0.1194
 7326SOL    HW133440   0.066   4.229   8.923 -1.4412 -0.9658  0.8588
 7326SOL    HW233441   0.056   4.186   8.785  1.4385 -1.5968 -1.2162
 7327SOL     OW33442   1.703   2.308  11.313 -0.2146  0.2579 -0.7635
 7327SOL    HW133443   1.728   2.381  11.368 -1.1606 -1.2468  1.6505
 7327SOL    HW233444   1.697   2.342  11.224 -0.0068  0.3496 -0.7414
 7328SOL     OW33445   1.228   0.708  13.534 -0.7551  0.0107 -0.4594
 7328SOL    HW133446   1.320   0.682  13.531 -0.9593 -0.4893 -2.6281
 7328SOL    HW233447   1.241   0.800  13.555  1.7329 -1.1741  3.0897
 7329SOL     OW33448   2.333   3.042   9.484 -0.4664 -0.3603  0.0760
 7329SOL    HW133449   2.244   3.056   9.451 -1.5346 -1.1410  2.6783
 7329SOL    HW233450   2.346   3.081   9.570  0.3095  1.8215 -1.0318
 7330SOL     OW33451   3.418   0.804   8.589  0.4935 -0.3046  0.1602
 7330SOL    HW133452   3.448   0.811   8.679  0.5611  0.1261  0.1002
 7330SOL    HW233453   3.334   0.759   8.602  0.0673  0.4459  0.0108
 7331SOL     OW33454   2.026   2.861   9.010  0.1896 -0.0165  0.4010
 7331SOL    HW133455   1.981   2.792   8.962  1.9292 -0.9453  0.0905
 7331SOL    HW233456   2.085   2.808   9.064  1.2149  0.0144 -0.6917
 7332SOL     OW33457   0.444   1.451   8.069  0.1412 -0.2738  0.1641
 7332SOL    HW133458   0.538   1.449   8.087  0.2418 -2.4853 -0.6252
 7332SOL    HW233459   0.448   1.473   7.976  0.9672 -0.0071  0.2654
 7333SOL     OW33460   3.165   1.758   7.151  0.0966 -0.5900  0.7948
 7333SOL    HW133461   3.227   1.826   7.124  0.0084 -0.6157  0.5306
 7333SOL    HW233462   3.160   1.770   7.246 -3.9761  1.2514  0.3126
 7334SOL     OW33463   0.123   0.277   7.730 -0.9475  0.0217  0.8274
 7334SOL    HW133464   0.165   0.333   7.795 -2.5295  2.7288 -0.4846
 7334SOL    HW233465   0.036   0.302   7.763 -0.5580  1.4144  0.7838
 7335SOL     OW33466   1.607   3.139   3.664 -0.6294  0.2836  0.3057
 7335SOL    HW133467   1.559   3.182   3.735 -0.5742  0.8127  0.0250
 7335SOL    HW233468   1.693   3.181   3.669 -0.6080  0.7134 -3.7910
 7336SOL     OW33469   1.292   3.881   6.873 -0.1426  0.5598 -0.0012
 7336SOL    HW133470   1.361   3.885   6.807 -0.9966 -1.4589 -1.0471
 7336SOL    HW233471   1.320   3.802   6.920 -0.4076  1.7949  2.2065
 7337SOL     OW33472   3.037   3.646  15.588  0.1539  0.3606 -0.0311
 7337SOL    HW133473   3.048   3.739  15.565  0.5481  0.5492  0.9248
 7337SOL    HW233474   3.116   3.623  15.636  1.1168  0.4341 -1.5724
 7338SOL     OW33475   2.139   0.284   6.092  0.1900 -0.6121  0.2548
 7338SOL    HW133476   2.077   0.281   6.165 -0.7195  0.0233 -0.4937
 7338SOL    HW233477   2.183   0.199   6.097 -1.7952 -1.8074 -2.4040
 7339SOL     OW33478   0.069   0.655   0.997 -0.0476  0.7208 -0.1372
 7339SOL    HW133479   0.137   0.722   1.003  2.0279 -1.3198 -0.8376
 7339SOL    HW233480   0.083   0.606   1.078 -0.2466  1.7107  0.4959
 7340SOL     OW33481   3.002   3.442   5.856  0.2679 -0.2973 -0.6743
 7340SOL    HW133482   2.933   3.377   5.871  1.5176 -1.0505  1.8200
 7340SOL    HW233483   3.082   3.407   5.896  0.5059  1.0967  0.0627
 7341SOL     OW33484   0.223   0.680   4.434 -0.1801 -0.3754  0.1491
 7341SOL    HW133485   0.318   0.678   4.420 -0.3959 -0.3809 -1.2730
 7341SOL    HW233486   0.212   0.715   4.523  3.1477  1.2317 -0.0827
 7342SOL     OW33487   1.735   4.650  16.090 -0.1521 -0.0021  0.0684
 7342SOL    HW133488   1.655   4.679  16.134  0.2067 -0.8133  1.2469
 7342SOL    HW233489   1.726   4.679  15.999 -1.3759  0.5082  0.3512
 7343SOL     OW33490   1.289   4.208   6.285  0.2506 -0.1635 -0.2552
 7343SOL    HW133491   1.350   4.134   6.288  0.9705  0.4958  1.5785
 7343SOL    HW233492   1.265   4.224   6.377  0.5629 -0.9288 -0.0394
 7344SOL     OW33493   0.917   3.919   2.128 -0.3145 -0.4945 -0.1377
 7344SOL    HW133494   0.836   3.949   2.169  1.6811  1.7080  2.2383
 7344SOL    HW233495   0.937   3.849   2.189 -0.2826 -1.4647 -1.2604
 7345SOL     OW33496   3.597   4.002   4.814 -0.1162  0.6311 -0.6351
 7345SOL    HW133497   3.652   4.058   4.758  0.6651  0.4869 -0.0008
 7345SOL    HW233498   3.628   4.041   4.895 -0.0791 -1.8919  0.5562
 7346SOL     OW33499   2.568   3.950   1.956  0.5256  0.5214  0.2932
 7346SOL    HW133500   2.537   3.884   1.894 -1.7813  2.0528 -0.2016
 7346SOL    HW233501   2.663   3.944   1.947  0.1589 -5.2971 -0.1089
 7347SOL     OW33502   0.323   3.369   4.827 -0.4478  0.3902 -0.0264
 7347SOL    HW133503   0.361   3.427   4.893  1.8075 -1.3074  0.1710
 7347SOL    HW233504   0.250   3.409   4.780 -1.3460  0.0264  1.0472
 7348SOL     OW33505   4.043   1.259   9.685 -0.5733  0.4947  0.1394
 7348SOL    HW133506   4.010   1.179   9.726 -0.2781 -0.4275 -1.4253
 7348SOL    HW233507   4.119   1.219   9.642 -1.4440 -0.7892 -0.2027
 7349SOL     OW33508   3.588   2.230   9.004 -0.3653 -0.4714  0.5718
 7349SOL    HW133509   3.587   2.170   8.929  1.9748 -1.0029  0.9415
 7349SOL    HW233510   3.681   2.238   9.028 -0.0336 -0.8250 -0.6095
 7350SOL     OW33511   2.779   0.365   7.415  0.4494 -0.0469 -0.4858
 7350SOL    HW133512   2.832   0.398   7.488  1.4903  0.2959 -1.3968
 7350SOL    HW233513   2.824   0.288   7.378 -0.9052 -0.0243 -2.1494
 7351SOL     OW33514   1.093   2.883   8.959  0.2474  0.1950 -0.1942
 7351SOL    HW133515   1.078   2.878   8.865 -1.7738  1.8793  0.0403
 7351SOL    HW233516   1.009   2.858   8.997  0.4060 -0.4176 -0.2406
 7352SOL     OW33517   2.421   4.211   0.898 -1.2370 -0.2021  0.8242
 7352SOL    HW133518   2.467   4.174   0.973 -0.2305  0.4474  0.5308
 7352SOL    HW233519   2.463   4.177   0.819  1.1639 -0.2922  2.1435
 7353SOL     OW33520   0.670   3.483  11.479 -0.5223  0.7189 -0.5577
 7353SOL    HW133521   0.757   3.516  11.459 -0.6703  1.2781 -0.2559
 7353SOL    HW233522   0.659   3.423  11.405 -0.5392  1.7219 -1.3693
 7354SOL     OW33523   2.369   0.577  14.002  0.2511 -0.4018  0.3855
 7354SOL    HW133524   2.421   0.639  13.951  1.3850 -1.7955 -0.1503
 7354SOL    HW233525   2.390   0.493  13.962  2.3731 -0.0584  0.7779
 7355SOL     OW33526   3.566   4.611  10.999 -0.1659 -0.0903  0.5057
 7355SOL    HW133527   3.610   4.625  11.083  1.7047 -1.4948 -0.2444
 7355SOL    HW233528   3.614   4.533  10.971  0.3117 -0.0139  1.1067
 7356SOL     OW33529   1.641   1.130  11.823 -0.3185 -0.8774  0.1237
 7356SOL    HW133530   1.585   1.162  11.752  1.3568  0.7217 -0.4526
 7356SOL    HW233531   1.689   1.058  11.782  0.0683 -1.0795  0.9200
 7357SOL     OW33532   1.923   2.109   5.305 -0.4840 -0.3472  0.2998
 7357SOL    HW133533   1.948   2.127   5.214  0.3965  0.4331  0.7006
 7357SOL    HW233534   1.877   2.027   5.290 -2.4333  0.6887  0.6920
 7358SOL     OW33535   1.866   4.720   3.871 -0.3355  0.0061 -0.0658
 7358SOL    HW133536   1.840   4.710   3.779 -1.5484  1.3939  0.1465
 7358SOL    HW233537   1.814   4.650   3.909  1.1873 -0.7406  0.6526
 7359SOL     OW33538   1.098   3.542  11.711 -0.0020 -0.9325  0.5975
 7359SOL    HW133539   1.152   3.589  11.775  1.8717 -1.5479 -0.5598
 7359SOL    HW233540   1.041   3.493  11.771 -2.8683  0.4562 -0.9757
 7360SOL     OW33541   2.808   0.311  10.551 -0.4752 -0.3090  0.3117
 7360SOL    HW133542   2.782   0.364  10.627 -0.8310  0.2734 -0.2101
 7360SOL    HW233543   2.750   0.355  10.489  2.3552  3.5113  0.3608
 7361SOL     OW33544   2.764   1.925   0.346 -0.3785  0.6405  0.0637
 7361SOL    HW133545   2.809   2.003   0.380 -1.1155  0.0191  2.4005
 7361SOL    HW233546   2.739   1.872   0.421  0.1378  0.4778  0.1221
 7362SOL     OW33547   2.713   3.944  15.795  0.1085 -0.2800  0.0568
 7362SOL    HW133548   2.763   3.874  15.752  0.9737 -1.4247  2.9703
 7362SOL    HW233549   2.719   4.020  15.736  0.5067  0.0888  0.5815
 7363SOL     OW33550   3.260   3.153   0.864  0.3760 -0.5910  0.3943
 7363SOL    HW133551   3.234   3.085   0.926 -0.7533  1.0438  1.7066
 7363SOL    HW233552   3.235   3.111   0.781  2.5649  1.8423 -1.5323
 7364SOL     OW33553   0.504   1.461   9.308  0.7406  0.3137 -0.4911
 7364SOL    HW133554   0.547   1.409   9.239 -1.8547  1.4494 -2.9302
 7364SOL    HW233555   0.534   1.426   9.392  0.6413  1.0346 -0.1562
 7365SOL     OW33556   0.064   3.985   6.857  0.2565  0.1596  0.1640
 7365SOL    HW133557   4.692   3.986   6.861  0.2921  1.6093  0.6756
 7365SOL    HW233558   0.093   4.067   6.895 -0.0835 -0.7790  2.4059
 7366SOL     OW33559   2.561   2.527   8.533 -0.1695 -0.1448 -0.1353
 7366SOL    HW133560   2.599   2.595   8.476 -0.2046  1.3812  1.6631
 7366SOL    HW233561   2.630   2.523   8.598  0.2686  0.9903 -0.5272
 7367SOL     OW33562   3.699   4.713   4.177  0.3923 -0.4232  0.1770
 7367SOL    HW133563   3.789   0.020   4.163 -0.3213  2.6388  2.3753
 7367SOL    HW233564   3.650   0.047   4.118 -0.2629  0.4918  1.6391
 7368SOL     OW33565   1.283   0.318   3.175  0.9510 -0.1935 -0.4380
 7368SOL    HW133566   1.341   0.311   3.251  0.3459 -2.6711 -0.2098
 7368SOL    HW233567   1.201   0.279   3.206  0.3933  2.0064  0.8828
 7369SOL     OW33568   1.937   2.264  16.307 -0.1672 -0.3297  0.5487
 7369SOL    HW133569   2.028   2.279  16.281  0.4991 -3.2511  1.2318
 7369SOL    HW233570   1.888   2.334  16.265  2.6025  3.0305  2.9314
 7370SOL     OW33571   4.693   0.159   8.558  0.0182  0.3054  0.2128
 7370SOL    HW133572   0.054   0.185   8.520 -0.4342  0.9990 -0.3090
 7370SOL    HW233573   4.628   0.222   8.526  0.5689  0.8520  0.1674
 7371SOL     OW33574   2.465   2.583   4.220  0.1861  0.4462  0.0470
 7371SOL    HW133575   2.509   2.623   4.145  0.7996 -2.5129 -1.1640
 7371SOL    HW233576   2.373   2.607   4.207 -0.6344 -0.6047  3.9611
 7372SOL     OW33577   0.041   0.195   1.985  0.2102 -0.0002  0.0364
 7372SOL    HW133578   4.699   0.254   1.947 -0.7176 -0.2555  1.2595
 7372SOL    HW233579   0.088   0.143   1.920  1.1669  1.9197 -0.8231
 7373SOL     OW33580   2.327   2.267   6.146  0.0362 -0.3159 -0.1635
 7373SOL    HW133581   2.408   2.313   6.166  0.3343 -0.4052 -1.1223
 7373SOL    HW233582   2.357   2.222   6.067 -0.1275 -0.2131 -0.2850
 7374SOL     OW33583   3.335   3.439   3.938 -0.3769 -0.2989  0.0486
 7374SOL    HW133584   3.341   3.513   3.997  2.1908 -0.3721 -0.1126
 7374SOL    HW233585   3.394   3.475   3.872  0.0422 -0.6643  0.2254
 7375SOL     OW33586   3.905   3.420   3.988 -0.2696 -0.2196 -0.1040
 7375SOL    HW133587   3.993   3.384   3.982 -0.2331 -0.0140 -0.7834
 7375SOL    HW233588   3.889   3.430   3.894 -0.1035 -0.3052 -0.1403
 7376SOL     OW33589   3.825   0.104   8.270 -0.9860  0.3816 -0.0250
 7376SOL    HW133590   3.809   0.089   8.363 -0.4808 -2.9907 -0.4840
 7376SOL    HW233591   3.892   0.044   8.239  0.2826  0.9643  1.5909
 7377SOL     OW33592   3.117   2.437   2.125  0.1450 -0.0727  0.8941
 7377SOL    HW133593   3.039   2.394   2.161 -0.8917 -0.5228 -1.8977
 7377SOL    HW233594   3.102   2.445   2.030  1.1943  2.3182  0.9272
 7378SOL     OW33595   2.596   4.138   6.228  0.2384  1.1969  0.6326
 7378SOL    HW133596   2.603   4.216   6.284 -0.2336  0.4518  1.7231
 7378SOL    HW233597   2.594   4.068   6.294 -0.0112 -0.4503 -1.1413
 7379SOL     OW33598   1.915   0.330   4.504  0.1799  0.4768  0.0420
 7379SOL    HW133599   1.900   0.423   4.521  1.9201  0.6528  0.5954
 7379SOL    HW233600   1.997   0.314   4.550  0.4163 -0.4910 -0.7195
 7380SOL     OW33601   0.872   1.699  12.055  0.0634 -0.3926  0.3249
 7380SOL    HW133602   0.791   1.721  12.008  0.6204  0.8663 -0.0601
 7380SOL    HW233603   0.869   1.746  12.138  3.4726  0.6723 -0.1370
 7381SOL     OW33604   2.762   3.872  13.291 -0.0294  0.1616 -0.4253
 7381SOL    HW133605   2.713   3.952  13.312 -1.1463 -0.0584 -2.2154
 7381SOL    HW233606   2.826   3.875  13.362 -1.1043  1.8497  0.4869
 7382SOL     OW33607   1.502   1.006   4.266  0.2298 -0.0991  0.3161
 7382SOL    HW133608   1.498   0.923   4.313 -1.5565 -1.2691 -1.8930
 7382SOL    HW233609   1.426   1.045   4.308  0.8380  0.0612  1.2597
 7383SOL     OW33610   0.781   4.484  16.222  0.8840 -0.1572 -0.6826
 7383SOL    HW133611   0.718   4.412  16.229  0.8507 -0.0438  0.2211
 7383SOL    HW233612   0.809   4.473  16.131 -0.8742  0.1190 -1.2620
 7384SOL     OW33613   3.222   0.018   4.320  0.2343  1.1147  0.0984
 7384SOL    HW133614   3.248   0.091   4.264 -1.0155  1.6699  0.2386
 7384SOL    HW233615   3.246   0.049   4.408  0.3855  1.0456  0.0813
 7385SOL     OW33616   2.873   3.443   6.612  0.0589 -0.1407  0.1479
 7385SOL    HW133617   2.966   3.462   6.596 -0.4424  0.2150 -2.2848
 7385SOL    HW233618   2.851   3.398   6.531 -0.3402  0.5532 -0.1295
 7386SOL     OW33619   2.404   0.546  15.994 -0.1357 -0.3485 -1.3529
 7386SOL    HW133620   2.412   0.467  16.047  0.6625  1.1745  0.7908
 7386SOL    HW233621   2.404   0.516  15.903 -0.1378 -0.6562 -1.2507
 7387SOL     OW33622   3.703   3.827   2.329  0.1888 -0.2453  0.2153
 7387SOL    HW133623   3.791   3.797   2.305 -0.1809 -0.4654 -0.9050
 7387SOL    HW233624   3.651   3.777   2.265 -2.3823 -0.2474  2.2831
 7388SOL     OW33625   3.874   2.714   7.817  0.3743 -0.2735  0.4643
 7388SOL    HW133626   3.780   2.695   7.823  1.0367 -3.0823  1.7880
 7388SOL    HW233627   3.903   2.651   7.883  1.1367 -0.3757  0.0359
 7389SOL     OW33628   1.571   3.380   3.944  0.2708  0.1587 -0.6756
 7389SOL    HW133629   1.603   3.290   3.943  0.2529  0.1387  0.1499
 7389SOL    HW233630   1.634   3.409   3.879  0.5150 -1.1837 -1.0466
 7390SOL     OW33631   2.224   1.151   1.928  0.4105  0.8613  0.3321
 7390SOL    HW133632   2.129   1.161   1.921  0.1242 -1.0942  1.6195
 7390SOL    HW233633   2.240   1.091   1.856  0.3338  0.1017  0.9552
 7391SOL     OW33634   2.708   1.381   4.139  0.3561  0.2467  0.2119
 7391SOL    HW133635   2.695   1.372   4.233  3.5896  0.2827  0.6673
 7391SOL    HW233636   2.728   1.293   4.105 -1.0394 -0.8927  2.4079
 7392SOL     OW33637   1.855   4.614  12.325 -1.0069 -0.1763  0.5160
 7392SOL    HW133638   1.779   4.594  12.270 -0.3477 -0.3263 -0.3174
 7392SOL    HW233639   1.838   4.704  12.354 -0.8992  0.0331 -0.0866
 7393SOL     OW33640   1.790   1.979   3.138  0.3699 -0.0096  0.4442
 7393SOL    HW133641   1.722   1.912   3.148 -1.5612  1.6775 -1.3344
 7393SOL    HW233642   1.776   2.000   3.046  0.9088 -0.0097  0.3663
 7394SOL     OW33643   2.582   2.144  16.514  0.1735  0.1651 -0.2468
 7394SOL    HW133644   2.601   2.082  16.444 -1.9305  1.8679 -2.3472
 7394SOL    HW233645   2.573   2.075  16.579  0.7540 -1.3883 -1.8373
 7395SOL     OW33646   2.823   4.621  11.344  0.6035 -0.0254 -0.3472
 7395SOL    HW133647   2.815   4.588  11.433 -2.6727  0.7201 -0.3652
 7395SOL    HW233648   2.763   4.695  11.344 -1.0153 -1.3232 -0.5796
 7396SOL     OW33649   4.685   1.180   6.169  0.0105  0.1135  0.0049
 7396SOL    HW133650   4.590   1.188   6.156  0.0220  1.4646  0.8220
 7396SOL    HW233651   4.705   1.230   6.247  1.7241 -0.2038 -0.2190
 7397SOL     OW33652   2.700   2.243   4.063 -0.2508  0.2890  0.3699
 7397SOL    HW133653   2.608   2.231   4.040 -0.1243 -0.1434  0.0887
 7397SOL    HW233654   2.725   2.294   3.986 -0.5796  0.6238  0.4856
 7398SOL     OW33655   4.564   4.073   4.037 -0.3964  0.9310  0.0580
 7398SOL    HW133656   4.617   4.063   4.116 -0.4648  1.9081  0.2349
 7398SOL    HW233657   4.537   4.165   4.041  0.1291  1.2316 -3.0667
 7399SOL     OW33658   4.148   3.814   3.886 -0.5708  0.0285  0.3559
 7399SOL    HW133659   4.098   3.872   3.943 -0.5551  0.3604  0.0269
 7399SOL    HW233660   4.208   3.769   3.945 -0.8717 -1.2723 -0.3283
 7400SOL     OW33661   3.768   4.696   2.592 -0.2155  0.9436 -0.3057
 7400SOL    HW133662   3.740   4.638   2.662 -0.1367 -0.4150 -1.4115
 7400SOL    HW233663   3.712   4.663   2.521 -2.6944 -1.8865  2.9780
 7401SOL     OW33664   3.751   4.688  12.493 -0.7834 -0.0954  0.4286
 7401SOL    HW133665   3.682   4.712  12.555 -0.7444  0.4326  0.2640
 7401SOL    HW233666   3.773   4.605  12.536 -0.5357 -0.2573 -0.0120
 7402SOL     OW33667   3.873   2.854  10.675 -0.0188  0.1255 -0.0341
 7402SOL    HW133668   3.850   2.841  10.767  0.0595 -1.4823 -0.2567
 7402SOL    HW233669   3.900   2.765  10.654 -1.8898  0.1932 -2.6979
 7403SOL     OW33670   2.140   3.491  10.349  0.0198 -0.1111  0.3371
 7403SOL    HW133671   2.187   3.495  10.267  0.2039 -1.7072  0.3684
 7403SOL    HW233672   2.199   3.537  10.409  1.1211 -1.0023 -0.0683
 7404SOL     OW33673   4.170   1.632  17.073  0.3331  0.4008 -0.3188
 7404SOL    HW133674   4.137   1.596  16.991  0.0129 -0.0576  0.0111
 7404SOL    HW233675   4.126   1.583  17.142  0.8373  1.2695  0.6283
 7405SOL     OW33676   4.703   3.239   8.708 -0.3857  0.8003 -0.1494
 7405SOL    HW133677   0.022   3.177   8.769 -1.6613 -0.0135 -0.0720
 7405SOL    HW233678   0.041   3.228   8.636 -0.4431 -1.7728  0.1720
 7406SOL     OW33679   0.959   4.369   4.324 -0.2243  0.0486  0.6139
 7406SOL    HW133680   0.957   4.369   4.420 -1.0742 -0.0817  0.5944
 7406SOL    HW233681   0.894   4.435   4.302 -0.0561 -0.4629 -1.4469
 7407SOL     OW33682   1.343   4.107   0.213 -0.0097 -0.4113 -0.2715
 7407SOL    HW133683   1.350   4.195   0.178 -1.2078 -1.6170 -3.4976
 7407SOL    HW233684   1.432   4.074   0.198 -0.1035 -0.4736 -0.6806
 7408SOL     OW33685   2.547   3.140   2.412  0.0368  0.1412  0.5416
 7408SOL    HW133686   2.625   3.148   2.358  0.0019 -0.5883  0.3834
 7408SOL    HW233687   2.546   3.211   2.476 -0.8720  0.1304  0.5436
 7409SOL     OW33688   1.030   2.362   2.645  0.0509 -0.0626  0.4149
 7409SOL    HW133689   1.087   2.357   2.569 -0.1909  0.8725  0.1785
 7409SOL    HW233690   1.093   2.341   2.714  0.6862  0.2540 -0.0802
 7410SOL     OW33691   3.878   1.224   6.621 -0.1550 -0.7115 -0.2062
 7410SOL    HW133692   3.791   1.194   6.595 -0.4227 -0.3018  0.2269
 7410SOL    HW233693   3.854   1.313   6.648  1.3312 -1.5810  3.9095
 7411SOL     OW33694   1.370   1.580   6.565  0.0882 -0.1589 -0.1007
 7411SOL    HW133695   1.275   1.594   6.572  0.0478  0.1903 -1.2596
 7411SOL    HW233696   1.396   1.657   6.514  1.8110 -0.0886  0.9161
 7412SOL     OW33697   3.822   0.869   1.013 -0.0171 -0.4129 -0.0782
 7412SOL    HW133698   3.830   0.884   0.919  2.5464  1.2035  0.4010
 7412SOL    HW233699   3.840   0.956   1.051 -1.4979  0.2195 -0.8361
 7413SOL     OW33700   0.025   4.382   9.021 -0.3000 -0.5391 -0.5130
 7413SOL    HW133701   4.709   4.463   8.987  1.0217  0.5810  0.6283
 7413SOL    HW233702   0.095   4.407   9.082  0.6349 -2.0124 -0.9816
 7414SOL     OW33703   0.907   0.200   1.969  0.2247 -0.1164 -0.1877
 7414SOL    HW133704   0.909   0.193   2.065 -1.9946  0.8039 -0.0800
 7414SOL    HW233705   0.812   0.210   1.964  0.4345  0.8562 -1.8992
 7415SOL     OW33706   2.654   3.979   4.301 -0.0526  0.4376 -0.2583
 7415SOL    HW133707   2.686   3.943   4.218  1.1240 -1.0284  0.8510
 7415SOL    HW233708   2.637   4.065   4.262  0.8622  1.4834  1.6900
 7416SOL     OW33709   2.412   3.523   8.818 -0.5822 -0.2018 -0.3002
 7416SOL    HW133710   2.375   3.557   8.899 -0.2678  0.9541 -0.6279
 7416SOL    HW233711   2.501   3.557   8.835  0.5040 -2.4662 -1.4892
 7417SOL     OW33712   4.193   3.420   5.560 -0.1251  0.0717 -0.2254
 7417SOL    HW133713   4.255   3.441   5.491 -0.7804  1.4342 -0.3900
 7417SOL    HW233714   4.160   3.509   5.570  3.0608  1.4320 -1.8743
 7418SOL     OW33715   1.694   3.957   7.932  0.3399  0.0824  0.6041
 7418SOL    HW133716   1.751   3.922   8.001  2.9555  0.0699 -1.5677
 7418SOL    HW233717   1.612   3.964   7.982  0.3741  1.0731  0.5211
 7419SOL     OW33718   2.543   3.744  16.934 -0.2460  0.3668 -0.0201
 7419SOL    HW133719   2.585   3.791  17.005  0.6994 -1.2410  0.4839
 7419SOL    HW233720   2.621   3.698  16.902  0.6339  2.6770 -1.1769
 7420SOL     OW33721   3.947   2.878   3.932  0.0362  0.1681 -0.2596
 7420SOL    HW133722   4.030   2.855   3.974 -1.0945  1.5183  2.6627
 7420SOL    HW233723   3.972   2.852   3.843  0.3910 -1.8615  0.4308
 7421SOL     OW33724   2.165   1.547   7.208  0.3780 -0.2601 -0.3342
 7421SOL    HW133725   2.168   1.456   7.235  2.9698 -0.7550 -2.3491
 7421SOL    HW233726   2.219   1.587   7.276  0.9908 -1.1476 -0.3090
 7422SOL     OW33727   4.641   0.629   5.629 -0.0871 -0.5906 -0.0155
 7422SOL    HW133728   4.633   0.536   5.605  1.7125 -0.5416 -0.8590
 7422SOL    HW233729   4.619   0.660   5.541  0.2330 -1.6178 -0.4702
 7423SOL     OW33730   1.973   1.960  13.865 -0.3050  0.3031 -0.0763
 7423SOL    HW133731   2.036   1.901  13.823 -1.0479  0.2288 -1.1070
 7423SOL    HW233732   1.897   1.902  13.872  1.1428 -1.5468  0.3677
 7424SOL     OW33733   3.175   2.392   2.621  0.2310 -0.2673 -0.1256
 7424SOL    HW133734   3.223   2.404   2.538  1.3436 -0.3510  0.5024
 7424SOL    HW233735   3.118   2.468   2.614 -1.0666 -1.4009 -1.8776
 7425SOL     OW33736   3.611   3.245  16.299 -0.0768  0.3857  0.0903
 7425SOL    HW133737   3.645   3.156  16.307  0.4965  0.4020 -2.2820
 7425SOL    HW233738   3.695   3.291  16.297 -0.5158  1.1937  0.2451
 7426SOL     OW33739   3.833   0.154   1.917  0.6143 -0.4742 -0.1004
 7426SOL    HW133740   3.860   0.063   1.930  0.9484 -0.2174  0.9743
 7426SOL    HW233741   3.907   0.195   1.873  1.3508 -1.6414  0.0628
 7427SOL     OW33742   1.940   0.281  16.359  0.0661  0.5289 -0.5275
 7427SOL    HW133743   1.969   0.317  16.443 -1.7999  0.4307  0.1548
 7427SOL    HW233744   1.983   0.341  16.298  1.2303  1.9301  1.6576
 7428SOL     OW33745   1.526   3.284   3.070  0.3110  0.0679 -0.1925
 7428SOL    HW133746   1.608   3.258   3.028  1.1717  0.6997  1.0967
 7428SOL    HW233747   1.517   3.377   3.048  0.3392  0.1340  0.0774
 7429SOL     OW33748   4.074   1.492  17.497  0.6743 -0.0781  0.2801
 7429SOL    HW133749   4.091   1.411  17.545 -1.4435 -0.2684  0.6847
 7429SOL    HW233750   4.054   1.546  17.574  2.6924  0.2032  0.6098
 7430SOL     OW33751   4.014   2.640  16.651  0.4717  0.2522 -0.1589
 7430SOL    HW133752   3.977   2.570  16.597 -0.1490 -0.5565  1.3298
 7430SOL    HW233753   4.035   2.596  16.733 -0.4332 -0.4329 -0.2983
 7431SOL     OW33754   1.301   0.261   5.369  0.9304 -0.1522 -0.2723
 7431SOL    HW133755   1.396   0.264   5.374  0.8192  1.0727  1.0431
 7431SOL    HW233756   1.277   0.245   5.460  1.4970  0.1331 -0.0771
 7432SOL     OW33757   4.703   4.688   3.758 -0.4919 -0.3708  0.5427
 7432SOL    HW133758   4.685   0.058   3.769 -1.0906 -0.0929 -2.7080
 7432SOL    HW233759   0.075   4.694   3.767 -0.4108  1.3134 -1.4579
 7433SOL     OW33760   1.013   3.040   2.610 -0.3393 -0.6060 -0.7494
 7433SOL    HW133761   1.055   3.091   2.540 -1.4086  1.9795  0.4841
 7433SOL    HW233762   1.082   2.977   2.633 -0.3257 -0.0357  0.7549
 7434SOL     OW33763   0.474   1.897   1.711  0.1429 -0.4012 -0.0376
 7434SOL    HW133764   0.404   1.960   1.691  0.9682 -0.2409 -2.3944
 7434SOL    HW233765   0.449   1.857   1.794  0.5217  0.4419  0.4890
 7435SOL     OW33766   1.506   2.813  11.668  0.1538 -0.1711 -0.1497
 7435SOL    HW133767   1.494   2.721  11.643 -0.8800  0.3814 -1.7221
 7435SOL    HW233768   1.443   2.859  11.612  1.4642  0.6684 -0.9208
 7436SOL     OW33769   2.197   4.184   2.221 -0.1482  0.3157  0.2613
 7436SOL    HW133770   2.227   4.274   2.207 -0.1037 -0.1216 -2.5762
 7436SOL    HW233771   2.230   4.140   2.143 -2.2475  0.8943 -0.9535
 7437SOL     OW33772   2.353   0.078  13.506  0.1345 -0.2765 -0.0644
 7437SOL    HW133773   2.345   0.161  13.460  2.1106 -0.1761 -0.2409
 7437SOL    HW233774   2.278   0.026  13.476 -0.7213 -0.3557  2.1965
 7438SOL     OW33775   4.453   3.589   6.755  0.1217 -0.4072 -0.0832
 7438SOL    HW133776   4.517   3.589   6.826 -0.7946  0.7310  0.7227
 7438SOL    HW233777   4.481   3.670   6.713 -0.4227 -0.3504 -0.3378
 7439SOL     OW33778   3.737   2.853  11.851  0.1675 -0.2052 -0.0927
 7439SOL    HW133779   3.794   2.923  11.818 -1.8441  1.9575  1.0826
 7439SOL    HW233780   3.743   2.877  11.943  0.4648 -0.8824  0.0620
 7440SOL     OW33781   4.468   1.594  17.668  0.1056 -0.2484  0.2841
 7440SOL    HW133782   4.451   1.593   0.067  0.8469 -0.3893  0.4136
 7440SOL    HW233783   4.383   1.621  17.633  0.5052 -1.7560 -1.7849
 7441SOL     OW33784   1.032   2.736   1.010 -0.0388 -0.3300 -0.4458
 7441SOL    HW133785   1.027   2.830   1.027 -0.8838 -0.1687 -1.5585
 7441SOL    HW233786   1.054   2.685   1.088  0.6092 -0.3433 -0.6338
 7442SOL     OW33787   1.922   1.869   5.550  0.4533 -0.0452 -0.4800
 7442SOL    HW133788   1.941   1.946   5.603 -0.8754  0.1937 -0.3528
 7442SOL    HW233789   1.996   1.855   5.492  1.3269  1.5303  0.2594
 7443SOL     OW33790   4.284   4.107   0.975  0.4256  0.5198 -0.1227
 7443SOL    HW133791   4.311   4.038   0.914  0.3772  2.1011 -1.9480
 7443SOL    HW233792   4.241   4.175   0.923 -1.6082  0.1994  1.1651
 7444SOL     OW33793   1.982   1.499   7.829 -0.4552 -0.0391 -0.2060
 7444SOL    HW133794   2.010   1.444   7.755 -0.6827  1.4485 -1.4068
 7444SOL    HW233795   2.036   1.577   7.812  1.1265 -1.2782 -0.8279
 7445SOL     OW33796   2.208   0.103   2.540  0.2498 -0.2261  0.1425
 7445SOL    HW133797   2.299   0.072   2.540  0.0475 -0.8377  2.3516
 7445SOL    HW233798   2.192   0.114   2.634  1.2613  0.8820  0.1882
 7446SOL     OW33799   2.136   0.640  16.495  0.1314 -0.2871 -0.5192
 7446SOL    HW133800   2.123   0.681  16.580  0.7062  1.3270 -1.1934
 7446SOL    HW233801   2.193   0.701  16.448  0.6398 -1.1698 -1.0643
 7447SOL     OW33802   3.469   2.026  16.102  0.1391  0.2148  0.2832
 7447SOL    HW133803   3.529   2.050  16.031  0.3472 -0.9764  0.0622
 7447SOL    HW233804   3.389   2.061  16.063  0.8302  1.4101 -0.0432
 7448SOL     OW33805   3.130   0.027  17.122 -0.2692 -0.5734  0.6614
 7448SOL    HW133806   3.222   0.007  17.139 -0.3369 -0.8726  0.6680
 7448SOL    HW233807   3.122   4.693  17.046  1.3875 -2.2325  1.7434
 7449SOL     OW33808   3.962   0.489   4.674 -0.0324  0.4745 -0.0991
 7449SOL    HW133809   3.918   0.455   4.752  1.0879 -1.2631 -0.2255
 7449SOL    HW233810   4.016   0.414   4.649  2.5669  1.8267  1.3965
 7450SOL     OW33811   0.558   0.820   3.279 -0.0275 -0.5496 -0.2710
 7450SOL    HW133812   0.478   0.848   3.233 -1.9365  0.0372  3.4402
 7450SOL    HW233813   0.620   0.826   3.206 -0.8679  1.5073 -0.8446
 7451SOL     OW33814   1.478   0.459   8.029  0.2349 -0.1699  0.5364
 7451SOL    HW133815   1.531   0.426   7.956  0.1508 -0.8268  0.7740
 7451SOL    HW233816   1.473   0.381   8.083  0.9791  1.1793  2.5330
 7452SOL     OW33817   4.104   0.017   9.216 -0.1989 -0.0130 -0.5606
 7452SOL    HW133818   4.183   0.056   9.252  0.9462 -0.7085 -2.3355
 7452SOL    HW233819   4.120   4.647   9.232  0.1932  0.0992 -0.3110
 7453SOL     OW33820   3.215   4.357   7.842 -0.0987  0.7041  0.0628
 7453SOL    HW133821   3.298   4.403   7.855  0.6006  0.1827 -2.6884
 7453SOL    HW233822   3.182   4.370   7.931 -1.6663  1.5513 -0.6392
 7454SOL     OW33823   0.021   2.723   3.267  0.0132 -0.2824 -0.1206
 7454SOL    HW133824   0.001   2.788   3.334  1.7287  1.7255 -1.5695
 7454SOL    HW233825   4.656   2.694   3.244 -0.4538  2.2975 -1.5036
 7455SOL     OW33826   4.142   1.978  15.161 -0.3868 -0.4331  0.3334
 7455SOL    HW133827   4.183   2.038  15.100 -2.0829 -0.9829 -1.3447
 7455SOL    HW233828   4.099   2.042  15.217 -2.1063 -1.2580 -0.0396
 7456SOL     OW33829   1.815   0.857   1.708  0.1013  0.0245 -0.0995
 7456SOL    HW133830   1.900   0.812   1.707 -0.0295 -0.2062 -0.8527
 7456SOL    HW233831   1.753   0.792   1.742  0.6127 -0.4986 -0.1692
 7457SOL     OW33832   3.632   2.361   3.462  0.2452 -0.0285 -0.3156
 7457SOL    HW133833   3.608   2.450   3.437 -0.4339  0.9172  3.6392
 7457SOL    HW233834   3.654   2.380   3.553 -1.9671 -0.1624  0.2370
 7458SOL     OW33835   2.257   4.129   7.374  0.3921  0.2855  0.4811
 7458SOL    HW133836   2.289   4.092   7.456 -0.0727  0.0574  0.5569
 7458SOL    HW233837   2.322   4.199   7.363 -1.7522  2.6069  2.5637
 7459SOL     OW33838   1.412   2.220   8.796  0.1403  0.2978 -0.6884
 7459SOL    HW133839   1.390   2.179   8.713 -0.8201 -2.3415  0.8745
 7459SOL    HW233840   1.475   2.163   8.839 -0.7605  0.6821  1.1517
 7460SOL     OW33841   2.841   4.401   4.218  0.0656  0.1694 -0.2580
 7460SOL    HW133842   2.859   4.494   4.201  0.5109  0.0021 -0.6860
 7460SOL    HW233843   2.878   4.366   4.137  0.9924  1.1097 -0.2448
 7461SOL     OW33844   3.415   1.863   5.259  0.5558  0.7361 -0.1288
 7461SOL    HW133845   3.459   1.884   5.176  3.1034  0.7526  1.2171
 7461SOL    HW233846   3.419   1.948   5.303  0.3337 -0.1411  1.5741
 7462SOL     OW33847   3.572   0.026   7.389 -0.2656 -0.2731  0.1954
 7462SOL    HW133848   3.668   0.034   7.387 -0.5421  2.7388 -1.3085
 7462SOL    HW233849   3.563   4.657   7.364 -0.3255  0.0608 -1.0147
 7463SOL     OW33850   2.738   4.031   9.655  0.6558  0.7327 -0.4158
 7463SOL    HW133851   2.809   4.005   9.597  1.2368  0.5086  0.3877
 7463SOL    HW233852   2.696   3.946   9.662 -0.8546  1.5902  1.1187
 7464SOL     OW33853   4.719   3.739   2.839 -0.0764 -0.3792 -0.0307
 7464SOL    HW133854   0.061   3.676   2.810  0.6774  0.7754 -0.7880
 7464SOL    HW233855   0.022   3.732   2.931  1.6170  1.6000 -0.3715
 7465SOL     OW33856   2.416   1.409   4.707  0.1586  0.0835  0.1726
 7465SOL    HW133857   2.377   1.484   4.751 -0.4147 -1.2604  1.9698
 7465SOL    HW233858   2.339   1.370   4.665  0.4381  0.7047 -0.9121
 7466SOL     OW33859   2.387   1.845   7.616 -0.0995 -0.2920 -0.2449
 7466SOL    HW133860   2.432   1.909   7.562  0.7736 -0.8761 -0.2118
 7466SOL    HW233861   2.355   1.896   7.691  0.1293  1.0251 -1.0617
 7467SOL     OW33862   2.284   0.955   5.720  0.4781 -0.3760 -0.5081
 7467SOL    HW133863   2.302   1.048   5.711  0.0625 -0.1904  0.5438
 7467SOL    HW233864   2.263   0.922   5.633  0.8627 -1.5424 -0.1682
 7468SOL     OW33865   3.124   4.603   3.255  0.1541 -0.4019  0.3166
 7468SOL    HW133866   3.203   4.599   3.202  0.3784  0.3515  0.5985
 7468SOL    HW233867   3.114   4.696   3.272  2.6902 -0.3785  1.6985
 7469SOL     OW33868   4.356   1.396   3.132  0.2335 -0.4119  0.1635
 7469SOL    HW133869   4.367   1.490   3.122 -0.2668 -0.3222  0.4658
 7469SOL    HW233870   4.448   1.379   3.110  0.2727 -2.0890  1.5990
 7470SOL     OW33871   3.145   4.031   0.546  0.3286  0.0608  0.4242
 7470SOL    HW133872   3.240   4.028   0.542  0.3307 -0.2501  0.7383
 7470SOL    HW233873   3.125   3.938   0.550 -0.1371  0.0888 -1.4200
 7471SOL     OW33874   1.926   3.531   4.644 -0.3469 -0.2059 -0.8759
 7471SOL    HW133875   1.832   3.524   4.627 -0.2235  0.6702 -1.8962
 7471SOL    HW233876   1.962   3.581   4.570 -2.2625  0.9741 -1.0084
 7472SOL     OW33877   1.627   1.103   6.571  0.9785 -0.2738  0.2188
 7472SOL    HW133878   1.555   1.166   6.569  0.2704 -1.1400 -1.6293
 7472SOL    HW233879   1.593   1.033   6.627 -0.4829 -0.1938 -0.5764
 7473SOL     OW33880   1.677   2.166   4.107 -0.3842  0.4972 -0.9194
 7473SOL    HW133881   1.730   2.128   4.037 -0.0155 -0.2570 -0.2366
 7473SOL    HW233882   1.584   2.161   4.087  0.2312 -0.4801 -3.5003
 7474SOL     OW33883   0.848   2.829  15.524 -0.1867  0.1838  0.1454
 7474SOL    HW133884   0.853   2.909  15.471  0.1419  1.1431  1.6381
 7474SOL    HW233885   0.851   2.770  15.448 -0.0937 -0.9497  1.0360
 7475SOL     OW33886   1.993   4.232   4.639  0.0852 -0.3293 -0.1809
 7475SOL    HW133887   1.900   4.247   4.621 -0.4488 -2.8539  0.6086
 7475SOL    HW233888   2.016   4.256   4.728 -0.2418  0.8366 -0.4105
 7476SOL     OW33889   3.221   2.462  16.043  0.2501  0.0266  0.3768
 7476SOL    HW133890   3.240   2.468  16.137  0.2607 -0.6007  0.4187
 7476SOL    HW233891   3.248   2.548  16.014  0.2018 -0.3002 -0.6231
 7477SOL     OW33892   3.782   2.004  10.376 -0.0910 -0.9587  0.0772
 7477SOL    HW133893   3.690   1.981  10.367 -0.5233  0.1056  1.7559
 7477SOL    HW233894   3.813   1.936  10.436 -1.4659 -0.7159  1.0805
 7478SOL     OW33895   2.801   2.469   2.748 -0.7547 -0.0802  0.1878
 7478SOL    HW133896   2.767   2.395   2.699 -2.0308  0.5619  0.0999
 7478SOL    HW233897   2.849   2.422   2.817 -2.4491  1.5682  2.4959
 7479SOL     OW33898   3.707   3.673   3.545  0.1454 -0.3499  0.0912
 7479SOL    HW133899   3.748   3.757   3.524 -0.0242 -0.4785 -0.7750
 7479SOL    HW233900   3.617   3.693   3.517  0.5950 -0.5700 -1.5361
 7480SOL     OW33901   3.081   2.645   4.527  0.5599 -0.0571  0.7289
 7480SOL    HW133902   3.027   2.574   4.563 -1.0289  0.0096 -1.5181
 7480SOL    HW233903   3.164   2.598   4.534 -0.0553 -1.0507  1.4223
 7481SOL     OW33904   4.472   4.664   0.288  0.1957 -0.7217 -0.2799
 7481SOL    HW133905   4.392   4.694   0.331  1.2626 -1.3485  2.1236
 7481SOL    HW233906   4.479   4.718   0.209 -1.3505 -0.0191  0.0723
 7482SOL     OW33907   3.509   2.485   2.556 -0.2340 -0.2167 -0.4827
 7482SOL    HW133908   3.432   2.466   2.502  0.4250 -0.8746 -1.1837
 7482SOL    HW233909   3.573   2.423   2.521  0.9144 -0.6456  2.3547
 7483SOL     OW33910   4.328   1.960  16.932  0.2221 -0.4190  0.2140
 7483SOL    HW133911   4.407   1.951  16.878  0.6940 -0.3836  0.8983
 7483SOL    HW233912   4.291   2.041  16.896  1.2040 -0.3179 -0.5759
 7484SOL     OW33913   0.663   1.125   6.329 -0.0990  0.1188 -0.3372
 7484SOL    HW133914   0.585   1.131   6.383 -1.1288  0.4887 -1.8556
 7484SOL    HW233915   0.733   1.167   6.379 -1.5995  0.8003  1.1669
 7485SOL     OW33916   0.096   1.101   3.071  0.1514 -0.1395 -0.2280
 7485SOL    HW133917   0.040   1.036   3.028 -0.9474  0.6425  0.0112
 7485SOL    HW233918   0.077   1.177   3.015 -2.0036  0.3263  1.1338
 7486SOL     OW33919   4.304   4.559   2.526  0.0869  0.3194  0.2856
 7486SOL    HW133920   4.255   4.596   2.453 -0.8967  0.4415  1.0021
 7486SOL    HW233921   4.252   4.481   2.543  0.2717 -0.2680 -1.8962
 7487SOL     OW33922   4.723   1.307   6.395  0.0775 -0.2264 -0.4178
 7487SOL    HW133923   0.027   1.384   6.445 -0.5532  0.0537 -0.4943
 7487SOL    HW233924   4.635   1.282   6.424  0.2275  1.9461  1.9794
 7488SOL     OW33925   0.313   4.176   4.413  0.1964  0.1207 -0.0839
 7488SOL    HW133926   0.325   4.225   4.494 -0.6985  1.0942 -0.5439
 7488SOL    HW233927   0.397   4.188   4.369  0.8408 -0.8168  0.8740
 7489SOL     OW33928   4.106   3.168   7.895  0.4959 -0.0255  0.1870
 7489SOL    HW133929   4.103   3.075   7.918 -2.2722 -0.0571 -0.2514
 7489SOL    HW233930   4.189   3.180   7.849 -0.3614 -1.1162 -1.6495
 7490SOL     OW33931   4.605   0.876  16.222  0.0369 -0.2791 -0.0827
 7490SOL    HW133932   4.631   0.844  16.309  0.2644  3.5256  1.2465
 7490SOL    HW233933   4.597   0.796  16.169  0.5233  0.4212 -1.2034
 7491SOL     OW33934   3.889   3.427  12.346 -0.2230  0.0709 -0.2617
 7491SOL    HW133935   3.975   3.387  12.333  0.6207  1.8500 -0.1778
 7491SOL    HW233936   3.847   3.373  12.413  0.8409  0.9106  1.0950
 7492SOL     OW33937   1.488   0.932  11.425  0.1975 -0.0810  0.3411
 7492SOL    HW133938   1.427   0.867  11.391 -0.9847  1.0670  0.2502
 7492SOL    HW233939   1.553   0.937  11.356  1.0619 -1.8200  1.0238
 7493SOL     OW33940   1.084   1.422  11.927 -0.0951 -0.1321 -0.1927
 7493SOL    HW133941   1.031   1.395  11.852 -0.1554 -0.8869  0.1270
 7493SOL    HW233942   1.158   1.362  11.930  0.3699  0.3877 -1.3187
 7494SOL     OW33943   3.777   2.785   5.378  0.2996 -0.2798  0.5766
 7494SOL    HW133944   3.825   2.861   5.411  1.2219 -1.1059  1.0985
 7494SOL    HW233945   3.689   2.824   5.374 -0.9375 -3.3627 -2.8586
 7495SOL     OW33946   3.678   3.441   6.052 -0.6749 -0.5175 -0.5374
 7495SOL    HW133947   3.741   3.460   6.122  1.2522 -1.0038 -2.1424
 7495SOL    HW233948   3.741   3.425   5.982  0.1418 -0.0723  0.0923
 7496SOL     OW33949   3.758   0.009   8.531  0.0601  0.2275 -1.1139
 7496SOL    HW133950   3.836   4.693   8.569 -0.0002 -0.4854 -1.7336
 7496SOL    HW233951   3.694   4.693   8.591 -1.4749  0.3320 -2.6602
 7497SOL     OW33952   1.549   0.025   3.777 -0.2983 -0.0410  0.1039
 7497SOL    HW133953   1.545   0.028   3.682  2.6881  0.0241 -0.0309
 7497SOL    HW233954   1.550   4.654   3.793  3.0487 -0.0171  0.0437
 7498SOL     OW33955   3.155   1.985   8.582  0.1252 -0.2675 -0.3114
 7498SOL    HW133956   3.220   1.918   8.562  0.2552 -0.3409  0.3473
 7498SOL    HW233957   3.184   2.027   8.663 -0.5058 -1.7577  0.6843
 7499SOL     OW33958   0.306   4.446   9.664 -0.3649  0.0947  0.2186
 7499SOL    HW133959   0.379   4.412   9.612 -0.1851  0.9708 -0.0917
 7499SOL    HW233960   0.259   4.490   9.593  1.6470 -0.5092 -1.4872
 7500SOL     OW33961   1.784   3.886   8.600  0.2693 -0.3324 -0.3829
 7500SOL    HW133962   1.856   3.948   8.610  0.3503 -0.2574 -1.3809
 7500SOL    HW233963   1.804   3.848   8.514 -3.1218 -2.0882 -0.3982
 7501SOL     OW33964   2.130   3.994   3.619  0.3480  0.0600  0.1164
 7501SOL    HW133965   2.057   4.029   3.671  1.0420  1.9643 -0.1675
 7501SOL    HW233966   2.178   4.068   3.581 -0.6630  0.5415 -0.2262
 7502SOL     OW33967   1.763   2.970   5.133  0.2412 -0.0881  0.1038
 7502SOL    HW133968   1.709   2.905   5.088  1.9962 -0.1698 -1.8854
 7502SOL    HW233969   1.731   3.049   5.090  2.6125  0.7318 -0.1652
 7503SOL     OW33970   3.799   2.319   6.879 -0.0028  0.8254 -0.0300
 7503SOL    HW133971   3.812   2.224   6.884  0.3768  0.8248 -1.0773
 7503SOL    HW233972   3.863   2.348   6.944 -0.9609 -0.4579  1.4952
 7504SOL     OW33973   3.879   2.002   2.590 -0.4787  0.2726  0.7200
 7504SOL    HW133974   3.824   2.068   2.633  2.6500  3.3322  0.0829
 7504SOL    HW233975   3.852   1.927   2.643  0.6935 -1.6964 -1.4537
 7505SOL     OW33976   3.445   3.619   2.756  0.0953  0.3644 -0.0066
 7505SOL    HW133977   3.373   3.606   2.694 -1.5737 -1.0160  2.1953
 7505SOL    HW233978   3.443   3.714   2.769  0.8684  0.5634 -1.4217
 7506SOL     OW33979   0.134   1.781   2.244 -0.0076 -0.3370 -0.0997
 7506SOL    HW133980   0.189   1.847   2.286 -1.0583  2.0156 -2.4126
 7506SOL    HW233981   0.163   1.696   2.279 -3.3102  0.0433  3.6009
 7507SOL     OW33982   0.558   4.614  15.381 -0.0155 -1.2385 -0.4315
 7507SOL    HW133983   0.554   4.667  15.301 -0.9373  1.5821  1.5099
 7507SOL    HW233984   0.471   4.629  15.418 -0.9649 -1.1982 -2.6738
 7508SOL     OW33985   3.805   4.228   6.231  0.0366  0.1145  0.2112
 7508SOL    HW133986   3.870   4.273   6.286  0.2344 -0.7078  0.6478
 7508SOL    HW233987   3.819   4.273   6.148  0.6118  0.6232  0.5808
 7509SOL     OW33988   0.464   2.625   3.267 -0.0541 -0.1528  0.4238
 7509SOL    HW133989   0.431   2.692   3.206  0.6756  2.5310  2.9905
 7509SOL    HW233990   0.439   2.661   3.352  0.3887  3.0438 -0.8078
 7510SOL     OW33991   2.253   2.538   2.454  0.6895  0.0284 -0.4707
 7510SOL    HW133992   2.219   2.458   2.494  0.1574  1.4910  2.0087
 7510SOL    HW233993   2.206   2.553   2.372  1.9049 -0.5470 -1.2691
 7511SOL     OW33994   1.192   1.726   7.192 -0.4453  0.6000 -0.2351
 7511SOL    HW133995   1.188   1.814   7.229 -0.3319  0.7676 -0.6214
 7511SOL    HW233996   1.261   1.741   7.128  1.8547  1.2861  2.3876
 7512SOL     OW33997   0.491   3.052   3.760  0.6175 -0.8037  0.2121
 7512SOL    HW133998   0.570   3.004   3.734  1.9215  1.4865 -0.1225
 7512SOL    HW233999   0.447   3.056   3.675  0.3685 -0.0634  0.3742
 7513SOL     OW34000   0.218   1.751   7.633 -0.7801 -0.0340 -0.3538
 7513SOL    HW134001   0.248   1.764   7.543 -0.4248  0.7691 -0.1218
 7513SOL    HW234002   0.266   1.823   7.673  0.1801 -0.0965 -1.4030
 7514SOL     OW34003   3.699   4.283   2.985 -0.1967 -0.2247  0.5334
 7514SOL    HW134004   3.718   4.262   2.893 -1.6547  3.1495 -0.5549
 7514SOL    HW234005   3.767   4.237   3.033  0.3377 -1.2703 -1.2126
 7515SOL     OW34006   3.956   0.819   8.769  0.4326  0.0949  0.6057
 7515SOL    HW134007   3.994   0.891   8.719  2.7445 -1.7025 -0.1839
 7515SOL    HW234008   3.914   0.870   8.838  0.3684 -0.3942  0.9269
 7516SOL     OW34009   3.640   1.436   2.044  0.3723 -0.0472  0.2959
 7516SOL    HW134010   3.662   1.441   2.137  0.7788 -0.2539  0.2122
 7516SOL    HW234011   3.682   1.513   2.006 -0.6025  0.9104  1.1371
 7517SOL     OW34012   1.374   1.913   6.146  0.5567 -0.3367  0.0394
 7517SOL    HW134013   1.347   1.990   6.195  1.0710  0.1434 -0.4231
 7517SOL    HW234014   1.302   1.892   6.086 -0.3559  0.7163  0.7878
 7518SOL     OW34015   3.910   4.623   8.037 -0.0042  0.0512 -0.3292
 7518SOL    HW134016   3.920   4.589   8.126  0.0288 -0.0501 -0.3714
 7518SOL    HW234017   3.985   4.574   8.001  0.1515 -0.2403  0.3867
 7519SOL     OW34018   2.019   3.946   9.563 -0.1979  0.0866  0.0251
 7519SOL    HW134019   1.983   3.905   9.642 -1.4727  0.4148 -0.3917
 7519SOL    HW234020   1.988   4.036   9.572  1.4206  0.7414 -1.1400
 7520SOL     OW34021   0.788   0.695  14.586  0.4957 -0.9624 -0.3708
 7520SOL    HW134022   0.775   0.786  14.614 -1.5478 -1.1563 -0.6232
 7520SOL    HW234023   0.861   0.664  14.639 -1.2199 -0.8387  2.0640
 7521SOL     OW34024   1.118   1.732   6.810 -0.2816  0.2601  0.0544
 7521SOL    HW134025   1.117   1.636   6.817  0.4544  0.2220 -0.3798
 7521SOL    HW234026   1.057   1.754   6.880  0.2798  0.0480  0.6069
 7522SOL     OW34027   1.108   1.891   8.885 -0.1916  0.1389  0.9873
 7522SOL    HW134028   1.136   1.802   8.906 -1.4083 -0.9308 -1.8951
 7522SOL    HW234029   1.159   1.923   8.811  2.4537  0.3539  2.9052
 7523SOL     OW34030   3.992   2.366   7.051  0.4787 -0.2762  0.3151
 7523SOL    HW134031   4.030   2.382   7.137 -0.3173 -1.8280  0.9671
 7523SOL    HW234032   4.067   2.390   6.997  1.5452 -0.9641  1.5122
 7524SOL     OW34033   1.688   3.516   9.227  0.2633 -0.1389 -0.9002
 7524SOL    HW134034   1.625   3.536   9.296 -0.6758 -1.3968 -1.3980
 7524SOL    HW234035   1.713   3.428   9.256 -1.2386 -0.2435  0.0554
 7525SOL     OW34036   1.009   3.078  12.420  0.8218 -0.1173  0.0332
 7525SOL    HW134037   0.980   3.000  12.468  2.2334  0.2907  1.5598
 7525SOL    HW234038   0.930   3.111  12.379  2.5670  2.6002 -1.1626
 7526SOL     OW34039   3.281   0.880   0.058 -0.2036 -0.1277 -0.5295
 7526SOL    HW134040   3.322   0.907  17.671  2.0426 -0.3545  0.4998
 7526SOL    HW234041   3.189   0.900   0.039 -0.8099 -1.1573  1.3322
 7527SOL     OW34042   3.776   3.346   2.453 -0.8684 -0.5201  0.9018
 7527SOL    HW134043   3.854   3.339   2.509  0.1090 -0.4759 -0.4551
 7527SOL    HW234044   3.736   3.260   2.459  0.3373 -1.2280 -1.3809
 7528SOL     OW34045   1.291   2.883   3.404  0.1487  0.6691  0.7582
 7528SOL    HW134046   1.196   2.891   3.417  0.1237  1.2759  0.2302
 7528SOL    HW234047   1.298   2.848   3.314  0.2871 -0.0913  1.0627
 7529SOL     OW34048   4.557   3.192   0.709  0.0001  0.4983  0.1102
 7529SOL    HW134049   4.476   3.156   0.744  0.3952 -0.1677  0.3624
 7529SOL    HW234050   4.553   3.166   0.617 -0.1115 -0.7412  0.4555
 7530SOL     OW34051   3.092   3.289   4.424  0.2462  0.0651 -0.1520
 7530SOL    HW134052   3.021   3.254   4.369  1.7620 -0.7629 -1.5785
 7530SOL    HW234053   3.038   3.360   4.459  0.6319 -0.1768  0.9257
 7531SOL     OW34054   3.048   4.355   4.734  0.5896 -0.3645  0.5709
 7531SOL    HW134055   2.953   4.357   4.745  0.7767  2.5635  1.7689
 7531SOL    HW234056   3.051   4.382   4.642 -1.4494  2.3308  1.2775
 7532SOL     OW34057   3.605   4.136   6.397  0.2933  0.0556 -0.1927
 7532SOL    HW134058   3.613   4.210   6.457 -0.4457 -0.3177  0.3604
 7532SOL    HW234059   3.671   4.158   6.331  2.1888  0.6325  1.8931
 7533SOL     OW34060   0.654   1.851   8.173  0.0997  0.8716 -0.1355
 7533SOL    HW134061   0.618   1.868   8.260  0.8745  3.3386 -0.2855
 7533SOL    HW234062   0.676   1.758   8.171  3.1056  1.5873 -0.8325
 7534SOL     OW34063   3.411   0.442   8.117  0.4520  0.3889  0.1123
 7534SOL    HW134064   3.483   0.463   8.176  1.2927  1.2636 -1.2264
 7534SOL    HW234065   3.404   0.353   8.152 -0.3380  0.3533 -0.1424
 7535SOL     OW34066   1.588   4.263  15.214 -0.0029  0.0916  0.0343
 7535SOL    HW134067   1.560   4.315  15.290  0.6853 -0.2610  0.5332
 7535SOL    HW234068   1.676   4.294  15.195  0.0229 -0.1378 -0.2177
 7536SOL     OW34069   2.948   1.530   6.295 -0.3114 -0.2270  0.2017
 7536SOL    HW134070   2.913   1.447   6.327 -1.6955  1.1268  2.1894
 7536SOL    HW234071   2.908   1.588   6.359  1.2890  0.9058  0.1810
 7537SOL     OW34072   2.809   4.618   2.044  0.1593  0.0914  0.5089
 7537SOL    HW134073   2.895   4.633   2.005 -1.0203  2.0177 -1.3605
 7537SOL    HW234074   2.790   4.704   2.083  1.5992 -0.2101  1.8851
 7538SOL     OW34075   1.728   2.866  14.291  0.2183  0.8220 -0.2423
 7538SOL    HW134076   1.803   2.926  14.291  1.0008 -0.1455  0.6934
 7538SOL    HW234077   1.753   2.807  14.362  1.4357 -0.6090 -1.8413
 7539SOL     OW34078   4.584   1.844   8.983 -0.2599 -0.4662  0.2540
 7539SOL    HW134079   4.586   1.839   9.079 -0.5762  1.5553  0.3624
 7539SOL    HW234080   4.488   1.843   8.972 -0.5433  0.7261  2.6714
 7540SOL     OW34081   3.488   0.024   2.824  0.0855 -0.0278 -0.3115
 7540SOL    HW134082   3.533   0.084   2.883 -0.9364  0.7731 -0.3281
 7540SOL    HW234083   3.480   0.086   2.751 -1.2970 -1.3547 -1.2837
 7541SOL     OW34084   3.205   1.510   6.350 -0.2985 -0.1384 -0.0742
 7541SOL    HW134085   3.240   1.493   6.263 -2.0964 -1.8283 -0.4532
 7541SOL    HW234086   3.122   1.551   6.325  0.1803  0.5818 -0.4830
 7542SOL     OW34087   0.760   3.490  13.452 -0.4035  0.1528  0.3333
 7542SOL    HW134088   0.760   3.579  13.485  0.7594  0.1806  0.2509
 7542SOL    HW234089   0.736   3.513  13.362 -1.9173 -0.0429  0.6820
 7543SOL     OW34090   2.961   0.287   0.921 -0.7631  0.7433  0.0694
 7543SOL    HW134091   2.876   0.311   0.957  0.8025  3.2908  2.0634
 7543SOL    HW234092   3.002   0.266   1.005  0.3153 -0.3999 -0.7426
 7544SOL     OW34093   4.664   3.641   6.895 -0.3388  0.3088  0.1367
 7544SOL    HW134094   0.007   3.622   6.962 -1.8013  0.7906  1.7155
 7544SOL    HW234095   0.006   3.643   6.825 -1.3915 -0.4646 -0.8658
 7545SOL     OW34096   4.305   1.571  11.455 -0.1328 -0.1407 -0.7500
 7545SOL    HW134097   4.366   1.520  11.401 -0.0129 -1.5265  0.7220
 7545SOL    HW234098   4.362   1.605  11.524  0.5350 -0.0723 -1.3331
 7546SOL     OW34099   0.974   0.765   1.859 -0.4649  0.0890  0.4504
 7546SOL    HW134100   1.060   0.783   1.897  0.8740 -1.0099 -2.0213
 7546SOL    HW234101   0.969   0.670   1.846  1.6375  0.1899 -1.1768
 7547SOL     OW34102   0.661   0.476   2.940 -0.0669  0.0798 -0.2572
 7547SOL    HW134103   0.709   0.552   2.908  0.7073 -0.6412 -0.8083
 7547SOL    HW234104   0.673   0.413   2.869  0.8439 -0.8081  0.6946
 7548SOL     OW34105   4.393   2.715  17.365 -0.2063 -0.0121 -0.0001
 7548SOL    HW134106   4.357   2.645  17.310 -2.2942  0.2633  1.0148
 7548SOL    HW234107   4.473   2.685  17.408  0.6892  0.5088 -1.3077
 7549SOL     OW34108   1.890   2.508   7.202 -0.0220  0.4444  0.1859
 7549SOL    HW134109   1.963   2.472   7.151 -1.3875  0.3203 -1.7138
 7549SOL    HW234110   1.844   2.427   7.224  1.3734 -0.2278  0.6334
 7550SOL     OW34111   2.496   3.705   4.683  0.0811  0.2305  0.3258
 7550SOL    HW134112   2.543   3.782   4.650 -0.0539  0.0835 -0.2047
 7550SOL    HW234113   2.464   3.663   4.603  0.0604 -1.0971  1.0414
 7551SOL     OW34114   1.337   1.623  10.287  0.0423  0.0179  0.1435
 7551SOL    HW134115   1.406   1.673  10.243 -0.0723 -0.3417 -0.4419
 7551SOL    HW234116   1.264   1.650  10.232  0.5502  1.4481  0.1673
 7552SOL     OW34117   0.529   2.874   8.910  0.5118 -0.1332  0.4902
 7552SOL    HW134118   0.451   2.926   8.930 -0.0585  0.5496 -3.5323
 7552SOL    HW234119   0.548   2.834   8.995 -0.9310 -0.7071  0.5365
 7553SOL     OW34120   2.321   2.974   3.181 -0.3900  0.6881 -0.3272
 7553SOL    HW134121   2.290   2.939   3.097  1.2823 -0.1112 -0.6075
 7553SOL    HW234122   2.239   2.963   3.229 -0.7747  2.3967 -0.6054
 7554SOL     OW34123   3.766   3.061   3.579 -0.7633 -0.1792  0.5249
 7554SOL    HW134124   3.797   2.979   3.619 -0.4049  0.6993  2.0273
 7554SOL    HW234125   3.835   3.074   3.513 -0.4228 -2.1997  0.4751
 7555SOL     OW34126   4.309   0.478  10.773  0.0458  0.0676 -0.4822
 7555SOL    HW134127   4.285   0.570  10.766  1.6401  0.5616  0.5817
 7555SOL    HW234128   4.404   0.484  10.770  0.2302 -2.0993  1.2507
 7556SOL     OW34129   4.018   0.511   1.620 -0.3689  0.1233  0.0450
 7556SOL    HW134130   3.929   0.507   1.656  0.2077  3.4807  1.8596
 7556SOL    HW234131   4.002   0.583   1.559 -0.2747 -1.9758 -2.4258
 7557SOL     OW34132   0.422   0.466   0.373  0.0587  0.4233  0.2804
 7557SOL    HW134133   0.342   0.457   0.322 -0.5497  2.7574  0.8294
 7557SOL    HW234134   0.422   0.560   0.390  1.1163 -0.0941  3.0984
 7558SOL     OW34135   0.016   0.364  15.819  0.0131  0.0367  0.0281
 7558SOL    HW134136   4.660   0.395  15.776  1.3163  1.4581 -1.4068
 7558SOL    HW234137   0.032   0.440  15.875  2.5468 -1.8634  1.8978
 7559SOL     OW34138   4.590   2.320   5.803 -0.0589 -0.2160 -0.2474
 7559SOL    HW134139   4.632   2.343   5.886  1.4202  0.7889 -1.2703
 7559SOL    HW234140   4.649   2.255   5.764  0.6193  1.7724 -2.4952
 7560SOL     OW34141   3.882   3.228  14.911  0.4312  0.5660  0.1437
 7560SOL    HW134142   3.945   3.175  14.861  0.8388  1.0799  0.1071
 7560SOL    HW234143   3.856   3.272  14.830  0.2853  0.9986  0.4334
 7561SOL     OW34144   0.375   1.083   3.442 -0.0557  0.2491 -0.5563
 7561SOL    HW134145   0.462   1.122   3.432  0.2673 -0.4685 -0.5949
 7561SOL    HW234146   0.325   1.138   3.383  0.2710  0.9365 -0.1900
 7562SOL     OW34147   0.983   1.745  14.465  0.2963  0.3595  0.0242
 7562SOL    HW134148   0.968   1.827  14.513  0.9364 -0.0349  0.9064
 7562SOL    HW234149   1.078   1.731  14.461  0.4955  1.1813  1.5282
 7563SOL     OW34150   2.691   2.491  11.822 -0.2212 -0.1097 -0.4757
 7563SOL    HW134151   2.699   2.584  11.847 -0.5598  0.3889 -2.2522
 7563SOL    HW234152   2.774   2.476  11.776 -0.4055 -2.1025 -0.1382
 7564SOL     OW34153   1.043   4.456   9.056 -0.1145  0.1084  0.1088
 7564SOL    HW134154   1.001   4.506   9.127 -0.3394  2.8848 -1.9579
 7564SOL    HW234155   1.036   4.368   9.092 -0.3710 -0.4828 -1.3911
 7565SOL     OW34156   1.505   2.457   1.479  0.3211 -0.3667  0.0760
 7565SOL    HW134157   1.586   2.410   1.457  1.1101  1.3095 -0.5910
 7565SOL    HW234158   1.474   2.412   1.557  2.4261 -0.5557  0.8021
 7566SOL     OW34159   3.063   0.888   8.097  0.7642 -0.2557  0.0351
 7566SOL    HW134160   3.097   0.800   8.115  1.5016 -0.2162 -1.1665
 7566SOL    HW234161   3.099   0.906   8.010  3.2155  1.1889  1.3365
 7567SOL     OW34162   4.451   2.313  14.942 -0.1804 -0.0962 -0.4466
 7567SOL    HW134163   4.401   2.394  14.930  1.6752  0.9773 -0.8667
 7567SOL    HW234164   4.522   2.332  14.880 -0.1682  0.1110 -0.3692
 7568SOL     OW34165   2.457   3.540   5.230  0.0181 -0.0538 -0.2303
 7568SOL    HW134166   2.534   3.487   5.249 -1.3005 -1.5071  1.0788
 7568SOL    HW234167   2.486   3.584   5.150 -1.7955  0.1207 -0.7885
 7569SOL     OW34168   4.598   0.256   6.335 -0.0673 -0.6743 -0.5559
 7569SOL    HW134169   4.582   0.320   6.405  0.7026 -1.7554  0.6113
 7569SOL    HW234170   4.517   0.205   6.332 -0.1310 -0.5315 -1.2320
 7570SOL     OW34171   4.150   1.477   5.222  0.2544  0.5690  0.2227
 7570SOL    HW134172   4.054   1.479   5.224  0.2876  1.5134  0.7254
 7570SOL    HW234173   4.184   1.431   5.146 -1.0429 -0.6595  0.3804
 7571SOL     OW34174   1.067   4.085   2.361  0.5291 -0.6351 -0.1033
 7571SOL    HW134175   1.154   4.071   2.398 -0.3666  1.3748  2.7712
 7571SOL    HW234176   1.013   4.091   2.439  0.7635 -0.4241  0.0446
 7572SOL     OW34177   4.268   0.302   4.072  0.0784 -0.2985 -0.3596
 7572SOL    HW134178   4.220   0.280   4.152 -0.4016  1.5555 -0.1367
 7572SOL    HW234179   4.285   0.395   4.089  1.4443 -1.0400  2.3396
 7573SOL     OW34180   2.890   0.750   3.082  0.0542 -0.2912 -0.2847
 7573SOL    HW134181   2.847   0.789   3.006 -2.5435 -1.8418  0.4083
 7573SOL    HW234182   2.816   0.697   3.109 -0.0111 -0.4633 -0.7886
 7574SOL     OW34183   0.069   0.357   9.003 -0.1615 -0.1832 -0.1948
 7574SOL    HW134184   0.075   0.270   9.043 -1.9206 -0.5151 -0.6320
 7574SOL    HW234185   0.155   0.394   9.022 -0.0030 -1.1872  0.9917
 7575SOL     OW34186   4.010   2.902   4.852  0.0025 -0.0914 -0.2238
 7575SOL    HW134187   3.964   2.923   4.933 -0.4053 -1.4482 -0.0978
 7575SOL    HW234188   4.102   2.889   4.874  0.2440 -0.0738 -1.2136
 7576SOL     OW34189   2.878   4.091   0.601 -0.7100 -0.1862 -0.5594
 7576SOL    HW134190   2.861   4.014   0.545 -2.7662 -1.1602  1.4343
 7576SOL    HW234191   2.974   4.089   0.608 -0.7720 -0.6372  0.1542
 7577SOL     OW34192   3.340   4.440  15.876 -0.5413 -0.0765 -0.6614
 7577SOL    HW134193   3.427   4.426  15.838 -1.3604 -1.8820 -1.8302
 7577SOL    HW234194   3.284   4.480  15.810 -1.9616  1.4988  1.4942
 7578SOL     OW34195   2.953   2.762   3.346 -0.2365  0.3653 -0.3936
 7578SOL    HW134196   2.977   2.722   3.430  0.4263 -0.8643 -1.1759
 7578SOL    HW234197   2.920   2.686   3.298  2.5580 -1.3664  0.3961
 7579SOL     OW34198   1.689   3.008   6.417  0.7715 -0.3052 -0.3525
 7579SOL    HW134199   1.612   2.965   6.455 -0.2499  1.4766 -0.3871
 7579SOL    HW234200   1.652   3.022   6.330 -0.2507  1.9982  0.4550
 7580SOL     OW34201   2.292   0.320   7.127  0.1300  0.2992  0.2367
 7580SOL    HW134202   2.379   0.304   7.164  0.7054 -1.1531 -1.7466
 7580SOL    HW234203   2.273   0.397   7.180 -0.4844  0.1561  0.2210
 7581SOL     OW34204   3.335   0.315   3.916 -0.3604  0.1007 -0.2473
 7581SOL    HW134205   3.382   0.370   3.853 -0.7935  0.3006 -0.3969
 7581SOL    HW234206   3.279   0.266   3.855 -0.7609 -1.7974  1.6473
 7582SOL     OW34207   0.146   2.295  11.408  0.1306 -0.7969  0.2802
 7582SOL    HW134208   0.160   2.213  11.359  0.0988 -0.3826 -0.4261
 7582SOL    HW234209   0.213   2.286  11.475  0.9243 -2.4753 -0.7314
 7583SOL     OW34210   4.072   4.646   6.296 -0.4629  0.0845 -0.1757
 7583SOL    HW134211   4.026   0.005   6.312  0.8086  1.0689 -1.4958
 7583SOL    HW234212   4.033   4.575   6.346  1.8210  0.4896  2.2061
 7584SOL     OW34213   2.162   0.317   6.499  0.1267 -0.3176  0.3710
 7584SOL    HW134214   2.129   0.238   6.540  1.9674 -0.9353  0.6670
 7584SOL    HW234215   2.093   0.312   6.432 -1.0015 -2.6630  1.7219
 7585SOL     OW34216   1.490   0.271   7.476  0.3659 -0.1554  0.0770
 7585SOL    HW134217   1.440   0.329   7.533 -0.4566  2.0959 -2.9611
 7585SOL    HW234218   1.507   0.200   7.538  2.1582  0.5854  0.4528
 7586SOL     OW34219   4.397   3.994   2.742  0.6763  0.1071 -0.0797
 7586SOL    HW134220   4.460   3.927   2.716 -0.3835 -0.2530 -1.7231
 7586SOL    HW234221   4.420   4.018   2.832 -0.4142  0.9296 -0.0109
 7587SOL     OW34222   4.521   3.636   0.524  0.2340  0.0190  0.6818
 7587SOL    HW134223   4.577   3.713   0.535  0.4695 -0.4685  2.9232
 7587SOL    HW234224   4.562   3.573   0.583 -0.9602  0.1513  1.6693
 7588SOL     OW34225   2.719   1.191   4.430 -0.0678  0.2398 -0.1323
 7588SOL    HW134226   2.661   1.174   4.503  0.7369  0.3259  0.5267
 7588SOL    HW234227   2.759   1.106   4.410 -3.0287 -1.2001  0.0268
 7589SOL     OW34228   4.682   0.789   4.388 -0.1083 -0.3031  0.0338
 7589SOL    HW134229   0.050   0.764   4.399 -0.1607  0.6731  2.7097
 7589SOL    HW234230   4.647   0.705   4.359 -0.2184 -0.3192  0.2130
 7590SOL     OW34231   3.067   3.045   5.221 -0.2116 -0.7700 -0.1074
 7590SOL    HW134232   3.150   3.024   5.179 -0.9218 -0.5765 -1.6096
 7590SOL    HW234233   3.060   3.140   5.223 -2.9200 -0.9991  0.9402
 7591SOL     OW34234   2.638   4.178  13.376  0.5218  0.0139 -0.0814
 7591SOL    HW134235   2.691   4.159  13.454 -0.1443 -0.2205  0.3135
 7591SOL    HW234236   2.652   4.272  13.368  1.7308 -0.1528 -0.0028
 7592SOL     OW34237   3.720   4.529   2.106 -0.2962 -0.6504 -1.0539
 7592SOL    HW134238   3.786   4.559   2.044  0.8252 -3.5377 -1.2658
 7592SOL    HW234239   3.641   4.558   2.061 -0.8959  0.4097  0.6848
 7593SOL     OW34240   3.385   0.933  17.518 -0.2172 -0.5120  0.2274
 7593SOL    HW134241   3.357   0.941  17.427 -1.6848  0.8646  0.7799
 7593SOL    HW234242   3.477   0.957  17.519 -0.6431  1.1778  0.1397
 7594SOL     OW34243   3.741   2.357   2.510 -0.4029  0.2739  0.2542
 7594SOL    HW134244   3.823   2.397   2.540  0.2608 -0.3859 -0.6770
 7594SOL    HW234245   3.725   2.292   2.579 -1.2140  1.0627  0.8132
 7595SOL     OW34246   3.135   0.639   4.432  0.4118 -0.3385 -0.2104
 7595SOL    HW134247   3.129   0.544   4.442  3.5209 -0.7896 -2.4931
 7595SOL    HW234248   3.111   0.674   4.517 -4.0013 -1.2429 -1.0753
 7596SOL     OW34249   1.287   1.786   2.996  0.0637 -0.8341 -0.1171
 7596SOL    HW134250   1.359   1.790   3.060  1.8864  0.7295 -2.2519
 7596SOL    HW234251   1.234   1.715   3.033  0.4976 -0.9073  0.3721
 7597SOL     OW34252   1.865   2.347  14.797 -0.0948  0.2580  0.1971
 7597SOL    HW134253   1.949   2.351  14.750 -1.2103  2.2633 -1.6083
 7597SOL    HW234254   1.824   2.423  14.757  1.6007  0.2421 -1.5682
 7598SOL     OW34255   0.471   4.545   6.728 -0.2278  0.0966 -0.2690
 7598SOL    HW134256   0.416   4.603   6.674  0.4888 -0.2878 -1.4068
 7598SOL    HW234257   0.555   4.578   6.696 -0.3836  0.5440 -0.2213
 7599SOL     OW34258   2.053   1.366  11.952  0.2446 -0.4173  0.1104
 7599SOL    HW134259   1.995   1.334  11.883  1.9978 -1.4273 -0.8907
 7599SOL    HW234260   2.061   1.292  12.013 -0.6582 -0.9299 -0.3896
 7600SOL     OW34261   2.909   3.674   4.376  0.4471  0.2037 -0.3767
 7600SOL    HW134262   2.912   3.601   4.439  0.9394  0.9246  0.4336
 7600SOL    HW234263   2.852   3.736   4.422 -1.3877  1.3126 -4.1665
 7601SOL     OW34264   0.299   2.450   6.685  0.5422 -0.0619  0.5492
 7601SOL    HW134265   0.287   2.356   6.672  1.8930 -0.3310  1.1555
 7601SOL    HW234266   0.378   2.453   6.740  2.1494  0.5253 -1.7998
 7602SOL     OW34267   0.928   3.013   6.646  0.0435  0.1477 -0.0523
 7602SOL    HW134268   0.894   3.014   6.557 -0.0336 -1.2505 -0.0341
 7602SOL    HW234269   0.862   2.963   6.694  0.6823  1.6419  2.4054
 7603SOL     OW34270   0.054   3.079   8.218 -0.0412  0.2244 -0.2042
 7603SOL    HW134271   0.025   3.096   8.128 -0.2095 -1.6645 -0.5110
 7603SOL    HW234272   0.146   3.105   8.214 -0.0679  0.3655  0.1057
 7604SOL     OW34273   0.590   0.792   5.179  0.3139  0.0313 -0.0113
 7604SOL    HW134274   0.654   0.757   5.116  0.2837 -1.4111  0.7504
 7604SOL    HW234275   0.650   0.791   5.253  0.6436  0.7651 -0.2766
 7605SOL     OW34276   3.917   2.961  17.594  0.1841 -0.4154  0.1642
 7605SOL    HW134277   3.863   2.982  17.517  0.5560  0.8825  0.2618
 7605SOL    HW234278   3.995   2.920  17.556  0.4260  1.7183 -1.6880
 7606SOL     OW34279   2.591   0.178   9.828 -0.1281 -0.1643  0.0487
 7606SOL    HW134280   2.667   0.217   9.785  0.0688 -0.6269 -0.0169
 7606SOL    HW234281   2.639   0.123   9.889 -0.4152  0.0092  0.4334
 7607SOL     OW34282   3.731   4.190   0.672 -0.1440 -0.0905  0.4412
 7607SOL    HW134283   3.750   4.158   0.761 -0.2446 -0.4978  0.3159
 7607SOL    HW234284   3.781   4.271   0.683  0.3537 -0.3930  0.4255
 7608SOL     OW34285   3.262   1.050   1.790  0.1254 -0.3603  0.6595
 7608SOL    HW134286   3.173   1.057   1.758 -0.2994 -0.6349  1.7696
 7608SOL    HW234287   3.307   1.119   1.741  0.2164 -0.1739  1.0006
 7609SOL     OW34288   4.574   1.080   0.749 -0.0920 -0.1014  0.3450
 7609SOL    HW134289   4.602   0.994   0.777 -1.7056 -0.9636 -0.6878
 7609SOL    HW234290   4.505   1.098   0.812  0.0187  1.0462  0.1414
 7610SOL     OW34291   0.914   1.771   9.415  0.1952  0.0541 -0.0437
 7610SOL    HW134292   0.983   1.817   9.368  0.7113 -0.2191  0.4487
 7610SOL    HW234293   0.953   1.773   9.502  0.6181 -0.3686 -0.2268
 7611SOL     OW34294   0.269   1.228   8.060  0.5142  0.2114 -0.1906
 7611SOL    HW134295   0.339   1.292   8.073  0.6504  0.0020  0.1019
 7611SOL    HW234296   0.310   1.142   8.070 -1.5829 -0.8229 -0.2920
 7612SOL     OW34297   3.555   3.620   4.246 -0.0942  0.1441 -0.2824
 7612SOL    HW134298   3.465   3.648   4.260 -0.4752  0.3978 -3.1575
 7612SOL    HW234299   3.549   3.594   4.154 -4.3184 -2.4959  0.7678
 7613SOL     OW34300   3.251   1.656   1.473 -0.1016  0.1037  0.3925
 7613SOL    HW134301   3.222   1.606   1.549  1.9131 -0.1979  0.9682
 7613SOL    HW234302   3.343   1.629   1.468 -0.2916 -0.1055 -1.9870
 7614SOL     OW34303   1.383   3.862   2.137  0.1199 -0.1919  0.2578
 7614SOL    HW134304   1.397   3.940   2.083 -1.6423  0.1291  0.2830
 7614SOL    HW234305   1.473   3.828   2.128 -0.1974 -0.2367 -2.7337
 7615SOL     OW34306   2.870   2.909   0.881  0.1475  0.1230 -0.5655
 7615SOL    HW134307   2.955   2.870   0.863  0.2450  0.2363 -0.3424
 7615SOL    HW234308   2.806   2.846   0.847 -1.2383  0.1788  1.9708
 7616SOL     OW34309   3.911   3.359   7.154 -0.1605 -0.0972 -0.8745
 7616SOL    HW134310   3.949   3.321   7.074  1.1182  0.7275 -0.6631
 7616SOL    HW234311   3.929   3.453   7.152  0.0374 -0.1387 -1.2167
 7617SOL     OW34312   2.118   1.292   7.654  0.4744  0.6160  0.0802
 7617SOL    HW134313   2.201   1.314   7.611 -1.6261  1.6922 -3.4280
 7617SOL    HW234314   2.057   1.275   7.582  2.1514 -0.3621 -1.1105
 7618SOL     OW34315   2.104   4.252   3.188  0.1613 -0.3310 -0.1577
 7618SOL    HW134316   2.123   4.268   3.281 -2.1896 -0.0140  0.2733
 7618SOL    HW234317   2.086   4.158   3.186  0.4523 -0.4023  0.6392
 7619SOL     OW34318   2.222   1.602  11.989 -0.0612  0.1309 -0.2140
 7619SOL    HW134319   2.305   1.556  12.002 -0.3539 -0.5649 -0.7875
 7619SOL    HW234320   2.162   1.530  11.973 -0.8076  0.7900 -0.3705
 7620SOL     OW34321   4.166   2.184   5.088  0.3465 -0.0329  0.4349
 7620SOL    HW134322   4.083   2.230   5.085  0.8422  0.8911  0.9138
 7620SOL    HW234323   4.144   2.095   5.060 -0.7247  1.2116 -2.7490
 7621SOL     OW34324   0.144   3.574   7.045  0.2814 -0.0551 -0.1194
 7621SOL    HW134325   0.195   3.508   6.997  0.5429 -0.0498  0.1506
 7621SOL    HW234326   0.120   3.528   7.126  0.8373  2.8842  1.7061
 7622SOL     OW34327   0.931   1.206   8.052 -0.1923 -0.0186  0.1091
 7622SOL    HW134328   0.935   1.263   8.129  1.2549 -2.0167  1.5096
 7622SOL    HW234329   0.940   1.121   8.095 -0.1741  0.1467  0.4299
 7623SOL     OW34330   2.556   3.995   3.714  0.1772 -0.5571 -0.0107
 7623SOL    HW134331   2.485   4.058   3.720 -0.0618 -0.7975 -0.3371
 7623SOL    HW234332   2.611   4.045   3.654  0.9432  0.2806  1.3934
 7624SOL     OW34333   4.215   4.183   4.481 -0.2553 -0.7615  0.2212
 7624SOL    HW134334   4.265   4.113   4.524  0.3489 -1.1529 -1.1388
 7624SOL    HW234335   4.165   4.208   4.559 -0.6573 -1.7828  0.2880
 7625SOL     OW34336   1.895   2.433   5.212  0.4564 -0.2359  0.3169
 7625SOL    HW134337   1.937   2.365   5.159 -0.6899 -0.1491 -0.7217
 7625SOL    HW234338   1.975   2.478   5.237 -0.5561  1.4714  0.4556
 7626SOL     OW34339   0.062   4.493   7.469  0.3769  0.6210 -0.5915
 7626SOL    HW134340   0.077   4.583   7.441  1.5799  0.4707 -0.4481
 7626SOL    HW234341   0.117   4.450   7.404  0.3931 -1.4073  0.7569
 7627SOL     OW34342   0.749   3.128   9.171 -0.5538 -0.6393  0.4911
 7627SOL    HW134343   0.769   3.041   9.205  2.1412 -0.2959 -0.1955
 7627SOL    HW234344   0.798   3.182   9.233 -0.0867  0.3156 -0.7032
 7628SOL     OW34345   0.542   1.055   2.861  0.6706  0.3186  0.0757
 7628SOL    HW134346   0.455   1.044   2.900  0.1677  0.2343 -1.0785
 7628SOL    HW234347   0.518   1.086   2.774 -0.0195 -0.8467 -0.1477
 7629SOL     OW34348   3.321   3.329   6.521  0.0676  0.0336  0.2452
 7629SOL    HW134349   3.356   3.247   6.554  0.5868  0.0818 -0.1635
 7629SOL    HW234350   3.391   3.349   6.457  0.7056 -1.0340  0.6159
 7630SOL     OW34351   0.221   3.392  16.384  0.2799  0.0904 -0.2598
 7630SOL    HW134352   0.312   3.365  16.368  0.1848 -0.1372 -0.4119
 7630SOL    HW234353   0.223   3.473  16.332 -2.1101  0.0742 -0.3489
 7631SOL     OW34354   2.200   1.313   4.599  0.3736  0.1112  0.3906
 7631SOL    HW134355   2.116   1.356   4.586  0.2089  0.0845  1.4097
 7631SOL    HW234356   2.209   1.245   4.532 -0.9536 -0.5396  0.8668
 7632SOL     OW34357   2.366   3.033   3.476  0.2668  0.1639 -0.3091
 7632SOL    HW134358   2.341   2.961   3.418 -1.1062 -0.1428  0.6711
 7632SOL    HW234359   2.367   2.993   3.562 -0.1748 -1.2429 -0.9590
 7633SOL     OW34360   3.885   2.018   5.818  0.1798  0.1732  0.2911
 7633SOL    HW134361   3.936   1.946   5.781  0.5140 -0.0003  1.0940
 7633SOL    HW234362   3.915   2.089   5.761 -2.9288  1.5858  0.4315
 7634SOL     OW34363   4.601   1.112  12.068  0.1109 -0.6241  0.0609
 7634SOL    HW134364   4.642   1.188  12.028  0.0589  0.2457  1.6829
 7634SOL    HW234365   4.640   1.095  12.154  0.6426  1.2247  0.1750
 7635SOL     OW34366   4.279   4.420  14.730  0.0537  0.5422  0.1927
 7635SOL    HW134367   4.288   4.503  14.777 -0.9322 -0.0686  1.4614
 7635SOL    HW234368   4.315   4.454  14.648 -0.8329 -1.4556 -1.0447
 7636SOL     OW34369   4.225   0.182  12.354 -0.0576 -0.0218 -0.0403
 7636SOL    HW134370   4.305   0.167  12.405  0.6350  0.5700 -0.9520
 7636SOL    HW234371   4.155   0.138  12.402  0.3238 -3.5445 -2.7195
 7637SOL     OW34372   2.362   4.336   6.436  0.1940 -0.0973 -0.9828
 7637SOL    HW134373   2.395   4.290   6.514 -0.1926  2.3508  0.6241
 7637SOL    HW234374   2.420   4.410   6.453  0.8758 -1.2058  1.6086
 7638SOL     OW34375   1.622   4.634  12.708 -0.0025  0.1819 -0.5112
 7638SOL    HW134376   1.683   4.685  12.761  0.5431 -0.9198 -0.0839
 7638SOL    HW234377   1.619   4.680  12.624 -1.6703 -1.0753 -1.1509
 7639SOL     OW34378   2.275   0.728  15.179 -0.6320 -0.3992  0.1895
 7639SOL    HW134379   2.180   0.739  15.180 -0.5424  0.3649  0.2056
 7639SOL    HW234380   2.297   0.812  15.218  2.3343 -0.6776 -0.8871
 7640SOL     OW34381   4.271   4.334   0.801  0.1884 -0.2815  0.3448
 7640SOL    HW134382   4.363   4.357   0.796  0.2792 -0.7648 -0.3693
 7640SOL    HW234383   4.229   4.420   0.793  0.3190 -0.1497  1.0934
 7641SOL     OW34384   4.549   0.726   2.883 -0.0801 -0.2386 -0.4476
 7641SOL    HW134385   4.463   0.692   2.905  0.5744 -0.0530  2.3625
 7641SOL    HW234386   4.562   0.668   2.808 -0.5904 -1.4340  0.3788
 7642SOL     OW34387   2.930   3.442   1.044  0.4211  0.4954  0.0628
 7642SOL    HW134388   3.021   3.439   1.073  0.6442 -0.5078 -0.7267
 7642SOL    HW234389   2.929   3.353   1.008  1.6029  0.1875  0.8149
 7643SOL     OW34390   3.339   0.057   5.570 -0.7652 -0.3356 -0.0336
 7643SOL    HW134391   3.351   0.128   5.508  2.1450 -0.9891 -0.2003
 7643SOL    HW234392   3.250   0.025   5.556 -0.3192 -1.4727 -0.2935
 7644SOL     OW34393   4.152   1.503   0.158  0.2559 -0.1485  0.1636
 7644SOL    HW134394   4.118   1.507   0.247  1.8777 -1.2645  0.8517
 7644SOL    HW234395   4.103   1.575   0.119 -2.2501 -1.4103  0.9944
 7645SOL     OW34396   1.634   1.979   8.386 -0.6184  0.2895  0.2899
 7645SOL    HW134397   1.679   2.036   8.324 -2.0340  0.4330 -0.6109
 7645SOL    HW234398   1.701   1.912   8.391 -0.1349  0.8465  1.5102
 7646SOL     OW34399   1.294   1.594   4.803 -0.2867 -0.8144  0.0291
 7646SOL    HW134400   1.310   1.661   4.736 -0.9417 -0.6489  0.0408
 7646SOL    HW234401   1.348   1.527   4.761  0.2892 -0.3963  0.1045
 7647SOL     OW34402   2.034   1.491   5.168 -0.4014 -0.0315 -0.1106
 7647SOL    HW134403   2.026   1.483   5.263  2.2347 -1.2843 -0.0008
 7647SOL    HW234404   1.944   1.508   5.141 -0.5357 -2.3012 -1.0265
 7648SOL     OW34405   3.211   1.607   6.721 -0.3722  0.0883 -0.0019
 7648SOL    HW134406   3.211   1.681   6.782  1.8842 -0.1885  0.3156
 7648SOL    HW234407   3.138   1.561   6.762  0.1650  0.7608  1.7096
 7649SOL     OW34408   1.992   4.672   6.357  0.2405  0.0303  0.2046
 7649SOL    HW134409   1.907   4.630   6.352 -0.4322  1.3040  0.8661
 7649SOL    HW234410   2.061   4.609   6.335  0.8538  0.8975 -0.3710
 7650SOL     OW34411   4.278   2.274   4.411  0.5802  0.0548  0.5197
 7650SOL    HW134412   4.368   2.269   4.443  0.2502 -0.8677  1.2939
 7650SOL    HW234413   4.231   2.268   4.494  1.1865 -2.2342  0.6849
 7651SOL     OW34414   0.250   3.345  10.697  0.1201  0.2669 -0.2792
 7651SOL    HW134415   0.218   3.362  10.608  2.0438  0.8602 -0.8474
 7651SOL    HW234416   0.343   3.339  10.675  0.6561  2.5718  1.3470
 7652SOL     OW34417   2.852   1.663   5.320 -0.0093  0.0544 -0.5700
 7652SOL    HW134418   2.883   1.598   5.384 -0.6807  1.1870  0.9088
 7652SOL    HW234419   2.936   1.696   5.287  0.0883  0.6186  0.2255
 7653SOL     OW34420   4.024   4.313   2.764  0.2774 -0.0945 -0.1576
 7653SOL    HW134421   4.024   4.314   2.860  0.4059 -1.6831 -0.1443
 7653SOL    HW234422   3.942   4.267   2.746 -0.3452 -0.4115  3.5039
 7654SOL     OW34423   0.905   4.696   7.151  0.1372  0.1148  0.4460
 7654SOL    HW134424   0.850   4.657   7.082 -1.0194  3.1861 -0.3963
 7654SOL    HW234425   0.893   4.632   7.221 -2.8096 -0.5865 -0.6870
 7655SOL     OW34426   2.850   2.731   2.891  0.0452  0.4067  0.1553
 7655SOL    HW134427   2.856   2.659   2.828 -3.0854  0.3844 -0.1100
 7655SOL    HW234428   2.871   2.686   2.972 -1.8800  1.4747  1.2392
 7656SOL     OW34429   1.980   1.830   2.172  0.3090  0.0104 -0.9585
 7656SOL    HW134430   2.038   1.903   2.149 -1.2505  1.5226 -0.1643
 7656SOL    HW234431   2.039   1.766   2.210  0.3212  0.0517 -0.9087
 7657SOL     OW34432   2.548   3.685   7.952  0.2176  0.6479  0.2218
 7657SOL    HW134433   2.540   3.646   8.039  4.3957 -1.4213 -0.3131
 7657SOL    HW234434   2.626   3.637   7.925  0.6701  1.6797 -0.3041
 7658SOL     OW34435   0.889   1.216  13.845 -0.0030  0.0030  0.1364
 7658SOL    HW134436   0.973   1.232  13.800  1.0590  0.3160  2.2099
 7658SOL    HW234437   0.884   1.299  13.892  0.6213  0.7651 -1.1260
 7659SOL     OW34438   3.561   4.328  10.059 -0.0470  0.0617 -0.0205
 7659SOL    HW134439   3.530   4.416  10.041  2.7268  0.7300 -1.5618
 7659SOL    HW234440   3.517   4.321  10.143  0.0413  2.5565  0.2321
 7660SOL     OW34441   2.379   0.749   4.583  0.7115 -0.2493 -0.3647
 7660SOL    HW134442   2.292   0.754   4.622  0.5190 -1.6647 -0.5876
 7660SOL    HW234443   2.372   0.825   4.527  0.3852 -0.6127 -0.8157
 7661SOL     OW34444   1.749   0.815   3.865  0.4456 -0.5950 -0.1573
 7661SOL    HW134445   1.695   0.836   3.941  0.6860 -0.1813 -0.1036
 7661SOL    HW234446   1.731   0.895   3.815  1.9217 -0.4487 -0.4485
 7662SOL     OW34447   3.671   4.122   3.983 -0.4151 -0.0745  0.4291
 7662SOL    HW134448   3.650   4.071   3.905  0.6909  0.2146 -0.0701
 7662SOL    HW234449   3.696   4.055   4.046 -1.6431 -0.6031  0.3401
 7663SOL     OW34450   3.699   3.537   2.722 -0.1771  0.5628  0.4154
 7663SOL    HW134451   3.612   3.573   2.738 -0.4332  0.9223 -1.7479
 7663SOL    HW234452   3.686   3.544   2.627  1.2414 -0.1263  0.1654
 7664SOL     OW34453   4.350   0.228  13.288  0.1194 -0.3072  0.2933
 7664SOL    HW134454   4.402   0.186  13.357 -0.6999  1.0851  1.7499
 7664SOL    HW234455   4.414   0.265  13.227 -0.3175 -1.3344 -0.7893
 7665SOL     OW34456   2.587   4.444   9.900  0.6260  0.3666  0.1226
 7665SOL    HW134457   2.643   4.366   9.900  0.0126 -0.0638 -0.2957
 7665SOL    HW234458   2.501   4.405   9.914  0.5533  0.3261 -0.4272
 7666SOL     OW34459   0.514   3.741   6.538 -0.4249 -0.1087 -0.6637
 7666SOL    HW134460   0.564   3.692   6.473  1.3723  1.1295 -0.1860
 7666SOL    HW234461   0.571   3.760   6.612  0.1198 -0.0690 -1.0954
 7667SOL     OW34462   3.069   0.520   8.829  0.1315 -0.1190  0.2560
 7667SOL    HW134463   3.113   0.600   8.859 -0.4377 -0.3520  1.7182
 7667SOL    HW234464   3.094   0.461   8.900  0.0915  0.6404  0.9057
 7668SOL     OW34465   0.799   3.116   8.305 -0.6925 -0.1321  0.0360
 7668SOL    HW134466   0.758   3.050   8.361 -0.0498 -0.1505  0.4911
 7668SOL    HW234467   0.753   3.100   8.223  0.0314  3.2913 -1.0245
 7669SOL     OW34468   4.570   2.507   5.417 -0.1667 -0.8188 -0.1953
 7669SOL    HW134469   4.608   2.441   5.359  1.5385  0.4485 -0.5271
 7669SOL    HW234470   4.613   2.589   5.393  0.7056 -1.1618  0.1915
 7670SOL     OW34471   2.017   2.499   5.888  0.3066 -0.3456 -0.4463
 7670SOL    HW134472   2.028   2.481   5.794 -0.3809  1.8601 -0.9567
 7670SOL    HW234473   1.963   2.578   5.878 -2.3936 -2.3289 -1.6890
 7671SOL     OW34474   1.698   3.509  12.314  0.1127 -0.0690  0.4330
 7671SOL    HW134475   1.648   3.568  12.369 -0.4565 -1.8059  1.7657
 7671SOL    HW234476   1.694   3.553  12.229 -0.0021 -1.8354 -0.4797
 7672SOL     OW34477   2.729   2.995   9.438  0.1598  0.7045 -0.0734
 7672SOL    HW134478   2.713   3.023   9.348 -1.2729  1.9381  0.5719
 7672SOL    HW234479   2.736   2.901   9.428  0.1397  0.7431 -0.4315
 7673SOL     OW34480   3.910   2.129   7.553 -0.1660  0.2785 -0.2200
 7673SOL    HW134481   3.999   2.159   7.571 -0.2553  0.5025 -0.1546
 7673SOL    HW234482   3.898   2.096   7.642  0.2227  0.5581 -0.0607
 7674SOL     OW34483   0.609   4.591   5.543 -0.1429  0.4808  0.7069
 7674SOL    HW134484   0.613   4.500   5.572 -1.7200 -0.5988 -2.4978
 7674SOL    HW234485   0.660   4.627   5.615  0.6685  0.7041  0.0266
 7675SOL     OW34486   0.246   4.041   5.336 -0.1660  0.3658  0.6105
 7675SOL    HW134487   0.259   4.071   5.246  1.2358 -2.1439 -0.0337
 7675SOL    HW234488   0.254   3.946   5.326 -0.8924  0.1501  2.0971
 7676SOL     OW34489   2.081   3.605  14.131 -0.1315 -0.3898  0.1515
 7676SOL    HW134490   1.986   3.597  14.119 -0.1146  0.1356 -0.3329
 7676SOL    HW234491   2.092   3.693  14.168 -1.0379 -0.7913  1.3650
 7677SOL     OW34492   1.276   1.704   5.696 -0.1258 -0.2095 -0.2630
 7677SOL    HW134493   1.262   1.655   5.777  0.1774  1.2846  0.6892
 7677SOL    HW234494   1.365   1.677   5.674  0.2414  0.1584  0.7699
 7678SOL     OW34495   2.926   1.270   1.233  0.4079  0.1793  0.2619
 7678SOL    HW134496   2.996   1.279   1.170 -1.8243  0.0262 -2.2308
 7678SOL    HW234497   2.979   1.290   1.310  3.4736 -4.3078 -0.7229
 7679SOL     OW34498   1.726   0.704   4.460 -0.6863  0.4218 -0.4530
 7679SOL    HW134499   1.640   0.746   4.464 -0.9635  0.0733 -2.6936
 7679SOL    HW234500   1.698   0.641   4.395  1.8304 -2.1564  0.9233
 7680SOL     OW34501   3.806   4.236   8.722  0.2918  0.2127 -0.6130
 7680SOL    HW134502   3.779   4.150   8.689  3.7664 -2.1931  2.8985
 7680SOL    HW234503   3.891   4.250   8.681  0.5897 -1.8102 -0.6784
 7681SOL     OW34504   0.740   3.926   1.902  0.6536  0.0645  0.6493
 7681SOL    HW134505   0.739   4.022   1.904 -0.8369  0.0401  1.0108
 7681SOL    HW234506   0.818   3.914   1.956 -0.5961  0.5741  2.5558
 7682SOL     OW34507   3.552   1.288   7.991  0.4945 -0.1995  0.3038
 7682SOL    HW134508   3.635   1.254   7.960  0.3880  2.5798 -2.9674
 7682SOL    HW234509   3.580   1.367   8.037  1.0422 -0.4143  0.3396
 7683SOL     OW34510   0.658   2.672   6.439 -0.1054 -0.7186  0.2123
 7683SOL    HW134511   0.670   2.577   6.448 -2.6971 -1.0291  0.3462
 7683SOL    HW234512   0.641   2.677   6.345  3.6259 -0.2457 -0.4603
 7684SOL     OW34513   3.013   0.873  16.494  0.2068  0.0746 -0.2147
 7684SOL    HW134514   3.036   0.885  16.586  3.0082 -0.0731 -0.9055
 7684SOL    HW234515   3.043   0.953  16.451 -0.8910 -0.9618 -2.9401
 7685SOL     OW34516   2.227   4.680   7.121  0.3075  0.1103 -0.2817
 7685SOL    HW134517   2.312   4.639   7.102  0.7327  1.9125 -2.2077
 7685SOL    HW234518   2.170   4.614   7.084 -0.5567  0.0650  1.1316
 7686SOL     OW34519   0.852   1.214   6.512 -0.0689 -0.4933 -0.1999
 7686SOL    HW134520   0.933   1.186   6.556  0.5073  0.3056 -0.7547
 7686SOL    HW234521   0.807   1.265   6.579  0.8959  2.1764 -1.6230
 7687SOL     OW34522   4.622   3.419   5.458 -0.4642  0.0548 -0.2866
 7687SOL    HW134523   4.545   3.455   5.415 -1.3423 -0.2430  1.0155
 7687SOL    HW234524   4.642   3.349   5.396 -2.4980 -0.1142 -0.7520
 7688SOL     OW34525   0.879   4.710   3.267  0.0091  0.8932 -0.3790
 7688SOL    HW134526   0.932   4.650   3.319  0.8873  0.8437 -1.3359
 7688SOL    HW234527   0.823   0.025   3.334  1.1208  1.5463  0.1715
 7689SOL     OW34528   3.448   3.100  15.202 -0.0367 -0.1202  0.0125
 7689SOL    HW134529   3.490   3.092  15.116 -1.2449  1.6047 -0.7319
 7689SOL    HW234530   3.518   3.117  15.264 -0.5960 -1.5053  1.0206
 7690SOL     OW34531   3.438   4.269   8.883  0.1018 -0.4318  0.4732
 7690SOL    HW134532   3.378   4.334   8.847 -1.9828 -1.5236  2.0115
 7690SOL    HW234533   3.369   4.203   8.883 -0.4999  0.1872 -1.3901
 7691SOL     OW34534   4.423   1.036   8.596 -0.0650  0.0034  0.6249
 7691SOL    HW134535   4.423   0.943   8.574  1.9860 -0.5915  3.1312
 7691SOL    HW234536   4.515   1.060   8.580 -0.0426 -0.3718  0.1984
 7692SOL     OW34537   1.718   2.897   7.675  0.3229 -0.4271  0.1084
 7692SOL    HW134538   1.811   2.882   7.658  0.7024 -0.3709  2.0980
 7692SOL    HW234539   1.671   2.828   7.629 -1.7408  0.7016  0.5137
 7693SOL     OW34540   1.197   0.727   7.768  0.0146 -0.3329 -0.6346
 7693SOL    HW134541   1.115   0.708   7.723 -0.8235  2.0215 -0.0477
 7693SOL    HW234542   1.264   0.686   7.713  1.3141  1.7832 -0.6278
 7694SOL     OW34543   0.181   2.999   7.770  0.2786  0.3101 -0.3159
 7694SOL    HW134544   0.237   3.070   7.739  1.4651  0.4508  2.1824
 7694SOL    HW234545   0.112   3.044   7.818 -0.4905  0.1045 -1.2133
 7695SOL     OW34546   2.264   0.354  11.935  0.1741 -0.0133  0.3417
 7695SOL    HW134547   2.244   0.310  11.852  0.6214 -1.2100  0.8695
 7695SOL    HW234548   2.347   0.399  11.920 -0.7356  1.1824 -1.0785
 7696SOL     OW34549   1.557   0.535   2.585  0.2661 -0.5864  0.3065
 7696SOL    HW134550   1.514   0.595   2.645 -1.8360  0.5801 -2.3684
 7696SOL    HW234551   1.483   0.477   2.567 -0.3374  0.1908  0.3203
 7697SOL     OW34552   2.516   2.470   1.747 -0.1532  0.0180  0.4104
 7697SOL    HW134553   2.506   2.490   1.654  1.9342  0.6504  0.3170
 7697SOL    HW234554   2.610   2.458   1.763  0.2169  1.9763 -0.2215
 7698SOL     OW34555   2.414   0.586  15.397  0.4635 -0.3689 -0.3088
 7698SOL    HW134556   2.436   0.674  15.428 -0.1294 -1.2109  2.4254
 7698SOL    HW234557   2.413   0.604  15.303  2.0992  1.0211 -0.0620
 7699SOL     OW34558   2.779   3.235   8.750 -0.0265  0.0598  0.5630
 7699SOL    HW134559   2.842   3.177   8.708  1.0740  0.5546  1.5271
 7699SOL    HW234560   2.806   3.229   8.842  2.8892 -2.9662 -0.4630
 7700SOL     OW34561   3.218   0.323   8.491 -0.0155  0.1105  0.0086
 7700SOL    HW134562   3.136   0.370   8.474 -0.5315 -0.9958 -0.5574
 7700SOL    HW234563   3.251   0.307   8.403  0.0235 -0.6924  0.1730
 7701SOL     OW34564   3.695   2.372   8.507  0.6713  0.3719  0.0174
 7701SOL    HW134565   3.749   2.306   8.552 -0.7642 -1.4366 -0.9251
 7701SOL    HW234566   3.691   2.445   8.569  0.9399  0.7508 -0.4062
 7702SOL     OW34567   4.528   0.587   7.332 -0.2851 -0.3988 -0.1069
 7702SOL    HW134568   4.543   0.538   7.412  0.1636  0.2192  0.1865
 7702SOL    HW234569   4.452   0.539   7.298 -0.4860  0.8138 -1.3716
 7703SOL     OW34570   2.792   1.176  11.516 -0.4723 -0.1796  0.0366
 7703SOL    HW134571   2.720   1.191  11.455  1.0776 -1.2451 -2.0335
 7703SOL    HW234572   2.782   1.084  11.539  0.0297 -0.3942 -0.6065
 7704SOL     OW34573   3.390   3.622  12.100  0.5033  0.4258 -0.0357
 7704SOL    HW134574   3.352   3.589  12.181  1.9680 -1.5802 -0.1638
 7704SOL    HW234575   3.319   3.600  12.040 -0.0647 -1.2932  1.2677
 7705SOL     OW34576   0.346   3.610   8.001 -0.3342  0.5289 -0.1134
 7705SOL    HW134577   0.282   3.627   8.071  0.4617  1.4817  0.3889
 7705SOL    HW234578   0.417   3.573   8.054 -2.1051 -0.8535  1.2870
 7706SOL     OW34579   4.667   4.135  15.864 -0.1061 -0.6269  0.2591
 7706SOL    HW134580   4.637   4.110  15.777 -0.6933 -0.1796  0.3241
 7706SOL    HW234581   4.637   4.057  15.911 -2.7595  0.5703  0.5634
 7707SOL     OW34582   3.074   3.670  13.274 -0.3836 -0.5266  0.6531
 7707SOL    HW134583   3.134   3.595  13.278 -1.1016 -1.1968 -1.2789
 7707SOL    HW234584   3.116   3.719  13.204 -0.5312  0.1914  1.0694
 7708SOL     OW34585   2.801   2.608   4.679  0.5645 -0.1820 -0.2419
 7708SOL    HW134586   2.756   2.688   4.653 -1.7774 -2.1876 -2.3712
 7708SOL    HW234587   2.790   2.595   4.774 -0.5451  0.1205 -0.3237
 7709SOL     OW34588   1.432   2.889  11.256  0.3338  0.3871 -0.1559
 7709SOL    HW134589   1.388   2.931  11.330  0.4944  1.7079 -0.8016
 7709SOL    HW234590   1.525   2.901  11.277 -0.1550  2.8996  0.5800
 7710SOL     OW34591   4.218   4.586   7.048  0.4051  0.1553 -0.0946
 7710SOL    HW134592   4.270   4.620   7.121 -3.4006  2.5711  1.4814
 7710SOL    HW234593   4.131   4.574   7.086 -1.0458  1.9220 -2.8059
 7711SOL     OW34594   0.500   3.155   5.611  0.3214 -0.0419 -0.2065
 7711SOL    HW134595   0.537   3.067   5.606 -1.7987 -1.0034  0.9336
 7711SOL    HW234596   0.409   3.137   5.634  0.3473  0.6092  0.4147
 7712SOL     OW34597   4.444   1.638  11.702  0.3870 -0.0897 -0.3168
 7712SOL    HW134598   4.473   1.714  11.753 -0.9726  1.4537 -1.8347
 7712SOL    HW234599   4.449   1.575  11.773 -0.1739  0.4635  0.2112
 7713SOL     OW34600   1.844   0.486   8.342  0.1972  0.0396 -0.4836
 7713SOL    HW134601   1.762   0.439   8.357  0.8426 -1.2373 -1.0219
 7713SOL    HW234602   1.907   0.423   8.308 -0.4293 -0.7975 -0.0901
 7714SOL     OW34603   3.562   0.968   1.446  0.2385  0.8217  0.1724
 7714SOL    HW134604   3.621   0.923   1.506 -0.1797 -0.5425 -0.4432
 7714SOL    HW234605   3.511   1.002   1.519  1.3245  0.7492  0.9498
 7715SOL     OW34606   0.794   0.929   6.508 -0.4845  0.2247 -0.1740
 7715SOL    HW134607   0.792   1.025   6.503  1.2465  0.2666 -0.0260
 7715SOL    HW234608   0.752   0.917   6.593  1.0287  0.2566  0.5815
 7716SOL     OW34609   1.826   4.132   7.359  0.2420  0.0226 -0.4207
 7716SOL    HW134610   1.906   4.168   7.398  0.2892  3.0889 -3.2764
 7716SOL    HW234611   1.815   4.061   7.421  3.4842  0.4116  0.6089
 7717SOL     OW34612   3.253   2.976   0.649 -0.0112 -0.2281  0.2121
 7717SOL    HW134613   3.346   2.993   0.636 -0.3326  0.0091 -1.7056
 7717SOL    HW234614   3.236   2.983   0.555  1.0526  2.1554  0.1751
 7718SOL     OW34615   4.532   2.954   6.075 -0.5764  0.2944 -0.4374
 7718SOL    HW134616   4.561   2.911   5.995  0.4012 -1.6323  0.9449
 7718SOL    HW234617   4.566   2.901   6.147  0.3639  4.0342  1.8511
 7719SOL     OW34618   4.068   0.806  11.583  0.0174 -0.2218 -0.2132
 7719SOL    HW134619   4.022   0.808  11.667  0.4572 -0.2232  0.0290
 7719SOL    HW234620   4.155   0.780  11.615  1.2469  0.3460 -3.0904
 7720SOL     OW34621   2.441   4.128   8.660 -0.7074 -0.8306 -0.1820
 7720SOL    HW134622   2.447   4.152   8.753 -0.3400 -0.4571 -0.3052
 7720SOL    HW234623   2.532   4.104   8.646  0.2385  2.6429 -0.0170
 7721SOL     OW34624   1.658   0.989   2.498  0.2742 -0.3143  0.0127
 7721SOL    HW134625   1.665   1.062   2.436 -0.7409  0.4326  0.7595
 7721SOL    HW234626   1.745   0.952   2.489  0.2882 -0.0127 -1.0553
 7722SOL     OW34627   0.591   3.496   7.524 -0.2506  0.2380 -0.5228
 7722SOL    HW134628   0.570   3.569   7.466 -2.5454 -0.4520 -0.5886
 7722SOL    HW234629   0.501   3.476   7.551 -0.9458  3.1472 -0.7642
 7723SOL     OW34630   2.277   2.715   2.100 -0.0698 -0.5629  0.0907
 7723SOL    HW134631   2.188   2.747   2.090  0.6314  1.9115  1.6937
 7723SOL    HW234632   2.272   2.623   2.127 -0.5975 -1.3157 -2.6007
 7724SOL     OW34633   2.139   2.270  10.114 -0.6355  0.2329 -0.2508
 7724SOL    HW134634   2.145   2.353  10.066 -0.8120 -0.3670 -1.3202
 7724SOL    HW234635   2.140   2.289  10.207 -0.3858  0.0049 -0.2093
 7725SOL     OW34636   3.979   2.341  10.866 -0.2270 -0.2742 -0.3939
 7725SOL    HW134637   3.906   2.401  10.881  2.4366  2.8444 -0.0467
 7725SOL    HW234638   3.986   2.308  10.956  0.1539  3.6250  0.9906
 7726SOL     OW34639   0.352   3.213   7.709 -0.3401  0.5491  0.0308
 7726SOL    HW134640   0.339   3.283   7.645  0.8611  0.6054 -0.1532
 7726SOL    HW234641   0.351   3.263   7.790 -3.6445  0.7017 -0.1071
 7727SOL     OW34642   3.743   0.003   3.252 -0.0119 -0.0024 -0.2427
 7727SOL    HW134643   3.776   4.683   3.173  1.8120  0.3950  0.3010
 7727SOL    HW234644   3.722   4.645   3.297  0.6671 -1.2371 -2.1565
 7728SOL     OW34645   0.785   0.735   7.978 -0.7387  0.8189 -0.2111
 7728SOL    HW134646   0.743   0.788   8.046  0.0870 -0.3261  1.1778
 7728SOL    HW234647   0.856   0.700   8.031  0.4244  1.6952 -1.2093
 7729SOL     OW34648   3.446   2.621   3.409 -0.7010  0.7142 -0.2963
 7729SOL    HW134649   3.505   2.696   3.413 -1.3750  1.1416  1.4971
 7729SOL    HW234650   3.406   2.630   3.495  0.4493 -1.4336  0.4645
 7730SOL     OW34651   2.862   1.313   7.456 -0.1827 -0.3807  0.6991
 7730SOL    HW134652   2.958   1.318   7.455 -0.1095 -1.5770  1.4269
 7730SOL    HW234653   2.848   1.408   7.454 -0.8485 -0.4943  0.2762
 7731SOL     OW34654   1.288   3.682  14.553 -0.3535  0.0851 -0.1608
 7731SOL    HW134655   1.326   3.630  14.624 -0.8324  0.0659  0.0776
 7731SOL    HW234656   1.248   3.755  14.599  0.2014 -0.5004  1.2452
 7732SOL     OW34657   3.165   3.991   7.968 -0.2107  0.5852 -0.1179
 7732SOL    HW134658   3.166   4.071   7.916 -0.8166  1.3914  1.0976
 7732SOL    HW234659   3.186   3.917   7.911  0.7578  0.0821  0.8739
 7733SOL     OW34660   4.010   0.240   6.869  0.4311 -0.4389  0.3005
 7733SOL    HW134661   4.086   0.261   6.923  1.2699 -1.9418 -0.2913
 7733SOL    HW234662   4.004   0.145   6.867 -0.1589 -0.3909 -0.7799
 7734SOL     OW34663   1.005   3.491   5.193  0.1071  0.4819 -0.6626
 7734SOL    HW134664   1.088   3.469   5.150  0.5437 -4.0574  2.5446
 7734SOL    HW234665   1.026   3.474   5.285 -1.8489 -1.6990 -0.6363
 7735SOL     OW34666   3.581   1.929   4.695 -0.5723 -0.0927 -0.2376
 7735SOL    HW134667   3.539   1.971   4.620  0.1171  0.3453 -0.3868
 7735SOL    HW234668   3.514   1.876   4.738 -0.1973  0.5752  1.1484
 7736SOL     OW34669   1.343   1.651  10.562 -0.3298 -0.1361  0.3448
 7736SOL    HW134670   1.357   1.604  10.479 -0.4122 -2.3279  1.5843
 7736SOL    HW234671   1.248   1.658  10.559 -0.3065  0.0139  0.0027
 7737SOL     OW34672   1.681   2.592   0.774 -0.1398  0.0684  0.8277
 7737SOL    HW134673   1.733   2.513   0.788  0.6372  0.1037 -1.9818
 7737SOL    HW234674   1.646   2.578   0.686  0.5040  1.1841  0.3909
 7738SOL     OW34675   4.167   3.930   8.752  0.2853 -0.0004 -0.4272
 7738SOL    HW134676   4.133   3.852   8.708  0.0152  1.8471 -3.4600
 7738SOL    HW234677   4.255   3.938   8.716 -0.4235  1.7241 -1.7829
 7739SOL     OW34678   3.458   1.079  17.073 -0.5429  0.0966 -0.2533
 7739SOL    HW134679   3.518   1.063  17.146 -0.4157  1.4571 -0.0556
 7739SOL    HW234680   3.445   1.174  17.074 -3.1821 -0.2719  3.3426
 7740SOL     OW34681   3.654   2.497  12.474  0.7472 -0.2021  0.1559
 7740SOL    HW134682   3.610   2.517  12.391 -2.5973  1.2730  2.2660
 7740SOL    HW234683   3.656   2.580  12.522 -2.0358 -1.1135  1.8302
 7741SOL     OW34684   2.936   3.676   5.964 -0.3221  1.1155 -0.1121
 7741SOL    HW134685   2.842   3.661   5.963 -0.2329  0.4945  1.2895
 7741SOL    HW234686   2.960   3.594   5.922 -2.1929  0.1792  0.6426
 7742SOL     OW34687   4.499   4.295   8.838  0.3986 -0.1880  0.1846
 7742SOL    HW134688   4.546   4.305   8.755  0.1788 -0.8373 -0.0166
 7742SOL    HW234689   4.554   4.222   8.866  0.2627 -0.6017 -0.6400
 7743SOL     OW34690   0.087   0.661   9.289 -0.3098 -0.4113  0.1852
 7743SOL    HW134691   0.181   0.647   9.299 -0.4500 -0.0509  2.0163
 7743SOL    HW234692   0.041   0.579   9.308 -0.3457  0.0105  1.8626
 7744SOL     OW34693   1.307   1.601   7.989  0.5103 -0.0802 -0.0955
 7744SOL    HW134694   1.323   1.515   7.949 -0.6051 -0.8434  1.1052
 7744SOL    HW234695   1.372   1.645   7.935  0.2393  2.2456  1.4913
 7745SOL     OW34696   1.899   4.081  16.739 -0.2566 -0.5599  0.5969
 7745SOL    HW134697   1.807   4.056  16.743 -0.1870 -1.2945 -2.2785
 7745SOL    HW234698   1.931   4.008  16.685  0.6396 -1.3566  2.1939
 7746SOL     OW34699   3.516   0.742  12.977 -0.3113 -0.1813  0.3388
 7746SOL    HW134700   3.489   0.743  13.069 -2.8386 -1.4389 -0.3930
 7746SOL    HW234701   3.436   0.770  12.934 -1.2432 -3.0492  0.1764
 7747SOL     OW34702   2.599   1.030   6.323 -0.0539  0.4146 -0.2178
 7747SOL    HW134703   2.545   0.973   6.377 -0.9761  1.1521 -0.3511
 7747SOL    HW234704   2.565   1.119   6.329 -1.8351 -0.3439  0.7974
 7748SOL     OW34705   3.465   4.031  16.847 -0.2650  0.6174 -0.3789
 7748SOL    HW134706   3.383   4.050  16.802 -0.3249  0.8814 -0.1630
 7748SOL    HW234707   3.496   4.115  16.883  1.0466  0.1261 -0.3784
 7749SOL     OW34708   1.863   4.083   2.878  0.0510  0.2140 -0.2499
 7749SOL    HW134709   1.871   4.007   2.820 -1.6980  1.0230 -1.5552
 7749SOL    HW234710   1.955   4.105   2.894  0.2866 -0.7266 -0.3119
 7750SOL     OW34711   1.105   3.541   9.234  0.0259  0.8061 -0.1634
 7750SOL    HW134712   1.156   3.462   9.218 -0.4471 -0.0515  2.7011
 7750SOL    HW234713   1.057   3.555   9.151  0.1933 -0.2685 -0.4400
 7751SOL     OW34714   3.582   0.219  14.442  0.1248  0.2924  0.0209
 7751SOL    HW134715   3.647   0.214  14.512 -1.5322 -1.0398  1.4381
 7751SOL    HW234716   3.587   0.128  14.411  0.2850  0.3793 -0.2106
 7752SOL     OW34717   1.809   1.816   7.748  0.2093 -0.4740  0.0651
 7752SOL    HW134718   1.854   1.775   7.822  0.1621 -1.7249 -0.5942
 7752SOL    HW234719   1.823   1.906   7.777 -1.7416 -1.6564  4.6493
 7753SOL     OW34720   3.338   4.122  12.955 -0.1786  0.5395  0.1102
 7753SOL    HW134721   3.423   4.084  12.978 -0.7262 -0.4406  0.4906
 7753SOL    HW234722   3.333   4.108  12.860  1.4842 -0.7439  0.2117
 7754SOL     OW34723   4.065   3.901   0.780 -0.5066  0.2057  0.4704
 7754SOL    HW134724   4.068   3.830   0.844  0.3805  0.8617  1.1610
 7754SOL    HW234725   4.156   3.900   0.751 -1.2765  2.6374 -1.9817
 7755SOL     OW34726   4.192   1.971   8.426 -0.2282  0.0631 -0.3107
 7755SOL    HW134727   4.188   1.881   8.393 -2.5984  0.4115 -0.9638
 7755SOL    HW234728   4.108   1.982   8.470  0.0049 -3.4570  0.9794
 7756SOL     OW34729   3.587   2.657   4.781 -0.7580 -0.3421  0.5126
 7756SOL    HW134730   3.680   2.678   4.775 -1.6094  2.6161 -2.1346
 7756SOL    HW234731   3.592   2.575   4.731  0.2763  0.4992 -0.7550
 7757SOL     OW34732   3.401   1.165   0.383 -0.0997  0.2343  0.6395
 7757SOL    HW134733   3.330   1.228   0.391  0.1637  0.6842 -0.6299
 7757SOL    HW234734   3.363   1.078   0.377 -1.7516  1.1004 -1.1338
 7758SOL     OW34735   3.150   2.909   4.064 -0.0877  0.8518 -0.3226
 7758SOL    HW134736   3.152   2.859   4.145 -0.4588 -0.4124 -1.0747
 7758SOL    HW234737   3.095   2.986   4.077  1.9446  2.1189  0.6611
 7759SOL     OW34738   0.472   3.647  17.531 -0.0412  1.1796 -0.1459
 7759SOL    HW134739   0.429   3.639  17.446 -0.5861 -1.4126  0.3855
 7759SOL    HW234740   0.491   3.741  17.540 -0.7585  1.1542  1.5621
 7760SOL     OW34741   0.299   0.912   2.832 -0.2996  0.4984  0.3217
 7760SOL    HW134742   0.288   0.880   2.743  1.9639 -2.0888  0.9573
 7760SOL    HW234743   0.236   0.856   2.877 -1.0050  0.6608 -0.4706
 7761SOL     OW34744   1.766   3.196   1.620  1.0978  0.7263 -1.2340
 7761SOL    HW134745   1.683   3.155   1.595 -1.2257  1.0334  5.9148
 7761SOL    HW234746   1.740   3.236   1.703 -0.8693 -2.9877 -0.0863
 7762SOL     OW34747   0.144   3.223   6.729 -0.0606 -0.0304 -0.5100
 7762SOL    HW134748   0.112   3.141   6.691  2.0060 -1.3884  0.6799
 7762SOL    HW234749   0.065   3.276   6.714  0.1858  0.7437  0.9481
 7763SOL     OW34750   1.420   2.474   3.494 -0.0376  0.1536  0.7806
 7763SOL    HW134751   1.488   2.523   3.542 -0.5604  0.9515  0.7190
 7763SOL    HW234752   1.468   2.425   3.428  1.8605  2.7335  0.2173
 7764SOL     OW34753   0.680   4.097   9.014 -0.3609 -0.3032 -0.2842
 7764SOL    HW134754   0.739   4.035   8.973 -1.2260 -1.2922 -0.0305
 7764SOL    HW234755   0.594   4.085   8.975 -1.1689  0.1908  1.3288
 7765SOL     OW34756   1.301   3.125  16.515 -0.0200 -0.4020  0.5041
 7765SOL    HW134757   1.394   3.140  16.533  0.5804 -2.8538 -0.4834
 7765SOL    HW234758   1.267   3.202  16.560 -0.4536 -0.3095  0.0236
 7766SOL     OW34759   0.493   2.139  12.402 -0.2931  0.4256  0.0082
 7766SOL    HW134760   0.456   2.213  12.353 -0.9583  0.9460  1.2889
 7766SOL    HW234761   0.418   2.084  12.424 -0.1567  0.8961  1.6830
 7767SOL     OW34762   1.586   1.701   7.585 -0.0690 -0.2816 -0.2645
 7767SOL    HW134763   1.649   1.746   7.641 -1.9728  1.7389  0.2567
 7767SOL    HW234764   1.636   1.623   7.560 -0.0512 -0.2442 -0.3468
 7768SOL     OW34765   1.206   0.809   2.026 -0.1972  0.5517  0.0628
 7768SOL    HW134766   1.146   0.870   2.069  0.4508  1.6693 -0.6312
 7768SOL    HW234767   1.257   0.785   2.103  0.6520 -0.5761 -0.8453
 7769SOL     OW34768   4.402   0.131  11.945 -0.2645  0.3462  0.1230
 7769SOL    HW134769   4.445   0.194  12.003  1.3363  0.7607 -1.5409
 7769SOL    HW234770   4.435   0.157  11.859 -1.5967  0.3172 -0.3956
 7770SOL     OW34771   1.311   1.807   4.388 -0.1847 -0.1919  0.2267
 7770SOL    HW134772   1.400   1.841   4.385 -0.4496  0.5186  0.3928
 7770SOL    HW234773   1.302   1.768   4.301  0.3085  3.2859 -1.3533
 7771SOL     OW34774   2.410   2.288   7.038  0.0360 -0.0369 -0.3271
 7771SOL    HW134775   2.415   2.353   6.967 -1.7167  1.9313  1.3306
 7771SOL    HW234776   2.410   2.210   6.982  2.2252  0.2161 -0.6707
 7772SOL     OW34777   3.520   1.881   8.886 -0.2334  0.4691 -0.0103
 7772SOL    HW134778   3.455   1.948   8.863  0.6695  2.0952  2.1517
 7772SOL    HW234779   3.501   1.873   8.980 -0.9729  3.8128  0.1472
 7773SOL     OW34780   1.529   3.097   1.548 -0.5103  0.1935 -0.2192
 7773SOL    HW134781   1.450   3.075   1.597  0.6006 -3.8409 -0.2479
 7773SOL    HW234782   1.522   3.029   1.482 -1.1626 -1.6555  1.7626
 7774SOL     OW34783   4.609   1.004   5.823  0.3310  0.3266 -0.1012
 7774SOL    HW134784   4.609   1.078   5.762  3.5678  0.5022  0.0804
 7774SOL    HW234785   4.539   0.951   5.785 -0.0872  0.8206 -0.0202
 7775SOL     OW34786   0.551   1.139   4.277  0.2306 -0.1668  0.2645
 7775SOL    HW134787   0.479   1.129   4.214 -1.6220  0.1501  2.3324
 7775SOL    HW234788   0.543   1.234   4.281  0.1267 -0.2519  1.9112
 7776SOL     OW34789   4.314   4.224   6.943 -0.3550 -0.3344  0.2633
 7776SOL    HW134790   4.253   4.286   6.983  0.7077  0.7450  0.1703
 7776SOL    HW234791   4.398   4.262   6.968 -1.8261  0.4914  3.9136
 7777SOL     OW34792   0.403   1.397   4.018 -0.3626  0.4663 -0.3253
 7777SOL    HW134793   0.350   1.472   4.041  1.3287  2.1401 -1.8879
 7777SOL    HW234794   0.440   1.368   4.102 -0.8105  0.6343 -0.0753
 7778SOL     OW34795   2.345   2.393   5.362  0.2652  0.2646  0.3820
 7778SOL    HW134796   2.404   2.445   5.416  1.4608  0.8198 -1.4624
 7778SOL    HW234797   2.328   2.309   5.404 -2.2301  0.6036  0.0453
 7779SOL     OW34798   1.482   2.282   7.800  0.3015  0.2966 -0.4513
 7779SOL    HW134799   1.406   2.327   7.839  0.2100 -0.1110 -0.1604
 7779SOL    HW234800   1.470   2.320   7.712 -1.3416  2.6142  0.7732
 7780SOL     OW34801   1.945   2.506   4.782  0.1100  0.5253  0.0260
 7780SOL    HW134802   1.961   2.600   4.792 -1.8456  0.7007  1.5665
 7780SOL    HW234803   1.850   2.502   4.785  0.1016  0.6096 -0.1169
 7781SOL     OW34804   0.069   3.283   5.048 -0.5546 -0.6481  0.3731
 7781SOL    HW134805   0.147   3.331   5.020 -0.6047 -1.0035 -0.3953
 7781SOL    HW234806   0.087   3.197   5.009 -0.3848 -1.1120  1.4752
 7782SOL     OW34807   3.171   1.821  10.827 -0.1628  1.0330 -0.5560
 7782SOL    HW134808   3.218   1.873  10.891  0.4792  0.9302 -0.9461
 7782SOL    HW234809   3.233   1.833  10.755  2.6993  0.6773  1.8582
 7783SOL     OW34810   1.788   3.734   9.555  0.0228 -0.3431 -0.0174
 7783SOL    HW134811   1.788   3.801   9.486 -3.0475 -0.1613  0.1726
 7783SOL    HW234812   1.700   3.698   9.553  0.7719 -2.1671  0.5955
 7784SOL     OW34813   0.954   0.403   5.094  0.1710 -0.3398  0.7909
 7784SOL    HW134814   1.047   0.421   5.083  0.2625 -1.7298 -0.6796
 7784SOL    HW234815   0.945   0.327   5.036 -1.1063  0.6548 -0.3182
 7785SOL     OW34816   3.048   1.160  11.399 -0.7508 -0.0564 -0.7827
 7785SOL    HW134817   3.006   1.091  11.349 -0.6302 -0.9470  0.3319
 7785SOL    HW234818   2.973   1.199  11.444 -2.1659  0.3620 -3.5578
 7786SOL     OW34819   4.455   0.662   6.665 -0.4969 -0.6357 -0.5375
 7786SOL    HW134820   4.447   0.628   6.754 -1.0287  1.2885  0.1664
 7786SOL    HW234821   4.380   0.723   6.668  2.3007  2.7020  1.3848
 7787SOL     OW34822   0.643   2.076   3.161 -0.4580  0.3804  0.0869
 7787SOL    HW134823   0.550   2.059   3.174 -0.3657  0.7815  1.2542
 7787SOL    HW234824   0.669   1.994   3.201  1.4984  0.3210 -1.2965
 7788SOL     OW34825   2.441   1.485   8.662 -0.4445 -0.0912 -0.2759
 7788SOL    HW134826   2.527   1.456   8.632  0.3789  0.4098  1.6121
 7788SOL    HW234827   2.414   1.404   8.705  0.5368 -0.2841 -0.0387
 7789SOL     OW34828   3.715   3.159   6.473  0.6354  0.1808 -0.0374
 7789SOL    HW134829   3.748   3.083   6.520  1.3670 -0.4806 -1.6042
 7789SOL    HW234830   3.734   3.126   6.385  1.6189 -1.4035  0.7593
 7790SOL     OW34831   2.831   0.165   3.523  0.0750  0.9457  0.4029
 7790SOL    HW134832   2.898   0.204   3.469  0.3872  1.9961  1.5562
 7790SOL    HW234833   2.806   0.096   3.461  1.1938 -1.6203  2.7871
 7791SOL     OW34834   3.499   4.623   0.972 -0.2485 -0.2572 -0.5133
 7791SOL    HW134835   3.446   4.557   0.927  0.2950  0.6547 -2.5057
 7791SOL    HW234836   3.471   4.697   0.919  2.2124  1.3751  0.4447
 7792SOL     OW34837   3.904   3.970  11.427  0.9535  0.5540 -0.1777
 7792SOL    HW134838   3.907   3.928  11.341  0.3548  0.5774 -0.2160
 7792SOL    HW234839   3.955   3.902  11.471  0.7325  0.1008 -0.6254
 7793SOL     OW34840   0.415   0.211   7.703 -0.2398  0.1254  0.0709
 7793SOL    HW134841   0.418   0.115   7.700 -0.5692  0.1064  0.4192
 7793SOL    HW234842   0.326   0.221   7.669 -0.2217  0.5694  0.1517
 7794SOL     OW34843   0.738   3.851  13.875 -0.0820 -0.5637 -0.6902
 7794SOL    HW134844   0.787   3.933  13.876  1.4179 -1.4766  1.0585
 7794SOL    HW234845   0.805   3.796  13.916 -1.3166  0.1399  2.2655
 7795SOL     OW34846   3.555   3.413  13.145 -0.1991  0.5055  0.7923
 7795SOL    HW134847   3.570   3.401  13.051  0.7091  1.6966  0.7943
 7795SOL    HW234848   3.637   3.459  13.163  1.4456 -2.4521  1.0228
 7796SOL     OW34849   0.412   1.120   0.135 -0.2659 -0.2846 -0.3107
 7796SOL    HW134850   0.494   1.143   0.179 -0.6407  0.7517 -0.1587
 7796SOL    HW234851   0.433   1.031   0.105  1.1940 -0.2119  0.4793
 7797SOL     OW34852   0.169   1.815  12.719  0.6257  0.3714 -0.1412
 7797SOL    HW134853   0.094   1.794  12.663  1.0655 -3.4929  0.7377
 7797SOL    HW234854   0.235   1.778  12.661  0.7165  0.7434 -0.2773
 7798SOL     OW34855   2.204   0.259   9.040  0.1749  0.2227  0.2354
 7798SOL    HW134856   2.291   0.221   9.025 -0.9807 -2.0092 -0.7739
 7798SOL    HW234857   2.211   0.317   8.964  1.6274  1.0054  0.9740
 7799SOL     OW34858   0.932   0.809   5.212 -0.2499  0.1150 -0.7543
 7799SOL    HW134859   0.990   0.837   5.141  1.9811  1.0675  1.4460
 7799SOL    HW234860   0.868   0.765   5.157 -0.9850  0.6285 -0.3045
 7800SOL     OW34861   3.023   2.454   1.817 -0.0831  0.4685  0.5349
 7800SOL    HW134862   3.088   2.384   1.813 -1.3645 -0.6606 -0.5538
 7800SOL    HW234863   3.065   2.523   1.766  0.2110  0.8526  1.2975
 7801SOL     OW34864   1.612   0.469   4.340  0.3044 -0.4776  0.0178
 7801SOL    HW134865   1.672   0.434   4.274  1.9910  2.1221  0.1853
 7801SOL    HW234866   1.531   0.422   4.322  0.0223 -0.6314  1.6746
 7802SOL     OW34867   2.934   3.815  17.109  0.0964 -0.2487  0.3020
 7802SOL    HW134868   3.026   3.802  17.087  0.4252  2.2212  0.2235
 7802SOL    HW234869   2.895   3.730  17.129 -0.8065  0.3276  0.9905
 7803SOL     OW34870   3.800   1.704   4.664 -0.0998 -0.7171 -0.3078
 7803SOL    HW134871   3.727   1.724   4.606 -1.1065 -1.8900  0.5372
 7803SOL    HW234872   3.835   1.634   4.610  1.3421 -0.3880  0.1858
 7804SOL     OW34873   2.272   3.867   4.151 -0.1939 -0.4431  0.0300
 7804SOL    HW134874   2.356   3.822   4.151  0.1408  0.1779 -0.9581
 7804SOL    HW234875   2.282   3.921   4.230  1.8317  2.3442 -2.1542
 7805SOL     OW34876   0.114   0.539  10.743 -0.3473  0.5112  0.6145
 7805SOL    HW134877   0.177   0.537  10.815 -0.8958 -0.0395  1.0782
 7805SOL    HW234878   0.038   0.518  10.797 -0.6453 -1.0752 -0.4457
 7806SOL     OW34879   2.526   3.739  16.439 -0.0350  0.0304 -0.4079
 7806SOL    HW134880   2.440   3.699  16.427 -0.3942  0.7570 -0.2600
 7806SOL    HW234881   2.523   3.752  16.534 -0.3433 -2.6902 -0.0436
 7807SOL     OW34882   3.204   0.163  17.668 -0.1650 -0.1240  0.2381
 7807SOL    HW134883   3.113   0.150  17.642  0.1449  1.0365 -1.4705
 7807SOL    HW234884   3.230   0.213  17.590 -1.1848 -0.6026 -0.4117
 7808SOL     OW34885   1.100   0.544   3.140 -0.9783  0.0387 -0.0816
 7808SOL    HW134886   1.188   0.513   3.118 -2.4311 -3.2995 -1.1541
 7808SOL    HW234887   1.103   0.558   3.234  0.5919  2.1912 -0.4547
 7809SOL     OW34888   2.437   0.541   5.844 -0.4762 -0.1182  0.5800
 7809SOL    HW134889   2.492   0.608   5.803  0.9149 -0.6743  1.5121
 7809SOL    HW234890   2.411   0.585   5.925 -2.2468  2.2516 -1.2822
 7810SOL     OW34891   1.737   0.817   6.586  0.0122  0.2521 -0.6915
 7810SOL    HW134892   1.644   0.819   6.608 -0.6654 -0.7712 -3.4601
 7810SOL    HW234893   1.775   0.862   6.662 -0.1308  1.0570 -1.0975
 7811SOL     OW34894   1.598   3.544   0.944  0.2479 -0.9629 -0.3074
 7811SOL    HW134895   1.680   3.584   0.915  0.6716 -0.9737  0.8705
 7811SOL    HW234896   1.642   3.490   1.010 -0.1111 -1.8124 -0.7761
 7812SOL     OW34897   2.855   1.137   1.553 -0.4604 -0.2212 -0.3871
 7812SOL    HW134898   2.826   1.064   1.497  1.4844  0.4097 -2.2069
 7812SOL    HW234899   2.823   1.207   1.496  1.0292  0.5417 -0.2795
 7813SOL     OW34900   3.383   4.717  17.233  0.3929  0.0402 -0.2936
 7813SOL    HW134901   3.362   4.680  17.318  1.4690 -1.3908 -0.6510
 7813SOL    HW234902   3.432   0.074  17.253  2.3126 -1.3692  0.6041
 7814SOL     OW34903   3.088   4.078  10.443  0.1599 -0.8077  0.4664
 7814SOL    HW134904   3.047   4.162  10.461 -0.9997 -0.5648 -3.1126
 7814SOL    HW234905   3.076   4.036  10.528 -0.2217 -0.3150  0.6531
 7815SOL     OW34906   0.833   0.394   7.428  0.0484  0.4921  0.1598
 7815SOL    HW134907   0.759   0.455   7.431  0.1071  0.5325  0.9123
 7815SOL    HW234908   0.794   0.311   7.456  0.1948 -0.0406 -1.2477
 7816SOL     OW34909   1.898   0.914   5.060  0.4335  0.3012 -0.4838
 7816SOL    HW134910   1.906   0.928   4.965 -0.3973 -1.5393 -0.8244
 7816SOL    HW234911   1.983   0.949   5.088 -1.1862  1.8921  2.3806
 7817SOL     OW34912   1.382   0.447   0.524 -0.2353  0.1703 -0.0354
 7817SOL    HW134913   1.307   0.390   0.539  1.3138 -1.9810 -0.4751
 7817SOL    HW234914   1.364   0.487   0.439  0.1656 -0.4528 -0.4153
 7818SOL     OW34915   1.732   2.122  14.870  0.0922 -0.1848 -0.4019
 7818SOL    HW134916   1.769   2.202  14.832  1.3419 -1.2455 -1.4469
 7818SOL    HW234917   1.686   2.157  14.946 -1.1372 -0.1929 -1.1503
 7819SOL     OW34918   4.599   4.720   7.538  0.0887  0.2978 -0.0028
 7819SOL    HW134919   4.559   4.658   7.477 -1.8072  1.1484  0.3826
 7819SOL    HW234920   4.537   0.068   7.522 -0.8434 -0.4606  0.2327
 7820SOL     OW34921   0.993   4.158   0.505 -0.2595  0.1295 -0.0487
 7820SOL    HW134922   0.968   4.181   0.416 -2.7872 -0.2300  0.5627
 7820SOL    HW234923   0.906   4.165   0.546 -0.3514 -2.9535  0.3296
 7821SOL     OW34924   2.339   3.657   6.455  0.0712  0.2781  0.0410
 7821SOL    HW134925   2.425   3.628   6.424  0.5108 -0.1245  1.6249
 7821SOL    HW234926   2.290   3.578   6.476 -0.5552  0.2880 -1.3480
 7822SOL     OW34927   0.137   3.080  15.486 -0.0320  0.1030 -0.0122
 7822SOL    HW134928   0.063   3.040  15.439  0.4936 -0.3783 -0.4298
 7822SOL    HW234929   0.091   3.127  15.555  0.9727  4.5758 -2.3821
 7823SOL     OW34930   4.443   2.554   9.991  0.3179  0.1500  0.4877
 7823SOL    HW134931   4.445   2.458   9.993  0.2503  0.1663  1.3230
 7823SOL    HW234932   4.389   2.580  10.065  0.2731  0.1133  0.4682
 7824SOL     OW34933   3.339   3.668   4.072  0.0030  0.1976 -0.3820
 7824SOL    HW134934   3.264   3.677   4.131 -1.2575  1.2680 -2.1420
 7824SOL    HW234935   3.374   3.756   4.083 -1.1424  0.5591  0.4044
 7825SOL     OW34936   2.875   3.258  11.644  0.0067 -0.2862 -0.3828
 7825SOL    HW134937   2.917   3.339  11.615  0.2176 -0.6117 -0.9982
 7825SOL    HW234938   2.786   3.284  11.664 -0.0103  1.1619 -2.2955
 7826SOL     OW34939   4.325   1.168   7.608 -0.2035  0.3433 -0.4728
 7826SOL    HW134940   4.294   1.252   7.573  2.4589  1.4558 -0.1768
 7826SOL    HW234941   4.255   1.160   7.672  2.1458  0.4259  2.1163
 7827SOL     OW34942   4.042   2.100   3.624  0.2800 -0.4374 -0.6696
 7827SOL    HW134943   3.982   2.084   3.697  0.5552  0.3238 -0.2803
 7827SOL    HW234944   3.983   2.107   3.549 -1.6002  0.2425  0.8639
 7828SOL     OW34945   0.433   4.132   3.655 -0.1159 -0.4842 -0.8847
 7828SOL    HW134946   0.502   4.138   3.721  0.4666 -0.2638 -1.5058
 7828SOL    HW234947   0.368   4.069   3.687 -0.2578 -0.3510 -0.9128
 7829SOL     OW34948   1.927   2.354   7.475  0.0565 -0.5415 -0.0845
 7829SOL    HW134949   1.966   2.411   7.541 -2.3648 -0.9123  1.6362
 7829SOL    HW234950   2.004   2.304   7.449  0.2588  0.1263 -0.7834
 7830SOL     OW34951   2.032   0.654   3.188 -0.3451 -0.0605 -0.3219
 7830SOL    HW134952   2.038   0.743   3.222  0.3248 -0.8305  1.5412
 7830SOL    HW234953   1.998   0.679   3.102 -2.0631  0.5375  0.5446
 7831SOL     OW34954   3.797   2.976   8.458  0.2486  0.5016  0.3239
 7831SOL    HW134955   3.722   3.016   8.503  1.8308  1.4644  2.1267
 7831SOL    HW234956   3.864   3.037   8.488 -0.5437  0.3954  2.3362
 7832SOL     OW34957   2.249   3.050   6.281  0.1023  0.7530 -0.1098
 7832SOL    HW134958   2.314   2.997   6.235  1.4951  2.6307 -0.3112
 7832SOL    HW234959   2.180   3.057   6.215 -0.3542 -0.3179  0.2676
 7833SOL     OW34960   0.317   2.162   4.233 -0.1525  0.1514 -0.0125
 7833SOL    HW134961   0.347   2.189   4.320  1.9306 -0.5872 -0.5068
 7833SOL    HW234962   0.225   2.188   4.235 -0.8271 -2.1927  0.6167
 7834SOL     OW34963   2.582   0.109   5.511 -0.1404  0.2189 -0.1648
 7834SOL    HW134964   2.518   0.144   5.448  1.9089  1.5788 -1.4681
 7834SOL    HW234965   2.633   0.189   5.519 -0.3240  0.3838 -0.6084
 7835SOL     OW34966   1.017   2.079   6.897 -0.6453 -0.1504  0.0518
 7835SOL    HW134967   0.930   2.070   6.935 -0.9728 -0.3956 -0.7490
 7835SOL    HW234968   1.063   1.999   6.925  0.7297  0.8993  0.7747
 7836SOL     OW34969   2.659   0.216   4.195 -0.1161 -0.2499  0.3930
 7836SOL    HW134970   2.723   0.249   4.132 -2.0597 -0.6764 -1.8259
 7836SOL    HW234971   2.695   0.130   4.215 -1.8094 -0.7637  1.2453
 7837SOL     OW34972   1.534   3.811  17.004 -0.2007  0.1240  0.6249
 7837SOL    HW134973   1.606   3.862  16.966 -0.6365  1.1099  1.1333
 7837SOL    HW234974   1.497   3.877  17.062  0.5949  0.5707  0.6227
 7838SOL     OW34975   1.306   3.092   7.017 -0.6955  0.3532 -0.5415
 7838SOL    HW134976   1.240   3.078   6.949  0.9540 -0.4565 -1.9388
 7838SOL    HW234977   1.382   3.052   6.976 -1.2041 -1.6970  0.4958
 7839SOL     OW34978   4.373   1.550  16.358 -0.9076 -0.0424 -0.4937
 7839SOL    HW134979   4.297   1.538  16.416 -0.4669  2.1718  0.5618
 7839SOL    HW234980   4.401   1.636  16.390  1.5857 -0.2843 -2.0321
 7840SOL     OW34981   0.375   3.272   7.990  0.0831 -0.6578 -0.1893
 7840SOL    HW134982   0.346   3.245   8.077  0.4943 -1.3208 -0.2585
 7840SOL    HW234983   0.469   3.264   8.006  0.2268  0.8762 -0.2293
 7841SOL     OW34984   1.357   3.684   3.133 -0.0309 -0.2459 -0.1189
 7841SOL    HW134985   1.375   3.597   3.096  1.3038 -0.1610  0.3218
 7841SOL    HW234986   1.366   3.736   3.053  0.7169 -1.7630 -1.0350
 7842SOL     OW34987   0.696   3.192  12.773  0.0401 -0.0608  0.4127
 7842SOL    HW134988   0.777   3.146  12.748  0.0594  0.9535 -1.3833
 7842SOL    HW234989   0.701   3.286  12.754  1.7357  0.1706  1.9519
 7843SOL     OW34990   3.005   4.092   4.603 -0.0388 -0.6289  0.2960
 7843SOL    HW134991   3.043   4.004   4.609  1.2384 -0.1912 -1.4038
 7843SOL    HW234992   2.981   4.098   4.695  1.2129 -1.0261  0.6505
 7844SOL     OW34993   1.102   0.103   3.839 -0.2402 -0.2808  0.1658
 7844SOL    HW134994   1.093   0.169   3.770 -1.2167 -0.0524  0.5112
 7844SOL    HW234995   1.088   0.019   3.797  0.1339 -0.1633 -0.1897
 7845SOL     OW34996   0.757   0.534  13.681  0.4085  0.1802  0.2219
 7845SOL    HW134997   0.674   0.512  13.724  0.8937  2.5821  2.3496
 7845SOL    HW234998   0.821   0.474  13.719  1.8863  1.2696 -0.5660
 7846SOL     OW34999   0.808   1.538   7.058  0.5539 -0.7669 -0.0180
 7846SOL    HW135000   0.821   1.447   7.031 -0.9106 -1.1893  0.7451
 7846SOL    HW235001   0.858   1.538   7.140  0.7798  1.0416 -0.1375
 7847SOL     OW35002   3.714   4.696   5.108  0.0257 -0.5329  0.6223
 7847SOL    HW135003   3.653   4.670   5.040 -0.6490 -0.8670  1.3652
 7847SOL    HW235004   3.770   4.619   5.111  0.8577  0.0343 -0.4365
 7848SOL     OW35005   4.513   2.503   4.750  0.7787  0.1608 -0.7015
 7848SOL    HW135006   4.419   2.503   4.764  0.9933 -0.2944  0.7365
 7848SOL    HW235007   4.527   2.545   4.665 -0.3541 -0.5188 -1.2092
 7849SOL     OW35008   0.967   0.859   1.235 -0.0206  0.0801 -0.1687
 7849SOL    HW135009   1.002   0.776   1.203  0.4943  0.6063 -0.9689
 7849SOL    HW235010   1.042   0.905   1.273  0.5009 -0.3084 -0.7398
 7850SOL     OW35011   1.207   4.503   4.696  0.6310 -0.4477 -0.5673
 7850SOL    HW135012   1.192   4.594   4.718 -0.0921 -0.7576  0.2194
 7850SOL    HW235013   1.273   4.524   4.629  0.3359  0.0794 -0.6904
 7851SOL     OW35014   1.445   1.745  15.792 -0.5283  0.2101 -0.0977
 7851SOL    HW135015   1.504   1.736  15.717 -2.7749 -0.7374 -1.7572
 7851SOL    HW235016   1.440   1.655  15.824  0.0866  0.6117  1.1197
 7852SOL     OW35017   3.230   3.078   4.316 -0.4994 -0.5774  0.0646
 7852SOL    HW135018   3.231   3.123   4.232  0.0189  0.5814  0.6963
 7852SOL    HW235019   3.163   3.124   4.366 -2.1580  0.2446 -2.9298
 7853SOL     OW35020   3.613   1.315  11.347 -0.0386 -0.1336  0.0391
 7853SOL    HW135021   3.575   1.309  11.435  2.1906 -1.7676  0.8649
 7853SOL    HW235022   3.699   1.274  11.356 -0.0402 -0.4340 -1.2977
 7854SOL     OW35023   3.517   4.235   3.716 -0.3286  0.0367 -0.5953
 7854SOL    HW135024   3.494   4.293   3.788 -0.3444  0.5344 -0.9981
 7854SOL    HW235025   3.439   4.236   3.661 -0.8389  0.7600  0.1522
 7855SOL     OW35026   1.184   1.738  11.181 -0.1478 -0.7329 -0.4397
 7855SOL    HW135027   1.132   1.818  11.172  1.0184 -0.0834 -1.4279
 7855SOL    HW235028   1.244   1.760  11.252 -2.2357  0.7891  0.8346
 7856SOL     OW35029   0.076   3.523  15.595  0.0109  0.2867 -0.2260
 7856SOL    HW135030   0.090   3.492  15.506 -1.7279  4.4854 -1.9873
 7856SOL    HW235031   0.057   3.441  15.640 -0.5537  1.8301  2.3610
 7857SOL     OW35032   2.867   4.618   4.477 -0.1860  0.4474  0.7215
 7857SOL    HW135033   2.779   4.583   4.463 -0.3289  0.5890  1.2427
 7857SOL    HW235034   2.876   4.621   4.573 -1.6829  0.2790  0.8639
 7858SOL     OW35035   3.286   0.678   1.583 -0.1379 -0.1032  0.1946
 7858SOL    HW135036   3.256   0.599   1.628  0.9124 -1.0326 -0.7294
 7858SOL    HW235037   3.306   0.747   1.646  0.3220 -0.6222  0.6194
 7859SOL     OW35038   1.046   0.734   8.790 -0.5100  0.3254  0.0746
 7859SOL    HW135039   0.986   0.805   8.812 -1.7589 -0.6576 -0.1694
 7859SOL    HW235040   0.998   0.659   8.825  1.6725 -0.3347  1.6602
 7860SOL     OW35041   0.482   3.914   2.754  0.4429 -0.1012 -0.2364
 7860SOL    HW135042   0.458   3.905   2.662  0.1065  1.8545 -0.3401
 7860SOL    HW235043   0.575   3.939   2.749  0.4222  0.2769  1.0499
 7861SOL     OW35044   4.172   3.229  13.299  0.1661  0.5624  0.2055
 7861SOL    HW135045   4.078   3.211  13.307  0.0150  1.0848 -0.4578
 7861SOL    HW235046   4.164   3.272  13.214  1.4987  0.8497  0.2218
 7862SOL     OW35047   2.195   0.348   8.110 -0.2901 -0.1533 -0.0756
 7862SOL    HW135048   2.236   0.414   8.054 -2.6521 -0.6044 -2.3538
 7862SOL    HW235049   2.267   0.327   8.170 -1.6681  0.4939  1.8075
 7863SOL     OW35050   2.852   4.423   2.898  0.1191  0.1308 -0.0919
 7863SOL    HW135051   2.811   4.453   2.817 -1.6999  1.3348  1.2540
 7863SOL    HW235052   2.881   4.509   2.927  3.0089 -0.3258 -1.6569
 7864SOL     OW35053   2.321   4.166   8.422  0.2603  0.1320 -0.4166
 7864SOL    HW135054   2.354   4.086   8.382 -3.1935 -0.8467 -1.2949
 7864SOL    HW235055   2.369   4.150   8.503 -0.2392  2.0430  0.2482
 7865SOL     OW35056   3.328   1.320   7.822  0.1582 -0.2147  0.3935
 7865SOL    HW135057   3.359   1.309   7.731 -1.0397 -0.9268  0.0792
 7865SOL    HW235058   3.406   1.282   7.861 -1.5242 -2.1287  1.8510
 7866SOL     OW35059   1.166   4.601   7.480 -0.0157 -0.0557  0.3205
 7866SOL    HW135060   1.236   4.567   7.535  1.6019  0.7757 -1.2039
 7866SOL    HW235061   1.094   4.605   7.543 -0.7309 -2.6232 -0.3306
 7867SOL     OW35062   1.210   2.609   6.969 -0.4623  0.2187 -0.2248
 7867SOL    HW135063   1.276   2.580   7.032 -1.3885 -1.9707 -0.2640
 7867SOL    HW235064   1.162   2.683   7.006  1.0928  2.3471 -2.4815
 7868SOL     OW35065   3.306   4.504  10.781 -0.2741 -0.0262  0.1731
 7868SOL    HW135066   3.258   4.542  10.707  1.9158  0.3853 -1.0426
 7868SOL    HW235067   3.290   4.564  10.854 -0.2240  0.2894 -0.0734
 7869SOL     OW35068   1.875   0.620   5.800 -0.0742  0.0777 -0.2704
 7869SOL    HW135069   1.951   0.678   5.806 -0.8874  1.2848 -1.5224
 7869SOL    HW235070   1.887   0.555   5.869 -0.9124  0.5882  0.3472
 7870SOL     OW35071   3.196   2.561   8.312  0.2242  0.1168  0.1147
 7870SOL    HW135072   3.274   2.617   8.316 -1.1975  2.1250 -0.2910
 7870SOL    HW235073   3.141   2.617   8.367 -2.9238 -2.5675 -0.2720
 7871SOL     OW35074   1.496   0.926   7.019 -0.3415  0.4470  0.0160
 7871SOL    HW135075   1.461   0.841   7.046  0.2736  0.3767  0.6063
 7871SOL    HW235076   1.487   0.972   7.103 -1.4824 -0.3895  0.3548
 7872SOL     OW35077   1.490   3.174   7.444 -0.2861 -0.3306 -0.1774
 7872SOL    HW135078   1.526   3.249   7.397  2.8985 -1.5648  0.2766
 7872SOL    HW235079   1.534   3.108   7.390 -1.8975  0.1562 -2.0593
 7873SOL     OW35080   0.601   4.348   8.443 -0.2062  0.1158 -0.4475
 7873SOL    HW135081   0.603   4.435   8.482  0.4371 -0.4166  0.7456
 7873SOL    HW235082   0.525   4.356   8.385  0.0542  1.1057 -0.6490
 7874SOL     OW35083   1.624   2.076   2.575 -0.2854  0.1158 -0.8467
 7874SOL    HW135084   1.708   2.045   2.541 -0.3274 -1.2139  0.2851
 7874SOL    HW235085   1.581   1.992   2.585  1.3435 -0.4919  0.8525
 7875SOL     OW35086   0.691   3.470  12.694 -0.8392 -0.5686 -0.2705
 7875SOL    HW135087   0.778   3.510  12.691 -1.5100  0.9421  0.7337
 7875SOL    HW235088   0.637   3.546  12.715  0.1279  0.4625 -1.5615
 7876SOL     OW35089   4.533   0.055   1.730 -0.0721  0.0323  0.2728
 7876SOL    HW135090   4.507   4.689   1.754 -1.7315  0.6235  0.6393
 7876SOL    HW235091   4.598   0.035   1.662 -2.9217  0.7424 -2.6259
 7877SOL     OW35092   0.795   2.288   2.358 -0.1824  0.7143 -0.0055
 7877SOL    HW135093   0.756   2.361   2.309  1.1989  1.1087 -0.4953
 7877SOL    HW235094   0.750   2.299   2.442  1.2895 -0.8221  0.9813
 7878SOL     OW35095   0.230   1.656   5.659  0.1632 -0.3271  0.1127
 7878SOL    HW135096   0.217   1.664   5.753 -0.0755  1.0034 -0.0202
 7878SOL    HW235097   0.233   1.561   5.650 -0.2396 -0.2222 -1.1693
 7879SOL     OW35098   0.034   1.692   3.125  0.1225 -0.3093  0.5862
 7879SOL    HW135099   0.123   1.674   3.094 -1.1243 -1.6531 -2.2488
 7879SOL    HW235100   0.044   1.710   3.218 -1.8274 -0.1463  0.7634
 7880SOL     OW35101   2.534   3.259  14.517 -0.1389 -0.1338  0.0602
 7880SOL    HW135102   2.470   3.203  14.474 -1.1080  0.7400  0.3704
 7880SOL    HW235103   2.522   3.244  14.611  2.0636 -1.7183  0.0798
 7881SOL     OW35104   4.539   3.091   4.271 -0.4259 -0.3824  0.2945
 7881SOL    HW135105   4.539   3.135   4.186  1.6307 -0.8489  0.0577
 7881SOL    HW235106   4.451   3.105   4.306 -0.3386 -1.6801  1.0051
 7882SOL     OW35107   3.770   3.312  14.647  0.3393 -0.1276 -0.3879
 7882SOL    HW135108   3.764   3.217  14.657  1.6845 -0.3142 -1.3099
 7882SOL    HW235109   3.804   3.309  14.557 -0.6198  3.5220 -0.8610
 7883SOL     OW35110   0.207   3.141   4.514  0.2622  0.3346  0.2186
 7883SOL    HW135111   0.238   3.227   4.482  5.0613 -1.7212 -0.7047
 7883SOL    HW235112   0.170   3.103   4.434  0.7769  0.3706 -0.0427
 7884SOL     OW35113   4.395   1.898   5.444 -0.4052 -0.0944  0.2781
 7884SOL    HW135114   4.399   1.855   5.529 -2.6669 -0.8041  0.0206
 7884SOL    HW235115   4.471   1.956   5.441 -1.1869  0.9625  0.9289
 7885SOL     OW35116   0.341   2.041   3.990 -0.3473  0.3323  1.0263
 7885SOL    HW135117   0.254   2.062   3.959  0.2566 -1.6471 -1.9658
 7885SOL    HW235118   0.342   2.070   4.081 -1.9255  0.6365  0.9425
 7886SOL     OW35119   2.398   0.898  11.550  0.7635  0.6303 -0.5458
 7886SOL    HW135120   2.303   0.904  11.566  0.7964 -2.6686  0.8831
 7886SOL    HW235121   2.407   0.815  11.598 -0.4135  1.0443  0.3982
 7887SOL     OW35122   2.152   3.078  12.057 -0.8207  0.0871  0.0506
 7887SOL    HW135123   2.087   3.060  11.990 -1.4379  0.4270  0.5547
 7887SOL    HW235124   2.232   3.055  12.010 -1.0643  0.5721 -0.6098
 7888SOL     OW35125   0.858   2.845   9.071 -0.1343  0.0371  0.3989
 7888SOL    HW135126   0.806   2.861   9.150  0.4757  0.6388  0.6807
 7888SOL    HW235127   0.811   2.775   9.026 -0.2232  1.7582 -2.1298
 7889SOL     OW35128   1.799   4.397   6.209  0.4159 -0.1130 -0.1613
 7889SOL    HW135129   1.817   4.488   6.183 -0.5527  0.8124  2.3246
 7889SOL    HW235130   1.854   4.345   6.151 -0.5229 -1.1287 -0.1454
 7890SOL     OW35131   4.429   3.732   8.316 -0.8201 -0.4611 -0.1821
 7890SOL    HW135132   4.427   3.827   8.318  3.6473 -0.3843  0.0201
 7890SOL    HW235133   4.471   3.720   8.401 -0.0480 -2.1873 -0.8117
 7891SOL     OW35134   0.705   1.510   6.293  0.1257 -0.4028  0.4318
 7891SOL    HW135135   0.710   1.566   6.216  0.0318 -1.0128 -0.0163
 7891SOL    HW235136   0.772   1.443   6.275 -0.0977 -0.7036  0.7129
 7892SOL     OW35137   2.372   2.284  17.230  0.3272 -0.0938 -0.0744
 7892SOL    HW135138   2.356   2.376  17.211  1.1290  0.4162  1.6983
 7892SOL    HW235139   2.455   2.288  17.182 -0.5438 -0.1611 -1.5669
 7893SOL     OW35140   3.957   0.319   3.219 -0.6720 -0.0981  0.4483
 7893SOL    HW135141   4.044   0.305   3.257  0.9328  1.2168 -2.7100
 7893SOL    HW235142   3.985   0.367   3.141 -1.5689  1.0389  0.8325
 7894SOL     OW35143   2.984   4.024   8.667 -0.0019  0.2992 -0.4258
 7894SOL    HW135144   2.947   4.109   8.645 -0.2788  0.4171  0.4683
 7894SOL    HW235145   2.932   4.005   8.745 -0.2680  0.2321 -0.6180
 7895SOL     OW35146   4.077   1.220  17.068  0.1858 -0.1899  0.1745
 7895SOL    HW135147   4.142   1.207  16.999  0.5036  0.4370  0.3498
 7895SOL    HW235148   4.081   1.313  17.088  1.9172 -0.0014 -1.0291
 7896SOL     OW35149   3.761   3.966   3.551 -0.6497  0.2561  0.1896
 7896SOL    HW135150   3.846   3.937   3.585 -1.0139 -1.5604 -0.4842
 7896SOL    HW235151   3.759   3.946   3.457  0.1545  0.6987  0.0803
 7897SOL     OW35152   2.719   0.539   8.631  0.6185  0.7782 -0.3785
 7897SOL    HW135153   2.682   0.625   8.610 -0.6151 -0.4664 -3.1458
 7897SOL    HW235154   2.658   0.507   8.697  1.7135 -1.6253 -0.5384
 7898SOL     OW35155   0.772   1.688   2.405  0.1618  0.0115  0.3321
 7898SOL    HW135156   0.730   1.672   2.321 -0.6589 -1.1615  0.9577
 7898SOL    HW235157   0.851   1.635   2.399  0.2007 -0.0685  1.4329
 7899SOL     OW35158   4.135   3.907   1.102  0.0223 -0.5966  0.5067
 7899SOL    HW135159   4.210   3.875   1.152  0.6098  0.6874  0.4578
 7899SOL    HW235160   4.160   3.996   1.079 -2.5175  0.1268  0.5767
 7900SOL     OW35161   2.158   1.223   5.332  0.2939  0.2084 -0.3415
 7900SOL    HW135162   2.087   1.244   5.392  0.2617  1.3736 -0.7913
 7900SOL    HW235163   2.236   1.231   5.387 -0.5950  1.2432  0.7812
 7901SOL     OW35164   0.566   3.589  16.116  0.4126 -0.0122 -0.0802
 7901SOL    HW135165   0.490   3.645  16.132  0.2173 -0.7804  1.7274
 7901SOL    HW235166   0.518   3.517  16.076  1.3479 -0.6705 -0.0384
 7902SOL     OW35167   2.858   1.858  12.313  0.5038  0.0184 -0.3136
 7902SOL    HW135168   2.919   1.864  12.386 -2.7171  1.5401  2.2188
 7902SOL    HW235169   2.857   1.946  12.277  0.1702  0.1877  0.1086
 7903SOL     OW35170   3.967   3.438   9.065  0.0247  0.5141 -0.2621
 7903SOL    HW135171   4.028   3.409   8.997  0.5067 -0.8259  0.7437
 7903SOL    HW235172   3.895   3.376   9.056 -0.7103  1.1743  1.0460
 7904SOL     OW35173   0.039   0.267   3.435  0.6251 -0.1627 -0.0345
 7904SOL    HW135174   0.054   0.174   3.448 -2.0203 -0.4325  0.9821
 7904SOL    HW235175   0.040   0.269   3.339 -1.6491 -0.4439 -0.0636
 7905SOL     OW35176   2.957   4.072   4.067 -0.1446  0.2378  0.3503
 7905SOL    HW135177   2.866   4.065   4.037 -0.3395  3.5007  0.2021
 7905SOL    HW235178   3.006   4.027   3.998 -2.0724 -1.8584  0.3410
 7906SOL     OW35179   2.408   4.015  15.557  0.2047 -0.2769 -0.2075
 7906SOL    HW135180   2.501   4.031  15.572  0.1710 -1.9917  1.8301
 7906SOL    HW235181   2.403   4.014  15.461 -1.7965 -2.7771 -0.0631
 7907SOL     OW35182   4.007   0.318  12.984 -0.1411 -0.4123  0.1300
 7907SOL    HW135183   3.931   0.336  13.040 -1.3890 -1.0955 -1.3541
 7907SOL    HW235184   3.981   0.232  12.953  1.5596 -0.7799 -0.2768
 7908SOL     OW35185   0.253   3.038   5.656  0.5591  0.0257  0.2153
 7908SOL    HW135186   0.233   2.945   5.650  0.7488 -0.1155  1.8095
 7908SOL    HW235187   0.182   3.071   5.600 -1.3671 -2.5121  1.1500
 7909SOL     OW35188   3.082   3.887   3.873 -0.2631  0.5238 -0.0792
 7909SOL    HW135189   3.051   3.796   3.868 -0.9164  0.7391  0.0701
 7909SOL    HW235190   3.156   3.875   3.812 -0.8785  0.9471 -0.8991
 7910SOL     OW35191   2.567   4.185   7.849  0.1739  0.6894  0.2107
 7910SOL    HW135192   2.652   4.140   7.852 -0.5750 -0.7034  0.4374
 7910SOL    HW235193   2.520   4.107   7.818  0.1874  0.6676  0.2453
 7911SOL     OW35194   3.269   1.297   3.767 -0.5926  0.7276 -0.2439
 7911SOL    HW135195   3.245   1.210   3.735 -0.1068  1.1867 -1.8693
 7911SOL    HW235196   3.281   1.339   3.682  3.4482  0.5011  0.2327
 7912SOL     OW35197   0.747   4.683   5.739 -0.5141 -0.3737  0.1356
 7912SOL    HW135198   0.712   0.025   5.800  1.2929  0.5848  0.1357
 7912SOL    HW235199   0.816   4.655   5.800  0.0573  1.4556  0.3429
 7913SOL     OW35200   1.199   3.505   8.605  0.3722 -0.0453  0.2427
 7913SOL    HW135201   1.138   3.475   8.538 -0.1361  2.4430 -0.4237
 7913SOL    HW235202   1.150   3.582   8.631 -1.1376 -0.1722 -2.2119
 7914SOL     OW35203   3.934   4.034  12.151  0.4906  0.6027  0.0202
 7914SOL    HW135204   3.936   4.127  12.174 -1.7156  0.6667 -0.0747
 7914SOL    HW235205   4.027   4.026  12.170  0.6378 -1.1979 -1.5449
 7915SOL     OW35206   1.334   2.896   9.334  0.0148 -0.2111 -0.0283
 7915SOL    HW135207   1.424   2.928   9.332  0.3332 -1.2060 -1.6301
 7915SOL    HW235208   1.277   2.963   9.296  0.8037 -1.1120 -2.8614
 7916SOL     OW35209   3.653   3.518   0.644  0.0022  0.4793  0.1939
 7916SOL    HW135210   3.574   3.509   0.698 -1.2412  2.2391 -1.3481
 7916SOL    HW235211   3.631   3.444   0.588  0.2085 -0.3914  1.2389
 7917SOL     OW35212   0.625   1.576  11.458 -0.2002 -0.2378  0.2740
 7917SOL    HW135213   0.665   1.601  11.542 -2.3348 -0.3629  1.3169
 7917SOL    HW235214   0.662   1.489  11.444  1.8140  0.8508 -1.1775
 7918SOL     OW35215   4.670   0.072   6.860  0.0516  0.1227 -0.1936
 7918SOL    HW135216   4.644   0.164   6.851 -0.1267 -0.0007 -0.9777
 7918SOL    HW235217   4.619   0.039   6.934  0.0264  1.0920  0.2192
 7919SOL     OW35218   2.465   3.492   3.150  0.9247 -0.0560 -0.2216
 7919SOL    HW135219   2.460   3.425   3.081  3.2284 -0.2880 -0.1659
 7919SOL    HW235220   2.408   3.451   3.215 -1.0246  0.9705 -1.2761
 7920SOL     OW35221   2.278   2.543   1.369 -0.1607  0.2598 -0.1027
 7920SOL    HW135222   2.239   2.625   1.400 -2.3691  0.2458 -2.8957
 7920SOL    HW235223   2.264   2.543   1.275  2.5923 -2.1724 -0.5312
 7921SOL     OW35224   4.106   0.787  16.617 -0.2125  0.6517  0.1335
 7921SOL    HW135225   4.117   0.730  16.694  0.5225  1.3682  0.5624
 7921SOL    HW235226   4.024   0.831  16.638  0.3969  2.0777 -0.5124
 7922SOL     OW35227   2.826   3.086   2.681 -0.2703  0.0278  0.9166
 7922SOL    HW135228   2.849   3.113   2.770 -2.5037  2.0970  0.8524
 7922SOL    HW235229   2.853   3.158   2.624 -1.2968 -1.2091 -1.1100
 7923SOL     OW35230   4.039   3.688  17.421 -0.2551  0.6586  0.1114
 7923SOL    HW135231   4.035   3.757  17.488 -4.5398  0.2410  0.3123
 7923SOL    HW235232   4.130   3.694  17.392 -0.5540  2.6010 -0.4310
 7924SOL     OW35233   3.908   0.388   4.941  0.1362  0.2801 -0.4615
 7924SOL    HW135234   3.823   0.345   4.954  0.9334 -0.6278  1.7757
 7924SOL    HW235235   3.958   0.349   5.012 -1.1083 -1.4082 -0.4977
 7925SOL     OW35236   3.497   2.988  13.277 -0.0249  0.3312 -0.6231
 7925SOL    HW135237   3.479   2.944  13.360  1.3978 -2.3175 -1.7049
 7925SOL    HW235238   3.571   2.937  13.245 -1.7768 -0.7515 -3.0362
 7926SOL     OW35239   0.642   4.698   9.423 -0.1644  0.4875  0.1818
 7926SOL    HW135240   0.646   4.650   9.506  0.5881 -0.4128 -0.3752
 7926SOL    HW235241   0.590   0.050   9.451  0.7194  1.3031 -0.3945
 7927SOL     OW35242   0.017   0.746   3.593  0.4741  0.2156  0.3980
 7927SOL    HW135243   0.093   0.771   3.541  0.4960 -0.0678  0.2935
 7927SOL    HW235244   0.030   0.806   3.666 -0.3548 -1.1622  1.6641
 7928SOL     OW35245   0.858   2.730   5.310 -0.0626 -0.1756 -0.3888
 7928SOL    HW135246   0.950   2.746   5.330  0.0203 -0.5578 -0.4574
 7928SOL    HW235247   0.832   2.715   5.401 -0.6277 -0.1817 -0.5534
 7929SOL     OW35248   0.629   0.095   6.402 -0.5307  0.4493  0.2039
 7929SOL    HW135249   0.548   0.141   6.379 -0.3387  1.2396  1.1605
 7929SOL    HW235250   0.670   0.157   6.462  1.0697  0.9424 -1.3943
 7930SOL     OW35251   0.686   2.216   7.496  0.2199  0.5002 -0.2940
 7930SOL    HW135252   0.654   2.126   7.500  0.0880  0.5356 -0.5373
 7930SOL    HW235253   0.725   2.239   7.581  2.0604 -1.3710 -0.6261
 7931SOL     OW35254   3.474   4.368   5.741 -0.2378 -0.2361  0.4383
 7931SOL    HW135255   3.384   4.349   5.714  0.0157 -0.4499 -0.2479
 7931SOL    HW235256   3.477   4.454   5.782  0.1879 -0.2873  0.5106
 7932SOL     OW35257   1.700   0.446  11.000  0.4090 -0.3118  0.1800
 7932SOL    HW135258   1.771   0.456  11.062  0.1934  0.2336  0.3355
 7932SOL    HW235259   1.711   0.357  10.965  1.1041  0.7714 -2.3920
 7933SOL     OW35260   4.182   2.657   8.360  0.6436 -0.3346  0.0379
 7933SOL    HW135261   4.250   2.674   8.295  2.3182 -0.4170  1.7588
 7933SOL    HW235262   4.111   2.708   8.320  0.3120 -0.5480  0.3475
 7934SOL     OW35263   4.321   1.341  17.018 -0.1499 -0.0081  0.2661
 7934SOL    HW135264   4.392   1.405  17.015 -1.0696  0.9477 -1.0071
 7934SOL    HW235265   4.360   1.284  17.084 -1.8867 -0.5045  0.8702
 7935SOL     OW35266   4.388   2.194  13.322  0.2276 -0.2221  0.0176
 7935SOL    HW135267   4.303   2.229  13.351  0.4618  1.0322 -0.8278
 7935SOL    HW235268   4.393   2.226  13.232  0.3626 -2.0353 -0.6365
 7936SOL     OW35269   1.748   0.508   9.006 -0.2193 -0.1427  0.0556
 7936SOL    HW135270   1.686   0.582   9.007  0.8705  0.7548  1.0772
 7936SOL    HW235271   1.693   0.438   9.041  0.9756 -1.8815 -1.5768
 7937SOL     OW35272   3.809   1.608   6.077  0.3216 -0.0802 -0.2512
 7937SOL    HW135273   3.831   1.543   6.010  2.2627 -1.4324  1.6591
 7937SOL    HW235274   3.896   1.627   6.112 -0.8236  1.2390  1.8722
 7938SOL     OW35275   2.676   4.347   8.456  0.2901 -0.4194  0.4941
 7938SOL    HW135276   2.678   4.287   8.381  1.3197 -0.5442  0.6193
 7938SOL    HW235277   2.675   4.424   8.399  0.4603 -0.4526  0.4466
 7939SOL     OW35278   0.774   3.570   5.129 -0.2129 -0.2474  0.7665
 7939SOL    HW135279   0.861   3.534   5.142 -0.1815 -0.2900  0.4276
 7939SOL    HW235280   0.729   3.513   5.067  0.6104 -0.1188  0.0596
 7940SOL     OW35281   4.152   3.841  13.034 -0.0011  0.0070 -0.9937
 7940SOL    HW135282   4.148   3.937  13.033  0.6528  0.0474  2.0414
 7940SOL    HW235283   4.101   3.832  13.114  0.5346  1.3043 -0.4977
 7941SOL     OW35284   4.513   2.204   6.298 -0.0164 -0.2863 -0.2497
 7941SOL    HW135285   4.496   2.229   6.207  1.0658 -0.0034 -0.3782
 7941SOL    HW235286   4.525   2.110   6.284  1.5906 -0.2289  0.7678
 7942SOL     OW35287   4.003   1.912   4.157 -0.0090 -0.1846  0.0681
 7942SOL    HW135288   3.947   1.971   4.207 -0.3338 -0.1317 -0.3550
 7942SOL    HW235289   4.074   1.898   4.219 -0.5864  1.1666  1.0392
 7943SOL     OW35290   0.030   1.642   8.540 -0.1451 -0.6385 -0.3907
 7943SOL    HW135291   0.007   1.643   8.633 -0.9185  1.5587 -0.5809
 7943SOL    HW235292   0.001   1.731   8.520  0.6821 -0.2199  0.2703
 7944SOL     OW35293   3.226   0.453  14.162 -0.0410  0.1277 -0.4820
 7944SOL    HW135294   3.309   0.479  14.201  0.9630 -1.8647 -1.2787
 7944SOL    HW235295   3.217   0.384  14.227  2.2154 -1.6238 -1.9792
 7945SOL     OW35296   1.415   2.780   8.070  0.0843 -0.5810 -0.0805
 7945SOL    HW135297   1.477   2.850   8.090 -0.6855 -0.1370  0.7716
 7945SOL    HW235298   1.393   2.736   8.152 -0.9184  0.4371  0.2048
 7946SOL     OW35299   2.770   3.150   3.571  0.2815 -0.2399 -0.2881
 7946SOL    HW135300   2.747   3.162   3.479 -0.9028  1.4220  0.2207
 7946SOL    HW235301   2.692   3.184   3.615  0.2109  0.5800 -1.0590
 7947SOL     OW35302   0.754   3.902   3.528 -0.2728  0.0700  0.0514
 7947SOL    HW135303   0.741   3.960   3.603 -2.2808  1.3234 -1.2462
 7947SOL    HW235304   0.798   3.961   3.467 -0.6142  1.9890  1.6703
 7948SOL     OW35305   1.091   0.501  14.447 -0.3086 -0.6961  0.6543
 7948SOL    HW135306   1.005   0.464  14.468 -0.7989 -0.1882 -0.4519
 7948SOL    HW235307   1.077   0.595  14.455  1.2818 -0.2505 -1.6052
 7949SOL     OW35308   4.177   2.394   3.720 -0.0822 -0.0478 -0.3418
 7949SOL    HW135309   4.163   2.433   3.634 -0.3526  1.8534  0.5689
 7949SOL    HW235310   4.120   2.317   3.714  1.9482 -1.5456 -0.1178
 7950SOL     OW35311   4.357   0.213   1.362  0.0731  0.4331 -0.0508
 7950SOL    HW135312   4.435   0.249   1.404 -0.8405  0.0350  2.0000
 7950SOL    HW235313   4.287   0.240   1.421  1.0128  0.0561  1.2354
 7951SOL     OW35314   1.377   0.684   6.224  0.1209 -0.1651 -0.2602
 7951SOL    HW135315   1.391   0.618   6.156  2.2966  1.0203 -0.9722
 7951SOL    HW235316   1.409   0.767   6.188 -1.0047  0.3258 -0.1557
 7952SOL     OW35317   0.682   2.866   2.305  0.1335 -0.1506 -0.2660
 7952SOL    HW135318   0.729   2.869   2.389  1.8680 -1.8897 -1.1926
 7952SOL    HW235319   0.743   2.915   2.250  1.5505 -0.8844  0.6594
 7953SOL     OW35320   3.628   0.686   6.655  0.5222 -0.2217 -0.2148
 7953SOL    HW135321   3.600   0.674   6.746 -1.3262  0.1609 -0.7461
 7953SOL    HW235322   3.676   0.604   6.648 -0.2585 -0.5738 -1.3520
 7954SOL     OW35323   3.820   1.913  13.201  0.3010  0.2871  0.1943
 7954SOL    HW135324   3.826   1.818  13.195 -0.5919  0.3827 -1.9541
 7954SOL    HW235325   3.914   1.928  13.211  0.8508 -2.5035 -0.8931
 7955SOL     OW35326   3.733   3.814   0.750  0.1328  0.4805 -0.5236
 7955SOL    HW135327   3.782   3.896   0.759 -0.1779  0.7677 -1.4404
 7955SOL    HW235328   3.714   3.788   0.840 -0.6823 -1.0230 -1.1330
 7956SOL     OW35329   3.176   0.999  11.000  0.3679 -0.1629  0.3533
 7956SOL    HW135330   3.081   1.008  11.014  0.2301 -0.4219 -0.4315
 7956SOL    HW235331   3.190   1.086  10.964 -0.8002 -0.2160 -0.2462
 7957SOL     OW35332   3.559   0.207   2.635 -0.0186 -0.2761 -0.6546
 7957SOL    HW135333   3.612   0.137   2.597  2.7539  0.3900  2.0091
 7957SOL    HW235334   3.618   0.281   2.646  0.0818 -0.1936 -1.8452
 7958SOL     OW35335   0.289   1.195   9.294  0.0401  0.2915  0.4955
 7958SOL    HW135336   0.236   1.251   9.350 -1.0074  1.9650 -2.1388
 7958SOL    HW235337   0.377   1.202   9.330  0.3743 -2.1155  0.1327
 7959SOL     OW35338   4.567   3.811   2.625  0.4885  0.1686  0.0770
 7959SOL    HW135339   4.631   3.790   2.693  0.1148  0.8407  0.6297
 7959SOL    HW235340   4.622   3.819   2.547  0.7046 -1.1766  0.0953
 7960SOL     OW35341   2.061   2.966   5.057 -0.2523  0.3261 -0.4165
 7960SOL    HW135342   1.967   2.977   5.075 -0.1604  2.5294 -1.3040
 7960SOL    HW235343   2.086   3.057   5.042 -0.3615  0.3543 -0.4265
 7961SOL     OW35344   1.084   1.178   7.825 -0.1566  0.5570  0.1859
 7961SOL    HW135345   1.026   1.180   7.901 -1.0494 -2.6107 -0.4311
 7961SOL    HW235346   1.041   1.109   7.775  0.7404  1.3279 -1.6316
 7962SOL     OW35347   2.966   4.614   8.078  0.4143  1.1087  0.0280
 7962SOL    HW135348   3.046   4.567   8.055 -1.0381 -2.1480  1.6862
 7962SOL    HW235349   2.999   4.704   8.070  1.5423  0.6923  0.0925
 7963SOL     OW35350   4.697   2.613   2.496  0.5770 -0.4534 -0.6513
 7963SOL    HW135351   0.007   2.524   2.483 -0.6647 -0.9236 -0.6370
 7963SOL    HW235352   0.056   2.658   2.511  0.7967 -1.3237  0.7428
 7964SOL     OW35353   4.664   0.415   7.145  0.8544 -0.3282 -0.0054
 7964SOL    HW135354   4.650   0.482   7.212 -1.1579  0.3349 -1.0632
 7964SOL    HW235355   4.700   0.462   7.070  0.1698 -0.5527 -0.4755
 7965SOL     OW35356   2.113   3.078  11.239 -0.1573  0.5121  0.1736
 7965SOL    HW135357   2.184   3.096  11.300 -0.1457 -0.1222  0.3415
 7965SOL    HW235358   2.159   3.041  11.164 -2.2359 -1.1501 -0.2822
 7966SOL     OW35359   2.414   2.066   4.311 -0.2144  0.2650 -0.1088
 7966SOL    HW135360   2.379   2.128   4.248 -2.7220 -0.2438  0.8109
 7966SOL    HW235361   2.468   2.010   4.254 -0.0383 -1.2376  1.5130
 7967SOL     OW35362   1.403   2.168   3.405  0.2871  0.0315  0.5190
 7967SOL    HW135363   1.432   2.173   3.314 -1.0727 -0.8368  0.0424
 7967SOL    HW235364   1.474   2.202   3.459  0.2983 -0.0804  0.5744
 7968SOL     OW35365   4.575   1.353   5.735 -0.0623 -0.1231 -0.2969
 7968SOL    HW135366   4.660   1.346   5.691  0.9101  2.2387  1.2233
 7968SOL    HW235367   4.526   1.316   5.661 -0.2544 -2.3556  0.9449
 7969SOL     OW35368   0.722   2.855   8.359  0.5980  0.4833  0.7285
 7969SOL    HW135369   0.656   2.878   8.424 -0.4357  1.3058 -0.6174
 7969SOL    HW235370   0.741   2.767   8.392  2.6265  1.0430  1.0363
 7970SOL     OW35371   3.421   3.956  11.516 -0.5381 -0.5968 -0.2376
 7970SOL    HW135372   3.392   4.036  11.473 -1.2900 -0.6786  0.1104
 7970SOL    HW235373   3.509   3.978  11.547 -0.4856  1.1856 -1.6659
 7971SOL     OW35374   0.868   2.769   2.010 -1.0189 -0.1798 -0.1161
 7971SOL    HW135375   0.859   2.700   2.076 -1.2715 -0.1883 -0.1616
 7971SOL    HW235376   0.862   2.849   2.062  0.2372 -0.7037  0.8517
 7972SOL     OW35377   2.877   4.001   7.462  0.4429 -0.0782 -0.5210
 7972SOL    HW135378   2.908   4.062   7.529 -0.6686  0.1330 -0.1996
 7972SOL    HW235379   2.944   4.012   7.394  0.6965  0.2496 -0.2166
 7973SOL     OW35380   0.998   2.035   5.299  0.1956  0.9437  0.0180
 7973SOL    HW135381   1.067   1.973   5.319  0.2807  0.7520 -0.8915
 7973SOL    HW235382   1.054   2.107   5.327  0.3830  1.2924 -1.2418
 7974SOL     OW35383   0.568   0.304  14.454  0.1723 -0.3177  0.2370
 7974SOL    HW135384   0.571   0.225  14.508 -1.0640 -0.8720 -0.4808
 7974SOL    HW235385   0.475   0.326  14.458  0.6078  1.9202 -1.9699
 7975SOL     OW35386   1.594   4.402   5.518 -0.0794 -0.0898  0.0373
 7975SOL    HW135387   1.552   4.317   5.503 -2.5283  1.2474 -0.6643
 7975SOL    HW235388   1.538   4.441   5.585 -1.3372  0.0466 -1.1044
 7976SOL     OW35389   3.679   0.938   0.256 -0.3192  0.4843  0.0533
 7976SOL    HW135390   3.589   0.906   0.254  0.0097 -0.4696  0.2911
 7976SOL    HW235391   3.671   1.027   0.289  0.7510  1.2027 -1.6267
 7977SOL     OW35392   3.169   2.089   8.239 -0.4248 -0.3016  0.3330
 7977SOL    HW135393   3.176   2.174   8.195 -1.8779 -0.9635 -1.1872
 7977SOL    HW235394   3.133   2.033   8.170  2.3860 -0.9450 -0.5870
 7978SOL     OW35395   3.937   3.455   6.591  0.4148 -0.2351  0.1543
 7978SOL    HW135396   3.885   3.509   6.651  0.8025  1.0687 -0.6864
 7978SOL    HW235397   3.922   3.371   6.634  0.3698 -1.1722 -1.7189
 7979SOL     OW35398   1.537   2.544  17.414  0.0943 -0.2125 -0.4518
 7979SOL    HW135399   1.570   2.630  17.442  0.5649  0.0390 -1.7610
 7979SOL    HW235400   1.567   2.537  17.324 -1.3452 -0.9420 -0.8771
 7980SOL     OW35401   4.625   0.186   5.467 -0.2145  0.3205 -0.4222
 7980SOL    HW135402   4.585   0.105   5.437 -1.2678  0.1021  1.5662
 7980SOL    HW235403   4.699   0.149   5.516 -0.6263 -2.0931 -1.6466
 7981SOL     OW35404   0.696   0.899   3.018 -0.3745 -0.1210 -0.4714
 7981SOL    HW135405   0.699   0.811   2.979  0.9593  0.1991 -1.0608
 7981SOL    HW235406   0.659   0.951   2.947 -0.2769  1.6931  0.8085
 7982SOL     OW35407   4.675   3.240  12.388  0.4704  0.2729 -0.0763
 7982SOL    HW135408   0.024   3.266  12.446  1.0742 -1.7108  0.0652
 7982SOL    HW235409   4.650   3.157  12.428  1.5494 -1.0858 -2.2639
 7983SOL     OW35410   4.158   4.342   2.533 -0.0964  0.1113 -0.0005
 7983SOL    HW135411   4.127   4.267   2.482 -2.5280  0.4346  0.9840
 7983SOL    HW235412   4.094   4.346   2.604  1.3134  3.1881  1.0828
 7984SOL     OW35413   1.916   4.273   6.008  0.0997  0.0105 -0.5844
 7984SOL    HW135414   2.005   4.267   6.044 -0.7310  3.9842  2.1770
 7984SOL    HW235415   1.927   4.217   5.931  0.3498 -1.8706  0.8283
 7985SOL     OW35416   3.845   0.056   7.431  0.0427 -0.3468  0.5453
 7985SOL    HW135417   3.877   4.689   7.433 -0.9375 -0.6946  0.4654
 7985SOL    HW235418   3.891   0.090   7.508 -3.3899  3.1336  1.0224
 7986SOL     OW35419   1.710   4.497   3.880  0.2209  0.6108  0.4343
 7986SOL    HW135420   1.706   4.441   3.802 -0.4750  0.5597  0.5020
 7986SOL    HW235421   1.623   4.474   3.911  1.0865 -1.7881  1.1015
 7987SOL     OW35422   1.669   0.527   7.583 -0.0321 -0.3486  0.1090
 7987SOL    HW135423   1.699   0.437   7.592 -0.8909 -0.6227  0.2717
 7987SOL    HW235424   1.750   0.558   7.622 -1.1458  4.5788 -1.4802
 7988SOL     OW35425   1.607   0.980   4.031  0.2213  0.0872  0.7418
 7988SOL    HW135426   1.534   1.003   3.975  0.1792 -0.3118  0.6330
 7988SOL    HW235427   1.570   1.003   4.116 -0.5050  2.5198 -0.2462
 7989SOL     OW35428   0.925   4.331   8.666  0.3494  0.3421 -0.2709
 7989SOL    HW135429   0.941   4.401   8.603  0.6034 -0.0234 -0.6087
 7989SOL    HW235430   0.877   4.388   8.726  0.4831  1.6948 -1.4584
 7990SOL     OW35431   3.355   0.652   5.004  0.4302  0.4889  0.1558
 7990SOL    HW135432   3.279   0.705   5.028 -1.2686 -0.6302 -2.8399
 7990SOL    HW235433   3.356   0.599   5.084 -0.1052 -1.6007 -1.2405
 7991SOL     OW35434   2.714   0.119   0.723 -0.2437  0.3799  0.0930
 7991SOL    HW135435   2.679   0.198   0.681  0.8018 -0.0832 -1.6438
 7991SOL    HW235436   2.637   0.102   0.778 -0.9973 -1.0818 -1.4305
 7992SOL     OW35437   2.544   4.082  10.931 -0.8352  0.0068 -0.0009
 7992SOL    HW135438   2.574   4.038  10.851  1.8758  0.2269  0.9096
 7992SOL    HW235439   2.482   4.144  10.892 -1.6206 -0.2711  0.8183
 7993SOL     OW35440   4.386   4.688   5.226  0.0450  0.1823  0.6067
 7993SOL    HW135441   4.298   4.675   5.262  0.3622 -0.1516  1.2654
 7993SOL    HW235442   4.433   4.672   5.307 -0.7998  0.0255  1.0726
 7994SOL     OW35443   3.577   1.882   5.054  0.3673 -0.2994 -0.8495
 7994SOL    HW135444   3.643   1.882   4.985  1.0710  0.6730 -0.1676
 7994SOL    HW235445   3.532   1.808   5.012 -0.8343  0.2046 -0.4521
 7995SOL     OW35446   2.900   3.267   4.916  0.3431  0.0175  0.3290
 7995SOL    HW135447   2.943   3.302   4.995  3.0460 -1.2874 -0.5512
 7995SOL    HW235448   2.970   3.277   4.852 -0.1663 -0.2435 -0.2588
 7996SOL     OW35449   0.649   4.627  13.635  0.4592 -0.7377 -0.2187
 7996SOL    HW135450   0.735   4.617  13.594  1.1938  0.4927  1.0329
 7996SOL    HW235451   0.681   4.648  13.722  0.4008 -1.2017 -0.0845
 7997SOL     OW35452   3.586   2.728   7.416  0.2361 -0.6360 -0.5134
 7997SOL    HW135453   3.597   2.815   7.377 -1.6148  0.6030  1.7482
 7997SOL    HW235454   3.593   2.767   7.503 -0.3533 -1.3764 -0.1346
 7998SOL     OW35455   4.032   0.888   3.157  0.4065  0.2000 -0.6117
 7998SOL    HW135456   3.965   0.956   3.164  0.2327  0.0594 -0.9125
 7998SOL    HW235457   4.104   0.938   3.196 -1.2604  0.1537  2.5274
 7999SOL     OW35458   0.544   1.865   4.029 -0.2702  0.0527 -0.2507
 7999SOL    HW135459   0.475   1.927   4.003  1.2105  1.3119 -1.2469
 7999SOL    HW235460   0.614   1.927   4.051 -1.7282  1.3088  0.8668
 8000SOL     OW35461   4.355   0.570   4.124  0.0307  0.2233 -0.8340
 8000SOL    HW135462   4.421   0.582   4.192  1.0213  0.2661 -1.8064
 8000SOL    HW235463   4.387   0.630   4.057  2.0000 -1.1083 -1.0598
 8001SOL     OW35464   2.959   1.697   2.063 -0.0358  0.2619 -0.1342
 8001SOL    HW135465   2.867   1.721   2.054 -0.7488 -2.2957  0.3581
 8001SOL    HW235466   2.973   1.700   2.158 -0.2045  2.8178 -0.1934
 8002SOL     OW35467   2.135   4.270  12.142 -0.2502 -0.1833 -0.0577
 8002SOL    HW135468   2.172   4.235  12.223 -1.4332 -2.5463 -0.5615
 8002SOL    HW235469   2.216   4.283  12.093  1.8088 -1.4164  3.0543
 8003SOL     OW35470   4.630   0.215   4.648 -0.2445 -0.5454  0.3734
 8003SOL    HW135471   4.550   0.206   4.701 -0.6553 -0.9604 -0.3143
 8003SOL    HW235472   4.700   0.222   4.712  0.6801 -1.6029 -0.5194
 8004SOL     OW35473   4.401   2.580   8.976  0.6387  0.2906  0.2428
 8004SOL    HW135474   4.425   2.668   8.948  2.9370 -0.3674  0.1378
 8004SOL    HW235475   4.451   2.521   8.920 -1.1300  0.1856 -1.2180
 8005SOL     OW35476   1.388   2.317   1.247  0.0652 -0.4237 -0.0987
 8005SOL    HW135477   1.406   2.373   1.323 -0.0915  0.3220 -0.6186
 8005SOL    HW235478   1.382   2.229   1.286 -1.9630 -0.0587  0.3819
 8006SOL     OW35479   2.037   0.287   1.747  0.3667 -0.1341  0.0741
 8006SOL    HW135480   2.114   0.342   1.762  1.1363 -0.9994 -0.7161
 8006SOL    HW235481   1.993   0.299   1.831 -0.9140  0.7161 -0.7222
 8007SOL     OW35482   4.055   2.530  14.623  0.1341  0.2221 -0.0034
 8007SOL    HW135483   4.120   2.593  14.591  0.7197  0.2972  1.3571
 8007SOL    HW235484   4.098   2.472  14.686  0.8643 -0.5777 -1.2390
 8008SOL     OW35485   3.744   2.302  13.668  0.2935  0.0281  0.1019
 8008SOL    HW135486   3.717   2.257  13.748  1.3339 -2.7498 -1.1282
 8008SOL    HW235487   3.665   2.277  13.620  1.0804  0.1088 -1.2433
 8009SOL     OW35488   3.528   1.474   5.988  0.5652 -0.0288  0.4599
 8009SOL    HW135489   3.593   1.405   5.970  0.0610 -0.3534 -0.1089
 8009SOL    HW235490   3.557   1.548   5.934 -0.8844 -0.8363 -1.4312
 8010SOL     OW35491   1.687   2.288   0.736  0.4583 -0.6246  0.3167
 8010SOL    HW135492   1.653   2.212   0.688 -2.3394  1.2119 -0.5826
 8010SOL    HW235493   1.737   2.238   0.800 -0.3538  0.7755  2.0339
 8011SOL     OW35494   2.274   1.076   7.366  0.1177  0.2048  0.8013
 8011SOL    HW135495   2.234   0.990   7.378  0.7173 -0.4213 -1.8224
 8011SOL    HW235496   2.357   1.050   7.405  0.0236 -3.2365 -1.2764
 8012SOL     OW35497   1.321   1.629  16.381 -0.2747  0.1676  0.7857
 8012SOL    HW135498   1.253   1.584  16.433 -0.1651 -2.5035 -1.3549
 8012SOL    HW235499   1.338   1.705  16.436 -2.6025  1.2942 -0.0491
 8013SOL     OW35500   1.030   2.761   8.131  0.0474 -0.0746  0.2568
 8013SOL    HW135501   0.998   2.676   8.102  1.7333  0.1630 -2.3298
 8013SOL    HW235502   1.043   2.805   8.048 -2.5757 -1.2557 -0.7839
 8014SOL     OW35503   1.978   2.172  11.269  0.0589 -0.3441  0.6203
 8014SOL    HW135504   2.027   2.210  11.342  4.4078 -1.5704 -1.7005
 8014SOL    HW235505   1.909   2.237  11.258  1.2936  1.1465  1.6596
 8015SOL     OW35506   3.313   1.847   1.128  0.4709 -0.8635  0.5739
 8015SOL    HW135507   3.364   1.922   1.096 -2.8003 -0.4742 -3.6991
 8015SOL    HW235508   3.227   1.888   1.123  0.6087 -0.4360  1.7805
 8016SOL     OW35509   0.851   2.512   2.156 -0.1326  0.3077  0.5595
 8016SOL    HW135510   0.905   2.497   2.233  0.7680 -3.5342 -0.8593
 8016SOL    HW235511   0.893   2.458   2.090  1.7215 -0.0588  2.0322
 8017SOL     OW35512   2.137   1.491   0.253  0.1892  0.0161 -0.3745
 8017SOL    HW135513   2.168   1.456   0.337  0.2333 -0.1657 -0.4674
 8017SOL    HW235514   2.076   1.557   0.287 -2.7064 -2.7465 -0.2115
 8018SOL     OW35515   1.873   2.721   4.609  0.0337  0.5187  0.6967
 8018SOL    HW135516   1.853   2.641   4.561 -0.3377 -1.5331  4.2603
 8018SOL    HW235517   1.964   2.725   4.578  0.8372  1.7179  3.2110
 8019SOL     OW35518   3.800   2.025   6.845 -0.3702  0.3130  0.0503
 8019SOL    HW135519   3.874   2.014   6.786  0.7383 -0.3318  1.5711
 8019SOL    HW235520   3.817   1.966   6.918  1.4135  0.4483 -0.2740
 8020SOL     OW35521   0.220   2.817   8.854  0.1713 -0.5653 -0.0644
 8020SOL    HW135522   0.299   2.762   8.852  0.8863  0.4549  0.4556
 8020SOL    HW235523   0.150   2.751   8.846  0.0478 -0.5505  0.9838
 8021SOL     OW35524   3.508   4.637  10.046 -0.0443  0.0336 -0.0470
 8021SOL    HW135525   3.433   4.694  10.063 -0.5124 -0.0663 -1.8032
 8021SOL    HW235526   3.583   4.678  10.089 -0.3099  0.8873 -0.4078
 8022SOL     OW35527   2.070   3.755   5.304  0.5655  1.0456  0.1139
 8022SOL    HW135528   2.059   3.821   5.236 -0.4258 -0.3112 -1.0438
 8022SOL    HW235529   2.008   3.685   5.282  0.3505  0.4639  2.5360
 8023SOL     OW35530   0.050   0.696   7.835  0.3230 -0.1596 -0.5624
 8023SOL    HW135531   0.144   0.680   7.823  0.2779  0.9912 -2.4254
 8023SOL    HW235532   0.061   0.773   7.891  1.0431  0.0495 -0.9950
 8024SOL     OW35533   3.710   0.960   5.199  0.3024 -0.5048 -0.2885
 8024SOL    HW135534   3.675   0.954   5.111  0.4461 -1.0720 -0.3073
 8024SOL    HW235535   3.774   1.032   5.195 -2.3753  1.7438 -2.0664
 8025SOL     OW35536   3.428   0.830   7.649  0.0799  0.3308  0.3810
 8025SOL    HW135537   3.423   0.890   7.575  1.5927 -0.1059 -0.0814
 8025SOL    HW235538   3.501   0.863   7.702  1.6691 -1.0849 -0.9147
 8026SOL     OW35539   2.880   4.517  13.586  0.0065 -0.1156  0.5921
 8026SOL    HW135540   2.809   4.579  13.605  0.1783  1.3435 -3.4523
 8026SOL    HW235541   2.838   4.465  13.518  0.1841 -0.2872  0.6143
 8027SOL     OW35542   2.885   0.702   4.320 -0.0140  0.7092 -0.7461
 8027SOL    HW135543   2.972   0.672   4.295  0.4026  1.5436 -0.3154
 8027SOL    HW235544   2.838   0.622   4.299  0.4004  0.5365 -1.0146
 8028SOL     OW35545   3.765   2.258   0.432  0.0690  0.1200  0.4443
 8028SOL    HW135546   3.769   2.276   0.338  1.0045  2.3310  0.8977
 8028SOL    HW235547   3.765   2.346   0.471  2.4718 -0.4254  1.6911
 8029SOL     OW35548   0.356   1.319   7.574 -0.1988 -0.5491  0.0122
 8029SOL    HW135549   0.390   1.232   7.593  0.0548 -0.9149 -2.1102
 8029SOL    HW235550   0.436   1.366   7.597 -1.8397  1.9077  0.8062
 8030SOL     OW35551   2.353   1.113   7.723  0.2905  0.0653  0.3011
 8030SOL    HW135552   2.262   1.090   7.740  0.8133 -1.6363  0.8281
 8030SOL    HW235553   2.383   1.115   7.814 -0.4185  1.3734  0.4949
 8031SOL     OW35554   2.410   3.508   8.162 -0.3710  0.4823 -0.0820
 8031SOL    HW135555   2.372   3.534   8.246 -0.4651 -1.0927  0.3628
 8031SOL    HW235556   2.375   3.419   8.160 -0.7585  0.6291 -0.0113
 8032SOL     OW35557   3.018   0.492   3.072 -0.6769 -0.7567 -0.1720
 8032SOL    HW135558   2.958   0.565   3.093  0.8241  0.6420 -0.7367
 8032SOL    HW235559   2.953   0.437   3.028 -0.4194 -1.3916  0.2456
 8033SOL     OW35560   3.695   2.925   1.160 -0.0805  0.3880  0.2153
 8033SOL    HW135561   3.766   2.869   1.191  0.3341  1.8321  1.8866
 8033SOL    HW235562   3.627   2.913   1.226 -0.1622 -0.2127  0.0219
 8034SOL     OW35563   2.345   2.040  16.277  0.3669  0.7064  0.6073
 8034SOL    HW135564   2.435   2.012  16.261  0.4628  0.9261  0.7715
 8034SOL    HW235565   2.307   1.957  16.304 -0.7893  0.7370 -0.9037
 8035SOL     OW35566   1.621   1.305   8.590 -0.1071 -0.6897 -0.0696
 8035SOL    HW135567   1.652   1.309   8.500  0.3099  1.3179  0.1849
 8035SOL    HW235568   1.698   1.324   8.643 -1.0501  1.4533  0.5389
 8036SOL     OW35569   0.351   1.899  12.007 -0.2756 -0.5361  0.2923
 8036SOL    HW135570   0.364   1.910  11.913  0.3469 -1.7604  0.2332
 8036SOL    HW235571   0.401   1.970  12.049  0.0133 -0.1761 -0.6630
 8037SOL     OW35572   2.721   1.107   2.138  0.1501 -0.7545  0.2633
 8037SOL    HW135573   2.686   1.053   2.210  2.8018 -1.8968  0.7109
 8037SOL    HW235574   2.726   1.043   2.067  2.3189  0.5169 -0.6980
 8038SOL     OW35575   3.420   4.244   3.075 -0.2097  0.0631  0.7873
 8038SOL    HW135576   3.412   4.305   3.002 -0.9320  0.6198  1.3281
 8038SOL    HW235577   3.472   4.177   3.032 -3.5179 -1.4693 -0.8793
 8039SOL     OW35578   0.468   0.535   8.919  0.6858  0.4622  0.0134
 8039SOL    HW135579   0.449   0.474   8.991 -0.9588 -0.3110 -1.0737
 8039SOL    HW235580   0.438   0.616   8.960  0.7223  0.7031 -0.4504
 8040SOL     OW35581   4.221   1.412   3.923 -0.2180 -0.4589 -0.1115
 8040SOL    HW135582   4.209   1.443   4.013  0.4605 -2.5350  0.6940
 8040SOL    HW235583   4.154   1.345   3.913 -1.3277  0.5079  0.8438
 8041SOL     OW35584   1.621   3.834   7.699  0.4500  0.0496 -0.2940
 8041SOL    HW135585   1.707   3.798   7.723  0.6547  0.1814 -0.8316
 8041SOL    HW235586   1.582   3.822   7.786  1.2122 -2.1041 -0.2537
 8042SOL     OW35587   3.519   1.137  14.443  0.3037 -0.0773 -0.3614
 8042SOL    HW135588   3.493   1.115  14.533  0.5664  1.7022  0.1619
 8042SOL    HW235589   3.613   1.120  14.444  0.5676  1.3512 -1.1664
 8043SOL     OW35590   0.830   1.749  14.773 -0.0040 -0.3117  0.3671
 8043SOL    HW135591   0.908   1.709  14.735 -0.8394 -0.3463 -1.3047
 8043SOL    HW235592   0.762   1.683  14.769 -0.0474 -0.2459 -0.0117
 8044SOL     OW35593   2.979   2.405   5.446  0.1204 -0.3855 -0.3248
 8044SOL    HW135594   3.068   2.428   5.420  1.0960 -0.9247  2.5551
 8044SOL    HW235595   2.935   2.470   5.392  1.0623  0.0192 -0.6055
 8045SOL     OW35596   1.256   3.828   4.567  0.1907 -0.4476  0.2093
 8045SOL    HW135597   1.316   3.818   4.493  0.3932 -1.8075  0.5750
 8045SOL    HW235598   1.217   3.913   4.542 -1.4781 -1.6551 -1.2838
 8046SOL     OW35599   2.229   3.745   3.689 -0.1145  0.7697  0.4559
 8046SOL    HW135600   2.219   3.840   3.687 -0.3556  0.7830  2.2514
 8046SOL    HW235601   2.259   3.737   3.599  0.1871 -0.9790  0.7094
 8047SOL     OW35602   0.803   1.353   4.982  0.0402  0.3107  0.4226
 8047SOL    HW135603   0.729   1.319   5.032  2.3696 -1.8953  2.3550
 8047SOL    HW235604   0.882   1.303   5.006  1.0672  2.2889  1.1505
 8048SOL     OW35605   0.769   3.683   9.516  0.4101  0.2857  0.3132
 8048SOL    HW135606   0.830   3.724   9.454  0.5341  0.6932  0.7086
 8048SOL    HW235607   0.764   3.595   9.477  3.2844 -0.4868  1.6953
 8049SOL     OW35608   1.427   0.183   5.970  0.3182  0.3151  0.2385
 8049SOL    HW135609   1.378   0.105   5.945  0.4609  0.1443  0.4891
 8049SOL    HW235610   1.430   0.179   6.065  1.5120  0.0447  0.1953
 8050SOL     OW35611   4.296   2.482   6.568 -0.2514 -0.0560  0.4728
 8050SOL    HW135612   4.302   2.567   6.524 -1.2580  0.4755  1.3289
 8050SOL    HW235613   4.381   2.480   6.613  0.8598  2.6348 -1.5250
 8051SOL     OW35614   1.822   0.570   2.724 -0.3163 -0.1577  0.6322
 8051SOL    HW135615   1.776   0.529   2.652 -1.4060  0.5994  0.8983
 8051SOL    HW235616   1.754   0.610   2.778 -0.5962 -0.8400  0.7761
 8052SOL     OW35617   4.377   1.452   9.194  0.1208 -0.5363  0.3602
 8052SOL    HW135618   4.309   1.512   9.225  1.0299 -0.1669  1.6192
 8052SOL    HW235619   4.343   1.363   9.200  0.5473 -0.8014 -1.0615
 8053SOL     OW35620   1.348   3.082   3.101 -0.4426 -0.1781 -0.1808
 8053SOL    HW135621   1.412   3.131   3.049  0.3932 -0.6361  0.4328
 8053SOL    HW235622   1.395   3.059   3.181 -0.0952 -0.7801 -0.5635
 8054SOL     OW35623   3.573   4.677   2.414  0.2311 -0.0041  0.3028
 8054SOL    HW135624   3.480   4.687   2.393  0.8270  1.9500 -1.2993
 8054SOL    HW235625   3.599   4.605   2.357 -0.0728  2.8047 -3.3587
 8055SOL     OW35626   4.246   3.652   4.630 -0.0456 -0.0250  0.2319
 8055SOL    HW135627   4.179   3.598   4.674 -0.4778 -1.7545 -2.5599
 8055SOL    HW235628   4.183   3.716   4.598  0.3706  0.0853 -0.3600
 8056SOL     OW35629   0.319   3.430   7.541  0.2814  0.1958 -0.3775
 8056SOL    HW135630   0.300   3.523   7.556 -2.4293 -0.8918  2.9211
 8056SOL    HW235631   0.340   3.436   7.448 -0.0356  2.1228 -0.3294
 8057SOL     OW35632   1.602   2.814   4.682 -0.2932  0.4260 -0.2454
 8057SOL    HW135633   1.694   2.793   4.664 -0.0004 -0.2055  2.0633
 8057SOL    HW235634   1.580   2.843   4.593  1.1735 -2.4189 -1.5584
 8058SOL     OW35635   2.787   4.507   5.193 -0.2997  0.2833  0.0731
 8058SOL    HW135636   2.713   4.531   5.136  1.6643  2.6589 -1.5001
 8058SOL    HW235637   2.777   4.572   5.263  1.3957  1.2584 -0.5916
 8059SOL     OW35638   4.634   1.849  16.109  0.5678  0.3596 -0.1950
 8059SOL    HW135639   4.640   1.754  16.123 -0.3756  0.2390 -0.6016
 8059SOL    HW235640   4.540   1.859  16.122  0.6028 -1.3618  1.4526
 8060SOL     OW35641   0.780   1.388   6.719  0.0894 -0.1276 -0.2778
 8060SOL    HW135642   0.858   1.398   6.774 -0.7682 -1.0303  1.0835
 8060SOL    HW235643   0.787   1.469   6.668 -2.0248  0.7250  0.8092
 8061SOL     OW35644   1.354   0.603   2.984 -0.0750 -0.5312 -0.4204
 8061SOL    HW135645   1.341   0.680   3.038 -0.4237 -1.0498  0.2373
 8061SOL    HW235646   1.330   0.641   2.899  0.6175  1.9547  0.5032
 8062SOL     OW35647   3.017   3.474   7.362  0.8044  0.2728  0.7298
 8062SOL    HW135648   2.960   3.430   7.425  0.6455 -1.9330 -0.9280
 8062SOL    HW235649   2.978   3.560   7.372  0.9199  0.7356 -2.5349
 8063SOL     OW35650   2.804   3.155   2.294  0.2374 -0.4407  0.4004
 8063SOL    HW135651   2.776   3.202   2.215  0.4490 -0.3413  0.3842
 8063SOL    HW235652   2.846   3.233   2.331  1.1124 -1.1133  0.8274
 8064SOL     OW35653   3.617   1.741   2.282  0.0513  0.8802 -0.8219
 8064SOL    HW135654   3.703   1.738   2.324  1.0064  0.9450 -2.7723
 8064SOL    HW235655   3.599   1.647   2.274 -0.3598  0.6925  2.6205
 8065SOL     OW35656   2.944   2.494   7.916  0.5026  0.2512  0.2101
 8065SOL    HW135657   2.906   2.449   7.992  1.2747 -0.1576  0.3637
 8065SOL    HW235658   2.902   2.580   7.918 -0.9409 -0.4501  0.2466
 8066SOL     OW35659   2.078   1.906   3.083  0.5351 -0.0648 -0.3983
 8066SOL    HW135660   2.005   1.903   3.020 -0.4453  1.2935  0.6590
 8066SOL    HW235661   2.045   1.857   3.158  1.2975 -0.9553 -0.6487
 8067SOL     OW35662   4.530   3.702   9.058 -0.3710 -0.5640 -0.2430
 8067SOL    HW135663   4.487   3.650   9.126 -1.1358 -0.6045 -0.7578
 8067SOL    HW235664   4.460   3.767   9.043  0.4669  0.4164  0.0940
 8068SOL     OW35665   3.763   2.571   0.309 -0.2693 -0.8676  0.3514
 8068SOL    HW135666   3.857   2.572   0.327 -0.6081 -1.3520  2.1851
 8068SOL    HW235667   3.730   2.614   0.388  2.7257  1.4462  0.3432
 8069SOL     OW35668   3.835   4.327   7.511  0.1559  0.1890 -0.0712
 8069SOL    HW135669   3.800   4.254   7.460  1.5186  1.1619 -2.4292
 8069SOL    HW235670   3.862   4.274   7.585  0.7306 -0.5682 -0.8267
 8070SOL     OW35671   1.770   2.096  12.736  0.9822 -0.5512 -0.3501
 8070SOL    HW135672   1.838   2.083  12.801  0.3576 -0.3406  0.3405
 8070SOL    HW235673   1.757   2.189  12.754 -2.1903 -0.7637 -1.5444
 8071SOL     OW35674   1.485   2.263   2.721  0.4802  1.2464  0.0012
 8071SOL    HW135675   1.466   2.196   2.787 -2.0529 -0.2628 -2.2460
 8071SOL    HW235676   1.522   2.199   2.660 -0.8877 -0.8679  1.3902
 8072SOL     OW35677   4.166   2.451   7.774  0.0183  0.2345  0.2544
 8072SOL    HW135678   4.132   2.519   7.833  1.2726  0.3091  0.8913
 8072SOL    HW235679   4.091   2.440   7.715  1.1321 -1.8098 -0.7690
 8073SOL     OW35680   2.373   2.125   1.851  0.1255  0.4794  0.2080
 8073SOL    HW135681   2.406   2.074   1.776 -1.7007 -1.6512  0.8589
 8073SOL    HW235682   2.279   2.109   1.853 -0.1332  2.0354  0.3563
 8074SOL     OW35683   1.380   4.411   8.332 -0.1970 -0.5567  0.8714
 8074SOL    HW135684   1.390   4.346   8.264  0.8136  2.4856 -1.8986
 8074SOL    HW235685   1.411   4.375   8.415  1.9011  3.1872  1.7478
 8075SOL     OW35686   3.339   2.484   6.359  0.0395  0.0178  0.6036
 8075SOL    HW135687   3.299   2.399   6.377  0.1624 -0.1321  0.1789
 8075SOL    HW235688   3.433   2.474   6.377  0.2156  0.0062 -0.3066
 8076SOL     OW35689   3.774   1.399   4.764  0.4512  0.0237  0.1404
 8076SOL    HW135690   3.786   1.305   4.777 -1.7230 -0.1300  0.9985
 8076SOL    HW235691   3.714   1.408   4.690  0.6628 -3.0911 -0.4010
 8077SOL     OW35692   2.224   1.180   0.208 -0.2039 -0.4747  0.2296
 8077SOL    HW135693   2.178   1.263   0.209  0.1903 -0.2573  0.3952
 8077SOL    HW235694   2.315   1.204   0.188 -0.1700 -0.2153  0.6936
 8078SOL     OW35695   3.034   4.123  10.171 -0.6123  0.1422 -0.8883
 8078SOL    HW135696   3.111   4.096  10.121  0.0935  1.7205 -0.6670
 8078SOL    HW235697   3.043   4.090  10.261  0.3449  0.5422 -0.8349
 8079SOL     OW35698   3.720   0.015  15.207  0.3156  0.0317 -0.2577
 8079SOL    HW135699   3.816   0.009  15.214  0.2596 -1.4173 -0.7044
 8079SOL    HW235700   3.690   4.685  15.133  1.0969 -0.4680 -0.2104
 8080SOL     OW35701   2.132   0.615   4.946 -0.3753  0.2142  0.0217
 8080SOL    HW135702   2.176   0.531   4.956  1.5593  1.1789 -0.3149
 8080SOL    HW235703   2.161   0.655   5.028  0.5050 -1.3034  0.4456
 8081SOL     OW35704   0.039   1.958   3.671 -0.3904 -0.0465  0.0402
 8081SOL    HW135705   0.128   1.988   3.690 -0.8156  0.6676  0.8993
 8081SOL    HW235706   0.051   1.911   3.589  0.1882 -1.7226  1.0900
 8082SOL     OW35707   2.696   3.763   3.718 -0.0483 -0.1950  0.0736
 8082SOL    HW135708   2.698   3.771   3.623 -0.8383  1.8324  0.2360
 8082SOL    HW235709   2.672   3.853   3.737 -3.7644 -0.4296 -3.5964
 8083SOL     OW35710   1.749   4.475   3.471 -0.0222 -0.1199 -0.6243
 8083SOL    HW135711   1.713   4.503   3.387 -0.5817  0.1036 -0.3076
 8083SOL    HW235712   1.720   4.384   3.462 -1.9466  0.4989 -0.6434
 8084SOL     OW35713   3.079   1.022   6.742 -0.0019  0.6315  0.1924
 8084SOL    HW135714   3.033   1.106   6.743 -0.2101  0.5332 -1.6717
 8084SOL    HW235715   3.125   1.024   6.826  1.6806  2.6972 -0.7823
 8085SOL     OW35716   4.503   2.442   8.669 -0.0940 -0.3793  0.2242
 8085SOL    HW135717   4.567   2.404   8.609  0.1444  1.0167 -0.3999
 8085SOL    HW235718   4.556   2.450   8.749  0.3604 -1.4274  0.0264
 8086SOL     OW35719   0.025   2.215   6.408 -0.2774  0.0304 -0.3888
 8086SOL    HW135720   4.655   2.222   6.389 -0.0841 -0.5076 -1.5259
 8086SOL    HW235721   0.045   2.138   6.356 -3.2950 -0.0403 -1.4464
 8087SOL     OW35722   0.960   2.609   1.508  0.5358  0.4885  0.3845
 8087SOL    HW135723   0.921   2.641   1.590  1.6708  0.7753  0.8062
 8087SOL    HW235724   1.047   2.640   1.533  1.1319  0.2567 -1.3962
 8088SOL     OW35725   4.450   2.966   6.890 -0.2820 -0.2169  0.1165
 8088SOL    HW135726   4.494   3.050   6.894  2.1724 -1.5414  0.7478
 8088SOL    HW235727   4.379   2.967   6.955  0.6146  1.2982  1.0688
 8089SOL     OW35728   2.923   1.755   6.812  0.1049 -0.4116  0.5448
 8089SOL    HW135729   3.010   1.793   6.798  1.9113 -4.8137 -0.1146
 8089SOL    HW235730   2.867   1.832   6.801 -1.1564 -1.2785  0.9242
 8090SOL     OW35731   3.040   1.483   1.889  0.1729  0.4241  0.4877
 8090SOL    HW135732   3.024   1.551   1.954 -2.6705 -1.2352  1.5148
 8090SOL    HW235733   2.982   1.415   1.924  0.2613 -0.6303 -1.4002
 8091SOL     OW35734   1.114   1.423  10.831 -0.1938  0.0850  0.0823
 8091SOL    HW135735   1.184   1.475  10.872  0.6882 -1.4580  0.5484
 8091SOL    HW235736   1.151   1.335  10.833  0.6884  0.4739  1.1701
 8092SOL     OW35737   0.442   3.646   4.850 -0.0169 -0.3929 -0.3355
 8092SOL    HW135738   0.488   3.730   4.852 -2.8020  1.1382 -0.8988
 8092SOL    HW235739   0.522   3.596   4.832  0.0491  0.4172 -2.2721
 8093SOL     OW35740   3.314   0.223   6.736 -0.2150  0.1845 -0.1428
 8093SOL    HW135741   3.289   0.215   6.828 -0.2093 -1.3664 -0.2661
 8093SOL    HW235742   3.318   0.316   6.714  1.8834  0.0126 -0.4739
 8094SOL     OW35743   4.543   2.272   7.254 -0.2849 -0.3595  0.1758
 8094SOL    HW135744   4.502   2.188   7.276 -1.4204  0.1345 -0.0639
 8094SOL    HW235745   4.605   2.251   7.184 -1.8713  1.5996 -1.8214
 8095SOL     OW35746   1.375   1.010  10.572 -0.1110  0.0344 -0.6288
 8095SOL    HW135747   1.348   0.958  10.496  0.2812  0.3410 -0.9710
 8095SOL    HW235748   1.438   0.945  10.605  2.2496 -0.1654 -5.6207
 8096SOL     OW35749   2.464   0.519   8.017  0.1800  0.2631  0.3546
 8096SOL    HW135750   2.515   0.598   8.000 -1.0147  1.0160  0.2167
 8096SOL    HW235751   2.535   0.476   8.063  1.6415  0.6455 -1.5552
 8097SOL     OW35752   1.421   3.345  11.127 -0.5473 -0.4594  0.0527
 8097SOL    HW135753   1.434   3.329  11.034 -0.3341  0.3164 -0.0433
 8097SOL    HW235754   1.329   3.372  11.128 -0.0711  1.1577 -0.8481
 8098SOL     OW35755   3.790   3.395  11.093 -0.3827  0.1272  0.7834
 8098SOL    HW135756   3.849   3.398  11.018 -1.2133 -0.8239  0.0933
 8098SOL    HW235757   3.749   3.481  11.095 -0.6621  0.0436 -2.0136
 8099SOL     OW35758   4.615   3.164  15.317 -0.6313 -0.1598  0.0937
 8099SOL    HW135759   4.549   3.206  15.262  0.4123  0.5680 -0.5795
 8099SOL    HW235760   4.631   3.079  15.274 -0.5022  0.2310 -0.6307
 8100SOL     OW35761   3.232   2.137  16.700  0.0564 -0.0313 -0.1644
 8100SOL    HW135762   3.280   2.056  16.716 -0.9992 -0.8613 -1.1408
 8100SOL    HW235763   3.207   2.121  16.609  0.1842 -1.5516  0.0674
 8101SOL     OW35764   3.330   1.789   8.571 -0.4415  0.4335  0.1125
 8101SOL    HW135765   3.362   1.726   8.636  1.4407  1.0401 -0.2487
 8101SOL    HW235766   3.253   1.749   8.530 -0.6255  1.0243 -0.1170
 8102SOL     OW35767   0.457   3.310   2.427  0.2009 -0.8485 -0.3389
 8102SOL    HW135768   0.367   3.317   2.395  0.5237  2.2022 -0.5303
 8102SOL    HW235769   0.481   3.400   2.448 -1.5855  0.1025 -2.3551
 8103SOL     OW35770   2.064   2.053   4.692 -0.0532  0.9366 -0.3583
 8103SOL    HW135771   2.086   2.128   4.637 -1.1351 -1.4859 -4.0807
 8103SOL    HW235772   2.087   1.975   4.642  0.1875  0.1874  0.9318
 8104SOL     OW35773   1.435   1.982   9.413  0.1481 -0.6491 -0.6051
 8104SOL    HW135774   1.418   1.945   9.326 -0.9853 -0.4949 -0.4480
 8104SOL    HW235775   1.348   2.013   9.439  1.1049 -0.2963  2.2247
 8105SOL     OW35776   0.875   2.213   3.619  0.2898  0.0885  0.2037
 8105SOL    HW135777   0.894   2.191   3.711 -1.5148  0.4389  0.6427
 8105SOL    HW235778   0.926   2.153   3.564 -0.5049  0.2156 -0.6579
 8106SOL     OW35779   1.090   0.582   9.292  0.0200  0.4851 -0.3536
 8106SOL    HW135780   1.181   0.610   9.305 -0.1450  0.3450  1.1661
 8106SOL    HW235781   1.044   0.644   9.349  0.7697 -0.0202  0.8067
 8107SOL     OW35782   2.657   4.063  16.017 -0.6246  0.9185  0.0827
 8107SOL    HW135783   2.671   4.033  15.927 -0.0299  1.7911 -0.1202
 8107SOL    HW235784   2.743   4.104  16.021 -0.5824  0.7891  0.4341
 8108SOL     OW35785   0.681   3.753   6.776 -0.1954 -0.4196 -0.0695
 8108SOL    HW135786   0.746   3.813   6.812 -0.0103 -0.0063 -1.1033
 8108SOL    HW235787   0.634   3.733   6.857  0.0372 -2.9186 -0.5672
 8109SOL     OW35788   1.526   1.039   7.887 -0.1608 -1.0268 -0.3406
 8109SOL    HW135789   1.431   1.035   7.889 -0.1772 -0.2926  0.0956
 8109SOL    HW235790   1.541   0.946   7.868  0.8062 -1.3637  2.0666
 8110SOL     OW35791   3.977   0.500  17.482  0.0481 -0.1212 -0.3151
 8110SOL    HW135792   3.983   0.522  17.575 -1.2309 -0.1771 -0.2195
 8110SOL    HW235793   4.008   0.587  17.454 -0.6765  0.2698  0.0949
 8111SOL     OW35794   0.460   1.788  10.757  0.2907 -0.5403 -0.0397
 8111SOL    HW135795   0.454   1.828  10.843 -0.4138 -2.8694  0.9737
 8111SOL    HW235796   0.530   1.843  10.721  1.3980  0.0401  2.9893
 8112SOL     OW35797   3.694   1.311   6.941  0.4773  0.8115  0.0153
 8112SOL    HW135798   3.743   1.389   6.918 -1.6047  1.7076 -1.3710
 8112SOL    HW235799   3.616   1.324   6.887  2.2445 -0.4136 -2.7782
 8113SOL     OW35800   2.525   0.938  14.589 -0.2281  0.1546 -0.1663
 8113SOL    HW135801   2.582   1.010  14.561 -0.7719  0.3797 -0.7020
 8113SOL    HW235802   2.581   0.864  14.613 -1.8147 -0.8952  0.3355
 8114SOL     OW35803   4.051   1.518   4.893 -0.0574 -0.3859  0.6023
 8114SOL    HW135804   4.041   1.546   4.801  1.0117 -1.3720  0.1958
 8114SOL    HW235805   3.956   1.513   4.906 -0.1045  1.8630  1.1218
 8115SOL     OW35806   4.392   1.090   2.367 -0.3045  0.1568 -0.0677
 8115SOL    HW135807   4.392   0.995   2.380 -1.2852  0.0284 -0.9486
 8115SOL    HW235808   4.371   1.073   2.275 -3.1563 -0.2046  0.6393
 8116SOL     OW35809   1.377   1.231   9.070 -0.1659  0.1668  0.0660
 8116SOL    HW135810   1.317   1.158   9.085  1.5231 -1.8083 -2.8630
 8116SOL    HW235811   1.456   1.186   9.041 -0.0595  0.3158  0.1180
 8117SOL     OW35812   4.603   3.284  13.551 -0.5576 -0.0680  0.2871
 8117SOL    HW135813   4.535   3.289  13.618 -0.9232  1.1586 -0.1657
 8117SOL    HW235814   4.559   3.313  13.471 -1.6910  2.2393  1.7613
 8118SOL     OW35815   2.644   3.119   1.867 -0.0281 -0.2355  0.4996
 8118SOL    HW135816   2.699   3.050   1.903  1.0892  0.1142 -0.5471
 8118SOL    HW235817   2.693   3.135   1.787 -0.5741 -0.5630  0.1005
 8119SOL     OW35818   1.506   2.304   3.873  0.3196 -0.1417  0.0402
 8119SOL    HW135819   1.512   2.400   3.881  2.0966 -0.3286  0.8246
 8119SOL    HW235820   1.465   2.283   3.957 -0.5408  1.8735  0.1337
 8120SOL     OW35821   3.021   2.188   7.144  0.0585  0.3081 -0.4651
 8120SOL    HW135822   3.114   2.165   7.142 -0.3372 -1.4081  0.7340
 8120SOL    HW235823   3.023   2.280   7.119  0.5779  0.8816  1.6297
 8121SOL     OW35824   3.083   0.946   0.326  0.9929  0.5771  0.3747
 8121SOL    HW135825   3.142   0.883   0.366 -2.8695 -2.8364  0.7086
 8121SOL    HW235826   3.017   0.951   0.395  0.4034  0.2189 -0.1623
 8122SOL     OW35827   4.722   0.747   7.217  0.0933 -0.0638 -0.0081
 8122SOL    HW135828   0.005   0.791   7.302  0.5577 -2.4665  1.2138
 8122SOL    HW235829   4.642   0.701   7.240  0.0272  0.4502  0.8119
 8123SOL     OW35830   3.777   2.178   7.239 -0.1229 -0.4656 -0.0721
 8123SOL    HW135831   3.801   2.237   7.311 -0.8845  1.3227 -1.2916
 8123SOL    HW235832   3.711   2.234   7.199 -0.1315 -0.4885 -0.0897
 8124SOL     OW35833   2.864   1.990   9.202  0.1380 -0.6866  0.4565
 8124SOL    HW135834   2.838   1.911   9.156 -1.2494  0.4335 -0.6650
 8124SOL    HW235835   2.857   1.961   9.293 -2.1791 -1.3320  0.0742
 8125SOL     OW35836   0.638   2.374   7.308  0.4230 -0.2178 -0.2578
 8125SOL    HW135837   0.662   2.318   7.381  1.5807  0.0239 -0.4488
 8125SOL    HW235838   0.704   2.346   7.245  2.1483  2.0360  0.5215
 8126SOL     OW35839   1.017   1.528   2.454 -0.2401  0.6832  0.3283
 8126SOL    HW135840   1.046   1.556   2.540  1.1710 -0.6473  0.2740
 8126SOL    HW235841   1.009   1.433   2.462  0.1576  0.5671 -0.6171
 8127SOL     OW35842   0.132   4.320  15.821 -0.4509  0.2415  0.3205
 8127SOL    HW135843   0.061   4.261  15.844 -1.4853  1.1006 -0.6674
 8127SOL    HW235844   0.157   4.297  15.732  0.0073  0.0132  0.5023
 8128SOL     OW35845   1.243   4.441  12.381 -0.3351 -0.2943 -0.1455
 8128SOL    HW135846   1.203   4.409  12.461 -0.2490 -2.5320 -0.9859
 8128SOL    HW235847   1.190   4.520  12.377  0.2421  0.0795 -0.4413
 8129SOL     OW35848   4.136   0.028  14.721  0.3603 -0.4218  0.5192
 8129SOL    HW135849   4.104   4.688  14.785 -0.6058  0.8064  1.2485
 8129SOL    HW235850   4.079   0.103  14.737 -1.1306 -1.7587  1.5523
 8130SOL     OW35851   3.070   4.034   1.890 -0.8813  0.6896 -0.2290
 8130SOL    HW135852   3.119   4.116   1.900 -0.0454  0.1021  0.4187
 8130SOL    HW235853   3.143   3.972   1.885 -1.6872 -0.1299 -1.8503
 8131SOL     OW35854   0.737   1.799   9.199 -0.1185  0.2081  0.3751
 8131SOL    HW135855   0.795   1.837   9.132 -1.3575 -1.5949 -1.7233
 8131SOL    HW235856   0.779   1.806   9.284 -1.9854  3.1173  1.0630
 8132SOL     OW35857   4.022   1.298   3.245  0.1119 -0.1413  0.2855
 8132SOL    HW135858   3.944   1.341   3.210  0.1695  0.2006  0.5823
 8132SOL    HW235859   4.039   1.235   3.175  0.3291  2.1002 -1.6427
 8133SOL     OW35860   4.706   0.541   5.009  0.3068  0.4358  0.4479
 8133SOL    HW135861   0.057   0.490   4.979  0.1233  0.8305 -0.6597
 8133SOL    HW235862   0.038   0.588   5.071  1.1527 -0.2492  0.2091
 8134SOL     OW35863   0.217   2.111   9.186  0.3592 -0.4956  0.4027
 8134SOL    HW135864   0.227   2.064   9.103  1.3104 -2.5849  1.6921
 8134SOL    HW235865   0.296   2.084   9.233 -0.4273 -0.8648  1.5045
 8135SOL     OW35866   4.478   2.660  15.723  0.0059  0.2378 -1.1071
 8135SOL    HW135867   4.417   2.724  15.761 -1.6980 -1.3114 -1.2243
 8135SOL    HW235868   4.501   2.707  15.643 -1.9833  1.6424 -0.8633
 8136SOL     OW35869   3.597   1.483   5.610 -0.2238 -0.5323 -0.2853
 8136SOL    HW135870   3.692   1.484   5.624  0.4083  1.5121 -4.6404
 8136SOL    HW235871   3.597   1.516   5.520  0.6748 -1.1539 -0.5154
 8137SOL     OW35872   0.590   2.946   3.403  0.5515  0.5728 -0.0003
 8137SOL    HW135873   0.499   2.945   3.433  0.2624 -2.4483 -0.8970
 8137SOL    HW235874   0.607   3.039   3.416 -0.4160  0.9549 -1.5328
 8138SOL     OW35875   3.052   0.693   2.047  0.5463  0.1081  0.2828
 8138SOL    HW135876   3.053   0.757   2.118 -1.0000  0.2320  0.1870
 8138SOL    HW235877   3.034   0.744   1.968 -0.2586  0.7492  0.8876
 8139SOL     OW35878   0.598   1.890   1.215 -0.5854  0.0129  0.6850
 8139SOL    HW135879   0.530   1.913   1.278 -0.0525 -1.8003  1.9235
 8139SOL    HW235880   0.541   1.871   1.140 -0.5201  5.5075 -0.7703
 8140SOL     OW35881   3.609   0.669   1.604 -0.0384 -0.5122 -0.3981
 8140SOL    HW135882   3.682   0.726   1.626 -1.9584  0.8970  2.3194
 8140SOL    HW235883   3.617   0.601   1.671 -1.3667  0.0878  0.3622
 8141SOL     OW35884   0.551   2.735  16.285 -0.0781  0.0866  0.0959
 8141SOL    HW135885   0.591   2.710  16.201  0.9523 -2.3431  1.3201
 8141SOL    HW235886   0.603   2.812  16.306 -1.0752  0.8507 -0.2449
 8142SOL     OW35887   1.945   2.986   2.722 -0.0217  0.0036  0.3276
 8142SOL    HW135888   1.958   3.064   2.667  0.2088 -0.6941 -0.6003
 8142SOL    HW235889   1.980   3.011   2.807 -1.7680 -1.5523  1.5136
 8143SOL     OW35890   0.463   4.675  13.957  0.5364  0.3514  0.5613
 8143SOL    HW135891   0.397   0.018  13.979 -0.5641 -0.8141  0.7788
 8143SOL    HW235892   0.517   4.675  14.035 -0.5004  0.0517  1.2758
 8144SOL     OW35893   2.383   0.360   9.484 -0.5201 -0.1343  0.0515
 8144SOL    HW135894   2.434   0.417   9.425 -0.9704  1.4846  1.2212
 8144SOL    HW235895   2.367   0.286   9.426 -0.0426  0.5859 -1.0281
 8145SOL     OW35896   1.404   0.882  10.915  0.0627 -0.4172  0.8023
 8145SOL    HW135897   1.453   0.947  10.865 -1.8452  0.1841 -0.2553
 8145SOL    HW235898   1.466   0.809  10.925  0.1964 -0.4754 -0.4931
 8146SOL     OW35899   0.554   2.118   5.661 -0.1599  0.0386 -0.2220
 8146SOL    HW135900   0.461   2.096   5.661 -0.3281  0.7714  0.4700
 8146SOL    HW235901   0.563   2.162   5.576 -0.2431 -0.4288 -0.4738
 8147SOL     OW35902   0.749   1.806   4.882 -0.3714 -0.8600 -0.0656
 8147SOL    HW135903   0.703   1.724   4.898 -2.0035 -0.3771 -2.3264
 8147SOL    HW235904   0.713   1.853   4.957  2.6652 -0.4858  1.1729
 8148SOL     OW35905   0.480   0.359  14.075  0.1614  0.7558 -0.1676
 8148SOL    HW135906   0.407   0.402  14.030 -0.7321  0.3935  0.9346
 8148SOL    HW235907   0.462   0.273  14.036  0.7315  0.0309  1.1744
 8149SOL     OW35908   0.059   2.411   2.850 -0.7699  0.0946 -0.4025
 8149SOL    HW135909   0.147   2.446   2.864 -1.0689  0.9009 -0.5251
 8149SOL    HW235910   0.038   2.396   2.942 -2.6825  3.0463 -0.3831
 8150SOL     OW35911   1.547   2.741  11.940  0.1788  0.0340  0.1969
 8150SOL    HW135912   1.562   2.819  11.993 -3.3420  0.7149  0.1493
 8150SOL    HW235913   1.556   2.770  11.849  2.4319 -1.4972 -0.0872
 8151SOL     OW35914   1.475   4.028   6.292  0.3156  0.0199  0.6593
 8151SOL    HW135915   1.540   4.079   6.244  1.7253  0.0070  2.5714
 8151SOL    HW235916   1.439   3.976   6.220  0.5935  1.6590 -0.6529
 8152SOL     OW35917   3.066   0.231  10.138 -0.4288 -0.2309 -0.1531
 8152SOL    HW135918   3.087   0.306  10.192  0.2128  0.6052 -1.5638
 8152SOL    HW235919   2.972   0.210  10.139 -0.2358 -1.1073 -0.7266
 8153SOL     OW35920   1.836   3.977   5.337  0.2524 -0.2720 -0.7000
 8153SOL    HW135921   1.836   3.911   5.406  0.9134  0.2742 -0.1828
 8153SOL    HW235922   1.798   3.921   5.269 -1.2401  0.0832 -0.1576
 8154SOL     OW35923   1.228   3.229   3.437  0.0225 -0.5709 -0.3990
 8154SOL    HW135924   1.160   3.173   3.399 -2.1561  1.3294  0.7151
 8154SOL    HW235925   1.310   3.179   3.437  0.9192  0.8945 -1.4650
 8155SOL     OW35926   0.407   4.097   6.701  0.1033 -0.3470  0.1948
 8155SOL    HW135927   0.427   4.123   6.791 -0.7497  4.1171 -0.9231
 8155SOL    HW235928   0.495   4.090   6.664 -0.7983  0.5751 -2.1036
 8156SOL     OW35929   2.441   4.705  11.805  0.2022 -0.7504 -0.1140
 8156SOL    HW135930   2.527   4.664  11.797  0.2100 -0.2613 -2.7036
 8156SOL    HW235931   2.433   0.038  11.727  0.4584  1.1071  1.1998
 8157SOL     OW35932   3.799   2.618   0.857 -0.1802  0.2574 -0.0675
 8157SOL    HW135933   3.790   2.713   0.844 -1.1478  0.2200  0.2795
 8157SOL    HW235934   3.819   2.611   0.950 -0.9037  0.1313  0.0809
 8158SOL     OW35935   4.408   3.512  11.502  0.1653 -0.4003  0.2185
 8158SOL    HW135936   4.482   3.452  11.512  0.3404 -0.3187 -0.5635
 8158SOL    HW235937   4.339   3.458  11.464  0.6935 -0.2790 -0.9269
 8159SOL     OW35938   4.107   4.232   1.589  0.5085 -0.2816 -0.2000
 8159SOL    HW135939   4.035   4.264   1.534  0.4075 -0.1989 -0.0189
 8159SOL    HW235940   4.108   4.300   1.656  1.7854 -0.7420  0.2401
 8160SOL     OW35941   4.053   1.462   6.510  0.3103  0.0935 -0.3670
 8160SOL    HW135942   3.982   1.401   6.529 -0.5712  0.7512 -1.5854
 8160SOL    HW235943   4.100   1.445   6.591 -1.4927  0.4284  0.7493
 8161SOL     OW35944   1.966   3.296  11.309 -0.0900  0.5246  0.2368
 8161SOL    HW135945   2.007   3.216  11.275  0.2864  1.0282 -0.4886
 8161SOL    HW235946   2.014   3.322  11.388  3.2626 -0.0464 -1.6220
 8162SOL     OW35947   3.413   1.875  10.715 -0.9198  0.0849 -0.4844
 8162SOL    HW135948   3.453   1.841  10.635  3.5531  0.3152  1.5996
 8162SOL    HW235949   3.427   1.970  10.711  1.9903 -0.2542  1.4783
 8163SOL     OW35950   3.297   0.141  15.569  0.1646  0.0322 -0.2910
 8163SOL    HW135951   3.389   0.163  15.583  0.0323  0.3838  0.0661
 8163SOL    HW235952   3.266   0.232  15.563  0.2008 -0.0805 -2.1771
 8164SOL     OW35953   2.010   2.439  11.445 -0.7860 -0.0667  0.0254
 8164SOL    HW135954   1.934   2.495  11.457 -1.1218 -0.4117 -0.4723
 8164SOL    HW235955   2.057   2.448  11.528 -0.4790  4.2240 -0.6168
 8165SOL     OW35956   1.062   1.462   6.839  0.3874  0.5091 -0.5895
 8165SOL    HW135957   1.132   1.411   6.798 -2.6631 -1.9849 -2.7062
 8165SOL    HW235958   1.020   1.392   6.888  1.5134  0.6541  0.5719
 8166SOL     OW35959   2.465   0.911  16.937 -0.1331 -0.0582 -0.8863
 8166SOL    HW135960   2.421   0.885  16.856  0.5780  1.4392 -1.7560
 8166SOL    HW235961   2.392   0.926  16.998  0.8320 -0.2897  0.3280
 8167SOL     OW35962   2.201   1.074   8.266  0.9004  0.7712 -0.1971
 8167SOL    HW135963   2.189   0.994   8.318  1.9872  0.7752  0.0682
 8167SOL    HW235964   2.199   1.136   8.339  4.7700 -3.7406  3.7319
 8168SOL     OW35965   1.748   3.755   5.151  0.1216  0.2855 -0.5387
 8168SOL    HW135966   1.814   3.687   5.135 -0.5201 -0.3658 -0.4059
 8168SOL    HW235967   1.773   3.805   5.073  1.3478 -0.5150 -0.6678
 8169SOL     OW35968   4.672   2.443  10.534  0.4111 -0.0649 -0.7305
 8169SOL    HW135969   4.586   2.413  10.505  1.2693 -2.7170 -0.5242
 8169SOL    HW235970   4.717   2.484  10.460  0.8451 -0.0607 -0.4647
 8170SOL     OW35971   4.689   3.824   9.392  0.3816  0.1053 -0.0154
 8170SOL    HW135972   0.034   3.886   9.417 -0.4992  1.3877 -0.8296
 8170SOL    HW235973   0.013   3.761   9.337 -2.2167 -2.1328  0.3160
 8171SOL     OW35974   3.160   1.968  12.901  0.2701 -0.0727 -0.0362
 8171SOL    HW135975   3.072   1.968  12.863 -0.0792  0.6649  0.7804
 8171SOL    HW235976   3.134   1.929  12.984  2.5927 -2.9333 -0.6381
 8172SOL     OW35977   1.152   3.095   2.918  0.0852  0.1809  0.0421
 8172SOL    HW135978   1.225   3.115   2.977  0.3796  0.9721 -0.5957
 8172SOL    HW235979   1.181   3.120   2.830  3.4034  1.1924  1.4009
 8173SOL     OW35980   2.625   1.764  15.341  0.1109 -0.2145  0.2139
 8173SOL    HW135981   2.635   1.686  15.395  1.9877 -1.4859 -1.9493
 8173SOL    HW235982   2.629   1.833  15.407 -1.2109  0.5394 -0.4805
 8174SOL     OW35983   2.894   3.199   0.686 -0.1689 -0.1045 -0.1110
 8174SOL    HW135984   2.821   3.256   0.711  2.0097  3.0610 -0.9599
 8174SOL    HW235985   2.854   3.114   0.707  2.1496 -1.6911 -2.1940
 8175SOL     OW35986   0.365   2.722   8.574 -0.5380 -0.3987 -0.4456
 8175SOL    HW135987   0.456   2.725   8.604 -0.9474  4.0678  0.3068
 8175SOL    HW235988   0.353   2.636   8.534 -2.4008  0.1733 -1.1232
 8176SOL     OW35989   0.110   1.061  14.611  0.0680 -0.4146  0.0637
 8176SOL    HW135990   0.091   0.985  14.665  0.9300  1.6710  3.2496
 8176SOL    HW235991   0.037   1.066  14.549  0.1153  0.6041  0.0858
 8177SOL     OW35992   3.066   2.992  15.774  1.0136  0.2446 -0.4201
 8177SOL    HW135993   3.135   2.998  15.840 -1.1699  1.5334  1.7378
 8177SOL    HW235994   2.992   2.946  15.815  3.7212 -1.9059  2.0472
 8178SOL     OW35995   2.562   3.591   2.095  0.4248  0.3751 -0.1072
 8178SOL    HW135996   2.569   3.637   2.011 -2.2569  0.1257 -0.4577
 8178SOL    HW235997   2.571   3.499   2.073 -1.6150  0.6443 -2.0814
 8179SOL     OW35998   2.821   2.759  16.642 -0.5758  0.4660  0.0956
 8179SOL    HW135999   2.726   2.764  16.652 -0.6368  0.3690 -0.4231
 8179SOL    HW236000   2.853   2.767  16.732  0.7806  1.3558 -0.4785
 8180SOL     OW36001   1.755   3.221   8.675  0.1701 -0.3153  0.1556
 8180SOL    HW136002   1.783   3.308   8.703 -3.0616 -0.0659  2.6948
 8180SOL    HW236003   1.735   3.173   8.756  1.1306  1.1798  1.2814
 8181SOL     OW36004   0.717   4.143   0.357 -0.2901  0.1230  0.0385
 8181SOL    HW136005   0.669   4.150   0.275 -1.4060 -2.1002  0.4683
 8181SOL    HW236006   0.805   4.153   0.321  0.2576 -2.6385  0.6136
 8182SOL     OW36007   2.668   0.869  17.455  0.0706 -0.5450 -0.0090
 8182SOL    HW136008   2.692   0.907  17.539 -0.1146  0.4045 -0.3885
 8182SOL    HW236009   2.718   0.787  17.464 -0.6937 -0.8340  1.6897
 8183SOL     OW36010   2.441   4.020  17.070 -0.1473  0.6694 -0.6108
 8183SOL    HW136011   2.381   4.028  16.996  1.5973 -3.5424 -2.4611
 8183SOL    HW236012   2.523   4.046  17.027 -0.4949 -0.4918 -1.9670
 8184SOL     OW36013   0.763   1.736   9.836 -0.1217 -0.3005  0.3212
 8184SOL    HW136014   0.794   1.679   9.906  0.2873  2.6593  2.5662
 8184SOL    HW236015   0.795   1.688   9.760 -0.8419  0.5984 -0.5539
 8185SOL     OW36016   3.977   4.251  11.391  0.5979 -0.5263 -0.4303
 8185SOL    HW136017   3.882   4.262  11.389  1.0068  3.1319  0.0684
 8185SOL    HW236018   3.981   4.177  11.331 -0.7856 -0.7093 -0.3070
 8186SOL     OW36019   0.282   2.054  10.567 -0.5757 -0.5601  0.3734
 8186SOL    HW136020   0.275   1.974  10.515 -0.9358 -1.1971  1.4059
 8186SOL    HW236021   0.196   2.068  10.608  1.4843 -0.0711  4.5145
 8187SOL     OW36022   3.190   0.893  16.696 -0.0323  0.3779  0.6512
 8187SOL    HW136023   3.281   0.887  16.726 -0.4431 -0.7186  1.6811
 8187SOL    HW236024   3.147   0.832  16.756 -0.4351 -0.8057 -0.8510
 8188SOL     OW36025   1.873   3.730  15.692  0.0281 -0.5722 -0.3589
 8188SOL    HW136026   1.795   3.675  15.681 -0.6357  0.4723 -0.9098
 8188SOL    HW236027   1.902   3.743  15.601  1.4783  0.2152  0.2250
 8189SOL     OW36028   1.134   0.300   7.556 -0.0067 -0.5061 -0.5367
 8189SOL    HW136029   1.137   0.255   7.472 -2.1809 -0.4854 -0.6232
 8189SOL    HW236030   1.061   0.256   7.598 -1.7565  1.5587 -1.3882
 8190SOL     OW36031   0.461   1.220  14.407 -0.0314  0.3809 -0.4721
 8190SOL    HW136032   0.492   1.154  14.346  1.0379  1.4856 -1.1202
 8190SOL    HW236033   0.422   1.282  14.346 -0.6286  0.9366  0.4605
 8191SOL     OW36034   1.938   1.204   1.883 -0.2832  0.4924 -0.3633
 8191SOL    HW136035   1.934   1.299   1.876 -3.0365  0.6333  3.0465
 8191SOL    HW236036   1.854   1.164   1.862  0.0494 -0.3001 -0.2065
 8192SOL     OW36037   2.299   4.646   5.392 -0.2481  0.1797  0.1057
 8192SOL    HW136038   2.353   4.587   5.445 -1.3703 -0.7146  0.2445
 8192SOL    HW236039   2.324   0.005   5.433  1.2550 -1.6055  2.7818
 8193SOL     OW36040   0.635   4.097   9.618 -0.1329  0.2193 -0.3383
 8193SOL    HW136041   0.690   4.104   9.540 -0.0485 -1.3677 -0.4175
 8193SOL    HW236042   0.680   4.141   9.690 -2.2714  0.4539  0.8545
 8194SOL     OW36043   2.895   1.031   3.377  1.0187 -0.1835  0.4111
 8194SOL    HW136044   2.811   1.063   3.410 -0.1028 -0.7814 -1.8632
 8194SOL    HW236045   2.934   1.116   3.357 -2.4413  1.3183  0.0476
 8195SOL     OW36046   1.598   0.272   2.758  0.0226 -0.0749 -0.0353
 8195SOL    HW136047   1.610   0.357   2.715 -1.3171 -0.6668 -1.5623
 8195SOL    HW236048   1.546   0.302   2.834 -0.4086 -1.0059  0.0429
 8196SOL     OW36049   1.498   2.581   5.614 -0.7135 -0.2784 -0.3112
 8196SOL    HW136050   1.535   2.645   5.674  0.3057 -1.8486  0.7375
 8196SOL    HW236051   1.439   2.527   5.666  0.0355 -0.4764  0.3435
 8197SOL     OW36052   4.599   1.480  13.786  0.6280 -0.6088 -0.2515
 8197SOL    HW136053   4.607   1.439  13.872 -0.2326  0.2993  0.2639
 8197SOL    HW236054   4.673   1.539  13.777 -0.8261  1.4679  1.3349
 8198SOL     OW36055   1.633   1.709   4.497 -0.8128 -0.2350  0.1836
 8198SOL    HW136056   1.725   1.727   4.516  0.1928 -2.4567 -2.4105
 8198SOL    HW236057   1.596   1.797   4.503  1.3183  0.8088 -2.0229
 8199SOL     OW36058   0.814   3.783   7.257  0.4011 -0.1410  0.0223
 8199SOL    HW136059   0.794   3.876   7.266  3.3755  0.5295 -0.4249
 8199SOL    HW236060   0.734   3.765   7.207  0.6760  1.0567 -0.8659
 8200SOL     OW36061   0.678   0.668  11.476 -0.6268  0.6853 -0.7839
 8200SOL    HW136062   0.724   0.596  11.520 -0.5468  1.1867 -0.0556
 8200SOL    HW236063   0.590   0.632  11.482 -0.5319  0.7153  0.7161
 8201SOL     OW36064   1.445   4.229  13.234 -0.0649  0.0177  0.2105
 8201SOL    HW136065   1.356   4.196  13.222  0.7167 -1.2093 -2.1794
 8201SOL    HW236066   1.438   4.310  13.183 -1.8875 -0.1300  0.2332
 8202SOL     OW36067   0.970   3.669   4.507 -0.6943 -0.7716 -0.5022
 8202SOL    HW136068   0.996   3.652   4.597  0.4107 -2.3875 -1.1390
 8202SOL    HW236069   1.052   3.644   4.466  0.3670 -0.8020  1.6805
 8203SOL     OW36070   2.884   0.085   4.291 -0.2280  0.6520 -0.2447
 8203SOL    HW136071   2.884   0.167   4.341  2.2059  0.4676  0.0732
 8203SOL    HW236072   2.880   0.017   4.358 -4.1787 -0.1912 -1.3972
 8204SOL     OW36073   0.655   2.077  10.861  0.4522 -0.0491 -0.2734
 8204SOL    HW136074   0.738   2.108  10.897  1.2713 -0.0662 -2.1531
 8204SOL    HW236075   0.598   2.152  10.842 -0.6665 -0.8519 -0.1294
 8205SOL     OW36076   2.882   4.021   0.049  0.0823  0.3218  0.1479
 8205SOL    HW136077   2.798   3.988   0.078 -0.7736  2.1727 -0.2034
 8205SOL    HW236078   2.934   4.024   0.130  0.2578  2.5375 -0.0305
 8206SOL     OW36079   4.588   4.174   3.693 -0.2062  0.4887 -0.3924
 8206SOL    HW136080   4.609   4.248   3.750  1.6474 -1.2380  1.1515
 8206SOL    HW236081   4.505   4.200   3.652 -1.9599 -3.2172  0.8185
 8207SOL     OW36082   2.844   4.576   0.444 -0.0283  0.5000  0.1163
 8207SOL    HW136083   2.934   4.546   0.454  0.4051  1.9652  0.5207
 8207SOL    HW236084   2.832   4.602   0.536  1.1609  0.4757  0.2790
 8208SOL     OW36085   3.673   4.121  15.107  0.2397 -0.0478 -0.1053
 8208SOL    HW136086   3.635   4.158  15.028  0.1216 -0.9945 -0.4906
 8208SOL    HW236087   3.738   4.188  15.132 -0.6535  0.1542  1.7113
 8209SOL     OW36088   4.683   1.657  15.664  0.0784  0.5396  0.0925
 8209SOL    HW136089   4.650   1.623  15.747  0.2224 -2.0570 -0.9338
 8209SOL    HW236090   4.621   1.628  15.597  0.8159  2.0388 -1.2451
 8210SOL     OW36091   3.771   1.055  12.869 -0.7151 -0.1037 -0.0364
 8210SOL    HW136092   3.779   0.960  12.878  0.7728 -0.1363 -1.6960
 8210SOL    HW236093   3.726   1.074  12.952 -1.1728  0.0638 -0.3229
 8211SOL     OW36094   2.998   3.941  17.352 -0.5939  0.4571  0.0374
 8211SOL    HW136095   2.985   3.928  17.258 -1.5628  1.0981  0.0902
 8211SOL    HW236096   2.950   4.022  17.366  2.7999  2.4608  0.1324
 8212SOL     OW36097   0.029   3.065  13.278 -1.3489 -0.0851  0.8855
 8212SOL    HW136098   4.695   3.061  13.354  0.4449 -0.5716  2.2350
 8212SOL    HW236099   0.035   3.161  13.273  4.4420 -0.5228 -1.1672
 8213SOL     OW36100   3.889   0.227   5.807  0.4400  0.6773  0.2634
 8213SOL    HW136101   3.843   0.283   5.869 -0.1677 -1.5743  1.8616
 8213SOL    HW236102   3.924   0.159   5.865  1.4812  0.5007 -0.5707
 8214SOL     OW36103   2.394   2.492  16.254 -0.0942 -0.2848 -0.0979
 8214SOL    HW136104   2.390   2.586  16.270 -1.4921 -0.0663 -1.7482
 8214SOL    HW236105   2.309   2.485  16.210 -0.6096  0.9348  0.6989
 8215SOL     OW36106   2.375   1.273   5.533  0.6211  0.3310  0.0388
 8215SOL    HW136107   2.385   1.363   5.501  1.0937 -0.6138 -2.4756
 8215SOL    HW236108   2.389   1.287   5.626  1.2971  0.6701 -0.1179
 8216SOL     OW36109   4.006   0.056  12.487 -0.3211 -0.4724 -0.3100
 8216SOL    HW136110   4.044   4.691  12.483  1.6780  0.3851 -0.3655
 8216SOL    HW236111   3.920   0.035  12.451  1.2130 -2.0430 -3.0909
 8217SOL     OW36112   2.637   1.921   3.649 -0.1232  0.6697  0.3194
 8217SOL    HW136113   2.650   1.865   3.725  2.1381  2.5078  1.2784
 8217SOL    HW236114   2.730   1.929   3.628 -0.0172  0.4604  0.7140
 8218SOL     OW36115   1.034   2.663   3.466 -0.2314 -0.0483 -0.0285
 8218SOL    HW136116   1.067   2.656   3.377 -1.6839  0.9521 -0.6459
 8218SOL    HW236117   0.939   2.673   3.459 -0.1444  0.6635 -0.1917
 8219SOL     OW36118   1.911   0.605   4.625 -0.4281 -0.2467  0.3605
 8219SOL    HW136119   1.839   0.649   4.579 -0.3070  0.6756  1.0429
 8219SOL    HW236120   1.865   0.578   4.705  1.5753 -2.9767  0.5718
 8220SOL     OW36121   0.520   0.953   6.152  0.0173 -0.8800  0.7929
 8220SOL    HW136122   0.536   1.044   6.174 -0.9847 -1.2987  3.2368
 8220SOL    HW236123   0.590   0.914   6.204  0.5021 -1.3340 -0.1784
 8221SOL     OW36124   0.649   0.065   1.553  0.0096 -0.1848 -0.2943
 8221SOL    HW136125   0.693   0.021   1.626 -0.3173  0.7287  0.4536
 8221SOL    HW236126   0.718   0.071   1.487  1.6000  1.0557  1.4570
 8222SOL     OW36127   3.994   1.410   5.537 -0.8823  0.5766  0.2066
 8222SOL    HW136128   3.967   1.488   5.586  1.4588  1.6410 -0.2205
 8222SOL    HW236129   3.924   1.403   5.472 -0.0509  1.5532 -0.7816
 8223SOL     OW36130   0.191   0.122   4.409  0.2315 -0.2980  0.1827
 8223SOL    HW136131   0.184   0.191   4.475 -1.1892 -1.4193  1.2108
 8223SOL    HW236132   0.101   0.092   4.396 -0.3207  1.1883  0.5650
 8224SOL     OW36133   1.225   4.193   4.037 -0.3563 -0.2445  0.0112
 8224SOL    HW136134   1.209   4.252   3.963 -0.9576 -0.7530 -0.2631
 8224SOL    HW236135   1.237   4.113   3.986 -0.5604  1.7837 -3.2150
 8225SOL     OW36136   0.800   4.558   5.040 -0.2877 -0.2698 -0.0980
 8225SOL    HW136137   0.824   4.638   5.087 -0.4518  0.9775 -2.1300
 8225SOL    HW236138   0.884   4.521   5.013 -0.9675 -0.7260 -1.5795
 8226SOL     OW36139   1.442   1.299   8.363 -0.8363  0.1452  0.3067
 8226SOL    HW136140   1.440   1.227   8.301  0.6255 -2.1722  2.9462
 8226SOL    HW236141   1.357   1.292   8.406  0.0144 -1.3949  1.7433
 8227SOL     OW36142   4.537   3.074   4.631 -0.2441  0.0352 -0.2263
 8227SOL    HW136143   4.559   3.167   4.619  2.5267 -0.2935  2.2632
 8227SOL    HW236144   4.513   3.046   4.543  0.5322  1.0705 -0.7717
 8228SOL     OW36145   2.115   1.306  14.980 -0.4329  0.4811 -0.4301
 8228SOL    HW136146   2.072   1.383  14.942 -1.0057  0.5495  0.3723
 8228SOL    HW236147   2.117   1.322  15.074 -0.9923  1.0945 -0.5180
 8229SOL     OW36148   0.156   2.620   8.082 -0.0751 -0.0654 -0.1298
 8229SOL    HW136149   0.089   2.686   8.063  3.2467  3.1520 -0.8908
 8229SOL    HW236150   0.185   2.659   8.164  2.0595  1.5061 -1.6008
 8230SOL     OW36151   1.720   3.606  13.335 -0.4102  0.3382 -0.5106
 8230SOL    HW136152   1.719   3.597  13.430 -1.7102 -0.6791 -0.6200
 8230SOL    HW236153   1.794   3.666  13.327  1.1110 -1.5100 -0.0764
 8231SOL     OW36154   1.432   2.718   5.385  0.1232  0.6988  0.0122
 8231SOL    HW136155   1.464   2.662   5.456 -1.1299 -0.5692 -0.4298
 8231SOL    HW236156   1.481   2.694   5.306  1.4737 -0.6674  1.2862
 8232SOL     OW36157   3.801   0.793  12.946 -0.0366 -0.0641 -0.0072
 8232SOL    HW136158   3.712   0.757  12.953  0.1745 -0.8295 -1.2694
 8232SOL    HW236159   3.830   0.722  12.888  3.7821 -0.3750  2.2799
 8233SOL     OW36160   0.385   1.866   2.605 -0.2520 -0.1135  0.0458
 8233SOL    HW136161   0.428   1.783   2.582  1.8914  0.4975  1.7865
 8233SOL    HW236162   0.363   1.853   2.697  1.0148  0.8250  0.4847
 8234SOL     OW36163   0.476   1.586   7.815 -0.2172  0.0123 -0.6368
 8234SOL    HW136164   0.483   1.661   7.874  0.7523  0.2722 -1.0834
 8234SOL    HW236165   0.392   1.606   7.774  0.5589  1.4319 -1.5469
 8235SOL     OW36166   3.056   0.311   3.433 -0.3527 -0.3450  0.2644
 8235SOL    HW136167   3.033   0.357   3.352  1.4274 -1.1753 -0.7135
 8235SOL    HW236168   3.129   0.256   3.403  0.2079  0.0080  0.9786
 8236SOL     OW36169   0.207   3.601   2.428 -0.3571 -0.0660  0.2870
 8236SOL    HW136170   0.180   3.579   2.517  0.1996 -0.5531  0.3344
 8236SOL    HW236171   0.155   3.680   2.416 -2.6801 -1.5980  0.2286
 8237SOL     OW36172   3.539   2.015   6.689 -0.3105  0.0905  0.4453
 8237SOL    HW136173   3.474   2.018   6.759 -1.4975  1.1961 -0.7146
 8237SOL    HW236174   3.620   2.043   6.734  0.0218  0.9369 -0.6747
 8238SOL     OW36175   4.350   2.438  15.532  0.5609  0.9806 -0.2566
 8238SOL    HW136176   4.312   2.524  15.547 -0.0615  0.7639 -0.6203
 8238SOL    HW236177   4.442   2.465  15.535  0.5380  0.6714  3.1162
 8239SOL     OW36178   3.553   4.311   2.146 -0.3818  0.0397 -0.7835
 8239SOL    HW136179   3.546   4.253   2.070 -1.2721  0.6342 -1.1517
 8239SOL    HW236180   3.605   4.386   2.117  1.8477 -1.4488 -0.5832
 8240SOL     OW36181   3.470   2.053  10.394 -0.1434 -0.5058 -0.0644
 8240SOL    HW136182   3.385   2.094  10.376  0.7991  0.4340 -2.4198
 8240SOL    HW236183   3.498   2.096  10.474 -4.0059  0.6967  0.6675
 8241SOL     OW36184   0.627   4.260   1.137 -0.6949 -0.0625 -0.3377
 8241SOL    HW136185   0.670   4.291   1.057 -0.9214  0.4795 -0.2437
 8241SOL    HW236186   0.600   4.172   1.109 -1.9963  0.9101 -2.0563
 8242SOL     OW36187   2.249   1.634   4.819 -0.3993 -0.5554  0.4209
 8242SOL    HW136188   2.178   1.674   4.768 -1.5643 -0.5336  2.0927
 8242SOL    HW236189   2.318   1.699   4.809  0.4260 -1.2475  1.7185
 8243SOL     OW36190   4.099   1.818   0.359  0.1836 -0.0156 -0.1266
 8243SOL    HW136191   4.105   1.815   0.264 -0.7586 -0.3707 -0.1703
 8243SOL    HW236192   4.061   1.733   0.380 -1.6865  1.1039  1.0037
 8244SOL     OW36193   3.985   1.764  15.819  0.0277  0.0034  0.4880
 8244SOL    HW136194   3.903   1.731  15.857 -0.3963 -0.7426 -1.0725
 8244SOL    HW236195   3.993   1.849  15.863  1.4769  0.8434 -1.3894
 8245SOL     OW36196   3.799   4.374   6.008  0.6661 -0.2830  0.3797
 8245SOL    HW136197   3.788   4.421   5.925  4.4484 -0.0775 -0.0268
 8245SOL    HW236198   3.889   4.400   6.025  0.7733 -1.2960  1.3327
 8246SOL     OW36199   2.926   0.187   3.199 -0.5731 -0.2651  0.3407
 8246SOL    HW136200   2.986   0.140   3.141 -0.2532 -1.3318  1.5162
 8246SOL    HW236201   2.879   0.116   3.244 -0.7032 -1.5288 -1.8033
 8247SOL     OW36202   2.415   4.346  11.647 -0.5343 -0.4192  0.5033
 8247SOL    HW136203   2.448   4.258  11.627 -2.3628 -1.4280  1.7830
 8247SOL    HW236204   2.415   4.384  11.560 -0.2811 -1.3451  0.0992
 8248SOL     OW36205   2.240   3.141  16.983 -0.1791  0.2296 -0.4376
 8248SOL    HW136206   2.281   3.210  17.034  0.1204 -1.5931  1.7881
 8248SOL    HW236207   2.158   3.133  17.032 -0.8536  0.5776 -1.5054
 8249SOL     OW36208   3.480   0.453  14.329 -0.2339  0.2698  0.1866
 8249SOL    HW136209   3.518   0.372  14.361  1.3812  1.4645  1.2702
 8249SOL    HW236210   3.556   0.483  14.279 -1.6713  0.8868 -1.6320
 8250SOL     OW36211   2.072   2.286   3.437  0.5403  0.4021 -0.6642
 8250SOL    HW136212   2.130   2.281   3.361 -0.4990  1.0075 -1.4906
 8250SOL    HW236213   2.006   2.218   3.423 -0.1106  1.7471 -3.9343
 8251SOL     OW36214   2.142   3.622  14.999 -0.2304  0.4401  0.2695
 8251SOL    HW136215   2.113   3.567  14.926  0.1938  0.4489  0.0925
 8251SOL    HW236216   2.087   3.698  14.980  0.4685  0.2667 -2.4802
 8252SOL     OW36217   3.452   0.683  15.475 -0.1309  0.5718  0.0763
 8252SOL    HW136218   3.523   0.718  15.421 -0.3945  0.9095 -0.0492
 8252SOL    HW236219   3.472   0.593  15.447  1.3183  0.4665  1.4671
 8253SOL     OW36220   0.615   2.761   8.692  0.1004  0.8940 -0.1732
 8253SOL    HW136221   0.683   2.826   8.713  2.1055 -2.2527  2.9692
 8253SOL    HW236222   0.557   2.767   8.768 -0.0312 -0.0047 -0.2082
 8254SOL     OW36223   1.295   2.079   8.305  0.1717 -0.2148 -0.3305
 8254SOL    HW136224   1.208   2.039   8.293  0.4099 -0.2676 -1.9249
 8254SOL    HW236225   1.350   2.030   8.244  1.4054  1.4537 -0.5758
 8255SOL     OW36226   1.142   4.143   4.266 -0.4998  0.2594  0.0132
 8255SOL    HW136227   1.172   4.163   4.177  1.6507 -2.0609  0.2198
 8255SOL    HW236228   1.091   4.222   4.285 -1.5607 -0.6035  0.7789
 8256SOL     OW36229   1.560   2.763   7.473  0.0119 -0.2179 -0.1015
 8256SOL    HW136230   1.517   2.813   7.404  0.6678  0.4138 -0.0554
 8256SOL    HW236231   1.485   2.722   7.517 -0.2101 -0.9254 -1.1572
 8257SOL     OW36232   0.196   1.495   4.312 -0.6818  0.4162  0.2936
 8257SOL    HW136233   0.263   1.444   4.357 -0.5138 -0.6400 -1.1700
 8257SOL    HW236234   0.119   1.439   4.318 -1.2031  1.2680  1.5464
 8258SOL     OW36235   3.372   4.458   4.567 -0.2106  0.1900  0.5392
 8258SOL    HW136236   3.382   4.428   4.477 -1.6468  0.4630  0.2793
 8258SOL    HW236237   3.298   4.399   4.582 -0.4080  0.3858  0.3372
 8259SOL     OW36238   0.932   3.397   9.640 -0.0283  0.2376  0.0275
 8259SOL    HW136239   0.836   3.394   9.645  0.0019 -0.8529 -0.0029
 8259SOL    HW236240   0.958   3.319   9.688  1.0132 -0.3335 -1.4718
 8260SOL     OW36241   2.662   3.289   2.085  0.3823  0.3745 -0.3272
 8260SOL    HW136242   2.719   3.340   2.027 -0.1712  1.7771  0.3674
 8260SOL    HW236243   2.627   3.222   2.026 -2.2517  2.0085 -0.5952
 8261SOL     OW36244   0.694   0.798  13.671  0.3469  0.7024  0.1335
 8261SOL    HW136245   0.715   0.841  13.754  0.4812  0.2560  0.3301
 8261SOL    HW236246   0.707   0.705  13.690  1.0912  0.7168 -0.2952
 8262SOL     OW36247   4.404   3.759   5.598 -0.7718  0.4104  0.2835
 8262SOL    HW136248   4.347   3.708   5.541  0.5842 -1.2088  0.3469
 8262SOL    HW236249   4.390   3.851   5.575  0.5957  0.7420  0.7568
 8263SOL     OW36250   1.528   2.781   4.062  0.2443 -0.4798  0.6078
 8263SOL    HW136251   1.491   2.869   4.072  1.9194  0.3907 -0.7206
 8263SOL    HW236252   1.548   2.780   3.968  1.8203 -0.1376  0.9318
 8264SOL     OW36253   4.720   2.859   7.554 -0.5626 -0.1285 -0.7594
 8264SOL    HW136254   4.716   2.873   7.459  0.9873 -0.3584 -0.8505
 8264SOL    HW236255   4.698   2.946   7.589 -0.8667 -0.7847  0.6723
 8265SOL     OW36256   0.653   1.818   3.555 -0.4299  0.2238 -0.5667
 8265SOL    HW136257   0.592   1.838   3.626  1.8295  0.6595  1.2393
 8265SOL    HW236258   0.672   1.728   3.581 -1.4379  0.4974  1.0900
 8266SOL     OW36259   3.210   3.384  13.322 -0.1867  0.1221 -0.2824
 8266SOL    HW136260   3.292   3.346  13.353 -0.7696 -1.5314 -0.7904
 8266SOL    HW236261   3.168   3.419  13.400  0.3238 -0.6650  0.3424
 8267SOL     OW36262   2.354   1.396   6.855 -0.2017 -0.5605 -0.4415
 8267SOL    HW136263   2.391   1.441   6.779  0.3579  0.7021  0.5943
 8267SOL    HW236264   2.420   1.412   6.922 -0.4624 -1.3279 -0.0059
 8268SOL     OW36265   3.245   2.772   7.457 -0.3389  0.2094 -0.2825
 8268SOL    HW136266   3.299   2.742   7.531 -0.0441  0.8200 -0.2529
 8268SOL    HW236267   3.312   2.802   7.396  1.1587 -2.0019  0.2900
 8269SOL     OW36268   1.090   3.730   3.698 -0.3348  0.1423  0.3862
 8269SOL    HW136269   1.015   3.677   3.671  0.7439 -1.0457 -0.2619
 8269SOL    HW236270   1.167   3.694   3.656  0.1479  0.2847  1.1444
 8270SOL     OW36271   3.045   2.452  15.238 -0.3888  0.2892  0.2627
 8270SOL    HW136272   2.952   2.443  15.214 -0.6773 -2.7367  2.5897
 8270SOL    HW236273   3.089   2.381  15.193 -1.4604  0.1739 -0.6103
 8271SOL     OW36274   4.445   3.504   3.996 -0.1042  0.2955  0.0793
 8271SOL    HW136275   4.424   3.517   3.904 -1.9760 -0.6957  0.3668
 8271SOL    HW236276   4.362   3.537   4.029  0.5761  2.9751 -0.8922
 8272SOL     OW36277   4.452   0.353   5.595  0.1185 -0.1118  0.1415
 8272SOL    HW136278   4.460   0.315   5.682  0.4081 -1.2955 -0.3911
 8272SOL    HW236279   4.519   0.299   5.552  0.4371  1.0673 -0.8256
 8273SOL     OW36280   3.152   3.205   2.406 -0.3403  0.6876 -0.0493
 8273SOL    HW136281   3.112   3.119   2.417 -2.2313  1.4259 -1.1940
 8273SOL    HW236282   3.246   3.189   2.397 -0.6785 -0.9009 -0.7580
 8274SOL     OW36283   3.899   3.128  15.302  0.3715  0.5829  0.5120
 8274SOL    HW136284   3.943   3.063  15.247 -1.4025 -0.6535  0.5403
 8274SOL    HW236285   3.902   3.206  15.247  0.5130  0.3054  0.1205
 8275SOL     OW36286   2.091   4.369   4.043  0.2379 -0.3773 -0.2682
 8275SOL    HW136287   2.060   4.342   3.956  2.7771  1.5001 -1.7285
 8275SOL    HW236288   2.184   4.364   4.023  0.6084 -0.2938  1.4712
 8276SOL     OW36289   3.206   3.570  17.275 -0.0294 -0.1487  0.2838
 8276SOL    HW136290   3.263   3.494  17.263  0.0592 -0.0266 -0.0724
 8276SOL    HW236291   3.187   3.580  17.181 -2.6613 -0.4784  0.7927
 8277SOL     OW36292   0.457   0.123   7.325 -0.3566  1.0811 -0.1688
 8277SOL    HW136293   0.466   0.029   7.306 -1.8602  1.2435 -1.6615
 8277SOL    HW236294   0.366   0.145   7.305  0.3841  4.5606  0.3422
 8278SOL     OW36295   0.238   4.444  16.011  0.3513 -0.0508  0.4408
 8278SOL    HW136296   0.204   4.531  15.991  0.6127 -0.2537 -0.8735
 8278SOL    HW236297   0.186   4.389  15.952  0.5355  1.1341 -0.8245
 8279SOL     OW36298   4.434   0.913   4.731 -0.6508  0.5476 -0.9033
 8279SOL    HW136299   4.463   0.860   4.806  1.7009  0.9172 -1.5450
 8279SOL    HW236300   4.342   0.922   4.754 -0.4584 -0.2161  0.1767
 8280SOL     OW36301   0.655   2.055  17.126 -0.5967  0.3449  0.4062
 8280SOL    HW136302   0.646   1.983  17.188  0.3092 -1.0174 -1.0792
 8280SOL    HW236303   0.576   2.025  17.082  1.8394 -2.6442 -1.8702
 8281SOL     OW36304   0.755   1.075   5.733 -0.9744  0.4531  0.3481
 8281SOL    HW136305   0.676   1.073   5.786 -0.3475  0.2059  1.2692
 8281SOL    HW236306   0.805   1.013   5.786 -1.8671  0.9407  1.7668
 8282SOL     OW36307   4.427   2.169  17.154  0.5237 -0.0572 -0.4439
 8282SOL    HW136308   4.384   2.168  17.239  0.7297  2.6283 -0.3030
 8282SOL    HW236309   4.357   2.158  17.090 -0.4950  1.3020  0.4551
 8283SOL     OW36310   4.045   0.844   2.408 -0.0631  0.4457  0.5932
 8283SOL    HW136311   3.971   0.892   2.369  0.2161 -0.5701 -1.1731
 8283SOL    HW236312   4.079   0.914   2.463 -0.4793 -0.0250  1.4393
 8284SOL     OW36313   4.037   3.943   4.764  0.1341 -0.3606 -0.3710
 8284SOL    HW136314   4.041   3.895   4.681  1.7011 -2.7667  1.1017
 8284SOL    HW236315   3.976   3.898   4.821 -1.8327 -0.2747 -2.4121
 8285SOL     OW36316   3.156   2.483   7.092 -0.7867 -0.1867 -0.1595
 8285SOL    HW136317   3.224   2.547   7.110 -0.3456 -0.9144  0.8201
 8285SOL    HW236318   3.113   2.521   7.016 -2.3739 -2.2306 -0.2979
 8286SOL     OW36319   1.128   1.018   9.136  0.0984  0.6594  0.3248
 8286SOL    HW136320   1.105   1.004   9.228 -2.5151  0.1747 -0.4076
 8286SOL    HW236321   1.154   0.927   9.125  1.1770  1.1304 -0.9928
 8287SOL     OW36322   3.115   3.958  10.712 -0.3513 -0.2092  0.3319
 8287SOL    HW136323   3.093   4.038  10.759  2.1858  0.4626  0.3637
 8287SOL    HW236324   3.208   3.945  10.728  0.0207  0.3654 -1.3113
 8288SOL     OW36325   2.316   3.283  13.914  0.2690 -0.2024  0.1750
 8288SOL    HW136326   2.333   3.355  13.854 -2.2363  1.7200  1.7705
 8288SOL    HW236327   2.228   3.257  13.885  0.0157 -1.9196  2.4181
 8289SOL     OW36328   1.094   4.238   3.209  0.4356 -0.2017 -0.3740
 8289SOL    HW136329   1.160   4.225   3.141 -0.9365 -2.0683 -1.3369
 8289SOL    HW236330   1.107   4.166   3.270  0.2268 -0.4020 -0.5680
 8290SOL     OW36331   1.104   0.879   7.425 -0.3465  0.0114  0.1157
 8290SOL    HW136332   1.163   0.804   7.425 -1.4767 -0.8826  0.1345
 8290SOL    HW236333   1.025   0.841   7.386  0.4892 -1.1167 -0.4780
 8291SOL     OW36334   0.448   0.578   4.702 -0.0421  0.1186 -0.2704
 8291SOL    HW136335   0.445   0.601   4.609  0.4044  1.6488  0.0928
 8291SOL    HW236336   0.386   0.505   4.707  0.9914 -0.6760  0.6279
 8292SOL     OW36337   3.729   2.884   5.955 -0.1025  0.5381  0.3538
 8292SOL    HW136338   3.664   2.915   6.018 -2.2119 -2.8184 -0.1466
 8292SOL    HW236339   3.736   2.792   5.981 -2.0264  0.1778 -0.4342
 8293SOL     OW36340   3.324   1.863  12.729  0.2257  0.3102 -0.1765
 8293SOL    HW136341   3.288   1.776  12.744 -1.8129  1.2448  0.4627
 8293SOL    HW236342   3.270   1.912  12.792  0.9397 -1.0840  1.5251
 8294SOL     OW36343   0.826   1.511   9.963 -0.3191 -0.4750 -0.3521
 8294SOL    HW136344   0.919   1.491   9.967 -0.2025  0.3911  1.2417
 8294SOL    HW236345   0.784   1.435  10.004 -0.7066 -0.2857 -0.3925
 8295SOL     OW36346   3.818   2.910   0.927 -0.6830 -0.6992 -0.0379
 8295SOL    HW136347   3.774   2.905   1.012 -0.6813 -0.8738 -0.0471
 8295SOL    HW236348   3.752   2.951   0.872  0.7528 -0.0599 -1.2562
 8296SOL     OW36349   4.399   4.344   5.515  0.4262  0.0545  0.1848
 8296SOL    HW136350   4.430   4.287   5.444  1.0438  1.3755 -0.6098
 8296SOL    HW236351   4.394   4.431   5.474  0.5861 -1.0183 -2.1309
 8297SOL     OW36352   1.626   0.010   5.083  0.2862 -0.3314 -1.1689
 8297SOL    HW136353   1.571   4.685   5.021 -0.5184 -2.0873  0.8804
 8297SOL    HW236354   1.600   0.100   5.068  2.7280 -0.0361 -3.5845
 8298SOL     OW36355   1.152   1.416   8.396 -0.2553  0.2632  0.2585
 8298SOL    HW136356   1.192   1.475   8.333  0.1686 -2.3639 -1.9430
 8298SOL    HW236357   1.189   1.446   8.479  0.3481 -0.4854  0.2606
 8299SOL     OW36358   1.191   2.656   6.419  0.1467  0.1453 -0.5133
 8299SOL    HW136359   1.098   2.679   6.424  0.0674 -0.4684  0.7469
 8299SOL    HW236360   1.225   2.680   6.505  0.7493 -3.3495  0.2265
 8300SOL     OW36361   1.729   2.244   7.145 -0.1919  0.4021 -0.7842
 8300SOL    HW136362   1.814   2.200   7.139  0.4576  1.2078  2.0907
 8300SOL    HW236363   1.677   2.170   7.113  1.4161 -0.9442 -0.2776
 8301SOL     OW36364   0.145   3.087   0.610  0.1099  0.1328 -0.0325
 8301SOL    HW136365   0.154   3.175   0.646  0.2471 -0.4065  1.2488
 8301SOL    HW236366   0.063   3.095   0.561 -0.9079 -0.9450  1.5051
 8302SOL     OW36367   2.955   4.035   4.857 -0.2021  0.0043  0.3667
 8302SOL    HW136368   2.886   4.085   4.901  1.2503 -0.8086  3.5760
 8302SOL    HW236369   2.917   3.948   4.851 -0.2636 -0.1129  2.3304
 8303SOL     OW36370   1.739   2.952  16.975 -0.2538  0.6100  0.5273
 8303SOL    HW136371   1.674   3.003  16.927  1.6366  2.9234  0.4331
 8303SOL    HW236372   1.719   2.998  17.056  0.1015  2.5254 -0.4701
 8304SOL     OW36373   3.114   1.993   4.966  0.0066 -0.3082  0.3927
 8304SOL    HW136374   3.191   1.997   4.910 -0.2981 -2.3496 -0.1880
 8304SOL    HW236375   3.078   1.911   4.933 -0.1732  0.3009 -0.9135
 8305SOL     OW36376   1.143   0.949   0.318  0.2613  0.0915  0.4223
 8305SOL    HW136377   1.113   0.877   0.373 -1.0944  0.8014  0.6401
 8305SOL    HW236378   1.235   0.952   0.342  1.1246 -0.3757 -2.8420
 8306SOL     OW36379   1.191   0.822   8.571  0.0390 -0.0919  0.3373
 8306SOL    HW136380   1.122   0.798   8.632  0.5255 -0.5710  0.6986
 8306SOL    HW236381   1.261   0.766   8.604 -0.8297 -0.9702  0.6529
 8307SOL     OW36382   0.508   2.556   1.535  1.2285  0.1868  0.4297
 8307SOL    HW136383   0.475   2.548   1.446  2.2002 -0.7242  0.1526
 8307SOL    HW236384   0.601   2.532   1.530  1.0375 -0.5691  0.5149
 8308SOL     OW36385   3.443   4.482   7.845  0.1692 -0.5120  0.5352
 8308SOL    HW136386   3.433   4.557   7.786  2.5305 -0.9492 -0.4008
 8308SOL    HW236387   3.538   4.481   7.852  0.2680 -0.1356 -0.7785
 8309SOL     OW36388   2.914   1.040   0.520 -0.0426  0.0733 -0.4489
 8309SOL    HW136389   2.897   1.133   0.506  0.1981  0.6993  3.4141
 8309SOL    HW236390   2.823   1.010   0.512  0.1586 -0.5874 -0.2541
 8310SOL     OW36391   4.125   3.305  12.310  0.1424 -0.4091 -0.1785
 8310SOL    HW136392   4.134   3.233  12.247  1.9564  0.2407 -0.6527
 8310SOL    HW236393   4.217   3.318  12.334 -0.4063  0.8301  1.1977
 8311SOL     OW36394   3.980   2.829   8.291 -0.0016 -0.0939 -0.0105
 8311SOL    HW136395   3.930   2.857   8.367 -0.9387  0.2692 -0.7640
 8311SOL    HW236396   3.932   2.874   8.221  0.9322  1.4174  0.3298
 8312SOL     OW36397   3.000   2.826  16.350  0.5868  0.4526  0.0825
 8312SOL    HW136398   3.040   2.867  16.426  0.3168  0.5840  0.1502
 8312SOL    HW236399   3.056   2.865  16.282  1.0362 -0.9105 -0.3322
 8313SOL     OW36400   4.209   0.330  11.914  0.5372  0.0346  0.3246
 8313SOL    HW136401   4.219   0.239  11.940 -1.1241 -0.3917 -0.5583
 8313SOL    HW236402   4.200   0.377  11.998  2.0034  1.0828 -0.0934
 8314SOL     OW36403   2.963   4.236   6.377  0.1996 -0.4395  0.4664
 8314SOL    HW136404   2.958   4.275   6.464  2.6618 -2.0843  1.3152
 8314SOL    HW236405   2.978   4.144   6.395 -0.2681 -0.8036 -0.9827
 8315SOL     OW36406   2.405   3.828  14.496 -0.6864 -0.0390  0.3836
 8315SOL    HW136407   2.366   3.825  14.408  0.2552 -0.1578 -0.0260
 8315SOL    HW236408   2.464   3.903  14.493  0.2180 -0.8068 -1.0185
 8316SOL     OW36409   1.748   3.809   6.366  0.1918 -0.1352  0.0364
 8316SOL    HW136410   1.656   3.782   6.359  0.5610 -1.1953 -0.6287
 8316SOL    HW236411   1.772   3.836   6.277  2.4490 -0.4839  0.5541
 8317SOL     OW36412   3.454   1.399   8.446 -0.4943 -0.0133 -0.5974
 8317SOL    HW136413   3.375   1.371   8.491  0.1823  0.9503  1.1981
 8317SOL    HW236414   3.427   1.473   8.391  0.8706  0.8666 -0.1025
 8318SOL     OW36415   2.429   3.153   9.997  0.0477 -0.1225  0.1814
 8318SOL    HW136416   2.524   3.163   9.997 -0.0740  1.0573 -0.0267
 8318SOL    HW236417   2.419   3.066  10.036 -1.5381  0.4955  1.1877
 8319SOL     OW36418   0.731   2.066   4.113 -0.5628 -0.3308  0.3060
 8319SOL    HW136419   0.800   2.110   4.163 -0.6682  1.3330 -0.9988
 8319SOL    HW236420   0.655   2.110   4.151  0.2993  0.9783  0.5323
 8320SOL     OW36421   1.333   2.387  14.719 -0.2867 -0.5135  0.4138
 8320SOL    HW136422   1.343   2.482  14.708  0.8381 -0.9079 -2.0156
 8320SOL    HW236423   1.412   2.367  14.771  1.4503 -0.6401 -2.2785
 8321SOL     OW36424   3.139   4.123   3.364 -0.1779 -0.0307 -0.0810
 8321SOL    HW136425   3.138   4.167   3.279 -1.3853 -1.8489 -1.0104
 8321SOL    HW236426   3.073   4.174   3.410 -2.3233 -1.2282 -1.8592
 8322SOL     OW36427   2.221   4.140  16.441 -0.2156 -0.2949  0.0234
 8322SOL    HW136428   2.272   4.087  16.380 -0.9758 -0.1611 -0.7193
 8322SOL    HW236429   2.291   4.201  16.463 -0.9819  1.0110 -1.2114
 8323SOL     OW36430   2.660   2.767   8.413  0.0571 -0.7016  0.4941
 8323SOL    HW136431   2.654   2.807   8.500  0.2932  0.4720 -0.0323
 8323SOL    HW236432   2.615   2.837   8.366 -0.0402 -0.7706  0.4845
 8324SOL     OW36433   1.736   4.015   2.333  0.3782 -0.0222 -0.9396
 8324SOL    HW136434   1.698   3.975   2.255  4.0427 -2.7795 -1.2907
 8324SOL    HW236435   1.783   4.084   2.286 -2.8016  2.1335 -0.9525
 8325SOL     OW36436   1.698   0.385   8.737 -0.3190  0.8191 -0.1023
 8325SOL    HW136437   1.760   0.375   8.809  0.4649  0.9560 -0.7426
 8325SOL    HW236438   1.627   0.329   8.767  0.9012 -0.5140  0.3153
 8326SOL     OW36439   2.892   1.968   3.541  0.1956  0.1079 -0.1125
 8326SOL    HW136440   2.914   2.013   3.459  1.5672  0.5229  0.4836
 8326SOL    HW236441   2.938   1.884   3.540 -0.8949 -0.4732 -1.3145
 8327SOL     OW36442   0.910   2.743   6.462  0.2105 -1.0662 -0.2573
 8327SOL    HW136443   0.817   2.728   6.445  0.3461  1.0026 -2.7515
 8327SOL    HW236444   0.919   2.707   6.550  0.4778 -1.1879 -0.3334
 8328SOL     OW36445   3.352   4.054   7.722 -0.1419  0.3287  0.0284
 8328SOL    HW136446   3.416   4.122   7.745  1.5166 -0.0982 -3.3306
 8328SOL    HW236447   3.385   3.975   7.766  0.9496  0.7488 -0.0357
 8329SOL     OW36448   3.804   2.073   9.201  0.0545 -0.1878 -0.0337
 8329SOL    HW136449   3.748   2.069   9.278 -2.9923 -1.0902 -2.2769
 8329SOL    HW236450   3.829   2.164   9.211  0.9984 -0.3590 -0.8180
 8330SOL     OW36451   2.136   0.678   0.741  0.0235 -0.1367  0.0006
 8330SOL    HW136452   2.133   0.594   0.696 -1.7999  0.2518 -0.6231
 8330SOL    HW236453   2.192   0.727   0.681 -0.7448 -0.9166 -1.3498
 8331SOL     OW36454   1.973   2.888   6.757 -0.2626 -0.1632  0.4806
 8331SOL    HW136455   1.879   2.875   6.743 -0.0363  0.6795 -1.8513
 8331SOL    HW236456   1.981   2.896   6.852 -1.3818  0.4153  0.5260
 8332SOL     OW36457   2.417   2.026   4.558 -0.1045 -0.5146  0.1576
 8332SOL    HW136458   2.398   2.020   4.464  1.4208 -1.9304 -0.0560
 8332SOL    HW236459   2.438   2.120   4.564 -0.7845 -0.5577  3.1252
 8333SOL     OW36460   0.412   3.112   6.387  0.3498 -0.8984 -0.1516
 8333SOL    HW136461   0.367   3.166   6.322  2.0816 -0.4817 -1.0175
 8333SOL    HW236462   0.503   3.134   6.367  0.0239  0.7304  0.1351
 8334SOL     OW36463   3.409   4.260  11.641 -0.3026  0.0255 -0.5656
 8334SOL    HW136464   3.337   4.201  11.616 -0.4219 -0.5115  1.0361
 8334SOL    HW236465   3.478   4.238  11.578 -0.5150  1.4206 -1.2865
 8335SOL     OW36466   0.934   3.310   7.291 -0.1698 -0.0172 -0.4827
 8335SOL    HW136467   1.007   3.254   7.262 -0.6063 -1.3410  0.9712
 8335SOL    HW236468   0.976   3.395   7.302 -0.1709 -0.1218  0.3488
 8336SOL     OW36469   3.347   4.406  16.747 -0.3187 -0.1910 -0.1595
 8336SOL    HW136470   3.273   4.363  16.703 -0.4764  0.3454 -0.4256
 8336SOL    HW236471   3.386   4.338  16.802  0.0985 -0.2312 -0.5093
 8337SOL     OW36472   1.363   3.300   6.240  0.1081  0.1693 -0.2007
 8337SOL    HW136473   1.340   3.211   6.268  0.4022  1.0369  2.7462
 8337SOL    HW236474   1.302   3.353   6.290  0.0118  0.7208 -0.9034
 8338SOL     OW36475   2.014   3.305   5.896 -0.4844  0.6064 -0.5394
 8338SOL    HW136476   1.954   3.376   5.918  0.2282  0.7854  0.7889
 8338SOL    HW236477   2.099   3.348   5.909 -0.9790  2.1976 -2.5551
 8339SOL     OW36478   3.903   2.025   6.080  0.1885  0.5318 -0.0322
 8339SOL    HW136479   3.924   2.054   5.991 -1.1212 -0.2952 -0.6092
 8339SOL    HW236480   3.820   1.979   6.065  0.1728  0.4911  0.1850
 8340SOL     OW36481   3.631   2.858   7.656  0.2708  0.2734 -0.4981
 8340SOL    HW136482   3.684   2.884   7.732  0.1394  0.4726 -0.4734
 8340SOL    HW236483   3.617   2.950   7.631  0.1318 -0.3567 -2.7044
 8341SOL     OW36484   3.085   1.887   1.468 -0.3969 -0.5044  0.3776
 8341SOL    HW136485   3.008   1.830   1.467  0.9612 -2.3114 -0.7528
 8341SOL    HW236486   3.151   1.822   1.491  0.8179  1.4101  2.3108
 8342SOL     OW36487   0.976   3.494   2.878 -0.0056  0.6446 -0.4762
 8342SOL    HW136488   1.038   3.481   2.950 -2.5205  0.2829  1.6278
 8342SOL    HW236489   0.950   3.406   2.850  0.5744  0.2675  0.1642
 8343SOL     OW36490   2.357   0.140   9.326  0.2050 -0.2027  0.4934
 8343SOL    HW136491   2.400   0.107   9.247 -0.5429 -0.0806  0.0345
 8343SOL    HW236492   2.336   0.058   9.371 -2.0339  1.3997  2.3938
 8344SOL     OW36493   4.245   0.758   2.765 -0.0418 -0.0391  0.5506
 8344SOL    HW136494   4.236   0.695   2.693 -1.9919  0.3464  0.4524
 8344SOL    HW236495   4.222   0.697   2.835  0.6804  0.0921  0.8951
 8345SOL     OW36496   1.243   3.644  11.920 -0.1679 -0.0538  0.1427
 8345SOL    HW136497   1.321   3.662  11.868  0.0314  1.5003  0.9821
 8345SOL    HW236498   1.289   3.638  12.004 -0.1454 -0.2804  0.1165
 8346SOL     OW36499   0.119   0.785  14.703  0.1193 -0.3172  0.5785
 8346SOL    HW136500   0.152   0.696  14.720  0.9153 -0.3769 -1.2017
 8346SOL    HW236501   0.159   0.825  14.780 -0.5255  1.4999 -0.0444
 8347SOL     OW36502   1.278   1.326  13.466  0.0038 -0.5473  0.0399
 8347SOL    HW136503   1.196   1.315  13.418  0.2322  2.9514 -1.1351
 8347SOL    HW236504   1.328   1.247  13.445  0.3211  0.2150 -2.0649
 8348SOL     OW36505   1.620   3.946   2.561 -0.0391 -0.2652  0.1436
 8348SOL    HW136506   1.675   4.022   2.577 -0.2353 -0.7359  3.0055
 8348SOL    HW236507   1.653   3.931   2.472 -0.9991 -2.1836  0.1020
 8349SOL     OW36508   0.591   1.340   2.906 -0.3023  0.2922 -0.0725
 8349SOL    HW136509   0.582   1.246   2.888  1.9888 -0.3016  1.9373
 8349SOL    HW236510   0.553   1.344   2.993 -1.9136 -0.8454 -0.7284
 8350SOL     OW36511   0.242   4.188   4.108 -0.2522 -0.2295 -0.0946
 8350SOL    HW136512   0.260   4.274   4.071  0.3364  0.8566  2.6880
 8350SOL    HW236513   0.331   4.156   4.092  0.5364  0.4144  3.0877
 8351SOL     OW36514   3.892   0.981  16.681  0.1927  0.0710 -0.2760
 8351SOL    HW136515   3.808   0.956  16.719  1.0992 -1.0070  0.9859
 8351SOL    HW236516   3.861   0.995  16.591 -0.3680  0.1730 -0.0669
 8352SOL     OW36517   3.801   0.535  15.530 -0.0232 -0.4321  0.3515
 8352SOL    HW136518   3.722   0.506  15.483  1.1723  0.0131 -1.9654
 8352SOL    HW236519   3.764   0.550  15.617 -0.1518  0.7416  0.0901
 8353SOL     OW36520   3.116   2.177   1.442  0.4457 -0.4570 -0.1493
 8353SOL    HW136521   3.072   2.182   1.358 -0.5819  0.1509  0.4194
 8353SOL    HW236522   3.114   2.082   1.454  0.0525 -0.7611 -2.6108
 8354SOL     OW36523   2.321   4.688   6.118  0.1375  0.0233  0.3012
 8354SOL    HW136524   2.262   4.616   6.141 -2.0801  2.5151  2.4380
 8354SOL    HW236525   2.359   4.720   6.200 -0.3110  2.1427 -0.3219
 8355SOL     OW36526   0.566   1.887   9.654  0.4259 -0.1481 -0.0361
 8355SOL    HW136527   0.653   1.868   9.690 -0.1085 -1.1287  0.7405
 8355SOL    HW236528   0.507   1.883   9.728  0.5064  0.2668  0.0491
 8356SOL     OW36529   1.957   1.182   7.867  0.3108 -0.1852  0.3757
 8356SOL    HW136530   1.993   1.223   7.945  1.4261  0.6502 -0.5874
 8356SOL    HW236531   2.009   1.217   7.795 -0.7019 -0.9963 -0.7663
 8357SOL     OW36532   1.048   4.711  10.460  0.1213  0.1928  0.1236
 8357SOL    HW136533   1.085   4.686  10.375  1.6685  1.4640  0.4412
 8357SOL    HW236534   1.133   0.021  10.486 -0.8402  2.9096 -0.2455
 8358SOL     OW36535   3.421   0.468   7.430  0.0778  0.1287  0.7578
 8358SOL    HW136536   3.391   0.483   7.340 -1.6665 -1.5411  1.0569
 8358SOL    HW236537   3.505   0.512   7.420  0.8322 -1.9582 -2.4173
 8359SOL     OW36538   0.335   3.065   8.992  0.0117 -0.2620  0.7666
 8359SOL    HW136539   0.369   3.116   9.066 -0.0052 -2.0988  2.0315
 8359SOL    HW236540   0.246   3.098   8.990  0.6335  1.2982 -1.4728
 8360SOL     OW36541   4.400   3.479  14.470 -0.1998 -0.3182  0.0709
 8360SOL    HW136542   4.460   3.435  14.409  0.9836  1.0034  0.2861
 8360SOL    HW236543   4.460   3.480  14.543 -1.1631 -0.1178  0.8617
 8361SOL     OW36544   3.299   3.737   6.780  0.6858 -0.7754 -0.1235
 8361SOL    HW136545   3.253   3.656   6.803 -1.0955  0.0387 -0.8308
 8361SOL    HW236546   3.360   3.709   6.711  0.2425 -0.7256 -0.5317
 8362SOL     OW36547   4.209   2.901  15.320  0.1001  0.2153 -0.3703
 8362SOL    HW136548   4.217   2.994  15.343  0.5875  0.1826 -0.4072
 8362SOL    HW236549   4.133   2.906  15.262  0.4120  1.2595 -0.6900
 8363SOL     OW36550   3.097   1.889  12.500 -0.1762 -1.0789  0.5409
 8363SOL    HW136551   3.185   1.873  12.467 -0.3836 -1.1982  0.0466
 8363SOL    HW236552   3.103   1.981  12.525  3.3814 -0.9801 -0.7909
 8364SOL     OW36553   4.252   4.433   4.780  0.0970 -0.0990  0.1404
 8364SOL    HW136554   4.227   4.494   4.849 -0.0409 -0.5509  0.4843
 8364SOL    HW236555   4.229   4.485   4.702 -0.5906  0.7049  0.8911
 8365SOL     OW36556   1.672   0.574   9.286 -0.2468  0.0258 -0.0704
 8365SOL    HW136557   1.664   0.608   9.196 -0.6837  2.3955  0.8684
 8365SOL    HW236558   1.645   0.654   9.329  0.9502  1.4742 -1.9976
 8366SOL     OW36559   2.866   2.274  15.716 -0.6422 -0.1147  0.1002
 8366SOL    HW136560   2.922   2.327  15.772  0.1363  0.1747 -0.9718
 8366SOL    HW236561   2.810   2.223  15.775 -0.8000 -1.7966 -1.5207
 8367SOL     OW36562   3.541   1.589   9.198 -0.0435 -0.0280 -0.4020
 8367SOL    HW136563   3.568   1.498   9.210  0.7701  0.2899  0.1062
 8367SOL    HW236564   3.510   1.596   9.108 -2.5296  0.7331  0.5119
 8368SOL     OW36565   4.033   2.804   2.586  0.0203 -0.0144  0.3244
 8368SOL    HW136566   4.112   2.815   2.640 -0.9733  1.5375  1.4740
 8368SOL    HW236567   3.985   2.749   2.648 -0.7583 -1.6169 -1.7043
 8369SOL     OW36568   1.807   3.892   4.898 -0.0641  0.4554  0.0353
 8369SOL    HW136569   1.813   3.896   4.802 -0.8371 -0.1362 -0.0366
 8369SOL    HW236570   1.798   3.985   4.918  0.3962  0.4198  0.4130
 8370SOL     OW36571   0.711   2.295   4.823  0.3148 -0.2858 -0.1671
 8370SOL    HW136572   0.674   2.378   4.793  2.9458  0.7735 -0.4611
 8370SOL    HW236573   0.727   2.251   4.740 -3.6820 -2.4494  0.1839
 8371SOL     OW36574   3.902   0.401  16.935 -0.4957 -0.0582 -0.2137
 8371SOL    HW136575   3.823   0.448  16.909 -0.8511 -0.2512  0.4885
 8371SOL    HW236576   3.976   0.455  16.908  1.7842 -3.0884 -0.1516
 8372SOL     OW36577   2.307   2.559   3.819 -0.0506 -0.0992 -0.1311
 8372SOL    HW136578   2.224   2.548   3.866 -0.2164 -1.2407 -0.6924
 8372SOL    HW236579   2.268   2.591   3.738 -0.9101 -1.0696 -0.0994
 8373SOL     OW36580   1.225   2.290   6.050  0.2922  0.1180 -0.4490
 8373SOL    HW136581   1.296   2.230   6.074  1.1190  0.1922 -2.6876
 8373SOL    HW236582   1.207   2.335   6.133  0.3382  1.4659 -1.1689
 8374SOL     OW36583   3.753   0.148   1.189 -0.2349 -0.4716 -0.1528
 8374SOL    HW136584   3.680   0.204   1.214 -0.2146 -0.9471  0.9643
 8374SOL    HW236585   3.828   0.187   1.233 -1.3492 -0.5861  1.8411
 8375SOL     OW36586   3.225   2.519  16.429  0.1959 -0.3261  0.5030
 8375SOL    HW136587   3.218   2.551  16.518  1.8572 -0.5350  0.7092
 8375SOL    HW236588   3.284   2.444  16.428 -0.4090 -0.7946 -0.2912
 8376SOL     OW36589   4.040   3.850   7.247  0.2071  0.2771 -0.6872
 8376SOL    HW136590   4.012   3.857   7.156 -1.4289 -1.2603 -0.2982
 8376SOL    HW236591   4.114   3.789   7.246 -0.3249 -0.3798  0.0311
 8377SOL     OW36592   3.569   3.648   8.418  0.2213  0.4412  0.5333
 8377SOL    HW136593   3.656   3.684   8.401  0.3596  0.1054  0.5410
 8377SOL    HW236594   3.529   3.706   8.483  0.3780 -1.6735  2.5450
 8378SOL     OW36595   4.232   4.240   7.475  0.0909  0.3679 -0.4416
 8378SOL    HW136596   4.202   4.189   7.400 -3.0427 -0.8673  1.6565
 8378SOL    HW236597   4.171   4.314   7.467 -1.5365 -0.7763  1.3578
 8379SOL     OW36598   2.890   0.903   3.674  0.1497 -0.5763 -0.1785
 8379SOL    HW136599   2.822   0.856   3.626 -0.0777  0.0590 -0.4698
 8379SOL    HW236600   2.909   0.842   3.746  0.4846  0.3104  0.4805
 8380SOL     OW36601   1.217   3.554  11.095  0.5197  0.5433 -0.1212
 8380SOL    HW136602   1.228   3.564  11.000 -3.9846 -2.3637 -0.9449
 8380SOL    HW236603   1.135   3.504  11.095 -0.4247  2.0607 -0.6994
 8381SOL     OW36604   3.736   3.645   0.159 -0.4194  0.7850 -0.0614
 8381SOL    HW136605   3.655   3.602   0.133 -1.2655  1.5348  1.3402
 8381SOL    HW236606   3.754   3.594   0.238 -0.6487 -0.8060 -1.0573
 8382SOL     OW36607   3.868   1.960  15.553 -0.1196 -0.4204  0.0638
 8382SOL    HW136608   3.772   1.962  15.546 -0.0277 -0.0255 -1.1098
 8382SOL    HW236609   3.878   1.983  15.645 -0.7766  2.1088 -0.5004
 8383SOL     OW36610   3.201   1.482   7.543  0.2964  0.0158 -0.0105
 8383SOL    HW136611   3.151   1.429   7.482 -1.5652  2.0908 -0.3164
 8383SOL    HW236612   3.242   1.409   7.590  2.0243  0.8508 -0.2181
 8384SOL     OW36613   1.880   1.425   0.423 -0.3377  0.3495 -0.1208
 8384SOL    HW136614   1.915   1.419   0.512  0.9413 -2.2902 -0.8252
 8384SOL    HW236615   1.901   1.515   0.398 -0.1494 -0.3064 -2.3291
 8385SOL     OW36616   0.741   0.344   8.661  0.1060 -0.3770 -0.5819
 8385SOL    HW136617   0.749   0.352   8.566  2.4966 -3.5182 -0.6249
 8385SOL    HW236618   0.811   0.287   8.693  0.6736  0.7193  0.1388
 8386SOL     OW36619   1.254   4.307   7.278 -0.3668  0.2135 -0.5186
 8386SOL    HW136620   1.279   4.222   7.312 -2.1100 -0.7223 -1.5581
 8386SOL    HW236621   1.299   4.370   7.335  2.5933 -2.4871  0.0552
 8387SOL     OW36622   0.962   3.404   3.622 -0.3695  0.2106 -0.3413
 8387SOL    HW136623   0.882   3.353   3.631 -0.5051  0.0611 -2.3149
 8387SOL    HW236624   0.930   3.485   3.582 -1.7165 -0.2539 -0.1792
 8388SOL     OW36625   1.614   2.731   1.636 -0.4114  0.2018 -0.1328
 8388SOL    HW136626   1.612   2.672   1.560 -1.7820  0.8906 -0.6397
 8388SOL    HW236627   1.708   2.739   1.649  0.0007 -0.0410 -2.9470
 8389SOL     OW36628   4.503   1.999  10.746  0.1019 -0.3235 -0.7227
 8389SOL    HW136629   4.493   1.987  10.841  0.2216  2.2240 -0.3710
 8389SOL    HW236630   4.473   2.090  10.742  0.6189 -0.0418  1.6993
 8390SOL     OW36631   1.229   0.778   9.043  0.3775 -0.2209  0.5588
 8390SOL    HW136632   1.288   0.706   9.021  1.0834  0.4005  0.4129
 8390SOL    HW236633   1.195   0.770   8.954 -0.9002  0.1379  1.0128
 8391SOL     OW36634   1.561   4.083  11.130  0.1845 -0.4804 -0.2806
 8391SOL    HW136635   1.638   4.062  11.183 -1.8394 -0.9811  2.4471
 8391SOL    HW236636   1.556   4.002  11.078  0.6536 -0.5886 -0.1612
 8392SOL     OW36637   4.711   0.346   5.877  0.4601  0.1040 -0.1423
 8392SOL    HW136638   4.714   0.363   5.971  1.2118 -0.2268 -0.1070
 8392SOL    HW236639   0.050   0.275   5.868  0.6084 -0.1518  2.9450
 8393SOL     OW36640   0.940   1.359   6.288 -0.0972 -0.1668 -0.4577
 8393SOL    HW136641   0.920   1.367   6.381 -0.3292  0.5467 -0.5700
 8393SOL    HW236642   1.034   1.343   6.288 -0.3525 -1.7408  0.3507
 8394SOL     OW36643   4.583   4.648   2.441  0.1107 -0.3352 -0.0969
 8394SOL    HW136644   4.510   4.587   2.451  0.8425 -0.9048  1.7846
 8394SOL    HW236645   4.582   4.669   2.348 -2.4860  0.6631  0.1413
 8395SOL     OW36646   2.535   3.543   7.271 -0.0326 -0.1446 -0.4069
 8395SOL    HW136647   2.535   3.584   7.357 -0.4206  0.4300 -0.6775
 8395SOL    HW236648   2.599   3.589   7.217 -0.0465  0.1666 -0.1531
 8396SOL     OW36649   3.189   4.690   7.127 -0.1538 -0.5197 -0.1719
 8396SOL    HW136650   3.192   0.048   7.178 -0.0655  0.8051 -2.2773
 8396SOL    HW236651   3.190   4.634   7.205  1.1719  1.6092  1.3476
 8397SOL     OW36652   0.313   2.831  12.784  0.0387  0.3170  0.2327
 8397SOL    HW136653   0.382   2.880  12.827  0.7676 -1.1313  0.7261
 8397SOL    HW236654   0.356   2.750  12.755  0.3645  1.4286 -2.4568
 8398SOL     OW36655   1.118   4.392  12.672  0.4073 -0.0460  0.0939
 8398SOL    HW136656   1.168   4.384  12.752  0.7749 -0.5044 -0.1829
 8398SOL    HW236657   1.031   4.364  12.702  0.3521 -1.3822 -1.2811
 8399SOL     OW36658   2.563   2.884  14.575  0.0147  0.2959  0.3707
 8399SOL    HW136659   2.593   2.852  14.660  0.6107  0.1387  0.0974
 8399SOL    HW236660   2.489   2.935  14.609 -0.5848  1.0539 -2.0675
 8400SOL     OW36661   0.483   3.828   7.406 -0.2754 -0.0310 -0.3734
 8400SOL    HW136662   0.513   3.788   7.324  1.4249  1.3186 -0.4233
 8400SOL    HW236663   0.454   3.912   7.372  0.3124 -0.0016 -0.8149
 8401SOL     OW36664   2.829   1.536   3.624  0.2936 -0.4153  0.0891
 8401SOL    HW136665   2.843   1.523   3.718  1.9714  0.0051 -0.1021
 8401SOL    HW236666   2.921   1.544   3.598  0.4126  0.0493  0.6574
 8402SOL     OW36667   2.652   3.387   7.692 -0.0795  0.1433 -0.1282
 8402SOL    HW136668   2.699   3.403   7.773 -1.3958  0.3067  0.6011
 8402SOL    HW236669   2.580   3.449   7.705 -1.1779 -0.9927 -0.8167
 8403SOL     OW36670   2.489   1.747  11.779  0.3481 -0.1681  0.2064
 8403SOL    HW136671   2.473   1.654  11.760  1.8477 -0.3698 -0.1050
 8403SOL    HW236672   2.585   1.744  11.782  0.3126 -0.0244  1.5834
 8404SOL     OW36673   0.547   3.735   6.114 -0.4338  0.5856 -0.2716
 8404SOL    HW136674   0.522   3.816   6.159 -1.1105 -0.0775  0.5559
 8404SOL    HW236675   0.466   3.719   6.067  2.3892 -3.8175 -3.5943
 8405SOL     OW36676   1.061   1.645   7.865  1.0568 -0.1087 -0.8499
 8405SOL    HW136677   1.041   1.738   7.874 -1.6702 -0.8896  1.2220
 8405SOL    HW236678   1.142   1.644   7.916  0.2306 -1.1685  0.4498
 8406SOL     OW36679   2.139   4.267   8.689 -0.1676  0.1088  0.1735
 8406SOL    HW136680   2.195   4.322   8.634 -1.7838  1.7661  0.1984
 8406SOL    HW236681   2.186   4.276   8.772  0.3891 -0.7510 -0.0452
 8407SOL     OW36682   0.995   3.942   0.259  0.6703  0.2378  0.1064
 8407SOL    HW136683   0.972   4.034   0.272 -0.8429 -0.1589  0.1802
 8407SOL    HW236684   0.940   3.902   0.326  0.3989 -0.4010 -0.5005
 8408SOL     OW36685   0.327   2.756   7.801 -0.4040  0.3593 -0.3246
 8408SOL    HW136686   0.322   2.753   7.705  0.0547 -0.3075 -0.3341
 8408SOL    HW236687   0.281   2.835   7.827 -0.4290  0.7861 -1.6574
 8409SOL     OW36688   3.188   0.682  11.002  0.4668 -0.1367  0.0427
 8409SOL    HW136689   3.142   0.716  10.926 -0.9276  0.5317  1.1717
 8409SOL    HW236690   3.202   0.766  11.047 -0.7545  0.1785 -0.1809
 8410SOL     OW36691   0.011   0.111   9.099  0.0130  0.2396  0.3164
 8410SOL    HW136692   0.006   0.038   9.161  0.9821 -0.7765 -0.8069
 8410SOL    HW236693   4.650   0.099   9.057 -0.7178  1.7873  1.3307
 8411SOL     OW36694   2.715   1.989  12.529  0.2602  0.7316  0.2021
 8411SOL    HW136695   2.658   2.050  12.483  2.9473  1.5537 -2.0505
 8411SOL    HW236696   2.722   1.912  12.473  0.5014 -0.4524  1.8489
 8412SOL     OW36697   1.040   4.451  12.012  0.2313 -0.0223  0.0690
 8412SOL    HW136698   1.103   4.413  12.073  1.7407 -0.7881 -1.9462
 8412SOL    HW236699   1.089   4.453  11.930 -0.0050  3.5763  0.0144
 8413SOL     OW36700   0.822   1.179   2.761  0.2000  0.3330  0.0756
 8413SOL    HW136701   0.790   1.250   2.816 -0.2098 -1.5294  2.2313
 8413SOL    HW236702   0.888   1.141   2.820 -0.6964  0.2449  1.0118
 8414SOL     OW36703   1.201   2.470  17.098 -0.1961  0.2691 -0.4950
 8414SOL    HW136704   1.255   2.429  17.029  0.6609 -1.3054  1.1227
 8414SOL    HW236705   1.111   2.446  17.075 -0.4751  1.9461 -1.1192
 8415SOL     OW36706   4.495   0.281   3.493 -0.1599 -0.7058 -0.6356
 8415SOL    HW136707   4.585   0.271   3.462 -0.0282 -2.1227  0.1893
 8415SOL    HW236708   4.499   0.362   3.543 -0.5795 -1.1309  0.1077
 8416SOL     OW36709   3.317   1.023   8.490  0.2036  0.1737 -0.0744
 8416SOL    HW136710   3.334   1.083   8.563  1.4275 -0.4512  0.1587
 8416SOL    HW236711   3.352   0.941   8.524  1.5878  0.9098  0.3160
 8417SOL     OW36712   0.108   2.404   8.600 -0.0657  0.4725  0.0163
 8417SOL    HW136713   0.146   2.421   8.514  0.0910 -0.3108 -0.0692
 8417SOL    HW236714   0.044   2.339   8.569 -0.7025  0.0095  2.2662
 8418SOL     OW36715   3.716   2.986  16.345 -0.4149 -0.2553 -0.5787
 8418SOL    HW136716   3.726   2.891  16.354  1.4174 -0.1127 -1.1775
 8418SOL    HW236717   3.723   2.998  16.440  2.2240 -2.0338 -0.5378
 8419SOL     OW36718   1.782   0.752   8.402  0.4106 -0.0498  0.9254
 8419SOL    HW136719   1.785   0.737   8.497 -1.9671  0.8685  1.1489
 8419SOL    HW236720   1.835   0.678   8.371  2.6054  2.2850 -0.8435
 8420SOL     OW36721   0.294   2.673   2.879  0.1311  0.2889  0.4572
 8420SOL    HW136722   0.224   2.738   2.871 -1.6917 -1.8440 -1.0420
 8420SOL    HW236723   0.269   2.617   2.953 -1.0640 -0.9605 -0.8823
 8421SOL     OW36724   0.218   2.882  13.881 -0.0394  0.0959  0.1070
 8421SOL    HW136725   0.303   2.892  13.838 -0.3192  1.4917 -0.1288
 8421SOL    HW236726   0.157   2.892  13.808  0.7298  0.6403 -0.4561
 8422SOL     OW36727   2.470   2.738   7.550  0.4034  0.3846 -0.6309
 8422SOL    HW136728   2.540   2.723   7.488  0.3339 -0.0622 -0.5987
 8422SOL    HW236729   2.513   2.780   7.625  0.6627  0.3631 -0.7691
 8423SOL     OW36730   1.974   2.953   8.213  0.2640 -0.2457  0.0592
 8423SOL    HW136731   1.883   2.970   8.237  0.3609  0.0723  0.1879
 8423SOL    HW236732   2.015   3.027   8.257 -0.4491  0.3141 -0.2128
 8424SOL     OW36733   1.561   1.599   6.938 -0.2584  0.0097 -0.5876
 8424SOL    HW136734   1.521   1.515   6.962 -2.2003  0.4205 -2.3707
 8424SOL    HW236735   1.636   1.598   6.997  1.4736  0.3924 -2.8094
 8425SOL     OW36736   4.177   2.467  13.671  0.8716 -0.3622 -0.9240
 8425SOL    HW136737   4.227   2.543  13.643  0.5319 -0.6656 -2.3557
 8425SOL    HW236738   4.175   2.478  13.766  0.1562  0.3162 -1.0261
 8426SOL     OW36739   2.040   0.492   5.291  0.0329 -0.2298  0.1723
 8426SOL    HW136740   1.951   0.473   5.321  0.8037  0.2628  2.6906
 8426SOL    HW236741   2.027   0.585   5.277 -2.4662 -0.7922 -1.2798
 8427SOL     OW36742   2.373   3.193   9.717  0.3325 -0.1820 -0.0681
 8427SOL    HW136743   2.395   3.174   9.808  2.1816  0.8917 -0.2951
 8427SOL    HW236744   2.318   3.270   9.733 -2.8183 -3.1285  3.4745
 8428SOL     OW36745   2.170   1.840   7.269 -0.6273  0.3791 -0.1746
 8428SOL    HW136746   2.096   1.828   7.329  0.5310  1.3100  1.4637
 8428SOL    HW236747   2.235   1.783   7.310  1.5404  2.1934 -1.0498
 8429SOL     OW36748   3.066   4.471   2.283  0.0818 -0.2973 -0.0371
 8429SOL    HW136749   3.058   4.394   2.226  1.5501 -2.6061  2.8851
 8429SOL    HW236750   3.033   4.440   2.367 -2.0524  0.2842 -0.6697
 8430SOL     OW36751   0.717   3.969   5.905 -0.9241  0.5486 -0.6348
 8430SOL    HW136752   0.758   3.884   5.919 -1.5782  0.3189 -0.1372
 8430SOL    HW236753   0.685   3.978   5.994  0.9743 -0.8545  0.1724
 8431SOL     OW36754   2.043   2.734  11.823  0.5665  0.2435 -0.0339
 8431SOL    HW136755   2.055   2.749  11.917 -3.4125 -0.3988  0.5706
 8431SOL    HW236756   1.948   2.745  11.818  0.5175 -0.1696  0.0224
 8432SOL     OW36757   0.006   2.677   5.243  0.3255  0.1647 -0.3336
 8432SOL    HW136758   4.687   2.762   5.257 -1.2379 -0.3364 -1.9365
 8432SOL    HW236759   0.014   2.669   5.148  1.6840 -0.7280 -0.1431
 8433SOL     OW36760   0.497   2.314  14.008 -0.5556 -0.1444  0.2529
 8433SOL    HW136761   0.568   2.254  13.983 -1.5665 -1.1331 -0.2354
 8433SOL    HW236762   0.424   2.278  13.958 -1.2520 -1.9715  2.5987
 8434SOL     OW36763   2.829   3.851   1.958  0.2422 -0.8508  0.1582
 8434SOL    HW136764   2.911   3.892   1.932  0.7366  0.1925  3.3214
 8434SOL    HW236765   2.845   3.757   1.965 -1.8235 -1.3301 -1.4847
 8435SOL     OW36766   0.070   3.171   9.297  0.2173 -0.2153  0.1359
 8435SOL    HW136767   0.028   3.143   9.215  2.1578 -0.0021 -0.9298
 8435SOL    HW236768   0.059   3.265   9.287 -1.2541 -0.4373 -0.4908
 8436SOL     OW36769   2.103   4.667  13.450  0.5980  0.2532 -0.7311
 8436SOL    HW136770   2.054   4.698  13.526  2.0371  0.1287  0.2618
 8436SOL    HW236771   2.060   4.583  13.435 -2.4244  1.5910  0.4952
 8437SOL     OW36772   2.700   4.289   3.936  0.1507 -0.4211 -0.4444
 8437SOL    HW136773   2.623   4.344   3.954  1.0690  1.0640 -1.0906
 8437SOL    HW236774   2.685   4.206   3.982 -0.2983  0.7643  1.5524
 8438SOL     OW36775   2.143   3.218   4.970  0.2991 -0.0398 -0.1195
 8438SOL    HW136776   2.239   3.213   4.971  0.3015  0.4371  1.0330
 8438SOL    HW236777   2.128   3.307   5.001 -1.0085  0.8023 -3.0679
 8439SOL     OW36778   4.607   4.139   5.905  0.0152 -0.1398 -0.1582
 8439SOL    HW136779   4.544   4.105   5.969  2.2594 -1.6048  1.2722
 8439SOL    HW236780   4.547   4.179   5.842  0.1032  0.2235 -0.0086
 8440SOL     OW36781   1.763   2.903  15.975 -0.0453 -0.2872  0.2575
 8440SOL    HW136782   1.768   2.825  15.919  0.7715 -0.4615  0.5668
 8440SOL    HW236783   1.681   2.949  15.957 -0.6913 -1.5825 -0.1023
 8441SOL     OW36784   2.352   3.499   9.072 -0.2744 -0.0261 -0.6640
 8441SOL    HW136785   2.383   3.473   9.159 -1.7326  1.5467  0.3401
 8441SOL    HW236786   2.380   3.423   9.021 -0.4218 -0.2594 -0.3991
 8442SOL     OW36787   3.078   4.035   5.420  0.2052  0.4103  0.5684
 8442SOL    HW136788   3.071   4.118   5.466  0.5166  0.6239  0.2331
 8442SOL    HW236789   3.152   4.063   5.366  0.7084 -0.3357  0.8612
 8443SOL     OW36790   4.036   1.397   7.914  0.1222 -0.3432  0.2120
 8443SOL    HW136791   4.044   1.476   7.967  2.1848 -0.6110  0.2696
 8443SOL    HW236792   4.003   1.438   7.834 -0.9223 -1.8307 -0.1412
 8444SOL     OW36793   4.151   3.356   4.880 -0.1303  0.2646  0.1119
 8444SOL    HW136794   4.109   3.429   4.836 -0.6642 -0.9572 -1.4015
 8444SOL    HW236795   4.071   3.307   4.899 -0.3628  0.9866  1.0271
 8445SOL     OW36796   4.617   2.199  13.005 -0.3922  0.8719 -0.2806
 8445SOL    HW136797   4.536   2.234  13.041 -0.5141  0.1262  0.1723
 8445SOL    HW236798   4.605   2.105  12.995  1.5038  0.7749 -1.6439
 8446SOL     OW36799   2.902   2.159   0.484  0.0091 -0.3014 -0.2235
 8446SOL    HW136800   2.850   2.187   0.559  0.9264 -0.3800  0.4358
 8446SOL    HW236801   2.990   2.133   0.511  0.4173  0.0344 -1.2497
 8447SOL     OW36802   1.760   3.665   1.359 -0.0104 -0.5147  0.3749
 8447SOL    HW136803   1.729   3.745   1.317  3.9403  2.1506  2.5153
 8447SOL    HW236804   1.787   3.698   1.445 -0.4308  1.0633 -0.1051
 8448SOL     OW36805   3.212   0.621  12.417 -0.2293  0.2106  0.2828
 8448SOL    HW136806   3.177   0.698  12.374 -1.3474  0.7565  2.1493
 8448SOL    HW236807   3.237   0.668  12.497 -1.4829  1.1486  0.1145
 8449SOL     OW36808   3.805   0.439  13.138 -0.0559 -0.3080 -0.2556
 8449SOL    HW136809   3.720   0.468  13.171  0.7758  0.9972  0.7071
 8449SOL    HW236810   3.853   0.520  13.154  1.6606 -1.3240 -0.1994
 8450SOL     OW36811   1.398   0.640   8.682 -0.2160  0.0686 -0.1609
 8450SOL    HW136812   1.462   0.632   8.611  0.3086 -2.3463  0.5687
 8450SOL    HW236813   1.452   0.687   8.746 -0.3582  3.6664 -2.7154
 8451SOL     OW36814   3.847   0.409   5.595 -0.4758  0.7559 -0.6955
 8451SOL    HW136815   3.844   0.328   5.645 -0.9753  1.3700  0.2707
 8451SOL    HW236816   3.924   0.391   5.541  0.3971 -0.7863  1.0704
 8452SOL     OW36817   0.134   0.477   3.588 -0.8539 -0.4166 -0.3402
 8452SOL    HW136818   0.111   0.399   3.537 -0.7503 -0.2711 -0.6069
 8452SOL    HW236819   0.107   0.546   3.528 -4.1148 -0.2874  1.2719
 8453SOL     OW36820   2.619   3.195   9.024  0.0190 -0.1006 -0.4928
 8453SOL    HW136821   2.538   3.221   8.981 -1.2909 -1.8029  0.9497
 8453SOL    HW236822   2.605   3.212   9.117  1.1829 -0.2416 -0.2879
 8454SOL     OW36823   4.065   2.941   6.994 -0.9017  0.0647  0.0776
 8454SOL    HW136824   4.139   2.959   7.052  1.4297 -0.4537 -2.7081
 8454SOL    HW236825   4.083   3.014   6.934 -0.5176 -0.5019 -0.5044
 8455SOL     OW36826   0.839   3.637   9.119 -0.6350 -0.3734  0.4297
 8455SOL    HW136827   0.768   3.579   9.148  0.6321 -2.8275 -1.3490
 8455SOL    HW236828   0.878   3.577   9.056  1.1930  1.5139 -0.2173
 8456SOL     OW36829   0.248   0.068  14.279  0.0132  0.2265 -0.0587
 8456SOL    HW136830   0.154   0.071  14.258 -0.0481  0.1226  0.1892
 8456SOL    HW236831   0.260   0.136  14.344  1.1140  0.3875 -0.4417
 8457SOL     OW36832   3.325   4.114  13.495 -0.2288 -0.0345  0.4246
 8457SOL    HW136833   3.296   4.205  13.491 -1.9179 -0.6255 -0.7682
 8457SOL    HW236834   3.270   4.079  13.564 -0.9767 -1.4020 -0.8541
 8458SOL     OW36835   0.095   0.665   5.236  0.5574  0.3114 -0.3231
 8458SOL    HW136836   0.148   0.593   5.269 -0.6891 -1.0033 -1.1757
 8458SOL    HW236837   0.020   0.647   5.293  0.0687  3.6638  0.0943
 8459SOL     OW36838   1.337   2.001   2.594 -0.6513  0.7868  0.3939
 8459SOL    HW136839   1.341   1.969   2.504  0.0141  0.0181  0.7050
 8459SOL    HW236840   1.365   1.923   2.642  1.4571 -0.4364 -2.8873
 8460SOL     OW36841   4.309   3.597   3.753 -0.3813  0.7499  0.3076
 8460SOL    HW136842   4.251   3.665   3.788 -2.2164 -0.1341 -1.0440
 8460SOL    HW236843   4.244   3.545   3.706  0.9493  0.6218 -1.3906
 8461SOL     OW36844   3.475   0.181   7.190  0.2564  0.5448  0.5396
 8461SOL    HW136845   3.509   0.127   7.261 -1.4674 -0.2925  0.7256
 8461SOL    HW236846   3.523   0.152   7.113  0.8788  1.6546  0.5017
 8462SOL     OW36847   3.507   3.552   0.099 -0.1237  0.8099 -0.3800
 8462SOL    HW136848   3.431   3.606   0.077  0.9276  3.0984  1.6292
 8462SOL    HW236849   3.477   3.506   0.178  2.3142 -1.0198 -0.5257
 8463SOL     OW36850   4.576   2.599   0.053 -0.0730 -0.0927 -0.2731
 8463SOL    HW136851   4.557   2.505   0.060 -0.9169  0.0537 -0.5864
 8463SOL    HW236852   4.592   2.604  17.654  2.0430 -0.7301  0.0487
 8464SOL     OW36853   4.025   4.056  11.179 -0.6952  0.0403  0.1704
 8464SOL    HW136854   3.983   4.116  11.117 -0.3428 -0.3962 -0.4972
 8464SOL    HW236855   4.052   3.985  11.119  0.0384 -2.4933  3.5073
 8465SOL     OW36856   3.307   3.051   8.935 -0.2659 -0.3291  0.3602
 8465SOL    HW136857   3.227   3.091   8.901 -0.7163 -1.6746 -0.1632
 8465SOL    HW236858   3.297   3.077   9.026  0.4431  1.4320 -0.0638
 8466SOL     OW36859   4.639   3.970  16.957  0.7005  0.0279 -0.4207
 8466SOL    HW136860   4.651   4.049  17.010  0.3734 -0.0711 -0.1987
 8466SOL    HW236861   4.673   4.001  16.873 -0.6883  0.8328 -0.6771
 8467SOL     OW36862   4.455   3.764  12.075 -0.8160  0.2254  0.0430
 8467SOL    HW136863   4.390   3.825  12.040  1.0687 -0.1241 -3.9744
 8467SOL    HW236864   4.533   3.806  12.039 -1.5770  1.5638 -0.0247
 8468SOL     OW36865   0.311   4.224   9.857 -0.6178 -0.0446 -1.1102
 8468SOL    HW136866   0.288   4.167   9.784  0.2464 -1.9883  0.1269
 8468SOL    HW236867   0.258   4.302   9.843 -1.5458 -0.7392 -1.4546
 8469SOL     OW36868   0.117   1.318  16.008  0.1058 -0.2277  0.0421
 8469SOL    HW136869   0.141   1.349  16.095  2.0245 -0.8663 -0.2505
 8469SOL    HW236870   0.095   1.226  16.022 -2.2333  0.2465 -0.4812
 8470SOL     OW36871   0.758   4.227   3.499 -0.6170  0.1478  0.1582
 8470SOL    HW136872   0.672   4.243   3.461 -0.7499 -0.0980  0.3515
 8470SOL    HW236873   0.755   4.297   3.565  0.1823  1.2734 -1.0069
 8471SOL     OW36874   2.241   3.471   9.568  0.5270  0.6066 -0.3011
 8471SOL    HW136875   2.158   3.490   9.525  0.0664  1.9156  1.1457
 8471SOL    HW236876   2.293   3.446   9.492  0.2142 -0.3357 -0.2034
 8472SOL     OW36877   0.142   0.055   5.011  0.0759  0.0582 -0.3584
 8472SOL    HW136878   0.167   4.694   5.047  0.3501  0.0895 -0.4746
 8472SOL    HW236879   0.068   0.067   5.070 -0.1771  0.2518 -0.7137
 8473SOL     OW36880   1.289   0.744   6.656  0.0289 -0.6970  0.5039
 8473SOL    HW136881   1.258   0.740   6.747 -0.5041  0.8374  0.3903
 8473SOL    HW236882   1.206   0.769   6.615  0.1039 -3.1707 -1.1535
 8474SOL     OW36883   4.099   4.117   5.519  0.3612  0.2951  0.0098
 8474SOL    HW136884   4.030   4.157   5.573 -1.0775 -1.9658 -0.1394
 8474SOL    HW236885   4.078   4.149   5.431 -1.4175 -1.7725 -0.3159
 8475SOL     OW36886   3.561   4.473  16.616 -0.0601 -0.2051  0.3652
 8475SOL    HW136887   3.583   4.565  16.632 -3.8882  0.7151  0.3435
 8475SOL    HW236888   3.477   4.472  16.662 -0.5002  0.8854 -0.4230
 8476SOL     OW36889   0.558   4.484  11.491 -0.2055 -0.6830 -0.2644
 8476SOL    HW136890   0.511   4.433  11.426 -0.4859 -0.8024  0.0342
 8476SOL    HW236891   0.489   4.542  11.524 -0.3624 -1.5795  1.0071
 8477SOL     OW36892   4.539   2.192   3.888  0.5509  0.3694 -0.3365
 8477SOL    HW136893   4.573   2.261   3.830  0.3928  1.1330  0.4806
 8477SOL    HW236894   4.446   2.205   3.867  0.8736  0.1877 -1.8759
 8478SOL     OW36895   2.049   2.165   5.550  0.1437  0.1532 -0.5960
 8478SOL    HW136896   2.134   2.133   5.520 -0.0170 -1.9932  1.2395
 8478SOL    HW236897   1.999   2.166   5.468  0.9853  0.4789 -1.1078
 8479SOL     OW36898   3.954   0.727   7.130  0.1460  0.0454  0.6828
 8479SOL    HW136899   3.904   0.682   7.062 -0.1316 -1.1181  1.6432
 8479SOL    HW236900   3.904   0.803   7.160 -2.0749 -0.8649 -0.7143
 8480SOL     OW36901   0.903   1.965  11.781 -0.2496 -0.2640  0.5135
 8480SOL    HW136902   0.813   1.969  11.748  0.4782  0.5251 -1.3591
 8480SOL    HW236903   0.931   1.874  11.767 -1.1383 -0.8300  2.3919
 8481SOL     OW36904   0.081   0.250   4.852 -0.1270 -0.1299  0.2858
 8481SOL    HW136905   0.172   0.259   4.823  0.2466 -0.8402  1.2201
 8481SOL    HW236906   0.091   0.173   4.908  0.3063  0.9715  1.6867
 8482SOL     OW36907   0.505   1.596   2.590 -0.1658 -0.4618  0.1297
 8482SOL    HW136908   0.545   1.617   2.675  1.9522 -0.0660 -0.9730
 8482SOL    HW236909   0.573   1.540   2.553 -0.7053 -0.3693 -1.0124
 8483SOL     OW36910   3.510   3.312   6.290 -0.8609 -0.2113  0.1748
 8483SOL    HW136911   3.456   3.236   6.268  1.7024 -1.7332 -0.8610
 8483SOL    HW236912   3.561   3.315   6.209  0.1128 -3.5768  0.6675
 8484SOL     OW36913   4.608   1.842   2.930 -0.2213  0.3583  0.0304
 8484SOL    HW136914   4.623   1.902   3.004  0.3524 -0.7805  0.8391
 8484SOL    HW236915   4.655   1.766   2.962  1.1156  1.5613  0.9289
 8485SOL     OW36916   2.061   3.214   6.983  0.0824 -0.0968  0.2682
 8485SOL    HW136917   2.058   3.122   6.959  1.9849 -0.0233 -0.2563
 8485SOL    HW236918   2.073   3.248   6.895 -1.8422 -0.9808 -0.3434
 8486SOL     OW36919   3.893   2.890  16.602 -0.0178 -0.4932 -0.1904
 8486SOL    HW136920   3.983   2.899  16.634  0.3507 -1.0408 -1.0760
 8486SOL    HW236921   3.872   2.805  16.641 -0.0483 -0.0397  0.7798
 8487SOL     OW36922   0.985   4.646   6.671 -0.2070 -0.2252  0.1044
 8487SOL    HW136923   1.016   4.586   6.739  1.2805  1.3560  0.8141
 8487SOL    HW236924   1.016   4.601   6.592  0.3668 -3.2500  2.0257
 8488SOL     OW36925   0.408   0.461   5.413  0.6478 -0.5485  0.1046
 8488SOL    HW136926   0.366   0.400   5.353 -0.0063 -0.1545  0.1584
 8488SOL    HW236927   0.485   0.410   5.437  0.5597 -0.0503  1.4723
 8489SOL     OW36928   1.099   0.535   3.405 -0.0430 -0.1092  0.3005
 8489SOL    HW136929   1.149   0.602   3.450  0.2335  1.0080 -1.6846
 8489SOL    HW236930   1.016   0.566   3.442  0.9461  0.0560  2.3466
 8490SOL     OW36931   1.917   4.580   2.513 -0.0023  0.5807  0.2810
 8490SOL    HW136932   1.948   4.668   2.535 -0.5178  1.0208 -0.7301
 8490SOL    HW236933   1.942   4.572   2.421  0.7669  0.0692  0.5411
 8491SOL     OW36934   4.457   3.537  15.946  0.1834  0.7440  0.1913
 8491SOL    HW136935   4.524   3.582  15.894  0.0547 -1.8912 -2.2434
 8491SOL    HW236936   4.445   3.600  16.017  0.1384  0.0264  0.8041
 8492SOL     OW36937   2.044   1.209   8.943  0.6300 -0.3905 -0.2626
 8492SOL    HW136938   2.127   1.217   8.989  2.0430 -0.1181 -2.8293
 8492SOL    HW236939   2.019   1.120   8.968  2.1239 -0.7161  0.0945
 8493SOL     OW36940   0.871   1.076   8.344 -0.7034 -0.0958 -0.3133
 8493SOL    HW136941   0.833   1.078   8.432  1.7513 -1.4970  0.7969
 8493SOL    HW236942   0.896   1.167   8.327 -1.6979 -0.1888 -2.1587
 8494SOL     OW36943   3.840   3.357   2.094 -0.3294 -0.8160 -0.1665
 8494SOL    HW136944   3.904   3.309   2.147  1.2050 -0.5343 -1.7411
 8494SOL    HW236945   3.870   3.332   2.006  1.6818  0.3001  0.1979
 8495SOL     OW36946   1.476   1.720   7.339 -0.3139 -0.2785  0.0922
 8495SOL    HW136947   1.502   1.705   7.430 -0.2592 -1.0037 -0.0460
 8495SOL    HW236948   1.414   1.648   7.332 -1.6295  0.7575  1.0990
 8496SOL     OW36949   3.973   2.145  15.343 -0.1881  0.3206  0.2157
 8496SOL    HW136950   3.916   2.158  15.267  1.4734 -0.5508 -1.1705
 8496SOL    HW236951   3.921   2.080  15.389  2.2359 -2.0019 -0.3409
 8497SOL     OW36952   1.126   4.208   8.148  0.4638  0.2234 -0.2068
 8497SOL    HW136953   1.102   4.217   8.241 -1.2551  0.2428 -0.6450
 8497SOL    HW236954   1.221   4.200   8.155  0.4349 -1.1241 -1.3645
 8498SOL     OW36955   0.341   3.655   0.317  0.2068  0.3224 -0.1632
 8498SOL    HW136956   0.367   3.621   0.231 -1.3933 -1.7214  0.1754
 8498SOL    HW236957   0.248   3.677   0.319  0.3163  0.8065 -0.3298
 8499SOL     OW36958   2.642   1.336   1.475  0.3522 -0.2774  0.3866
 8499SOL    HW136959   2.703   1.402   1.441 -0.4488  0.1893 -0.1322
 8499SOL    HW236960   2.585   1.401   1.515 -0.3507 -0.6457 -0.0106
 8500SOL     OW36961   1.068   4.368   5.712  0.3241  0.7814  0.0436
 8500SOL    HW136962   1.021   4.400   5.789  2.7427 -0.3745  1.9702
 8500SOL    HW236963   1.014   4.291   5.692 -0.2301  1.0333  0.5619
 8501SOL     OW36964   2.013   3.027   8.688 -0.9324 -0.1227  0.3658
 8501SOL    HW136965   1.978   3.114   8.707 -1.7160 -0.7391  1.7605
 8501SOL    HW236966   2.106   3.045   8.679 -1.3717  2.4162  1.0569
 8502SOL     OW36967   0.799   1.642   7.439 -0.2096 -0.0515  0.7576
 8502SOL    HW136968   0.884   1.617   7.403 -0.3712 -1.2403  1.1880
 8502SOL    HW236969   0.815   1.674   7.527 -0.3709 -1.4476  1.2858
 8503SOL     OW36970   2.146   3.129  11.596  0.5617 -0.0217  0.3873
 8503SOL    HW136971   2.240   3.124  11.576  0.7266 -0.1765  1.1664
 8503SOL    HW236972   2.138   3.219  11.567  2.1420  0.2808  0.8573
 8504SOL     OW36973   1.375   2.167  15.346 -0.2704 -0.5912  0.2917
 8504SOL    HW136974   1.361   2.115  15.425  1.3462 -0.8691  0.4013
 8504SOL    HW236975   1.440   2.112  15.302  0.5492  0.8724 -0.3160
 8505SOL     OW36976   0.945   1.291   8.771  0.1040  0.4453  0.9838
 8505SOL    HW136977   0.867   1.243   8.743  0.3116  0.4213  0.4460
 8505SOL    HW236978   0.988   1.216   8.812 -1.8755 -0.6325  1.1040
 8506SOL     OW36979   1.269   3.876  10.848 -0.0965  0.0301  0.0288
 8506SOL    HW136980   1.190   3.898  10.798  0.6596  1.1901 -0.6648
 8506SOL    HW236981   1.309   3.963  10.839 -0.3862  0.2261  0.5750
 8507SOL     OW36982   2.098   1.240   3.683 -0.2605  0.5519 -0.0495
 8507SOL    HW136983   2.094   1.244   3.587  2.1959  0.5561 -0.1698
 8507SOL    HW236984   2.164   1.309   3.691  0.7865 -0.4436 -0.1219
 8508SOL     OW36985   2.738   3.110  15.870 -0.7468 -0.1756  0.5009
 8508SOL    HW136986   2.782   3.029  15.897 -2.7486 -2.0481 -1.8495
 8508SOL    HW236987   2.668   3.113  15.935  0.8668  0.5956  2.1994
 8509SOL     OW36988   0.751   1.906   5.398  0.2723  0.4761 -0.0574
 8509SOL    HW136989   0.836   1.941   5.373  0.1091  1.8049  1.2434
 8509SOL    HW236990   0.767   1.893   5.492 -0.0860 -2.3409 -0.3802
 8510SOL     OW36991   0.288   0.131   9.128 -0.0124  0.0204 -0.3164
 8510SOL    HW136992   0.205   0.098   9.095  0.0207  0.7260 -1.1027
 8510SOL    HW236993   0.321   0.062   9.186  0.7740  0.6083 -0.0586
 8511SOL     OW36994   4.247   0.600   8.805  0.2650  0.3278  0.6234
 8511SOL    HW136995   4.167   0.547   8.805  1.6378 -1.7814  1.8903
 8511SOL    HW236996   4.304   0.533   8.844 -1.6618 -0.9785  1.2171
 8512SOL     OW36997   2.764   1.761   7.133 -0.1102  0.1247 -0.3572
 8512SOL    HW136998   2.700   1.760   7.062 -0.9693 -0.3778  0.4242
 8512SOL    HW236999   2.846   1.747   7.086 -0.1639  1.1463 -0.7580
 8513SOL     OW37000   1.599   0.160  16.951 -0.0705 -0.4332 -0.2903
 8513SOL    HW137001   1.568   0.071  16.935 -1.6563  0.4486 -2.2043
 8513SOL    HW237002   1.586   0.152  17.046  2.2511 -2.1504 -0.1166
 8514SOL     OW37003   4.213   3.186   6.386  0.1418  0.5283  0.0208
 8514SOL    HW137004   4.210   3.282   6.388  0.9490  0.5728 -1.0482
 8514SOL    HW237005   4.203   3.163   6.294  0.2184  2.2046 -0.4065
 8515SOL     OW37006   1.916   1.095   2.677 -0.4886  0.4036 -0.3333
 8515SOL    HW137007   2.005   1.074   2.648 -0.1417 -0.4438  1.3280
 8515SOL    HW237008   1.873   1.024   2.629 -0.3651  0.4788 -0.5590
 8516SOL     OW37009   2.867   0.651  17.411 -0.0509  0.1836 -0.3622
 8516SOL    HW137010   2.906   0.708  17.345 -0.3325  1.0206  0.1915
 8516SOL    HW237011   2.936   0.586  17.421  0.7989  0.9873 -1.0599
 8517SOL     OW37012   4.053   0.639   4.888  0.2201 -0.0022 -0.6545
 8517SOL    HW137013   4.016   0.611   4.972  0.6552  1.8249  0.1437
 8517SOL    HW237014   4.018   0.572   4.829  0.7183 -1.0153  0.2120
 8518SOL     OW37015   4.170   3.269  11.735 -0.0038  0.1286  0.4034
 8518SOL    HW137016   4.154   3.176  11.752 -0.5105  0.5599  2.3745
 8518SOL    HW237017   4.199   3.301  11.821  0.5647  0.5520  0.0476
 8519SOL     OW37018   0.967   0.201   4.898  0.2586  0.1508  0.5496
 8519SOL    HW137019   0.961   0.240   4.810  0.0588  0.0171  0.5039
 8519SOL    HW237020   0.953   0.108   4.882 -2.1249  0.2484  1.9848
 8520SOL     OW37021   4.719   1.386  10.306  0.0990 -0.4398 -0.3740
 8520SOL    HW137022   0.036   1.466  10.342  0.4523 -0.8666  0.1691
 8520SOL    HW237023   0.024   1.400  10.216  1.2482 -0.0292  0.0573
 8521SOL     OW37024   0.328   4.388   6.208 -0.5447  0.1125 -0.1649
 8521SOL    HW137025   0.295   4.478   6.214 -1.8865 -0.5166  2.0272
 8521SOL    HW237026   0.250   4.335   6.224  0.5576 -1.3827  0.1883
 8522SOL     OW37027   2.658   1.782   5.097 -0.1438  0.5054 -0.0703
 8522SOL    HW137028   2.720   1.783   5.169  1.7417  2.5081 -1.6897
 8522SOL    HW237029   2.673   1.871   5.064  0.1616 -1.1283 -4.4425
 8523SOL     OW37030   1.140   0.590   7.207 -0.0113  0.2264 -0.0289
 8523SOL    HW137031   1.145   0.531   7.132  1.8362 -1.3536  1.3266
 8523SOL    HW237032   1.137   0.521   7.274 -1.6324  1.0346  0.7218
 8524SOL     OW37033   2.819   0.808   7.029  0.8525  0.1066 -0.3294
 8524SOL    HW137034   2.845   0.723   6.995 -0.0947 -0.4096  0.2346
 8524SOL    HW237035   2.819   0.856   6.947  2.9963 -1.2315 -1.1017
 8525SOL     OW37036   3.127   0.337  14.734 -0.2414  0.1187  0.0042
 8525SOL    HW137037   3.199   0.295  14.687  0.3123  0.9827  0.0948
 8525SOL    HW237038   3.058   0.270  14.733 -1.3041  1.2266 -0.2673
 8526SOL     OW37039   1.595   4.134   7.734  1.0632 -0.4097  0.2651
 8526SOL    HW137040   1.647   4.108   7.658  0.6988  1.5317 -0.6366
 8526SOL    HW237041   1.627   4.064   7.791  1.3562 -1.1879 -0.8637
 8527SOL     OW37042   2.003   2.707  12.095 -0.1220 -0.1014  0.1115
 8527SOL    HW137043   1.949   2.696  12.173  3.4136  0.7929  2.6979
 8527SOL    HW237044   2.012   2.618  12.062 -2.7303 -1.0781  2.0320
 8528SOL     OW37045   3.528   3.233  10.010  0.2554  0.3933  0.8286
 8528SOL    HW137046   3.470   3.266   9.941 -0.1638  2.0981  1.9718
 8528SOL    HW237047   3.607   3.283   9.991 -1.7944  2.8675 -1.2148
 8529SOL     OW37048   2.875   2.888   6.140  0.2116  0.3479  0.3794
 8529SOL    HW137049   2.869   2.978   6.172 -0.3389  1.6777 -3.3891
 8529SOL    HW237050   2.820   2.835   6.198 -0.7010  1.9375  0.9718
 8530SOL     OW37051   3.293   0.686   6.938 -0.2171  0.4711  0.0612
 8530SOL    HW137052   3.294   0.592   6.957  0.7068  1.2041  3.5657
 8530SOL    HW237053   3.286   0.689   6.842 -1.1562  1.0261  0.1452
 8531SOL     OW37054   0.467   2.371   6.070 -0.1906  0.0610 -0.1247
 8531SOL    HW137055   0.481   2.379   5.975 -1.5528 -0.5198 -0.3825
 8531SOL    HW237056   0.477   2.276   6.067 -0.5819  0.0484 -1.3512
 8532SOL     OW37057   3.773   2.512   5.172  0.2002  0.5905  0.5695
 8532SOL    HW137058   3.724   2.523   5.254 -0.7994  0.5768 -0.0197
 8532SOL    HW237059   3.725   2.434   5.142  3.1720 -1.0336  0.0177
 8533SOL     OW37060   2.942   2.271   8.710 -0.0930 -0.3157  0.3003
 8533SOL    HW137061   2.907   2.219   8.783 -2.2261  0.7766  0.0513
 8533SOL    HW237062   2.929   2.208   8.640 -0.1608 -0.5965  0.5644
 8534SOL     OW37063   3.379   0.464   6.639  0.0858  0.0193 -0.5081
 8534SOL    HW137064   3.332   0.542   6.668 -1.5613 -0.8423 -0.8744
 8534SOL    HW237065   3.361   0.479   6.546  2.4065  2.7184 -0.5461
 8535SOL     OW37066   2.531   1.642   0.309 -0.2897 -0.5823  0.8020
 8535SOL    HW137067   2.466   1.640   0.379 -0.2213  2.5207  0.9602
 8535SOL    HW237068   2.512   1.720   0.256 -0.4688 -1.0675  0.1545
 8536SOL     OW37069   3.852   4.153   7.742 -0.1419 -0.4147  0.3561
 8536SOL    HW137070   3.798   4.074   7.745 -0.0326 -0.5070 -0.0609
 8536SOL    HW237071   3.928   4.138   7.798  1.1720  1.5306 -0.8910
 8537SOL     OW37072   1.976   0.427  15.496  0.2664 -0.2203 -0.0727
 8537SOL    HW137073   2.040   0.435  15.426  1.0567 -4.2315  0.1589
 8537SOL    HW237074   1.923   0.353  15.466 -1.7559  1.9675 -1.8039
 8538SOL     OW37075   3.660   1.782   7.259 -0.4542 -0.1202  0.1876
 8538SOL    HW137076   3.682   1.836   7.335 -0.0859 -1.2934  0.9217
 8538SOL    HW237077   3.740   1.789   7.206 -0.4135 -1.7834  0.0449
 8539SOL     OW37078   4.142   0.218  17.595 -0.5029  0.2252 -0.3608
 8539SOL    HW137079   4.173   0.283  17.658  0.5527 -0.2546 -0.3823
 8539SOL    HW237080   4.161   0.267  17.516  0.9901  0.1860 -0.0347
 8540SOL     OW37081   4.037   4.197   9.771  0.5388 -0.4866 -0.5514
 8540SOL    HW137082   4.060   4.119   9.720 -1.3328 -1.5390  0.2193
 8540SOL    HW237083   4.115   4.233   9.813  0.7658 -0.1248 -1.2989
 8541SOL     OW37084   4.696   4.638   9.301 -0.4526  0.0966  0.5848
 8541SOL    HW137085   4.635   4.578   9.344  1.0082 -1.7166  0.1311
 8541SOL    HW237086   4.704   4.702   9.372  2.1118 -0.1295  0.4900
 8542SOL     OW37087   0.693   0.763   0.003 -0.3093  0.2813 -0.1524
 8542SOL    HW137088   0.765   0.729   0.057 -0.2596 -0.6562 -0.8028
 8542SOL    HW237089   0.751   0.794  17.629 -0.8151  0.0606 -0.6664
 8543SOL     OW37090   0.559   3.732   7.154  0.0268 -0.2842 -0.3285
 8543SOL    HW137091   0.561   3.641   7.126 -1.3222 -0.8730  1.4581
 8543SOL    HW237092   0.490   3.768   7.098 -1.8640  0.1923  2.3190
 8544SOL     OW37093   3.457   2.291   3.170 -0.5309 -0.3464 -0.4080
 8544SOL    HW137094   3.389   2.238   3.129 -0.9097  0.1864 -0.4635
 8544SOL    HW237095   3.429   2.275   3.260  0.8032 -1.6166 -0.2092
 8545SOL     OW37096   2.729   4.623   5.413 -0.0649  0.0094  0.6428
 8545SOL    HW137097   2.798   4.650   5.473 -2.4651 -0.3363  3.5211
 8545SOL    HW237098   2.666   4.694   5.415  0.8705  0.8358  0.4878
 8546SOL     OW37099   4.508   4.274   7.936  0.2982 -0.3722 -0.1421
 8546SOL    HW137100   4.428   4.236   7.900 -0.7655  2.2187 -0.5078
 8546SOL    HW237101   4.579   4.234   7.885  1.1151 -0.6715  1.2389
 8547SOL     OW37102   3.102   2.501   5.939  0.3336 -0.1700  0.2647
 8547SOL    HW137103   3.018   2.482   5.898 -0.4467 -1.8442  2.6813
 8547SOL    HW237104   3.074   2.521   6.028  0.4787 -0.4887  0.3806
 8548SOL     OW37105   0.647   0.596  11.821  0.0326  0.4395  0.3186
 8548SOL    HW137106   0.712   0.528  11.840  1.0360  2.0031  2.4414
 8548SOL    HW237107   0.610   0.569  11.737 -0.6188  0.0540  0.7308
 8549SOL     OW37108   3.235   3.495  15.854  0.3818  0.8325  0.0178
 8549SOL    HW137109   3.173   3.423  15.846  2.2613 -0.8678  0.9700
 8549SOL    HW237110   3.176   3.553  15.903 -0.9000  0.1302 -0.6806
 8550SOL     OW37111   1.815   4.561   7.978 -0.0653 -0.1443  0.7427
 8550SOL    HW137112   1.894   4.507   7.971  0.8017  1.1498  0.5121
 8550SOL    HW237113   1.741   4.500   7.983  1.5652 -2.2412 -0.4078
 8551SOL     OW37114   4.044   4.004   4.041  0.1900 -0.1592  0.2506
 8551SOL    HW137115   4.041   4.068   4.112 -4.3364 -1.0300  0.8775
 8551SOL    HW237116   4.011   4.065   3.975 -1.1349 -1.2283 -0.0645
 8552SOL     OW37117   0.262   2.870  12.117 -0.0123 -0.5992 -0.3028
 8552SOL    HW137118   0.335   2.851  12.177 -0.6630 -0.8956  0.3864
 8552SOL    HW237119   0.306   2.899  12.037 -1.6456  0.7983 -0.6750
 8553SOL     OW37120   4.156   4.389   3.514  0.1036  0.3288  0.3339
 8553SOL    HW137121   4.084   4.435   3.558 -0.1420 -1.4238  1.8064
 8553SOL    HW237122   4.172   4.451   3.443  2.0937 -0.5737  0.0056
 8554SOL     OW37123   4.519   0.095   3.212  0.0067 -0.3671  0.5283
 8554SOL    HW137124   4.475   0.064   3.292 -0.6414 -1.4805 -0.2652
 8554SOL    HW237125   4.461   0.054   3.149 -0.7206 -0.6748  1.3911
 8555SOL     OW37126   0.753   4.628  15.115 -0.4711  0.0580 -0.2438
 8555SOL    HW137127   0.718   4.618  15.027  1.0103 -0.3747 -0.7927
 8555SOL    HW237128   0.683   4.684  15.148 -2.2684 -1.7336 -1.0875
 8556SOL     OW37129   1.723   3.196   5.845  0.3510 -0.1186  0.1734
 8556SOL    HW137130   1.741   3.280   5.886 -2.0081  0.7164 -0.5304
 8556SOL    HW237131   1.802   3.143   5.856  0.4156  0.1952  1.2042
 8557SOL     OW37132   4.032   3.737  11.521  0.3848  1.0043  0.4546
 8557SOL    HW137133   4.031   3.727  11.616  1.0649  0.8669  0.4504
 8557SOL    HW237134   3.952   3.691  11.497  1.6458 -1.5781  1.2027
 8558SOL     OW37135   2.995   1.262   0.850  0.0176 -0.5584 -0.5717
 8558SOL    HW137136   3.056   1.260   0.776 -2.5458  1.1118 -2.7460
 8558SOL    HW237137   3.050   1.275   0.927 -0.4278  1.1526 -0.5489
 8559SOL     OW37138   2.594   2.390   8.045 -0.5158 -0.1130  0.0361
 8559SOL    HW137139   2.652   2.344   8.105 -0.6137 -1.2674 -0.7750
 8559SOL    HW237140   2.510   2.386   8.091  0.9653  0.8590  2.8502
 8560SOL     OW37141   1.317   0.388   3.822 -0.1391 -0.7614  0.3398
 8560SOL    HW137142   1.368   0.433   3.754 -2.2197  0.2818 -0.5350
 8560SOL    HW237143   1.239   0.358   3.775 -0.1497 -1.1691  0.6114
 8561SOL     OW37144   3.896   2.503   5.773 -0.0154 -0.0335  0.0120
 8561SOL    HW137145   3.985   2.470   5.781  0.6419  1.2738 -1.7221
 8561SOL    HW237146   3.911   2.577   5.832  0.1845 -2.0840  2.4858
 8562SOL     OW37147   4.143   0.399   3.844  0.3448  0.0945 -0.1635
 8562SOL    HW137148   4.175   0.359   3.925 -2.7893 -2.8087 -0.3693
 8562SOL    HW237149   4.153   0.493   3.862  0.8090 -0.1908  1.0857
 8563SOL     OW37150   2.973   0.105   5.312 -0.4126 -0.3498 -0.1042
 8563SOL    HW137151   2.986   0.020   5.270  0.7928  0.4200 -1.2785
 8563SOL    HW237152   2.983   0.080   5.404 -1.3034  0.1597  0.1238
 8564SOL     OW37153   0.537   2.337   7.922  0.3297  0.1547 -0.0352
 8564SOL    HW137154   0.456   2.286   7.917  1.2515 -1.3998  1.1369
 8564SOL    HW237155   0.482   2.416   7.927 -3.3019 -2.3522 -0.4026
 8565SOL     OW37156   1.113   2.252   5.803 -0.1694 -0.0401 -0.0970
 8565SOL    HW137157   1.195   2.276   5.760 -0.3040  0.1011 -0.2764
 8565SOL    HW237158   1.135   2.246   5.896 -0.5230 -0.8587 -0.0653
 8566SOL     OW37159   4.151   2.618   4.611 -0.3110 -0.4766 -0.1864
 8566SOL    HW137160   4.200   2.700   4.609  1.0422 -1.2804  0.5188
 8566SOL    HW237161   4.175   2.583   4.697 -0.7064  0.9493  0.5000
 8567SOL     OW37162   0.029   4.544  14.096 -0.6539  0.2150  0.4720
 8567SOL    HW137163   0.110   4.567  14.051 -1.0513  1.6894  0.5077
 8567SOL    HW237164   0.061   4.493  14.170 -0.2897  1.2105  1.0009
 8568SOL     OW37165   4.219   1.721  15.137  0.1589 -0.6379  0.7721
 8568SOL    HW137166   4.189   1.812  15.139  1.0741 -0.3570  1.8050
 8568SOL    HW237167   4.285   1.722  15.206  1.4763 -2.5682 -0.4667
 8569SOL     OW37168   3.982   2.494  14.332  0.5177  0.5182 -0.7188
 8569SOL    HW137169   3.989   2.399  14.338 -0.4343  0.3762 -1.9182
 8569SOL    HW237170   4.008   2.512  14.422  1.6234 -0.2549 -0.8772
 8570SOL     OW37171   2.266   3.141   3.886  0.3751  0.5758  0.3890
 8570SOL    HW137172   2.306   3.109   3.805  2.2782  0.6082  1.3169
 8570SOL    HW237173   2.318   3.221   3.896  2.4556 -1.1937  3.5188
 8571SOL     OW37174   3.986   3.844  13.246  0.3696 -0.9241 -0.2760
 8571SOL    HW137175   4.008   3.787  13.319 -0.9428  0.5366  1.2789
 8571SOL    HW237176   3.944   3.921  13.285 -0.9148 -0.7545 -1.9931
 8572SOL     OW37177   1.548   3.537   6.149  0.6373  0.3299 -0.2315
 8572SOL    HW137178   1.488   3.469   6.179  0.5903 -0.0539 -1.1726
 8572SOL    HW237179   1.554   3.596   6.224  0.2669 -0.5193  0.4521
 8573SOL     OW37180   0.748   2.172   2.089 -0.2451 -0.4099  0.0674
 8573SOL    HW137181   0.791   2.215   2.163 -1.4211 -0.0013  0.5119
 8573SOL    HW237182   0.801   2.189   2.011 -1.6229  1.7363 -0.3899
 8574SOL     OW37183   0.484   2.248   1.558 -0.6232  0.3580  0.0885
 8574SOL    HW137184   0.485   2.343   1.554 -1.5467  0.2830 -2.0290
 8574SOL    HW237185   0.393   2.233   1.531 -1.0241  0.0171  1.6729
 8575SOL     OW37186   1.374   2.396   5.777 -0.0409  0.3757  0.4656
 8575SOL    HW137187   1.444   2.332   5.787  3.0057  3.3615 -1.3969
 8575SOL    HW237188   1.366   2.419   5.869 -0.3179 -1.1720  0.8190
 8576SOL     OW37189   0.343   2.842   6.369  0.0421  0.4713 -0.0909
 8576SOL    HW137190   0.416   2.790   6.336 -0.8860  1.1657 -3.3265
 8576SOL    HW237191   0.377   2.931   6.379  2.3196 -0.1288 -2.5768
 8577SOL     OW37192   1.470   4.002   4.199 -0.1518  0.2914 -0.1234
 8577SOL    HW137193   1.397   3.942   4.211  0.8297 -1.0780 -0.9482
 8577SOL    HW237194   1.487   4.030   4.288 -1.5762  1.3936 -0.2049
 8578SOL     OW37195   4.493   0.845   8.064 -0.2921  0.1590 -0.3142
 8578SOL    HW137196   4.472   0.923   8.013 -2.2056  0.6946  1.3089
 8578SOL    HW237197   4.415   0.791   8.051  1.8863 -2.6098 -1.8998
 8579SOL     OW37198   4.586   4.044  15.640 -0.1015  0.4688  0.3594
 8579SOL    HW137199   4.632   3.961  15.633 -1.1041  0.0042 -0.6765
 8579SOL    HW237200   4.560   4.064  15.550  1.4209 -0.6750 -0.3369
 8580SOL     OW37201   1.429   4.197   8.150 -0.1049  0.5470  0.2305
 8580SOL    HW137202   1.419   4.125   8.088 -1.3844  2.5170 -1.8519
 8580SOL    HW237203   1.497   4.159   8.206  1.1670 -0.1595 -1.8119
 8581SOL     OW37204   0.061   4.016   7.608 -0.4588  0.5995  0.9758
 8581SOL    HW137205   0.084   3.925   7.627  0.4313  0.6867  0.3317
 8581SOL    HW237206   4.689   4.017   7.612 -0.4662 -0.5042  1.0190
 8582SOL     OW37207   1.211   2.344   3.341  0.5222  0.2099  0.1972
 8582SOL    HW137208   1.283   2.284   3.360 -1.2133 -1.4065  1.6020
 8582SOL    HW237209   1.264   2.412   3.300 -0.9625  1.1208 -0.1966
 8583SOL     OW37210   0.868   2.417   6.324  0.0936  0.3344 -0.3482
 8583SOL    HW137211   0.775   2.415   6.343  0.1009 -2.0500 -0.6246
 8583SOL    HW237212   0.862   2.407   6.229 -1.3286  2.1070 -0.4530
 8584SOL     OW37213   2.894   3.160   4.288  0.6869  0.4636  0.0675
 8584SOL    HW137214   2.922   3.142   4.198 -0.3978  2.2842 -0.6346
 8584SOL    HW237215   2.905   3.080   4.340 -0.1770  0.4090  0.1538
 8585SOL     OW37216   0.617   1.663   3.119  1.1853  0.3257 -0.1080
 8585SOL    HW137217   0.689   1.712   3.158  0.2701 -0.1462  2.1775
 8585SOL    HW237218   0.622   1.580   3.166 -0.4196  0.9941  1.2486
 8586SOL     OW37219   4.157   1.266   6.099  0.0575 -0.2344 -0.1762
 8586SOL    HW137220   4.071   1.225   6.098 -0.5736  1.0900 -0.6407
 8586SOL    HW237221   4.207   1.244   6.020  0.8046 -0.5707  0.3960
 8587SOL     OW37222   0.916   4.692   4.766  0.5727  0.8886 -0.2073
 8587SOL    HW137223   0.904   4.676   4.673  0.2023 -0.1411  0.0225
 8587SOL    HW237224   0.895   4.603   4.794 -1.8670  1.4571 -0.1614
 8588SOL     OW37225   3.614   0.376   2.195 -0.0538 -0.5022  0.0263
 8588SOL    HW137226   3.679   0.338   2.254  0.0197 -0.6041 -0.1204
 8588SOL    HW237227   3.532   0.359   2.243  1.0740 -0.4021  1.9906
 8589SOL     OW37228   2.457   1.146   6.673 -0.0933 -0.0315 -0.1299
 8589SOL    HW137229   2.546   1.179   6.676 -0.2929  0.3711  1.2045
 8589SOL    HW237230   2.432   1.135   6.765  0.0106 -1.2018 -0.2404
 8590SOL     OW37231   2.368   3.352  17.130  0.4313  0.6838  0.2105
 8590SOL    HW137232   2.326   3.433  17.104 -0.1590  0.0567 -0.8007
 8590SOL    HW237233   2.394   3.359  17.222  0.3232  1.3129  0.1931
 8591SOL     OW37234   1.788   1.589   5.109 -0.4730  0.6066  0.2910
 8591SOL    HW137235   1.702   1.551   5.092  1.0227 -3.4287  1.6519
 8591SOL    HW237236   1.751   1.632   5.186 -0.3223  1.7188 -0.2597
 8592SOL     OW37237   1.833   3.030   9.059  0.3822 -0.1522 -0.2145
 8592SOL    HW137238   1.818   3.010   9.152  0.1622 -2.1336 -0.6948
 8592SOL    HW237239   1.871   2.948   9.030  1.5973  0.6155 -0.8153
 8593SOL     OW37240   3.852   3.242  13.290 -0.3586  0.1825  0.1805
 8593SOL    HW137241   3.830   3.317  13.345 -2.1798  1.4510 -2.2704
 8593SOL    HW237242   3.816   3.262  13.203 -1.5442 -1.4463  0.3050
 8594SOL     OW37243   1.657   4.369  13.408 -0.4725 -0.4003 -0.2215
 8594SOL    HW137244   1.580   4.420  13.432 -0.6645 -0.8183  0.0365
 8594SOL    HW237245   1.614   4.317  13.341 -0.0944 -0.9369 -0.0482
 8595SOL     OW37246   0.256   2.188   6.609 -0.0483  0.1394  0.0104
 8595SOL    HW137247   0.231   2.118   6.669  0.9499 -0.0015  0.2561
 8595SOL    HW237248   0.183   2.186   6.547  0.6046 -3.3003 -0.6066
 8596SOL     OW37249   3.845   4.588   1.864  0.4969  0.3455 -0.1699
 8596SOL    HW137250   3.917   4.533   1.835  2.3396  2.1416  0.9566
 8596SOL    HW237251   3.810   4.618   1.780  0.9396 -0.7657 -0.7405
 8597SOL     OW37252   3.336   1.134  10.109  0.0032 -0.0800 -0.2592
 8597SOL    HW137253   3.420   1.137  10.063  0.4800 -0.9502  0.5560
 8597SOL    HW237254   3.365   1.097  10.193  1.9111 -1.4806 -1.5533
 8598SOL     OW37255   1.368   3.488   2.688  0.2737 -0.2004 -0.1165
 8598SOL    HW137256   1.363   3.393   2.686 -1.8831 -0.1527  2.1586
 8598SOL    HW237257   1.290   3.524   2.732  0.9911  0.8732  0.2935
 8599SOL     OW37258   1.921   2.053  16.985 -0.0887  0.2237  0.7374
 8599SOL    HW137259   1.884   2.115  16.923 -0.2125  2.5060  3.0593
 8599SOL    HW237260   2.010   2.048  16.951  0.2217 -0.2038  1.5947
 8600SOL     OW37261   2.142   3.660   0.796  0.0608 -0.0649  0.0530
 8600SOL    HW137262   2.114   3.715   0.722 -0.1504  0.5833  0.6195
 8600SOL    HW237263   2.209   3.606   0.753 -0.2483 -1.6331  1.5489
 8601SOL     OW37264   4.202   4.167  14.667  0.4608 -0.1910  0.1854
 8601SOL    HW137265   4.241   4.253  14.685 -1.3745  1.1485 -2.1111
 8601SOL    HW237266   4.231   4.117  14.743  0.4732 -3.1059 -1.7240
 8602SOL     OW37267   0.805   1.943   3.358  0.4728  0.3310  0.6971
 8602SOL    HW137268   0.886   1.956   3.408  0.8797 -1.2098  0.4536
 8602SOL    HW237269   0.760   1.904   3.434  2.7822 -1.1708  1.3114
 8603SOL     OW37270   4.632   2.657   8.400  0.0250  0.1080  0.3007
 8603SOL    HW137271   4.723   2.645   8.372 -0.2557  1.8584 -1.4133
 8603SOL    HW237272   4.606   2.569   8.373  0.7745 -0.4525  1.4320
 8604SOL     OW37273   4.409   0.023   3.463  0.4666 -0.1759 -0.0288
 8604SOL    HW137274   4.316   0.043   3.476  0.7850  0.3218  1.4950
 8604SOL    HW237275   4.440   0.113   3.459  0.7583 -0.2654  0.2198
 8605SOL     OW37276   1.056   0.123   7.351 -0.0018  0.0119  0.3511
 8605SOL    HW137277   1.120   0.052   7.358 -0.5030 -0.3608  1.0309
 8605SOL    HW237278   0.971   0.083   7.340 -0.1540  0.5735 -0.5303
 8606SOL     OW37279   4.462   3.670   7.697  0.3665  0.0779  0.1598
 8606SOL    HW137280   4.458   3.575   7.693 -2.0671  0.2265 -1.2323
 8606SOL    HW237281   4.557   3.683   7.691  0.3175 -0.2911 -1.4309
 8607SOL     OW37282   4.375   3.556   3.304 -0.2870 -0.0681  0.5518
 8607SOL    HW137283   4.428   3.636   3.308  0.6368 -0.5246 -2.3079
 8607SOL    HW237284   4.412   3.528   3.220 -0.8907 -1.4861  0.7627
 8608SOL     OW37285   1.819   1.362   0.969  0.3842 -0.0312  0.0154
 8608SOL    HW137286   1.886   1.295   0.966 -0.2791 -0.6476 -0.9131
 8608SOL    HW237287   1.850   1.413   1.044  2.8416 -0.1478 -0.9178
 8609SOL     OW37288   4.031   0.725   9.652 -0.3417  0.0467 -0.0480
 8609SOL    HW137289   4.056   0.764   9.569  1.1155 -1.0308 -0.1052
 8609SOL    HW237290   3.935   0.725   9.646 -0.2660  0.0812 -1.1696
 8610SOL     OW37291   1.991   3.848   5.628  0.0294  0.4598 -0.3565
 8610SOL    HW137292   1.971   3.754   5.636 -0.9354  0.8078  1.4704
 8610SOL    HW237293   2.082   3.840   5.599  0.3299 -1.7913  1.1815
 8611SOL     OW37294   3.448   0.304   4.314  0.2227 -0.5711  0.0053
 8611SOL    HW137295   3.508   0.253   4.369 -1.1005 -0.5922  1.4009
 8611SOL    HW237296   3.435   0.386   4.362  0.5750 -1.0876  0.9710
 8612SOL     OW37297   2.131   3.294   7.538  0.2399 -0.3875  0.0176
 8612SOL    HW137298   2.116   3.318   7.446 -1.6429 -0.3376  0.3372
 8612SOL    HW237299   2.182   3.214   7.521 -0.1302 -0.5600 -0.3075
 8613SOL     OW37300   2.903   2.031   3.275 -0.6905  0.1209 -0.2711
 8613SOL    HW137301   2.857   2.072   3.202 -3.0960  1.5120  2.0351
 8613SOL    HW237302   2.946   1.958   3.229  0.1119  0.1138  0.4816
 8614SOL     OW37303   4.616   2.417   8.919  0.8568 -0.3405  0.8154
 8614SOL    HW137304   4.632   2.368   9.000 -1.3066 -2.3886 -0.0134
 8614SOL    HW237305   4.700   2.462   8.909 -0.6566  2.1586 -0.5927
 8615SOL     OW37306   2.335   2.033   8.444  0.6052 -0.1231 -0.1343
 8615SOL    HW137307   2.312   1.968   8.378  0.9950 -2.5198  2.1212
 8615SOL    HW237308   2.406   1.983   8.483  0.9576  1.1067  0.7930
 8616SOL     OW37309   1.037   2.001   3.494 -0.5637 -0.1886  0.6805
 8616SOL    HW137310   1.086   1.999   3.576  0.2439 -1.2670  0.1745
 8616SOL    HW237311   1.114   1.986   3.438  0.1977 -1.5802  2.1076
 8617SOL     OW37312   2.606   4.222   4.211  0.0616 -0.5375 -0.9330
 8617SOL    HW137313   2.676   4.285   4.224  0.6256 -1.5613  1.0567
 8617SOL    HW237314   2.527   4.276   4.212  0.2440 -0.2830 -0.1700
 8618SOL     OW37315   1.610   2.808  17.474 -0.3602 -0.1139 -0.0394
 8618SOL    HW137316   1.668   2.876  17.508  1.0005 -1.6675  0.7629
 8618SOL    HW237317   1.524   2.839  17.446 -0.6318 -1.9795 -1.2819
 8619SOL     OW37318   3.685   0.501   2.528  0.3200  1.1181  1.0919
 8619SOL    HW137319   3.593   0.515   2.550  0.1019  0.4644  0.5963
 8619SOL    HW237320   3.729   0.561   2.588 -1.1149  1.1393  2.1077
 8620SOL     OW37321   1.845   3.632   0.806  0.4080  0.1334  0.4991
 8620SOL    HW137322   1.938   3.641   0.786  0.4621 -2.0309 -0.2345
 8620SOL    HW237323   1.811   3.582   0.731 -0.8580 -2.9872  3.1735
 8621SOL     OW37324   3.166   4.556   8.336  0.8200  0.2710  0.4620
 8621SOL    HW137325   3.188   4.570   8.428 -0.7436 -0.4741  0.9540
 8621SOL    HW237326   3.108   4.630   8.318  1.4143  0.5356 -0.3480
 8622SOL     OW37327   1.543   1.715   3.389 -0.2255 -0.0045 -0.1681
 8622SOL    HW137328   1.601   1.641   3.401  1.1532  1.2650  0.9748
 8622SOL    HW237329   1.455   1.677   3.389 -0.2975  0.1549 -1.2937
 8623SOL     OW37330   2.715   3.020  10.992 -0.2752 -0.0048 -0.0595
 8623SOL    HW137331   2.724   2.976  11.076  0.5081  0.4445  0.0846
 8623SOL    HW237332   2.798   3.065  10.979 -0.7650  0.9400  0.1289
 8624SOL     OW37333   2.720   1.341   7.745 -0.9722  0.0508  0.1128
 8624SOL    HW137334   2.708   1.297   7.829 -0.2014 -0.4032 -0.0138
 8624SOL    HW237335   2.815   1.344   7.738 -1.0695  1.3668 -0.5641
 8625SOL     OW37336   3.472   4.695   4.529  0.7356  0.2432 -0.3749
 8625SOL    HW137337   3.418   4.627   4.570  2.3071 -1.2360 -0.7650
 8625SOL    HW237338   3.514   4.644   4.459  0.5641 -0.2060 -0.1504
 8626SOL     OW37339   2.619   3.418   4.473 -0.7989 -0.0988  0.1630
 8626SOL    HW137340   2.602   3.362   4.549 -1.3128  1.9622  1.5779
 8626SOL    HW237341   2.594   3.354   4.405  2.7827  0.0333 -1.2496
 8627SOL     OW37342   4.610   3.392  14.651 -0.5641  0.2725 -0.2380
 8627SOL    HW137343   4.627   3.485  14.665 -2.6449  0.7195 -0.6811
 8627SOL    HW237344   4.656   3.384  14.567  0.8749  0.4881  0.5352
 8628SOL     OW37345   1.976   1.542  13.812  0.0726  0.7415  0.1536
 8628SOL    HW137346   1.943   1.534  13.723  2.1222 -1.0655 -0.4217
 8628SOL    HW237347   1.894   1.565  13.856 -0.0708  0.1001  0.2290
 8629SOL     OW37348   0.026   3.174  16.530 -0.3385 -0.2348  0.2138
 8629SOL    HW137349   0.107   3.224  16.523 -2.2018  2.8766  0.6765
 8629SOL    HW237350   4.696   3.204  16.456 -1.3319 -1.0149  0.6119
 8630SOL     OW37351   1.617   4.324   4.788  0.2713 -0.1246  0.2019
 8630SOL    HW137352   1.544   4.350   4.846  0.3554 -1.2546  0.8109
 8630SOL    HW237353   1.680   4.393   4.812 -0.7733  1.4555 -1.5878
 8631SOL     OW37354   0.715   0.559   4.775 -0.7136  0.1244 -0.5593
 8631SOL    HW137355   0.624   0.566   4.746 -0.8052  1.2089 -0.0546
 8631SOL    HW237356   0.709   0.474   4.817 -0.1457  0.5868  0.4590
 8632SOL     OW37357   4.582   2.599  14.429  0.1997 -0.3069 -0.1958
 8632SOL    HW137358   4.641   2.671  14.406  2.4443 -2.3981 -1.0352
 8632SOL    HW237359   4.527   2.596  14.351 -1.8616 -1.2247  1.3068
 8633SOL     OW37360   2.556   1.547   3.765 -0.5690  0.3781  0.5443
 8633SOL    HW137361   2.566   1.493   3.687  0.5219  1.1489  0.1550
 8633SOL    HW237362   2.649   1.571   3.765 -0.2016 -1.0326  1.1724
 8634SOL     OW37363   2.956   2.286  12.860 -0.1506 -0.1950 -0.5163
 8634SOL    HW137364   3.037   2.299  12.911  0.7064  0.8175 -2.1335
 8634SOL    HW237365   2.944   2.377  12.833  1.4157  0.1678 -0.0253
 8635SOL     OW37366   4.408   2.054  12.192  0.2617  0.3344 -0.1199
 8635SOL    HW137367   4.466   1.993  12.147 -0.4029  1.9003 -3.1296
 8635SOL    HW237368   4.427   2.137  12.148 -2.1389  0.0626 -1.6663
 8636SOL     OW37369   2.703   2.547   3.285 -0.3863 -0.3754 -0.1575
 8636SOL    HW137370   2.715   2.621   3.225  1.0762 -0.6136 -0.1564
 8636SOL    HW237371   2.776   2.493   3.255 -1.4198 -2.1932  0.5939
 8637SOL     OW37372   2.272   3.801  10.831  0.1450  0.1836 -0.4413
 8637SOL    HW137373   2.308   3.883  10.796  0.8329  0.9394  2.0941
 8637SOL    HW237374   2.352   3.757  10.862  0.9555  2.6034  0.8600
 8638SOL     OW37375   2.227   2.818   1.409 -1.2233 -0.0437  0.3527
 8638SOL    HW137376   2.203   2.840   1.319 -1.1172 -2.0362 -0.1568
 8638SOL    HW237377   2.159   2.858   1.463 -1.8297 -2.8579  1.6779
 8639SOL     OW37378   1.055   1.945  11.064 -0.0371  0.2954 -0.1910
 8639SOL    HW137379   1.136   1.992  11.043  0.7972 -0.8790  0.3997
 8639SOL    HW237380   0.986   2.010  11.048 -1.2817 -1.3469 -1.4963
 8640SOL     OW37381   0.587   4.169  12.078  0.0530  0.0297  0.4560
 8640SOL    HW137382   0.619   4.158  12.167  0.7424  0.4849  0.2648
 8640SOL    HW237383   0.524   4.240  12.092 -0.8923 -0.8532  0.6257
 8641SOL     OW37384   2.218   0.119   3.439  0.0883 -0.0709 -0.0351
 8641SOL    HW137385   2.168   0.065   3.378 -0.1288 -1.3860  1.3105
 8641SOL    HW237386   2.171   0.093   3.518  0.7290  0.9267  0.6727
 8642SOL     OW37387   3.752   0.430   6.015 -0.0143  0.3942 -0.3241
 8642SOL    HW137388   3.704   0.414   6.096 -1.9425  1.0149 -1.3505
 8642SOL    HW237389   3.735   0.524   6.008 -2.5068  0.0176  0.9274
 8643SOL     OW37390   0.260   4.159   3.288  0.9137  0.5486 -0.1771
 8643SOL    HW137391   0.224   4.203   3.210  2.5019  2.1788  0.0089
 8643SOL    HW237392   0.191   4.180   3.351  1.5660 -0.2733  0.8007
 8644SOL     OW37393   1.960   1.453   4.622  0.5161 -0.2149 -0.2612
 8644SOL    HW137394   1.920   1.446   4.709  0.2459  2.0049 -0.2082
 8644SOL    HW237395   1.964   1.548   4.621 -0.4631 -0.1752  0.1072
 8645SOL     OW37396   0.947   2.196   1.591  0.3349 -0.2881  0.0120
 8645SOL    HW137397   1.033   2.227   1.563  1.1135  0.0427  2.7601
 8645SOL    HW237398   0.937   2.106   1.559 -0.4113  0.0174 -0.6002
 8646SOL     OW37399   4.176   1.181   3.706  0.4717  0.0435 -0.2223
 8646SOL    HW137400   4.113   1.182   3.635 -1.6758  1.6490  1.7297
 8646SOL    HW237401   4.126   1.175   3.787 -0.0782 -0.9635 -0.6336
 8647SOL     OW37402   3.940   3.633   9.245 -0.4639  0.0715 -0.1478
 8647SOL    HW137403   3.907   3.569   9.308  0.2156  0.9249  1.0807
 8647SOL    HW237404   3.924   3.589   9.161 -1.2725  0.8109 -0.3847
 8648SOL     OW37405   0.207   1.293   3.295  0.3028 -0.4482 -0.3450
 8648SOL    HW137406   0.161   1.244   3.227 -1.1090  0.9466 -0.3751
 8648SOL    HW237407   0.134   1.328   3.345 -1.2985  0.3290 -3.2960
 8649SOL     OW37408   4.003   2.549  13.301 -0.1577 -0.4003 -0.1662
 8649SOL    HW137409   3.968   2.624  13.349  1.5864 -0.2212  0.8315
 8649SOL    HW237410   3.999   2.479  13.367  0.5608 -0.0399  0.2668
 8650SOL     OW37411   4.711   2.214  15.092  0.1718 -0.2125 -0.2271
 8650SOL    HW137412   0.025   2.270  15.160 -1.6825 -0.6048  1.1064
 8650SOL    HW237413   4.633   2.263  15.066 -1.3714 -2.5027  0.0607
 8651SOL     OW37414   1.999   1.641  16.375 -0.1082  0.0868 -0.6414
 8651SOL    HW137415   1.914   1.682  16.392  0.5337  0.1324  2.3932
 8651SOL    HW237416   2.020   1.589  16.452 -1.8149  0.3678  0.0015
 8652SOL     OW37417   0.127   3.721   4.361  0.2526 -0.0500 -0.5056
 8652SOL    HW137418   0.137   3.656   4.291  0.6623  1.0614 -1.4828
 8652SOL    HW237419   0.152   3.792   4.302  0.3701  0.3138 -0.0143
 8653SOL     OW37420   2.084   1.698   1.518 -0.2129 -0.4868 -0.1807
 8653SOL    HW137421   2.044   1.755   1.583  2.5064  2.5514 -1.2004
 8653SOL    HW237422   2.174   1.730   1.517 -0.6058  0.6242  2.2361
 8654SOL     OW37423   2.120   2.526   7.647  0.1216 -0.2063  0.1603
 8654SOL    HW137424   2.085   2.545   7.734  0.9823 -0.3575  0.5356
 8654SOL    HW237425   2.143   2.610   7.608  0.2088 -0.8503 -1.1987
 8655SOL     OW37426   0.033   4.184   1.700  0.7339 -0.1473 -0.6468
 8655SOL    HW137427   0.034   4.142   1.614  1.4734 -2.8407  0.6819
 8655SOL    HW237428   4.667   4.219   1.701  0.0150 -1.8980 -2.5665
 8656SOL     OW37429   2.415   2.052   3.225  0.4588 -0.0119  0.2546
 8656SOL    HW137430   2.327   2.089   3.216  0.1042 -0.9179  0.0350
 8656SOL    HW237431   2.469   2.129   3.246 -1.5389  1.9883 -1.8904
 8657SOL     OW37432   3.865   4.575   6.525 -0.1825 -0.1307  0.0868
 8657SOL    HW137433   3.916   4.572   6.606 -0.0744  2.2271  0.0976
 8657SOL    HW237434   3.793   4.632   6.551  1.1309  2.7383 -2.5142
 8658SOL     OW37435   0.384   3.573   0.062  0.3675 -0.3088  0.1700
 8658SOL    HW137436   0.417   3.603  17.673  3.0332 -1.4763  0.7866
 8658SOL    HW237437   0.342   3.491   0.035 -0.9514  0.5836 -0.5007
 8659SOL     OW37438   1.487   3.940   9.679 -0.2826 -0.1912 -0.2552
 8659SOL    HW137439   1.434   3.956   9.600  0.0798  3.6321  0.2537
 8659SOL    HW237440   1.418   3.917   9.741 -1.5485  3.4962 -0.2395
 8660SOL     OW37441   2.715   2.424   6.377 -0.3082  0.3169  0.3236
 8660SOL    HW137442   2.649   2.479   6.418  0.6704  2.3914 -0.9273
 8660SOL    HW237443   2.732   2.369   6.453  1.2314  1.0592  0.5208
 8661SOL     OW37444   2.085   0.753   3.588  0.1091 -0.0359  1.0011
 8661SOL    HW137445   2.103   0.821   3.653 -0.9427 -0.7079  2.0033
 8661SOL    HW237446   2.037   0.802   3.521  0.1015 -1.0065  0.2944
 8662SOL     OW37447   0.972   0.456  16.899  0.4876 -0.0807 -0.0041
 8662SOL    HW137448   0.959   0.453  16.994  1.3920  2.2951  0.1945
 8662SOL    HW237449   0.880   0.439  16.878 -0.2809  2.3900  1.3997
 8663SOL     OW37450   1.028   3.846   2.625 -0.2256 -0.2463  0.3759
 8663SOL    HW137451   1.018   3.769   2.570 -0.9491  1.4043 -1.7994
 8663SOL    HW237452   0.951   3.896   2.601  0.2789  1.2606  1.9191
 8664SOL     OW37453   3.285   1.706  13.606 -0.1612 -0.3623 -0.3204
 8664SOL    HW137454   3.252   1.763  13.675 -0.3008  0.5109 -1.0933
 8664SOL    HW237455   3.216   1.640  13.596 -0.5096 -0.2305  1.2916
 8665SOL     OW37456   3.358   3.963   6.936  0.0740 -0.9349 -0.1795
 8665SOL    HW137457   3.293   3.950   7.006  1.6310 -1.9679  1.0599
 8665SOL    HW237458   3.339   3.879   6.896  1.3580 -1.0455 -0.5535
 8666SOL     OW37459   3.514   4.427   6.785  0.3048 -0.1499 -0.5638
 8666SOL    HW137460   3.436   4.481   6.798  0.6107  0.0306  0.5099
 8666SOL    HW237461   3.489   4.348   6.832  0.3584  0.0147 -0.2572
 8667SOL     OW37462   1.068   3.922   0.653  0.1200 -0.6585  0.1880
 8667SOL    HW137463   1.032   3.949   0.737  0.5298  0.2417  0.0754
 8667SOL    HW237464   1.077   4.008   0.610  2.0241 -0.3386  1.2485
 8668SOL     OW37465   0.328   0.462   6.467 -0.3242 -0.9847  0.4489
 8668SOL    HW137466   0.311   0.549   6.503 -3.6251 -1.0865 -0.7935
 8668SOL    HW237467   0.258   0.412   6.511  0.0817 -0.4225  1.7361
 8669SOL     OW37468   1.339   4.695   3.262 -0.2974  0.1259  0.3384
 8669SOL    HW137469   1.327   4.622   3.202  2.1050 -1.7037  2.0878
 8669SOL    HW237470   1.257   0.021   3.255  0.0805  0.6921 -0.0593
 8670SOL     OW37471   2.364   1.470  14.451  0.1093 -0.1892  0.0790
 8670SOL    HW137472   2.429   1.446  14.385  0.5107 -0.3976  0.5532
 8670SOL    HW237473   2.381   1.564  14.462  0.8460 -0.1846 -1.0064
 8671SOL     OW37474   0.343   0.624  15.932  0.0289  0.9481  0.2743
 8671SOL    HW137475   0.257   0.658  15.908  0.4418  2.2978  0.7395
 8671SOL    HW237476   0.393   0.703  15.951 -0.5024  1.5609 -0.9135
 8672SOL     OW37477   0.669   3.444  14.747 -0.5131  0.1705 -0.9608
 8672SOL    HW137478   0.576   3.465  14.739 -0.9570 -1.3855  0.0789
 8672SOL    HW237479   0.714   3.528  14.746 -0.7962  0.3593  1.1460
 8673SOL     OW37480   2.166   1.800   5.406  0.3429 -0.0404  0.4864
 8673SOL    HW137481   2.177   1.801   5.311  1.4816  1.3967  0.6308
 8673SOL    HW237482   2.244   1.847   5.436  1.2887  0.0343 -2.1511
 8674SOL     OW37483   1.584   0.388   3.156 -0.0632  0.0897 -0.2607
 8674SOL    HW137484   1.567   0.297   3.180  1.0637  0.3764  1.6330
 8674SOL    HW237485   1.536   0.395   3.073  1.3710  0.7413 -1.0356
 8675SOL     OW37486   2.646   3.437   3.946 -0.3238  0.4100  0.1281
 8675SOL    HW137487   2.679   3.444   3.857  1.3734 -0.1034  0.7232
 8675SOL    HW237488   2.557   3.403   3.933 -0.1040 -0.0394 -0.2097
 8676SOL     OW37489   1.929   4.687  13.022 -0.0079 -0.3102 -0.1285
 8676SOL    HW137490   1.922   4.638  12.940 -0.1869  1.4229 -1.1271
 8676SOL    HW237491   1.839   4.717  13.017 -0.4383 -1.3671  1.3891
 8677SOL     OW37492   2.908   0.338   8.093 -0.0216  0.2614  0.1956
 8677SOL    HW137493   2.923   0.365   8.183  0.4449  1.8520 -0.3611
 8677SOL    HW237494   2.813   0.325   8.098 -0.0345  0.1484 -0.3442
 8678SOL     OW37495   1.564   2.016   7.762 -0.0291 -0.1391  0.8060
 8678SOL    HW137496   1.535   2.105   7.780 -0.6274 -0.5144  1.6902
 8678SOL    HW237497   1.521   2.002   7.677  0.2328  0.6277  0.5465
 8679SOL     OW37498   2.340   0.168   4.836  0.0745  0.1484 -0.5449
 8679SOL    HW137499   2.419   0.161   4.781  1.2794 -3.8473  1.6972
 8679SOL    HW237500   2.389   0.152   4.917 -0.7588  2.3958  0.3870
 8680SOL     OW37501   3.727   3.956  11.971  0.0701 -0.3524  0.3501
 8680SOL    HW137502   3.753   3.907  11.893 -1.4304  2.0320 -1.6478
 8680SOL    HW237503   3.811   3.979  12.010  0.2354 -0.8038  0.2606
 8681SOL     OW37504   2.879   3.800   4.782  0.0219 -0.2426  0.2285
 8681SOL    HW137505   2.886   3.706   4.767  1.9939  0.0118 -0.3895
 8681SOL    HW237506   2.821   3.818   4.708  0.5861 -0.4171 -0.2534
 8682SOL     OW37507   1.987   2.133   8.627 -0.1370 -0.7390 -0.4026
 8682SOL    HW137508   1.926   2.177   8.687 -1.9254  0.0221 -2.8052
 8682SOL    HW237509   1.942   2.052   8.602 -0.3777 -0.5842 -0.4682
 8683SOL     OW37510   1.309   3.945  17.648 -0.5063 -0.7725 -0.5504
 8683SOL    HW137511   1.332   3.983  17.563 -0.8609 -2.5200 -1.4374
 8683SOL    HW237512   1.393   3.904  17.667 -0.1511 -1.3321 -3.3131
 8684SOL     OW37513   3.411   1.752  16.105  0.6748 -0.3122  0.1339
 8684SOL    HW137514   3.327   1.730  16.066 -0.3415 -1.5609  2.9767
 8684SOL    HW237515   3.427   1.843  16.078 -0.4292 -0.3666 -0.6595
 8685SOL     OW37516   1.351   4.682   6.603  0.0369 -0.1201  0.0941
 8685SOL    HW137517   1.414   4.615   6.628  1.5449  0.9602 -0.7772
 8685SOL    HW237518   1.346   0.016   6.679  2.0969 -0.0575  0.1702
 8686SOL     OW37519   2.098   3.119   3.572 -0.1120  0.2914 -0.2369
 8686SOL    HW137520   2.120   3.039   3.524  1.9522  1.0485 -0.5453
 8686SOL    HW237521   2.185   3.158   3.571 -0.1048  0.2341 -1.3654
 8687SOL     OW37522   2.426   1.403   2.895 -0.1407  0.0714  0.0360
 8687SOL    HW137523   2.373   1.443   2.965 -0.1953  0.0283  0.0191
 8687SOL    HW237524   2.379   1.320   2.888 -0.2985 -0.1368  3.2666
 8688SOL     OW37525   2.725   0.899   8.547 -0.9386  0.0140 -0.6169
 8688SOL    HW137526   2.816   0.909   8.574 -0.6913  0.9657 -1.8097
 8688SOL    HW237527   2.743   0.902   8.453  0.0355 -2.9111 -0.5278
 8689SOL     OW37528   0.445   2.017  11.038  0.0600 -0.0590 -0.0012
 8689SOL    HW137529   0.524   2.030  10.987  2.3730 -3.1022  2.7591
 8689SOL    HW237530   0.461   1.924  11.058 -1.8700 -0.2606  0.6463
 8690SOL     OW37531   4.000   3.731  12.195  0.8919  0.0768 -0.7150
 8690SOL    HW137532   4.034   3.820  12.189  3.2521 -0.7273  0.8346
 8690SOL    HW237533   4.007   3.690  12.108  1.0029 -0.8489 -0.2671
 8691SOL     OW37534   2.654   0.397   4.567  0.6495 -0.6083 -0.5499
 8691SOL    HW137535   2.646   0.474   4.624  0.2147 -1.3330  0.3669
 8691SOL    HW237536   2.643   0.442   4.483 -0.2913 -0.5135 -0.3772
 8692SOL     OW37537   3.871   1.484   5.178  0.5792  0.1089  0.1872
 8692SOL    HW137538   3.836   1.522   5.098  2.1750 -2.3964 -1.7175
 8692SOL    HW237539   3.865   1.558   5.238  2.1800  0.2925  0.1135
 8693SOL     OW37540   2.184   1.882   1.940  0.7081  0.6761 -0.0013
 8693SOL    HW137541   2.151   1.959   1.986 -0.7865 -1.1014  1.8845
 8693SOL    HW237542   2.262   1.863   1.993  0.4015  0.9334  0.5428
 8694SOL     OW37543   2.486   0.092   6.298  0.3071  0.1164 -0.1873
 8694SOL    HW137544   2.575   0.111   6.268 -0.1052  1.3809 -0.5949
 8694SOL    HW237545   2.508   0.118   6.388  1.9247 -1.3556 -0.1377
 8695SOL     OW37546   3.501   2.061  12.238 -0.6210  0.3942 -0.1134
 8695SOL    HW137547   3.586   2.103  12.235 -1.0582  1.4504  2.5515
 8695SOL    HW237548   3.437   2.125  12.269 -0.4637  1.1759 -1.4063
 8696SOL     OW37549   2.782   0.164   1.171 -0.3992 -0.1561  0.0195
 8696SOL    HW137550   2.779   0.126   1.259  0.1449 -1.8452 -0.6912
 8696SOL    HW237551   2.780   0.084   1.120  0.1938 -0.6616  0.7837
 8697SOL     OW37552   0.418   0.521   8.676 -0.1648 -0.4341 -0.0908
 8697SOL    HW137553   0.377   0.436   8.692 -1.3334  0.1787  0.1745
 8697SOL    HW237554   0.457   0.533   8.762 -0.0469  0.2831 -0.2409
 8698SOL     OW37555   4.190   3.959   1.728  0.2233  0.0920  0.2476
 8698SOL    HW137556   4.209   3.940   1.820 -1.3611 -1.8704  0.1509
 8698SOL    HW237557   4.134   4.033   1.754 -0.5128 -0.5374  0.4309
 8699SOL     OW37558   3.998   4.643  15.189  0.3820 -0.3679 -0.2091
 8699SOL    HW137559   4.004   4.560  15.235 -0.3009 -0.2113  0.1698
 8699SOL    HW237560   3.997   4.626  15.095  1.6767 -0.7367 -0.1533
 8700SOL     OW37561   2.096   2.144  10.609 -0.0381 -0.0359  0.0454
 8700SOL    HW137562   2.160   2.078  10.639  1.0236  1.1159  0.3322
 8700SOL    HW237563   2.060   2.107  10.529  0.3810  0.0724 -0.1936
 8701SOL     OW37564   4.246   1.362   6.355 -0.2355 -0.2023 -0.3105
 8701SOL    HW137565   4.215   1.338   6.267 -1.3302  0.4781 -0.1119
 8701SOL    HW237566   4.166   1.386   6.402 -0.3306 -0.6286 -0.2537
 8702SOL     OW37567   3.134   4.460   3.499 -0.2346  0.3002  0.5057
 8702SOL    HW137568   3.213   4.496   3.539 -0.7025 -3.0453  4.3829
 8702SOL    HW237569   3.123   4.500   3.412 -1.9795  2.1052  1.5571
 8703SOL     OW37570   1.414   2.798   2.400 -0.5193  0.3422 -0.1847
 8703SOL    HW137571   1.500   2.786   2.440 -0.8351  0.8999  0.6678
 8703SOL    HW237572   1.442   2.869   2.342  0.2875  1.0368  1.0552
 8704SOL     OW37573   3.429   0.135   0.175  0.2701  0.0451 -0.3029
 8704SOL    HW137574   3.443   0.105   0.085 -1.8842 -0.4677 -0.4784
 8704SOL    HW237575   3.376   0.060   0.201  0.5116  0.2993  0.8951
 8705SOL     OW37576   3.422   2.249   2.337  0.2273  0.2358 -0.4385
 8705SOL    HW137577   3.457   2.223   2.252 -1.8498  0.3216 -1.3035
 8705SOL    HW237578   3.347   2.191   2.350 -0.7154  1.0489 -2.3084
 8706SOL     OW37579   1.469   3.034   4.392 -0.0464  0.1865  0.6574
 8706SOL    HW137580   1.404   2.988   4.445  1.3475 -0.2743  1.9734
 8706SOL    HW237581   1.421   3.047   4.310  1.9879 -1.6812 -0.8121
 8707SOL     OW37582   3.441   0.340   8.896 -0.4392 -0.1845  0.0237
 8707SOL    HW137583   3.473   0.278   8.962  0.1600 -0.0383 -0.1307
 8707SOL    HW237584   3.369   0.373   8.950 -1.0814 -2.6568  0.6826
 8708SOL     OW37585   0.563   1.596   4.935 -0.2738 -0.2272  0.5008
 8708SOL    HW137586   0.554   1.571   4.844 -3.5888  2.5453  0.0508
 8708SOL    HW237587   0.598   1.522   4.984 -0.7652 -0.1772  0.9318
 8709SOL     OW37588   0.792   2.071   1.797 -0.7063  0.5781  0.3398
 8709SOL    HW137589   0.862   2.007   1.782 -0.9265 -0.0440  1.9655
 8709SOL    HW237590   0.816   2.134   1.728  0.7427 -0.2172  0.1036
 8710SOL     OW37591   2.477   1.516   1.596  0.3185  0.1812  0.7682
 8710SOL    HW137592   2.407   1.456   1.624  0.1369 -0.7059 -1.6333
 8710SOL    HW237593   2.441   1.605   1.601 -1.2633 -0.4235  0.0461
 8711SOL     OW37594   3.103   3.129   6.841 -0.1021 -0.0379 -0.0312
 8711SOL    HW137595   3.160   3.161   6.770 -2.9229  1.3683 -1.6493
 8711SOL    HW237596   3.061   3.066   6.783  0.5084 -0.8750  0.4336
 8712SOL     OW37597   3.589   1.280   4.522  0.1598 -0.6116  0.2095
 8712SOL    HW137598   3.575   1.266   4.429 -0.0150  0.5065  0.0701
 8712SOL    HW237599   3.549   1.363   4.550  1.7062  0.3720 -0.4828
 8713SOL     OW37600   1.071   3.764   8.328 -0.6050  0.3127  0.8025
 8713SOL    HW137601   1.107   3.740   8.414  0.4954 -1.1507 -0.0726
 8713SOL    HW237602   1.140   3.820   8.294 -0.0930 -0.2402  0.9386
 8714SOL     OW37603   3.316   2.088  13.110  0.0883 -0.0272  0.2001
 8714SOL    HW137604   3.326   2.001  13.149  1.6922 -0.1037 -0.3910
 8714SOL    HW237605   3.317   2.068  13.016 -2.1703  1.5406 -0.1674
 8715SOL     OW37606   1.706   2.427   7.828  0.1402 -0.3213 -0.2160
 8715SOL    HW137607   1.676   2.492   7.892 -0.3827 -2.2456  1.5026
 8715SOL    HW237608   1.631   2.368   7.826 -0.3185  0.2494 -0.0418
 8716SOL     OW37609   1.842   1.401   6.534 -0.0316 -0.1480 -0.2483
 8716SOL    HW137610   1.796   1.445   6.606 -2.1082 -1.5641 -0.7042
 8716SOL    HW237611   1.915   1.352   6.573  0.6990  0.5844 -0.7061
 8717SOL     OW37612   1.519   3.845  11.024  0.2302 -0.1536  0.4054
 8717SOL    HW137613   1.545   3.754  11.040  1.4928  0.3494  1.1836
 8717SOL    HW237614   1.425   3.844  11.005  0.7659 -1.1790 -2.2835
 8718SOL     OW37615   4.393   3.597   9.263 -0.0882 -0.2945 -0.7446
 8718SOL    HW137616   4.424   3.549   9.340  0.2166  2.2474  0.7156
 8718SOL    HW237617   4.307   3.627   9.292 -0.5253 -2.3290  0.0364
 8719SOL     OW37618   2.141   1.507   3.353 -0.0104  0.1753  0.1902
 8719SOL    HW137619   2.234   1.488   3.358  0.0254  0.0478 -1.0070
 8719SOL    HW237620   2.122   1.489   3.445 -1.0650  0.6826  0.0773
 8720SOL     OW37621   4.515   3.200   6.185 -0.3025 -0.2417 -0.8292
 8720SOL    HW137622   4.546   3.122   6.139 -1.3500 -1.7855  1.0893
 8720SOL    HW237623   4.522   3.168   6.275 -2.5953 -0.4139 -0.6977
 8721SOL     OW37624   1.798   0.849  10.479 -0.3403 -0.1401 -0.7929
 8721SOL    HW137625   1.852   0.845  10.400  1.1942 -1.3526  0.3130
 8721SOL    HW237626   1.837   0.776  10.528  0.8565 -0.6119 -2.4284
 8722SOL     OW37627   3.707   2.057   5.272 -0.0642 -0.5112  0.0973
 8722SOL    HW137628   3.757   2.004   5.210  0.3565 -0.6291  0.5429
 8722SOL    HW237629   3.676   2.129   5.217 -3.2658 -1.6038  0.4574
 8723SOL     OW37630   0.884   2.825   7.640  0.3856 -0.0829 -0.1193
 8723SOL    HW137631   0.825   2.880   7.692  2.4089  1.4601  0.5380
 8723SOL    HW237632   0.883   2.871   7.556 -0.2699  0.6084  0.2634
 8724SOL     OW37633   2.867   2.335   2.245  0.0738  0.2028  0.4890
 8724SOL    HW137634   2.807   2.289   2.305  0.5305 -0.3562  0.5159
 8724SOL    HW237635   2.801   2.376   2.189  0.9651 -0.4876 -1.0557
 8725SOL     OW37636   2.451   2.496  10.390 -0.4002  0.2852 -0.1890
 8725SOL    HW137637   2.476   2.501  10.297  0.1347 -1.3895 -0.1334
 8725SOL    HW237638   2.381   2.560  10.383 -1.0514 -0.4730 -0.5917
 8726SOL     OW37639   0.102   2.511  14.146 -0.5707  0.1097  0.0962
 8726SOL    HW137640   0.186   2.531  14.188 -1.3689  3.0949  0.2710
 8726SOL    HW237641   0.066   2.466  14.223  0.7722 -0.4904  0.3749
 8727SOL     OW37642   1.355   0.736   2.660  0.4525 -0.2522 -0.3703
 8727SOL    HW137643   1.342   0.808   2.598 -0.2825  0.1817  0.2891
 8727SOL    HW237644   1.276   0.683   2.653 -0.9995  2.1828 -2.3243
 8728SOL     OW37645   1.921   0.793  14.527 -0.4595 -0.0211  0.0330
 8728SOL    HW137646   1.915   0.889  14.520  1.7605  0.0125 -1.3259
 8728SOL    HW237647   2.012   0.769  14.511  0.5291  1.0017  3.9595
 8729SOL     OW37648   1.556   3.994  15.259 -0.2504 -0.0074 -0.6069
 8729SOL    HW137649   1.574   4.088  15.251 -1.8853  0.1227 -2.7747
 8729SOL    HW237650   1.526   3.977  15.170 -0.8343  0.5122 -0.5058
 8730SOL     OW37651   1.847   2.527   2.907 -0.2686  0.4244  0.0377
 8730SOL    HW137652   1.887   2.586   2.844 -1.9000  0.8600 -0.5871
 8730SOL    HW237653   1.802   2.465   2.848 -0.3541  0.6651 -0.1483
 8731SOL     OW37654   0.912   4.682  16.356  0.4301 -0.0314 -0.3104
 8731SOL    HW137655   0.863   4.611  16.315 -0.5442  0.9941 -0.9092
 8731SOL    HW237656   0.897   0.018  16.282 -0.0355  0.1070 -0.1054
 8732SOL     OW37657   2.785   3.708   4.099 -0.4867  0.2966  0.4346
 8732SOL    HW137658   2.820   3.622   4.077 -1.0096  0.1998 -0.0079
 8732SOL    HW237659   2.841   3.705   4.177 -2.6958 -0.4753  1.9771
 8733SOL     OW37660   4.512   0.580   8.449 -0.1498  0.0210 -0.0275
 8733SOL    HW137661   4.451   0.642   8.490  1.1612  1.0749  0.3236
 8733SOL    HW237662   4.477   0.493   8.464  2.7825 -0.5525  3.4655
 8734SOL     OW37663   4.596   2.137   2.076 -0.4903  0.4735 -0.0810
 8734SOL    HW137664   4.667   2.073   2.077  0.0022  1.0246  2.2948
 8734SOL    HW237665   4.538   2.105   2.145  2.3581 -1.9079  1.2499
 8735SOL     OW37666   1.641   2.831   3.000  0.3114  0.1772  0.0165
 8735SOL    HW137667   1.562   2.792   2.964 -2.0839  4.1683  0.9256
 8735SOL    HW237668   1.623   2.810   3.092 -2.6426 -0.1903 -0.6633
 8736SOL     OW37669   1.945   4.129   7.858 -0.0747  0.0419 -0.2900
 8736SOL    HW137670   2.017   4.103   7.915  1.1280  2.3297 -0.8006
 8736SOL    HW237671   1.861   4.097   7.891  1.1087 -0.3857  2.3299
 8737SOL     OW37672   2.741   2.123  15.899  0.2407  0.2289 -0.6728
 8737SOL    HW137673   2.666   2.084  15.854 -0.0203 -0.0767  0.0195
 8737SOL    HW237674   2.718   2.128  15.992 -2.1091 -2.4079 -1.1024
 8738SOL     OW37675   3.134   4.603   5.524  0.4107 -0.1398 -0.4494
 8738SOL    HW137676   3.046   4.635   5.541  0.3044 -1.1700  0.9230
 8738SOL    HW237677   3.150   4.540   5.595  1.9143  0.1972 -0.4952
 8739SOL     OW37678   3.578   3.391   8.566  0.2465 -0.3675  0.3796
 8739SOL    HW137679   3.653   3.424   8.615  0.2810  0.9728 -0.5895
 8739SOL    HW237680   3.546   3.466   8.517 -1.5179 -1.1437  0.3287
 8740SOL     OW37681   4.111   4.459   9.191 -0.0933 -0.2219 -0.0391
 8740SOL    HW137682   4.106   4.365   9.173  1.3285 -0.3323  0.1647
 8740SOL    HW237683   4.131   4.461   9.285 -0.6183 -0.2915  0.0769
 8741SOL     OW37684   2.687   0.196   1.716 -0.1687 -0.2556  0.7170
 8741SOL    HW137685   2.672   0.102   1.722 -2.1699 -0.0901 -1.8836
 8741SOL    HW237686   2.746   0.208   1.791 -0.4050  0.7807  0.7293
 8742SOL     OW37687   4.566   3.920   3.800 -0.2071  0.1334  0.3588
 8742SOL    HW137688   4.576   3.954   3.889  0.1181  3.0324 -0.7847
 8742SOL    HW237689   4.571   4.001   3.749  0.5495 -1.1256 -1.5368
 8743SOL     OW37690   3.279   4.701  12.118  0.1448  0.3576 -0.0407
 8743SOL    HW137691   3.311   0.061  12.152  0.0391  0.4720 -0.2204
 8743SOL    HW237692   3.277   4.642  12.193  1.8159  0.4118  0.0468
 8744SOL     OW37693   3.089   0.160  10.476 -0.4024 -0.2170 -0.5316
 8744SOL    HW137694   3.071   0.250  10.450 -1.4982 -0.5990 -1.1017
 8744SOL    HW237695   3.164   0.188  10.529  1.0641 -0.7404 -2.3623
 8745SOL     OW37696   2.035   2.280   8.421 -0.5294 -0.1285  0.0888
 8745SOL    HW137697   2.028   2.223   8.497 -0.5731 -0.9676 -0.5521
 8745SOL    HW237698   1.945   2.305   8.402 -0.5797  0.2540  0.8444
 8746SOL     OW37699   3.568   1.026   7.197 -0.1282  0.6898 -0.1265
 8746SOL    HW137700   3.536   0.959   7.137  0.0881  0.1802  0.3264
 8746SOL    HW237701   3.509   1.100   7.183 -0.8436  0.2777  0.7394
 8747SOL     OW37702   3.999   3.114   5.904  0.0184 -0.6936 -0.1403
 8747SOL    HW137703   4.004   3.030   5.949  0.6799 -0.6079 -0.0588
 8747SOL    HW237704   4.089   3.147   5.898  0.4746 -2.2711 -2.1748
 8748SOL     OW37705   2.466   1.898   2.088 -0.6975  0.4608 -0.2713
 8748SOL    HW137706   2.543   1.853   2.052  0.5490  0.8183  1.9746
 8748SOL    HW237707   2.483   1.987   2.058 -3.4851  1.2680  0.5145
 8749SOL     OW37708   4.608   0.225   3.860  0.1895 -0.5460 -0.7497
 8749SOL    HW137709   4.547   0.274   3.805 -0.8277 -0.9634  0.0245
 8749SOL    HW237710   4.654   0.291   3.912 -2.8462 -0.2569  1.5405
 8750SOL     OW37711   3.559   3.730  10.418 -0.2239  0.0293 -0.0798
 8750SOL    HW137712   3.583   3.703  10.330 -0.7830  3.2037 -1.2123
 8750SOL    HW237713   3.623   3.694  10.479  0.8183  0.8125 -0.7022
 8751SOL     OW37714   2.837   3.554  13.336  0.1827 -0.9644  1.0977
 8751SOL    HW137715   2.920   3.592  13.307 -0.2920 -1.1165 -0.4457
 8751SOL    HW237716   2.837   3.473  13.286 -0.5647  0.5799 -1.3959
 8752SOL     OW37717   3.302   4.467   2.578  0.3127  0.0110  0.1549
 8752SOL    HW137718   3.293   4.539   2.516 -0.1103  0.7057  1.0338
 8752SOL    HW237719   3.384   4.424   2.553 -1.1906 -2.8661  0.1249
 8753SOL     OW37720   2.505   2.769   1.934  0.0563 -0.4246 -0.4268
 8753SOL    HW137721   2.495   2.676   1.914  1.6809 -0.8619  0.8185
 8753SOL    HW237722   2.429   2.780   1.992  0.5566 -0.7446  0.2751
 8754SOL     OW37723   4.272   3.911   1.985 -0.1917  0.0741 -0.2837
 8754SOL    HW137724   4.232   3.892   2.070  1.6653 -0.8180  0.3837
 8754SOL    HW237725   4.359   3.871   1.984  0.0834  0.5877  1.4498
 8755SOL     OW37726   3.798   2.130   8.174 -0.0441 -0.2741 -0.1527
 8755SOL    HW137727   3.773   2.208   8.224 -0.3358 -2.1837  2.6907
 8755SOL    HW237728   3.808   2.159   8.083 -3.1068 -0.2071 -0.4895
 8756SOL     OW37729   2.019   3.151  17.123 -0.3049  0.4070  0.1394
 8756SOL    HW137730   2.034   3.227  17.179  2.2115  1.1334 -1.5450
 8756SOL    HW237731   1.932   3.126  17.155 -1.3155  1.2735 -1.9112
 8757SOL     OW37732   4.494   1.982   7.372 -0.1809  0.5619  0.1717
 8757SOL    HW137733   4.540   1.941   7.298  1.3240  3.1098 -0.3348
 8757SOL    HW237734   4.554   1.955   7.442 -0.6039  0.1951  0.3863
 8758SOL     OW37735   2.749   2.687   5.613 -0.0203  0.1931 -0.0824
 8758SOL    HW137736   2.813   2.652   5.551 -0.6748  0.3364 -0.8256
 8758SOL    HW237737   2.800   2.685   5.694  0.8975 -0.4324 -0.6680
 8759SOL     OW37738   1.441   3.947   7.262  0.2030 -0.5418 -0.3860
 8759SOL    HW137739   1.384   3.916   7.192  0.8343 -2.0219 -0.2447
 8759SOL    HW237740   1.371   3.991   7.310 -0.9644  0.2909 -2.8616
 8760SOL     OW37741   3.370   0.092  16.802 -0.2298  0.1034  0.3286
 8760SOL    HW137742   3.416   0.151  16.861 -0.1060  0.2988  0.0365
 8760SOL    HW237743   3.418   0.100  16.719  2.4210  0.8273  1.9597
 8761SOL     OW37744   0.800   3.901   2.499  0.1414  0.8741  0.4291
 8761SOL    HW137745   0.835   3.853   2.425 -0.7180  0.6402  0.1655
 8761SOL    HW237746   0.719   3.933   2.458  0.4881  0.5931 -0.4547
 8762SOL     OW37747   1.196   3.640   5.569  0.5260  0.4251 -0.2482
 8762SOL    HW137748   1.243   3.610   5.646  0.0386 -0.2310 -0.2114
 8762SOL    HW237749   1.117   3.689   5.592  1.4944  1.6692  0.4092
 8763SOL     OW37750   1.764   1.707   5.360 -0.2654 -0.2720 -0.2293
 8763SOL    HW137751   1.782   1.784   5.306 -1.8115 -0.8706 -1.6069
 8763SOL    HW237752   1.796   1.745   5.441 -0.6863  0.5160 -0.4338
 8764SOL     OW37753   0.522   4.206   8.173  0.8311  0.4834 -0.3023
 8764SOL    HW137754   0.598   4.180   8.121  0.2260 -0.7704 -0.5637
 8764SOL    HW237755   0.530   4.301   8.184  0.0670  0.7764 -2.2196
 8765SOL     OW37756   3.768   0.574   3.296 -0.0486  0.3917 -0.0759
 8765SOL    HW137757   3.778   0.482   3.320  1.1990  0.5523  0.0020
 8765SOL    HW237758   3.755   0.569   3.201  2.3785 -1.3395 -0.3248
 8766SOL     OW37759   3.800   0.395   6.875  0.4098 -1.1762 -0.0271
 8766SOL    HW137760   3.793   0.437   6.961 -0.6118 -0.3531 -0.5116
 8766SOL    HW237761   3.878   0.340   6.875  1.7117  0.6296 -2.3054
 8767SOL     OW37762   0.712   3.522   1.731 -0.3722 -0.2586  0.3198
 8767SOL    HW137763   0.692   3.571   1.651 -1.2733 -2.0553 -0.5681
 8767SOL    HW237764   0.742   3.438   1.695  0.2086 -0.4057  1.1446
 8768SOL     OW37765   4.712   2.819  13.151 -0.0238 -0.7037  0.2774
 8768SOL    HW137766   0.063   2.762  13.171 -0.5076 -1.0450  1.0884
 8768SOL    HW237767   0.020   2.905  13.178  1.6084 -0.6624 -1.6732
 8769SOL     OW37768   2.288   2.784   4.569  0.0352  0.0758 -0.0566
 8769SOL    HW137769   2.327   2.847   4.629 -1.1164  0.4088  0.3314
 8769SOL    HW237770   2.221   2.833   4.522  0.3475 -0.3684 -0.9747
 8770SOL     OW37771   4.398   0.337   2.554 -0.0944  0.1561 -0.0201
 8770SOL    HW137772   4.457   0.279   2.507  0.8707  0.2998  1.0282
 8770SOL    HW237773   4.330   0.270   2.560 -0.3740  0.3189 -1.2708
 8771SOL     OW37774   4.044   4.384   6.137 -0.1628 -0.1374 -0.4730
 8771SOL    HW137775   4.028   4.383   6.231  0.5061  0.3744 -0.3590
 8771SOL    HW237776   4.130   4.346   6.119  0.6796  0.9897  1.2321
 8772SOL     OW37777   1.308   3.035   6.306  0.5821  0.1259 -0.0727
 8772SOL    HW137778   1.224   2.990   6.320  0.4926 -0.3660 -2.1902
 8772SOL    HW237779   1.335   3.040   6.397  1.6496  3.2350 -0.5717
 8773SOL     OW37780   4.032   4.532   7.494 -0.0253 -0.5144 -0.4814
 8773SOL    HW137781   3.960   4.470   7.503 -1.1779  0.8286 -0.6320
 8773SOL    HW237782   4.054   4.530   7.401  1.0667  0.9933 -0.2475
 8774SOL     OW37783   0.395   4.507  10.966  0.4610  0.0782 -0.8590
 8774SOL    HW137784   0.484   4.471  10.963  0.2410 -0.1620 -3.9064
 8774SOL    HW237785   0.414   4.575  11.031 -1.1496 -1.2481  0.9935
 8775SOL     OW37786   4.397   3.811  15.718  0.0276  0.0006  0.0228
 8775SOL    HW137787   4.390   3.716  15.717  0.9902 -0.0949  2.5559
 8775SOL    HW237788   4.488   3.829  15.697  0.1359  0.2620  0.7154
 8776SOL     OW37789   3.610   2.722  12.641 -0.0721 -0.1937  0.3184
 8776SOL    HW137790   3.529   2.757  12.677 -0.1001 -1.3818  1.4063
 8776SOL    HW237791   3.652   2.800  12.603  0.2531 -0.7842 -0.5340
 8777SOL     OW37792   2.869   1.718   4.168  0.4597  0.3493 -0.4312
 8777SOL    HW137793   2.828   1.687   4.248 -0.3382 -2.2463 -1.8484
 8777SOL    HW237794   2.947   1.662   4.166  1.3984  1.6442  0.1835
 8778SOL     OW37795   3.838   1.715  10.425  0.8072  0.0215 -0.1118
 8778SOL    HW137796   3.828   1.697  10.331  0.5377  2.5287 -0.5600
 8778SOL    HW237797   3.933   1.705  10.425  0.7988 -0.0645 -0.0943
 8779SOL     OW37798   3.225   3.726  11.526 -0.1690  0.3268  0.0166
 8779SOL    HW137799   3.287   3.799  11.531  0.9096 -0.5094 -1.4049
 8779SOL    HW237800   3.285   3.658  11.497  1.3350  2.3222 -1.6008
 8780SOL     OW37801   3.430   1.039   7.444 -0.1350 -0.4549  0.2595
 8780SOL    HW137802   3.496   1.027   7.376 -0.0683 -2.2693  0.6328
 8780SOL    HW237803   3.352   1.051   7.390 -1.0436  0.8915  1.8759
 8781SOL     OW37804   3.041   4.613  10.031 -0.6521 -0.2215  0.0581
 8781SOL    HW137805   2.986   4.536  10.044 -0.7613 -0.1244  0.1702
 8781SOL    HW237806   2.988   4.682  10.073 -0.5835 -1.1406  1.6364
 8782SOL     OW37807   1.142   3.846   1.965  0.1366 -0.1087  0.7479
 8782SOL    HW137808   1.086   3.909   2.010 -0.5625 -1.3829  1.6455
 8782SOL    HW237809   1.229   3.885   1.970 -0.8269  1.8470  2.1543
 8783SOL     OW37810   0.861   2.418   6.637  0.3215 -0.0283  0.2328
 8783SOL    HW137811   0.937   2.394   6.691  0.6634 -0.7634 -0.5696
 8783SOL    HW237812   0.901   2.384   6.556 -0.7683 -2.2526  0.6289
 8784SOL     OW37813   1.220   1.374   8.692 -0.0911 -0.1079  0.1128
 8784SOL    HW137814   1.128   1.380   8.719  0.2565 -0.4508  1.4194
 8784SOL    HW237815   1.229   1.281   8.670 -0.1578 -0.3694  1.1479
 8785SOL     OW37816   4.721   3.909  11.183  0.3208  0.2451 -0.8456
 8785SOL    HW137817   0.034   3.892  11.096 -0.8811  0.0808 -1.3168
 8785SOL    HW237818   4.663   3.981  11.159 -1.0045 -0.7937 -0.7739
 8786SOL     OW37819   2.206   3.594   4.839  0.8019  0.1599 -0.8249
 8786SOL    HW137820   2.122   3.559   4.808 -0.4854  2.1666  0.3881
 8786SOL    HW237821   2.195   3.679   4.799 -0.1757  0.2302 -0.4168
 8787SOL     OW37822   4.595   2.569   3.993 -0.0636 -0.4467  0.8090
 8787SOL    HW137823   4.595   2.517   3.912 -2.1905  0.0910  0.4666
 8787SOL    HW237824   4.582   2.657   3.956 -0.4624 -1.3221 -1.1400
 8788SOL     OW37825   3.227   0.634   3.459 -0.0243  0.5110  0.7226
 8788SOL    HW137826   3.270   0.585   3.390 -2.1343 -0.8361  0.3525
 8788SOL    HW237827   3.157   0.685   3.418  0.9745  3.1282  2.2423
 8789SOL     OW37828   2.126   2.160   1.711  0.0870  0.1639  0.2227
 8789SOL    HW137829   2.104   2.175   1.620  0.0544 -0.6923  0.0832
 8789SOL    HW237830   2.038   2.154   1.748 -0.2511  1.0851 -0.4586
 8790SOL     OW37831   1.081   4.674  12.394 -0.1625 -0.1399  0.2530
 8790SOL    HW137832   1.136   0.019  12.431 -1.1693  1.1102 -0.5524
 8790SOL    HW237833   1.001   0.002  12.381 -2.0731 -2.7839  1.4569
 8791SOL     OW37834   4.100   1.168   5.739 -0.1359 -0.1984 -0.0264
 8791SOL    HW137835   4.020   1.165   5.688 -1.6337 -0.7095  2.3380
 8791SOL    HW237836   4.101   1.081   5.779 -2.3300  0.4969  1.5122
 8792SOL     OW37837   3.340   0.458  17.595 -0.5237 -0.4054  0.0264
 8792SOL    HW137838   3.322   0.486  17.685  0.7874 -0.7855  0.4060
 8792SOL    HW237839   3.406   0.523  17.573 -0.2940  0.0844  2.1552
 8793SOL     OW37840   0.009   1.724  11.403  0.1620 -0.2971 -0.2061
 8793SOL    HW137841   0.087   1.728  11.348 -0.7034  1.7146 -1.2753
 8793SOL    HW237842   4.703   1.815  11.402  0.3724 -0.2132  0.6986
 8794SOL     OW37843   1.325   4.567  12.018 -0.2644 -0.1349 -0.4382
 8794SOL    HW137844   1.374   4.486  12.002 -0.0490 -0.4049  1.5446
 8794SOL    HW237845   1.262   4.569  11.946  1.8167  1.1328 -2.2149
 8795SOL     OW37846   1.432   3.531  13.796  0.8851  0.2075  0.6618
 8795SOL    HW137847   1.435   3.478  13.876  1.0879 -1.4662 -0.4529
 8795SOL    HW237848   1.416   3.619  13.831  0.0813  1.2112 -2.2190
 8796SOL     OW37849   1.949   3.388   9.612 -0.2657  0.4850  0.2692
 8796SOL    HW137850   1.946   3.475   9.653 -0.3584  0.5609  0.1016
 8796SOL    HW237851   1.895   3.335   9.670  0.1109 -0.7187 -0.4742
 8797SOL     OW37852   0.635   0.500   3.203  0.2219 -0.4107  0.1003
 8797SOL    HW137853   0.641   0.493   3.108 -0.4077 -0.2016  0.0440
 8797SOL    HW237854   0.718   0.453   3.218 -0.6363 -2.4792 -1.5902
 8798SOL     OW37855   3.957   4.311  13.958  0.2377  0.3969  0.3928
 8798SOL    HW137856   4.016   4.280  13.890 -1.8572 -1.5691 -0.5233
 8798SOL    HW237857   3.909   4.374  13.904  0.7206  1.7069  1.4940
 8799SOL     OW37858   1.062   0.791   6.533  0.2817  0.1914  0.4515
 8799SOL    HW137859   0.967   0.802   6.541  0.2801 -0.1020  0.7964
 8799SOL    HW237860   1.061   0.738   6.453  0.4373 -1.7151  1.7252
 8800SOL     OW37861   4.333   0.227   1.832  0.0150 -0.5802 -0.1325
 8800SOL    HW137862   4.392   0.254   1.903 -0.0195  1.5603 -0.9349
 8800SOL    HW237863   4.386   0.161   1.787  3.2027 -0.1933  3.0550
 8801SOL     OW37864   0.655   3.590  14.025 -0.3494 -0.3895 -0.0183
 8801SOL    HW137865   0.616   3.595  13.938  0.7148  1.1499 -0.4063
 8801SOL    HW237866   0.699   3.675  14.022  0.5190 -0.8969 -1.4908
 8802SOL     OW37867   0.567   4.229   4.317 -0.0263 -0.4427  0.1926
 8802SOL    HW137868   0.626   4.182   4.258 -0.8731 -0.1249 -0.9144
 8802SOL    HW237869   0.606   4.199   4.399  0.1926 -0.3874  0.1072
 8803SOL     OW37870   2.602   3.875   6.945  0.0103 -0.1540 -0.4696
 8803SOL    HW137871   2.539   3.827   6.890 -0.7299 -2.1212  2.1087
 8803SOL    HW237872   2.645   3.928   6.879  0.4684  0.3196  0.2174
 8804SOL     OW37873   4.400   3.055   7.826  0.0280 -0.6958  0.1343
 8804SOL    HW137874   4.399   3.078   7.919 -1.1590  0.5694 -0.1956
 8804SOL    HW237875   4.362   2.967   7.833 -1.0746 -0.1049  1.7090
 8805SOL     OW37876   1.535   0.158  16.653  0.5904 -0.0979 -0.1898
 8805SOL    HW137877   1.476   0.154  16.729  1.7307 -0.5325  0.6786
 8805SOL    HW237878   1.484   0.121  16.581 -2.0579 -0.1895  1.7211
 8806SOL     OW37879   1.478   3.101   8.605 -0.6469 -0.3066 -0.5855
 8806SOL    HW137880   1.557   3.137   8.645  1.8829 -1.5139 -4.5083
 8806SOL    HW237881   1.482   3.137   8.517 -0.0481 -1.1448 -0.9007
 8807SOL     OW37882   1.597   0.610  16.534 -0.6628 -0.2197 -0.0038
 8807SOL    HW137883   1.565   0.524  16.509 -0.9329  0.3270 -1.5459
 8807SOL    HW237884   1.684   0.602  16.495 -0.8129 -2.2836  0.1264
 8808SOL     OW37885   3.173   3.838   4.835  0.2954 -0.4991 -0.1460
 8808SOL    HW137886   3.143   3.834   4.744  0.2314 -1.3008 -0.0887
 8808SOL    HW237887   3.114   3.768   4.862  1.0047 -0.7990  0.6245
 8809SOL     OW37888   2.540   0.724   6.656  0.0457 -0.6483  0.0624
 8809SOL    HW137889   2.593   0.646   6.641 -0.7922 -1.1904 -0.1054
 8809SOL    HW237890   2.537   0.732   6.751 -0.0440  0.6122 -0.0453
 8810SOL     OW37891   3.288   1.457   9.357 -0.1041  0.1237 -0.2739
 8810SOL    HW137892   3.352   1.523   9.329  2.6275 -2.0060  0.9582
 8810SOL    HW237893   3.210   1.485   9.310 -0.0310  1.9850  0.6708
 8811SOL     OW37894   3.871   0.730   1.939 -0.1591  0.6009 -0.1000
 8811SOL    HW137895   3.866   0.740   1.844  0.2583 -2.2990 -0.4357
 8811SOL    HW237896   3.784   0.755   1.970  0.2326 -1.7517  2.9274
 8812SOL     OW37897   4.165   4.577   3.332  0.4237  0.3241  0.3025
 8812SOL    HW137898   4.158   4.665   3.369  0.9782  0.9999 -1.2024
 8812SOL    HW237899   4.221   4.587   3.255 -1.0472 -0.1687 -0.8313
 8813SOL     OW37900   2.298   2.884   3.698 -0.0375 -0.1711 -0.3683
 8813SOL    HW137901   2.309   2.836   3.780 -2.6019 -0.3656 -0.1321
 8813SOL    HW237902   2.218   2.842   3.666  1.3082 -1.6916 -1.7181
 8814SOL     OW37903   3.838   1.537  15.959  0.2612  0.0607 -0.1034
 8814SOL    HW137904   3.815   1.587  16.037 -0.0122  0.8502 -0.7005
 8814SOL    HW237905   3.749   1.527  15.924 -0.2872 -1.1243  1.5714
 8815SOL     OW37906   1.005   2.979   4.617  0.0110 -0.1281  0.4104
 8815SOL    HW137907   1.004   3.003   4.710 -1.2794  3.0123 -0.4125
 8815SOL    HW237908   0.928   2.925   4.602 -1.0800  0.7070  3.0285
 8816SOL     OW37909   2.693   1.725   8.560  0.3212 -0.1006  0.3546
 8816SOL    HW137910   2.757   1.714   8.490  0.8862 -3.1115  1.3227
 8816SOL    HW237911   2.739   1.686   8.634 -1.4793 -0.7369  1.1253
 8817SOL     OW37912   0.914   4.127   5.773  0.0966 -0.2874 -0.2027
 8817SOL    HW137913   0.888   4.035   5.767 -0.2633 -0.1716 -0.3520
 8817SOL    HW237914   0.919   4.140   5.868  2.7652  0.3127 -0.4191
 8818SOL     OW37915   1.922   3.015   4.641  0.0350  0.1173  0.1040
 8818SOL    HW137916   1.846   3.019   4.582  0.7825 -1.2777 -0.9440
 8818SOL    HW237917   1.918   3.103   4.677 -0.7759  1.1523 -2.4881
 8819SOL     OW37918   1.060   1.864   1.952 -0.7602  0.5116 -0.0800
 8819SOL    HW137919   1.020   1.872   1.865  1.2478 -1.6514 -1.2118
 8819SOL    HW237920   1.146   1.897   1.927  0.0745  0.1979  2.3585
 8820SOL     OW37921   2.591   2.782  10.315 -0.1162  0.3241 -0.4049
 8820SOL    HW137922   2.633   2.697  10.309  0.3476  0.4112  1.7238
 8820SOL    HW237923   2.568   2.791  10.407  1.7046 -0.4124  0.1143
 8821SOL     OW37924   2.564   0.173   4.706 -0.0419  0.1771 -0.2641
 8821SOL    HW137925   2.632   0.125   4.754 -0.3383 -0.6283 -0.6536
 8821SOL    HW237926   2.610   0.252   4.677  1.7318 -0.6580  0.2877
 8822SOL     OW37927   4.296   1.730   8.799  0.2101  0.3193 -0.4401
 8822SOL    HW137928   4.336   1.675   8.731 -0.0041 -0.8974  0.4198
 8822SOL    HW237929   4.339   1.812   8.773 -0.3402  0.6279 -0.3858
 8823SOL     OW37930   4.269   0.104   0.171 -0.2330  0.0508  0.5721
 8823SOL    HW137931   4.249   0.197   0.164 -0.3397 -0.0337 -0.2259
 8823SOL    HW237932   4.253   0.079   0.080 -1.2359 -1.3228  1.1259
 8824SOL     OW37933   2.619   1.221   4.840  0.1307 -0.0305 -0.4532
 8824SOL    HW137934   2.524   1.210   4.839  0.1763 -0.3449 -1.3721
 8824SOL    HW237935   2.629   1.308   4.800  2.5313  0.1783  0.5695
 8825SOL     OW37936   0.264   1.553   2.479  0.5990 -0.5147  0.0719
 8825SOL    HW137937   0.345   1.566   2.528  0.8554 -3.1954  0.3890
 8825SOL    HW237938   0.275   1.460   2.458 -0.7105 -0.8352  0.7493
 8826SOL     OW37939   1.635   4.682   2.359 -0.5622  0.7827  0.1155
 8826SOL    HW137940   1.714   4.654   2.313  1.1643  2.4076  2.0986
 8826SOL    HW237941   1.647   4.659   2.451 -2.8346  1.0645  0.4708
 8827SOL     OW37942   4.264   2.546   6.125  0.6385 -0.2060  0.1655
 8827SOL    HW137943   4.234   2.629   6.161 -0.3136 -0.0146 -1.0335
 8827SOL    HW237944   4.232   2.488   6.194  2.2186 -2.3481 -0.9033
 8828SOL     OW37945   2.798   3.354  16.514 -0.2231 -0.0299  0.0762
 8828SOL    HW137946   2.727   3.390  16.568 -2.5439 -3.0598 -0.9224
 8828SOL    HW237947   2.796   3.265  16.550 -1.5604  0.5816  1.4865
 8829SOL     OW37948   2.913   1.341  17.421  0.3723 -0.3780  0.6237
 8829SOL    HW137949   2.828   1.323  17.382  1.4999 -2.8500 -0.6699
 8829SOL    HW237950   2.884   1.326  17.511 -2.0214 -0.2691 -0.1380
 8830SOL     OW37951   3.363   1.745   4.828 -0.1405 -0.3644  0.4821
 8830SOL    HW137952   3.269   1.758   4.843 -0.0343  1.4811 -0.4547
 8830SOL    HW237953   3.376   1.660   4.870 -0.3177  0.2380  1.7653
 8831SOL     OW37954   2.596   3.900   7.496 -0.3818  0.0601 -0.2383
 8831SOL    HW137955   2.689   3.924   7.497 -0.2883 -0.2838 -1.0892
 8831SOL    HW237956   2.571   3.895   7.404 -2.8249 -5.2755  0.7412
 8832SOL     OW37957   3.790   2.323  14.171 -0.3411  0.0222  0.1205
 8832SOL    HW137958   3.720   2.260  14.188 -1.2538  1.1066  0.3132
 8832SOL    HW237959   3.865   2.266  14.153  1.2150  1.0572  3.2507
 8833SOL     OW37960   3.631   0.105   0.337  0.5639 -0.0135  0.4540
 8833SOL    HW137961   3.552   0.125   0.287  0.6430  0.3508  0.4776
 8833SOL    HW237962   3.646   0.189   0.380 -0.2777 -1.0873  2.7944
 8834SOL     OW37963   2.421   3.032   4.737 -0.6638  0.3987  0.5668
 8834SOL    HW137964   2.485   3.100   4.714 -0.5350 -0.2103 -0.8875
 8834SOL    HW237965   2.389   3.061   4.823 -0.7041  4.9176 -0.9441
 8835SOL     OW37966   1.960   2.499  10.629 -0.3027  0.5607 -0.0911
 8835SOL    HW137967   1.887   2.560  10.640 -0.4685  0.1526  1.0809
 8835SOL    HW237968   1.954   2.498  10.533 -0.8357  0.0542 -0.0519
 8836SOL     OW37969   2.681   3.941   5.113 -0.4900  0.2128 -0.2805
 8836SOL    HW137970   2.653   3.855   5.082  2.2772 -0.4568 -0.8357
 8836SOL    HW237971   2.604   3.958   5.168 -1.7554 -2.0980 -1.3462
 8837SOL     OW37972   3.191   2.395   7.890  0.2171 -0.8300 -0.0688
 8837SOL    HW137973   3.192   2.368   7.798 -0.0470 -0.5016 -0.1650
 8837SOL    HW237974   3.114   2.451   7.902  0.0373 -1.1963  0.4729
 8838SOL     OW37975   1.258   3.555   5.003  0.1316 -0.1670 -0.3086
 8838SOL    HW137976   1.268   3.582   4.912  2.7733 -1.1415 -0.3018
 8838SOL    HW237977   1.264   3.459   4.999  1.8316 -0.0988  0.4419
 8839SOL     OW37978   2.218   1.811   3.459 -0.3986  0.1666 -0.6458
 8839SOL    HW137979   2.309   1.796   3.485  0.7958  2.7615 -3.3468
 8839SOL    HW237980   2.214   1.740   3.395 -3.1254  0.3432 -0.6973
 8840SOL     OW37981   4.425   0.590  11.799 -0.0118 -0.2863  0.3932
 8840SOL    HW137982   4.422   0.532  11.723  3.0982  2.6987 -2.0125
 8840SOL    HW237983   4.498   0.648  11.781 -0.3139  0.5601  1.8526
 8841SOL     OW37984   3.757   0.345  17.465  0.0873 -0.3351  0.5767
 8841SOL    HW137985   3.728   0.369  17.553 -1.8830 -1.5351  0.2485
 8841SOL    HW237986   3.842   0.388  17.468  0.0346 -0.2249  0.5012
 8842SOL     OW37987   3.769   2.376  11.576  0.0092 -0.0603 -0.0880
 8842SOL    HW137988   3.824   2.318  11.628  1.0835 -0.0735 -1.2398
 8842SOL    HW237989   3.760   2.446  11.640  2.7959  0.2228 -0.0349
 8843SOL     OW37990   0.448   2.248  10.809  0.3506  0.1765 -0.4616
 8843SOL    HW137991   0.384   2.179  10.819  1.0771 -0.1770  1.7598
 8843SOL    HW237992   0.455   2.284  10.898 -1.3327 -0.1531 -0.1968
 8844SOL     OW37993   3.858   0.514   3.614  0.0933  0.2366 -1.1387
 8844SOL    HW137994   3.946   0.542   3.590  0.7358  1.8420  3.0872
 8844SOL    HW237995   3.812   0.596   3.632  1.4194  0.9016 -0.7973
 8845SOL     OW37996   2.674   1.727   1.966  0.7051  0.4557 -0.0750
 8845SOL    HW137997   2.695   1.725   1.873  0.7885  0.7598 -0.0608
 8845SOL    HW237998   2.666   1.632   1.971 -1.0026  0.4790 -2.3983
 8846SOL     OW37999   3.860   3.369   5.871 -0.6215 -0.0104 -0.3902
 8846SOL    HW138000   3.901   3.283   5.880  0.3870  0.5053  0.0028
 8846SOL    HW238001   3.886   3.387   5.781 -0.8738 -1.2812 -0.7138
 8847SOL     OW38002   0.830   3.049   3.577 -0.0094  0.5681 -0.1862
 8847SOL    HW138003   0.759   3.104   3.544 -0.6683 -0.5104 -0.5392
 8847SOL    HW238004   0.800   2.958   3.574  1.7322 -0.0464  0.9569
 8848SOL     OW38005   2.695   2.606   4.059 -0.2881  0.1530  0.2173
 8848SOL    HW138006   2.732   2.689   4.089 -0.1491  0.2825 -0.3050
 8848SOL    HW238007   2.777   2.561   4.037 -1.2583 -1.5982  0.1261
 8849SOL     OW38008   4.427   2.143   3.252  0.6226  0.7042  0.5586
 8849SOL    HW138009   4.493   2.176   3.191  1.2836  3.1796  2.6072
 8849SOL    HW238010   4.393   2.064   3.210 -1.4932  2.7417 -1.6290
 8850SOL     OW38011   4.496   1.649   3.126 -0.7589 -0.0579 -0.3508
 8850SOL    HW138012   4.591   1.661   3.133 -0.9088  0.8230  0.1423
 8850SOL    HW238013   4.472   1.689   3.210  1.0620  0.9280 -0.2949
 8851SOL     OW38014   2.266   3.370   5.300 -0.2206 -0.3690 -0.9625
 8851SOL    HW138015   2.342   3.413   5.261  2.1790 -3.5785  0.1134
 8851SOL    HW238016   2.207   3.380   5.226  0.5068  1.4100 -1.3026
 8852SOL     OW38017   3.886   2.372  11.951 -0.1314 -0.4325 -0.8265
 8852SOL    HW138018   3.833   2.429  11.894 -3.1955 -0.5222  1.9526
 8852SOL    HW238019   3.834   2.386  12.031  3.3583 -0.3013  1.3939
 8853SOL     OW38020   1.787   2.037   9.889 -0.2842  0.1259 -0.3727
 8853SOL    HW138021   1.800   2.130   9.872 -1.2549  0.3782  0.2921
 8853SOL    HW238022   1.825   2.021   9.975 -0.2203 -1.0773 -0.6213
 8854SOL     OW38023   4.492   2.607   3.129 -0.1224  0.0636 -0.4974
 8854SOL    HW138024   4.401   2.585   3.106 -1.3375  1.0456  3.3262
 8854SOL    HW238025   4.529   2.618   3.041  0.9897  1.1754  0.1213
 8855SOL     OW38026   0.463   4.447   1.242  0.1728 -0.1388  0.1558
 8855SOL    HW138027   0.494   4.360   1.216 -0.4105 -0.0472 -0.8379
 8855SOL    HW238028   0.374   4.427   1.271 -0.1973 -0.8651 -1.5245
 8856SOL     OW38029   0.314   1.009   7.437 -0.3635  0.5489 -0.2282
 8856SOL    HW138030   0.366   1.015   7.517 -0.4064  1.3197 -0.2496
 8856SOL    HW238031   0.234   0.968   7.468 -1.8269  3.4196 -0.1658
 8857SOL     OW38032   2.248   1.417   1.735  0.2648  0.3148 -0.2279
 8857SOL    HW138033   2.156   1.403   1.757  0.8760 -2.0156  0.8028
 8857SOL    HW238034   2.293   1.399   1.818 -2.9208 -2.2166  0.9221
 8858SOL     OW38035   2.770   4.604   6.284  0.9529  0.0359 -0.3133
 8858SOL    HW138036   2.704   4.602   6.354  1.9000 -0.7535  0.5699
 8858SOL    HW238037   2.844   4.578   6.340  0.7217  0.8488  0.3604
 8859SOL     OW38038   4.327   0.578  16.980  0.5809 -0.3260  1.1731
 8859SOL    HW138039   4.359   0.558  16.893  0.1400  2.1329  0.4441
 8859SOL    HW238040   4.358   0.498  17.023 -1.9389 -1.0991  1.5619
 8860SOL     OW38041   3.313   4.102   6.361  0.0646 -0.3923 -0.6697
 8860SOL    HW138042   3.385   4.165   6.365  0.1840 -0.6510  1.0694
 8860SOL    HW238043   3.271   4.132   6.441  0.3779 -0.9816 -0.2851
 8861SOL     OW38044   1.003   2.888  17.212  0.0836  0.4146 -0.2180
 8861SOL    HW138045   1.082   2.884  17.159 -1.0984 -1.5346 -1.8159
 8861SOL    HW238046   0.976   2.799  17.190 -0.0008  0.1698  0.8579
 8862SOL     OW38047   1.335   1.268   3.017 -0.0252  0.3717 -0.9882
 8862SOL    HW138048   1.264   1.325   2.986 -1.0442 -0.1518  0.3803
 8862SOL    HW238049   1.301   1.184   2.987 -0.8299  0.8084 -1.2863
 8863SOL     OW38050   4.435   3.956  12.655 -0.5466  0.5024 -0.4288
 8863SOL    HW138051   4.390   3.908  12.725 -2.1583  0.7477 -1.3052
 8863SOL    HW238052   4.440   4.042  12.697  0.5317 -0.2770  1.0219
 8864SOL     OW38053   1.281   4.329   6.551  0.0410 -0.3497  0.6914
 8864SOL    HW138054   1.324   4.365   6.628 -0.0829 -1.3491  1.2356
 8864SOL    HW238055   1.326   4.245   6.548  0.1571 -0.1925 -2.2380
 8865SOL     OW38056   2.024   4.386   7.961  0.4092  0.1518  0.3437
 8865SOL    HW138057   2.068   4.350   8.038  0.2578 -2.0995 -0.6155
 8865SOL    HW238058   2.009   4.301   7.920  1.9365 -0.8089  1.7772
 8866SOL     OW38059   1.766   4.523  11.841  0.6686 -0.0116  0.0711
 8866SOL    HW138060   1.698   4.465  11.807 -1.0773  1.3163  1.2873
 8866SOL    HW238061   1.801   4.486  11.922 -1.9433 -1.7562  0.4289
 8867SOL     OW38062   1.548   1.127   0.412  0.2997 -0.1306 -0.6288
 8867SOL    HW138063   1.550   1.163   0.500 -1.3517  2.3611 -1.5931
 8867SOL    HW238064   1.586   1.203   0.367  0.2907  0.2059 -0.0571
 8868SOL     OW38065   1.027   2.217  11.710  0.2488 -0.0027  0.1136
 8868SOL    HW138066   1.020   2.268  11.791 -0.6097 -0.9707  0.6528
 8868SOL    HW238067   0.969   2.143  11.731 -0.2749 -0.0702 -1.5953
 8869SOL     OW38068   0.598   1.878   9.991 -0.3304  0.1105 -0.3636
 8869SOL    HW138069   0.646   1.838   9.919  0.5123  2.1238 -0.9179
 8869SOL    HW238070   0.517   1.912   9.955 -0.6155  0.1468  0.3127
 8870SOL     OW38071   2.174   2.471   9.205 -0.3434  0.5328  0.0346
 8870SOL    HW138072   2.194   2.397   9.148  1.0294 -0.9275  2.3970
 8870SOL    HW238073   2.182   2.545   9.146 -1.7734  0.1824 -0.5900
 8871SOL     OW38074   1.149   0.413  16.435 -0.1552  0.4215 -0.4384
 8871SOL    HW138075   1.127   0.323  16.413 -0.2431  0.8260 -1.9847
 8871SOL    HW238076   1.142   0.402  16.530  1.9156  0.2012 -0.3010
 8872SOL     OW38077   0.348   4.416  15.463  0.5257 -0.3286  0.0179
 8872SOL    HW138078   0.439   4.421  15.434  0.0053  2.5345 -1.1157
 8872SOL    HW238079   0.340   4.485  15.530 -3.4197 -0.7131 -0.0564
 8873SOL     OW38080   2.751   2.188   8.185  0.5183 -0.1697 -0.0301
 8873SOL    HW138081   2.757   2.115   8.124  1.3194 -0.4468  0.3776
 8873SOL    HW238082   2.774   2.135   8.261 -3.7634  1.5977  2.5144
 8874SOL     OW38083   2.633   3.397   0.349  0.3666 -0.4196 -0.1098
 8874SOL    HW138084   2.677   3.457   0.288  0.6566  0.6262  1.1210
 8874SOL    HW238085   2.566   3.358   0.294  2.1314 -0.6696 -2.0789
 8875SOL     OW38086   2.424   0.911   6.495  0.3098  0.0692 -1.0570
 8875SOL    HW138087   2.420   0.986   6.555 -1.2935 -1.1297  0.3601
 8875SOL    HW238088   2.455   0.848   6.561  1.1920 -0.5407 -2.0632
 8876SOL     OW38089   1.434   1.053   0.194 -0.4667 -0.2466  0.2042
 8876SOL    HW138090   1.377   1.128   0.210 -1.4432 -1.0915  0.6171
 8876SOL    HW238091   1.477   1.038   0.279  0.2199  0.6655  0.0260
 8877SOL     OW38092   0.406   4.413   5.748  0.0451  0.5031  0.2275
 8877SOL    HW138093   0.446   4.470   5.814 -1.4047  1.3344  0.3985
 8877SOL    HW238094   0.486   4.378   5.708 -0.7080 -1.3070  0.3215
 8878SOL     OW38095   0.386   1.366   4.494  0.6689  0.0397 -0.3337
 8878SOL    HW138096   0.383   1.288   4.550 -0.3455  0.3025 -0.0129
 8878SOL    HW238097   0.450   1.418   4.543  0.4709 -0.4805  0.4953
 8879SOL     OW38098   2.106   4.654   8.023  0.1685 -0.0521 -0.4650
 8879SOL    HW138099   2.055   4.577   7.995 -0.0559 -0.5626  1.3069
 8879SOL    HW238100   2.196   4.637   7.997 -0.2743 -2.5564 -0.3863
 8880SOL     OW38101   2.230   2.995   9.856 -0.0204 -0.0195 -0.3125
 8880SOL    HW138102   2.242   3.090   9.849  0.5642 -0.1668 -1.2157
 8880SOL    HW238103   2.300   2.952   9.905  0.6202  0.7383 -0.5699
 8881SOL     OW38104   1.546   3.748   2.748 -0.2120 -0.0769  0.4056
 8881SOL    HW138105   1.586   3.807   2.684  2.0293 -1.8074  0.2173
 8881SOL    HW238106   1.505   3.685   2.688 -0.2922  1.3740 -1.0771
 8882SOL     OW38107   3.523   1.588   3.137 -0.6122  0.1179 -0.1726
 8882SOL    HW138108   3.446   1.550   3.096 -2.1029  0.8843  1.9309
 8882SOL    HW238109   3.485   1.648   3.202  1.3975 -0.2973  1.3932
 8883SOL     OW38110   4.068   3.432   8.019 -0.2697 -0.5851 -0.1424
 8883SOL    HW138111   4.052   3.339   8.030  1.4076 -1.0887 -1.8625
 8883SOL    HW238112   4.163   3.423   8.028 -0.0570 -1.5035 -3.1672
 8884SOL     OW38113   0.807   2.278  13.926  0.3710 -0.4353  0.7233
 8884SOL    HW138114   0.741   2.266  13.857  1.0003  1.7968 -0.2665
 8884SOL    HW238115   0.881   2.299  13.869 -1.2890 -0.7265 -1.5781
 8885SOL     OW38116   4.659   2.116   8.794  0.6942  0.0847  0.1704
 8885SOL    HW138117   4.624   2.198   8.827  1.8520  1.0734 -1.0578
 8885SOL    HW238118   4.638   2.071   8.876  3.0159  0.5357  1.0222
 8886SOL     OW38119   3.096   1.168   5.197 -0.4296 -0.4614  0.2802
 8886SOL    HW138120   3.071   1.256   5.227  0.7332 -0.0471  0.0452
 8886SOL    HW238121   3.094   1.185   5.103 -1.8534  2.0663  0.7428
 8887SOL     OW38122   2.859   2.874  15.929 -0.2630 -0.0330  0.0684
 8887SOL    HW138123   2.824   2.816  15.861 -2.2236  1.9410 -0.6047
 8887SOL    HW238124   2.864   2.811  16.001 -0.0659 -0.7541 -0.5683
 8888SOL     OW38125   0.698   0.971   9.172  0.0608  0.2063  0.0771
 8888SOL    HW138126   0.697   0.899   9.235  1.2292 -1.6072 -1.9813
 8888SOL    HW238127   0.784   1.008   9.192  0.3194  0.9248 -2.4317
 8889SOL     OW38128   4.442   4.053   2.340  0.8922  0.0577  0.0340
 8889SOL    HW138129   4.454   3.970   2.386 -2.3232  0.1974  1.1219
 8889SOL    HW238130   4.393   4.109   2.401 -0.3353  0.2543 -1.1415
 8890SOL     OW38131   3.666   1.087   6.497 -0.0399 -0.1111 -0.3842
 8890SOL    HW138132   3.604   1.055   6.562 -0.7104 -0.4147 -1.1696
 8890SOL    HW238133   3.613   1.090   6.417  0.8671  0.2912 -0.9681
 8891SOL     OW38134   3.892   3.980   6.305 -0.3000 -0.1874  0.3702
 8891SOL    HW138135   3.823   3.936   6.256 -0.6777  1.9254 -1.0112
 8891SOL    HW238136   3.867   4.073   6.300 -0.4468 -0.3417 -2.0012
 8892SOL     OW38137   2.357   4.562   5.126  0.4066  0.3407 -0.2739
 8892SOL    HW138138   2.335   4.473   5.153  0.1214  0.3934 -0.3358
 8892SOL    HW238139   2.354   4.600   5.214 -2.8163  2.9879 -1.5217
 8893SOL     OW38140   2.872   2.387   0.286  0.4488 -0.0467  0.3008
 8893SOL    HW138141   2.840   2.303   0.317  2.8812 -0.6919  1.0609
 8893SOL    HW238142   2.802   2.410   0.224  1.0647  0.1085 -0.3390
 8894SOL     OW38143   3.990   1.152   4.352  0.4298  0.5356 -0.0505
 8894SOL    HW138144   4.024   1.227   4.400  0.7491  0.9668 -0.9488
 8894SOL    HW238145   4.071   1.101   4.344  1.6744  2.1553  2.3607
 8895SOL     OW38146   4.540   3.273   7.380  0.2920  0.2187 -0.1108
 8895SOL    HW138147   4.547   3.180   7.356 -0.3408  0.3752 -0.8903
 8895SOL    HW238148   4.533   3.307   7.291  1.3709 -0.0238 -0.2904
 8896SOL     OW38149   1.790   0.166   4.328 -0.3973  0.3801 -0.0511
 8896SOL    HW138150   1.803   0.241   4.386 -1.4175 -0.7952  1.7324
 8896SOL    HW238151   1.771   0.205   4.243 -0.9938  0.3878  0.0785
 8897SOL     OW38152   0.309   1.509   3.547 -0.7910 -0.2737  0.1181
 8897SOL    HW138153   0.316   1.493   3.641  3.5934 -1.3235 -0.3924
 8897SOL    HW238154   0.225   1.466   3.536 -1.2838  1.2047 -1.8551
 8898SOL     OW38155   0.413   3.482   5.380  0.3273 -0.0271  0.2198
 8898SOL    HW138156   0.479   3.457   5.445  0.9648  0.7596 -0.1128
 8898SOL    HW238157   0.349   3.411   5.381 -1.5614  1.6842  0.0262
 8899SOL     OW38158   1.410   4.094  17.468  0.0663  0.5637  0.3969
 8899SOL    HW138159   1.360   4.155  17.522 -0.5496  2.4610 -2.3234
 8899SOL    HW238160   1.494   4.141  17.476  1.1943 -1.3498 -0.3011
 8900SOL     OW38161   2.827   0.309   1.941  0.5898 -0.8697 -0.3172
 8900SOL    HW138162   2.858   0.376   2.002 -2.2159  0.6418 -0.5468
 8900SOL    HW238163   2.761   0.269   1.998  0.7879 -2.0477 -0.9006
 8901SOL     OW38164   0.183   1.304   6.023  0.9066  0.2052 -0.1185
 8901SOL    HW138165   0.100   1.285   6.066  1.2746 -0.0984  0.4584
 8901SOL    HW238166   0.171   1.251   5.944 -1.8245  4.6987 -2.6816
 8902SOL     OW38167   4.115   2.769  14.949  0.0504 -0.5745  0.1180
 8902SOL    HW138168   4.206   2.760  14.919 -0.0472 -1.0272 -0.0355
 8902SOL    HW238169   4.100   2.680  14.982 -0.0512 -1.1542 -1.4870
 8903SOL     OW38170   1.661   3.247   6.942  0.1962  0.1854 -0.3348
 8903SOL    HW138171   1.625   3.330   6.910  2.6992  1.9051  1.2619
 8903SOL    HW238172   1.719   3.217   6.872 -1.0693 -2.2788 -0.3357
 8904SOL     OW38173   3.090   2.758   8.864 -0.4040  0.2828  0.4102
 8904SOL    HW138174   3.000   2.725   8.873  0.1170 -0.4688  3.0015
 8904SOL    HW238175   3.140   2.719   8.936 -0.3198 -1.5936 -0.6559
 8905SOL     OW38176   0.039   1.502   2.183  0.4458  0.5730  0.1241
 8905SOL    HW138177   4.676   1.537   2.204  0.6490  0.5075  1.0772
 8905SOL    HW238178   0.049   1.533   2.093 -0.0316 -0.1541 -0.1807
 8906SOL     OW38179   3.790   4.109  14.034  0.4342 -0.5249  0.2099
 8906SOL    HW138180   3.831   4.192  14.011  1.5122 -0.8312  1.0336
 8906SOL    HW238181   3.862   4.074  14.086 -0.6311  0.4240  2.3809
 8907SOL     OW38182   0.987   3.309   5.676 -0.0777 -0.0969  0.5651
 8907SOL    HW138183   0.900   3.275   5.700  1.2929 -1.6273  3.3220
 8907SOL    HW238184   1.037   3.228   5.672  0.8992  0.4682  1.3992
 8908SOL     OW38185   3.194   4.630  16.868  0.0749 -0.6072  0.1046
 8908SOL    HW138186   3.267   4.691  16.858 -1.0734  0.7239 -0.3159
 8908SOL    HW238187   3.226   4.546  16.835  1.1229  0.0117 -0.4559
 8909SOL     OW38188   0.220   3.511   4.157  0.2144  0.1416  0.2250
 8909SOL    HW138189   0.231   3.563   4.077  0.9050 -0.2637  0.0597
 8909SOL    HW238190   0.135   3.470   4.141  0.9929 -1.0729 -0.8802
 8910SOL     OW38191   2.158   1.757   9.139 -0.1258 -0.1422  0.0168
 8910SOL    HW138192   2.211   1.773   9.061 -1.1132  0.3323 -0.5495
 8910SOL    HW238193   2.232   1.741   9.198 -1.3245  0.9400  1.8315
 8911SOL     OW38194   2.350   3.414   7.677  0.4029  0.4092  0.5174
 8911SOL    HW138195   2.334   3.509   7.682 -2.7463 -0.2261  1.9011
 8911SOL    HW238196   2.271   3.385   7.632  0.4014 -1.8128  2.0101
 8912SOL     OW38197   3.041   1.826   3.187 -0.4255 -0.0267 -0.3337
 8912SOL    HW138198   3.039   1.829   3.092  4.4494  0.4099 -0.3890
 8912SOL    HW238199   3.007   1.737   3.199 -1.3610  0.2258 -1.0519
 8913SOL     OW38200   4.224   2.745  13.486  0.0949 -0.8268  0.0574
 8913SOL    HW138201   4.171   2.771  13.561 -1.1784 -1.5828 -0.5742
 8913SOL    HW238202   4.247   2.830  13.449 -0.6376  0.3169  2.2663
 8914SOL     OW38203   0.040   2.358   3.431 -0.1918  0.5425 -0.4223
 8914SOL    HW138204   0.013   2.348   3.339 -0.0815 -1.7051 -0.2045
 8914SOL    HW238205   4.699   2.303   3.474  0.7949 -1.1964 -1.1662
 8915SOL     OW38206   4.142   2.489   8.959  0.3490 -0.2200 -0.4116
 8915SOL    HW138207   4.232   2.521   8.956  0.0728  0.6025  0.3288
 8915SOL    HW238208   4.098   2.563   8.917 -0.2852 -0.6699 -0.5363
 8916SOL     OW38209   4.051   0.153   3.729  0.4590 -0.9515  0.2238
 8916SOL    HW138210   4.060   0.244   3.756  1.7333 -1.2244  0.7398
 8916SOL    HW238211   4.041   0.107   3.812 -2.3368 -1.2906 -0.3226
 8917SOL     OW38212   1.089   2.406   2.366  0.0895 -0.4083  0.2953
 8917SOL    HW138213   1.061   2.318   2.342  0.8082 -0.4699 -0.3151
 8917SOL    HW238214   1.183   2.393   2.350  0.0306  0.2494 -0.6224
 8918SOL     OW38215   1.060   3.131   3.705  0.2437 -0.1908 -0.3013
 8918SOL    HW138216   1.036   3.224   3.702 -2.4310 -0.9284 -0.9562
 8918SOL    HW238217   0.996   3.093   3.645 -0.2902 -1.6636  1.2005
 8919SOL     OW38218   0.874   4.609   9.211  0.4683 -0.4577  0.2196
 8919SOL    HW138219   0.820   4.652   9.277  2.3143 -1.6290  2.5225
 8919SOL    HW238220   0.811   4.588   9.142  1.3981 -0.7170 -0.5590
 8920SOL     OW38221   3.956   1.523   0.360 -0.2316 -0.1642  0.1749
 8920SOL    HW138222   3.958   1.493   0.451  4.0009  0.9538  0.4293
 8920SOL    HW238223   3.880   1.580   0.370  2.2944  3.2307  0.0476
 8921SOL     OW38224   2.864   0.711   4.859  0.1677 -0.3115 -0.2117
 8921SOL    HW138225   2.853   0.793   4.907  0.9345 -0.6036  0.4544
 8921SOL    HW238226   2.786   0.710   4.803 -1.9758 -0.5108  2.7643
 8922SOL     OW38227   1.090   4.499   6.449  0.2352  0.1464 -0.5681
 8922SOL    HW138228   1.162   4.546   6.408  0.6548  0.8433  0.9676
 8922SOL    HW238229   1.140   4.441   6.506  1.1291 -0.1241 -1.6294
 8923SOL     OW38230   4.395   3.792   7.433 -0.9495  0.0915  0.2769
 8923SOL    HW138231   4.414   3.885   7.448 -1.0049  0.0767  0.4343
 8923SOL    HW238232   4.383   3.764   7.524  0.6032 -0.9554  0.1540
 8924SOL     OW38233   2.841   3.916   0.410 -0.0187  0.3986 -0.4058
 8924SOL    HW138234   2.816   3.835   0.454  0.3524  0.4223 -0.1475
 8924SOL    HW238235   2.797   3.897   0.327  0.8492  2.4798 -1.3455
 8925SOL     OW38236   2.016   1.144  12.808  0.2964 -0.3775  0.3391
 8925SOL    HW138237   1.942   1.159  12.749  0.4067 -2.1030 -0.2300
 8925SOL    HW238238   2.060   1.070  12.766  1.2313 -0.3659  1.2962
 8926SOL     OW38239   2.073   3.683  13.009 -0.3558 -0.0334 -0.7780
 8926SOL    HW138240   1.986   3.712  12.982 -1.4684 -0.6468  2.1377
 8926SOL    HW238241   2.112   3.769  13.028  1.5472 -0.8398 -0.9834
 8927SOL     OW38242   2.490   1.592   5.149 -0.5193  0.3365 -0.3725
 8927SOL    HW138243   2.541   1.671   5.128 -0.1547  0.1320 -0.2451
 8927SOL    HW238244   2.402   1.630   5.155  0.5557  2.6826  0.4910
 8928SOL     OW38245   3.228   1.825   4.349  0.3682  0.0450 -0.3121
 8928SOL    HW138246   3.198   1.916   4.357  0.7432  0.2918 -1.6870
 8928SOL    HW238247   3.221   1.800   4.256  0.4238  1.4178 -0.6849
 8929SOL     OW38248   0.420   1.951   1.404 -0.3799 -0.1497 -0.3293
 8929SOL    HW138249   0.406   2.044   1.384 -0.8740  0.0608  0.9578
 8929SOL    HW238250   0.475   1.942   1.482 -1.9124 -2.8847  0.4474
 8930SOL     OW38251   0.780   3.540   6.653 -0.1646 -0.1399 -0.5348
 8930SOL    HW138252   0.797   3.600   6.580  0.7521  0.0733 -0.1478
 8930SOL    HW238253   0.742   3.605   6.712 -1.3446 -1.3514  0.0513
 8931SOL     OW38254   0.298   0.719   6.292 -0.7497 -0.2579 -0.4219
 8931SOL    HW138255   0.273   0.694   6.203 -0.9223 -1.2895 -0.0852
 8931SOL    HW238256   0.372   0.777   6.271 -0.1345 -0.7477  0.3692
 8932SOL     OW38257   4.245   1.081   8.323 -0.0593  0.0859  0.3392
 8932SOL    HW138258   4.305   1.074   8.398  1.4238  0.0288 -0.8503
 8932SOL    HW238259   4.301   1.110   8.251  0.1494  0.6086  0.7060
 8933SOL     OW38260   4.049   1.076   7.233  0.9417  0.2193 -0.1150
 8933SOL    HW138261   4.066   1.027   7.152  1.1563 -0.8649  0.5890
 8933SOL    HW238262   3.968   1.028   7.252  1.1088 -0.2721 -0.6484
 8934SOL     OW38263   0.039   1.216   2.212 -0.5820 -0.2386  1.2112
 8934SOL    HW138264   0.025   1.310   2.227  0.8721  0.4008 -1.4057
 8934SOL    HW238265   0.045   1.221   2.117  1.4380 -1.3575  1.2792
 8935SOL     OW38266   1.590   3.007  12.051 -0.2775  0.5045  0.1081
 8935SOL    HW138267   1.675   2.996  12.094  0.4311  0.3276 -1.3437
 8935SOL    HW238268   1.530   2.988  12.123  0.4489 -0.6872  0.3989
 8936SOL     OW38269   3.206   3.917   7.164 -0.7896 -0.2839  0.1152
 8936SOL    HW138270   3.112   3.937   7.164 -0.8909 -0.7499  1.9997
 8936SOL    HW238271   3.230   3.889   7.253  0.2940 -2.3556 -0.8431
 8937SOL     OW38272   2.966   2.897   8.065  0.3621 -0.2028 -0.4209
 8937SOL    HW138273   2.990   2.938   8.148 -4.1827  0.6256  0.4678
 8937SOL    HW238274   2.938   2.812   8.100  1.6555 -1.3517 -2.1693
 8938SOL     OW38275   0.934   4.594   4.042 -0.3706 -0.6816 -0.6590
 8938SOL    HW138276   1.005   4.615   4.103 -1.1102  1.3072 -0.4670
 8938SOL    HW238277   0.860   4.642   4.081  0.2266  0.3395 -0.7727
 8939SOL     OW38278   3.930   0.073  12.907  0.5441 -0.4689  0.0534
 8939SOL    HW138279   3.979   4.721  12.940 -1.9965 -1.5407  1.4343
 8939SOL    HW238280   3.846   0.049  12.946  0.8849 -0.5397  0.7256
 8940SOL     OW38281   4.281   1.315  15.839 -0.0094 -0.0201 -0.4497
 8940SOL    HW138282   4.304   1.350  15.925 -0.1377 -2.2696  0.5129
 8940SOL    HW238283   4.189   1.343  15.840 -0.5779 -1.8844  0.1324
 8941SOL     OW38284   1.330   0.005   5.742  0.0700  0.0637 -0.0218
 8941SOL    HW138285   1.365   4.639   5.745  0.4217  0.2126  0.2854
 8941SOL    HW238286   1.237   4.720   5.761  0.0413  0.0388 -0.1731
 8942SOL     OW38287   2.479   0.021   3.747 -0.0525  0.1376  0.0672
 8942SOL    HW138288   2.449   0.082   3.814  0.2090 -2.0327  2.1118
 8942SOL    HW238289   2.485   0.069   3.664 -3.0714 -1.0947 -0.8305
 8943SOL     OW38290   1.772   1.479   7.557 -0.0403 -0.0115 -0.2524
 8943SOL    HW138291   1.859   1.443   7.541  0.7642  1.8869 -0.0721
 8943SOL    HW238292   1.719   1.402   7.537  0.7036 -0.5918  0.0370
 8944SOL     OW38293   0.802   2.720   2.804  0.9724 -0.6450 -0.4424
 8944SOL    HW138294   0.813   2.738   2.897 -2.7930 -1.2627  0.1332
 8944SOL    HW238295   0.780   2.627   2.797 -2.1221 -0.1466  2.9109
 8945SOL     OW38296   0.654   4.488   3.124 -0.6120 -0.3444  0.6140
 8945SOL    HW138297   0.674   4.573   3.085 -0.8057 -0.3251  0.5523
 8945SOL    HW238298   0.588   4.529   3.180 -1.2565 -0.8416  0.2305
 8946SOL     OW38299   3.773   0.907  17.094  0.2099 -0.3765  0.4826
 8946SOL    HW138300   3.862   0.934  17.118 -0.1355 -0.0899  1.4213
 8946SOL    HW238301   3.782   0.815  17.118 -2.6071 -0.5639  0.7409
 8947SOL     OW38302   3.132   1.090   1.499 -0.3252  0.1753 -0.7988
 8947SOL    HW138303   3.050   1.102   1.546  0.4270 -0.6391  0.7239
 8947SOL    HW238304   3.123   1.011   1.447  0.6881  0.7313 -1.8280
 8948SOL     OW38305   2.205   4.066   7.968 -0.5471 -0.2514 -0.3622
 8948SOL    HW138306   2.252   4.143   7.935 -0.0549 -0.5146 -0.2758
 8948SOL    HW238307   2.268   3.994   7.967 -1.9992 -1.4710 -2.1970
 8949SOL     OW38308   3.449   2.109   7.276  0.3112 -0.2460  0.6640
 8949SOL    HW138309   3.422   2.181   7.219  0.5917 -0.5863  0.0993
 8949SOL    HW238310   3.490   2.149   7.352 -0.4997 -2.0560  2.0435
 8950SOL     OW38311   0.587   1.972  13.712 -0.6810  0.1047  0.5642
 8950SOL    HW138312   0.535   1.927  13.778 -1.7678  0.2059 -0.2307
 8950SOL    HW238313   0.597   1.906  13.643 -1.4223  0.4103  0.1668
 8951SOL     OW38314   0.699   0.474   2.626 -0.2922  0.2652  0.5512
 8951SOL    HW138315   0.712   0.458   2.533 -0.4566 -0.2979  0.6232
 8951SOL    HW238316   0.717   0.389   2.667 -1.9834 -0.2025  0.3182
 8952SOL     OW38317   0.079   4.494   8.427  0.1345 -0.0766  0.4520
 8952SOL    HW138318   0.022   4.550   8.478 -1.1435 -1.3729  0.4501
 8952SOL    HW238319   0.012   4.465   8.365  0.4692  2.0783 -0.9242
 8953SOL     OW38320   2.437   3.703   2.990  0.7986 -0.3898  0.0273
 8953SOL    HW138321   2.434   3.624   3.043 -0.7448 -0.5264 -0.2511
 8953SOL    HW238322   2.524   3.735   3.014  0.3387  1.3914 -0.7143
 8954SOL     OW38323   1.558   0.376   9.520  0.3565  0.7133 -0.7073
 8954SOL    HW138324   1.593   0.464   9.531 -1.6428  1.2070  1.6918
 8954SOL    HW238325   1.478   0.374   9.468 -0.9800 -0.0454  1.4237
 8955SOL     OW38326   1.393   0.562   7.602 -0.7586 -0.3079 -0.0614
 8955SOL    HW138327   1.359   0.579   7.514 -1.5509  1.7579  0.6527
 8955SOL    HW238328   1.487   0.576   7.592 -0.6789 -0.7786  0.0582
 8956SOL     OW38329   3.327   3.220  16.763  0.0235 -0.0830 -0.1979
 8956SOL    HW138330   3.394   3.179  16.709  0.6888  1.1070 -0.2843
 8956SOL    HW238331   3.361   3.214  16.853 -1.9155  1.1601  0.6084
 8957SOL     OW38332   4.080   3.599   5.925 -0.3612 -0.3105 -0.8404
 8957SOL    HW138333   4.025   3.669   5.961  0.1904 -0.8171  1.0166
 8957SOL    HW238334   4.026   3.522   5.947 -0.4587 -0.0803 -0.2656
 8958SOL     OW38335   0.271   4.498   3.552 -0.4158  0.4417  0.2106
 8958SOL    HW138336   0.328   4.502   3.475 -1.0429 -0.2640 -0.2915
 8958SOL    HW238337   0.339   4.496   3.620 -0.6353 -0.6178  0.4026
 8959SOL     OW38338   4.385   3.344  12.378 -0.6032  0.0025  0.6071
 8959SOL    HW138339   4.382   3.439  12.376  0.8830  0.0398  0.6582
 8959SOL    HW238340   4.453   3.330  12.312  0.6775  0.2199  1.8833
 8960SOL     OW38341   4.121   3.787   1.534  0.0328 -0.3887  0.4214
 8960SOL    HW138342   4.147   3.846   1.604  0.4916  0.5860 -0.5700
 8960SOL    HW238343   4.027   3.786   1.552  0.2494  1.9484  1.6160
 8961SOL     OW38344   1.615   4.527  11.178  0.1381  0.1332 -0.0753
 8961SOL    HW138345   1.586   4.477  11.102  1.1237 -1.1738  0.3818
 8961SOL    HW238346   1.681   4.469  11.216  0.5115 -0.2629 -1.3173
 8962SOL     OW38347   1.829   2.133   3.686  0.1273 -0.4895 -0.3458
 8962SOL    HW138348   1.914   2.112   3.726 -0.0569 -0.7513 -0.0876
 8962SOL    HW238349   1.774   2.091   3.752 -0.8230  0.4503 -0.5392
 8963SOL     OW38350   1.567   2.214   5.783  0.4661 -0.3216  0.3440
 8963SOL    HW138351   1.563   2.143   5.720 -0.0758 -1.0200  1.1684
 8963SOL    HW238352   1.658   2.206   5.811  1.0848  0.0108 -1.5823
 8964SOL     OW38353   4.441   2.479  12.867  0.2239  0.3318 -0.4796
 8964SOL    HW138354   4.461   2.430  12.947  0.6461 -0.1179 -0.8566
 8964SOL    HW238355   4.479   2.434  12.791 -0.3275 -0.7615 -0.1190
 8965SOL     OW38356   3.918   1.595   5.713  0.3774  0.3531 -0.4167
 8965SOL    HW138357   3.964   1.668   5.754  0.3305  0.4866 -0.6008
 8965SOL    HW238358   3.910   1.525   5.778  0.1378  0.1095 -0.7065
 8966SOL     OW38359   1.781   1.759   8.282 -0.2426  0.1632  0.1735
 8966SOL    HW138360   1.844   1.717   8.223  0.7595  1.0516  0.6021
 8966SOL    HW238361   1.711   1.695   8.295  1.4436 -1.5968  0.5813
 8967SOL     OW38362   2.341   2.643   2.956  0.3460 -0.3778 -0.4962
 8967SOL    HW138363   2.424   2.612   2.992 -0.0258  0.0853  0.7709
 8967SOL    HW238364   2.369   2.673   2.870  1.2038 -2.0624 -0.8080
 8968SOL     OW38365   1.483   1.438   3.160  0.2711 -0.3828 -0.5785
 8968SOL    HW138366   1.438   1.385   3.094  1.4126  0.6512 -2.1728
 8968SOL    HW238367   1.569   1.446   3.119 -0.9459  3.0381 -2.4622
 8969SOL     OW38368   0.537   2.164   1.811 -0.1593  0.1308  0.4559
 8969SOL    HW138369   0.627   2.133   1.817  1.1738  3.3590 -2.9857
 8969SOL    HW238370   0.536   2.166   1.716  1.6220 -0.5256  0.4170
 8970SOL     OW38371   1.533   1.015   3.029 -0.9620 -0.1675 -0.3108
 8970SOL    HW138372   1.628   1.019   3.032 -1.1110  2.9053 -0.0629
 8970SOL    HW238373   1.525   1.016   2.933  0.0809 -1.1483 -0.4132
 8971SOL     OW38374   3.728   0.405   3.902 -0.4580  0.0085 -0.8632
 8971SOL    HW138375   3.754   0.487   3.943 -2.3182  1.0260 -1.6970
 8971SOL    HW238376   3.709   0.431   3.811 -1.8124 -0.8064 -0.8174
 8972SOL     OW38377   2.225   0.793   5.136 -0.1521  0.2474  0.3003
 8972SOL    HW138378   2.153   0.806   5.199  2.7767 -1.1707  3.9628
 8972SOL    HW238379   2.224   0.877   5.090 -1.8340  0.9889  1.6715
 8973SOL     OW38380   3.153   1.233   0.629  0.5684 -0.5208  0.3782
 8973SOL    HW138381   3.188   1.282   0.555 -0.8619 -0.0977 -0.0120
 8973SOL    HW238382   3.125   1.154   0.584 -1.5349  0.0305  0.7064
 8974SOL     OW38383   4.073   4.307   7.085 -0.0992 -0.1298  0.6348
 8974SOL    HW138384   3.982   4.303   7.056  0.0927 -0.1005  0.0285
 8974SOL    HW238385   4.082   4.245   7.158 -1.7276 -0.7463  0.3224
 8975SOL     OW38386   0.118   1.208   1.931  0.1926  0.0535  0.7916
 8975SOL    HW138387   0.115   1.291   1.884  3.2102 -0.2407  0.1283
 8975SOL    HW238388   0.190   1.164   1.888  0.6494  0.1157  1.4868
 8976SOL     OW38389   1.810   0.957   6.304  0.4331  0.0929  0.1295
 8976SOL    HW138390   1.749   0.937   6.375 -0.1942 -0.2403 -0.5115
 8976SOL    HW238391   1.892   0.956   6.354  0.5706  1.4755 -0.0559
 8977SOL     OW38392   3.233   2.017  10.088  0.1994 -0.1625 -0.0947
 8977SOL    HW138393   3.244   1.933  10.133 -0.1518 -0.0661  0.1670
 8977SOL    HW238394   3.241   2.085  10.154  0.4989  0.9970 -1.3293
 8978SOL     OW38395   4.247   2.523  13.147 -0.6430 -0.0228 -0.3405
 8978SOL    HW138396   4.168   2.542  13.197  0.7591  2.0696  1.0543
 8978SOL    HW238397   4.296   2.603  13.167 -2.2164  0.7964  0.2025
 8979SOL     OW38398   1.595   4.380   6.384 -0.0954 -0.5421  0.2250
 8979SOL    HW138399   1.522   4.390   6.323  1.2669  2.0154 -0.9678
 8979SOL    HW238400   1.670   4.379   6.325  2.2303  0.0590  3.1880
 8980SOL     OW38401   1.717   0.600   6.438  0.2717  0.7273  0.3459
 8980SOL    HW138402   1.624   0.595   6.462  0.4951 -2.7619  0.5094
 8980SOL    HW238403   1.742   0.672   6.495  0.0852  1.8332 -0.9582
 8981SOL     OW38404   3.319   3.598  10.489 -0.1494 -0.1504 -0.1602
 8981SOL    HW138405   3.398   3.633  10.449 -0.4963  0.6423 -0.1436
 8981SOL    HW238406   3.247   3.659  10.474  0.2608  0.0881 -1.1584
 8982SOL     OW38407   1.294   0.231   1.417 -0.0070  0.3912  0.1366
 8982SOL    HW138408   1.221   0.175   1.390 -0.8930  2.1981 -1.1840
 8982SOL    HW238409   1.247   0.310   1.442  0.8217  0.9932 -0.2259
 8983SOL     OW38410   3.694   1.416   6.632  0.3506  0.4003 -0.3477
 8983SOL    HW138411   3.719   1.507   6.616 -0.7786  0.7048 -0.3514
 8983SOL    HW238412   3.608   1.407   6.592 -0.3614  1.0732  1.0267
 8984SOL     OW38413   3.880   3.324   0.951 -0.1704 -0.0693  0.2229
 8984SOL    HW138414   3.907   3.249   0.898 -1.8556 -1.4804  1.3740
 8984SOL    HW238415   3.928   3.394   0.905  0.0638 -0.2634  0.1723
 8985SOL     OW38416   1.344   0.750  15.930 -0.1798  0.4144 -0.0511
 8985SOL    HW138417   1.367   0.779  16.018 -1.6891 -2.8878  1.4468
 8985SOL    HW238418   1.291   0.817  15.888  1.6332  1.4648 -0.6353
 8986SOL     OW38419   0.832   3.233  14.711  0.0373  0.6138  0.0481
 8986SOL    HW138420   0.778   3.301  14.751 -0.1349  1.0392 -0.9065
 8986SOL    HW238421   0.829   3.246  14.616 -2.1090  0.2782  0.0668
 8987SOL     OW38422   4.473   4.143   8.185 -0.4897  0.5504  0.9724
 8987SOL    HW138423   4.534   4.205   8.146  0.5495 -0.4483  0.9964
 8987SOL    HW238424   4.409   4.131   8.115 -0.8925 -1.6685  1.7120
 8988SOL     OW38425   4.648   1.849  12.124 -0.2746  0.0541  0.4507
 8988SOL    HW138426   0.006   1.851  12.174 -0.3625 -1.4779  0.6579
 8988SOL    HW238427   4.606   1.772  12.163  1.5376 -1.3347 -0.3333
 8989SOL     OW38428   2.619   2.371   6.121 -0.3770 -0.3887  0.2468
 8989SOL    HW138429   2.663   2.286   6.116  1.9484  0.7472  1.4890
 8989SOL    HW238430   2.638   2.389   6.214 -0.9417 -0.6209  0.4112
 8990SOL     OW38431   1.230   3.113   2.413  0.2453  0.5185  0.4752
 8990SOL    HW138432   1.182   3.128   2.331  0.1822  2.2885  0.8381
 8990SOL    HW238433   1.283   3.050   2.365  0.1757 -0.9176  2.2701
 8991SOL     OW38434   1.848   1.915   9.348 -0.3305  0.2479  0.1083
 8991SOL    HW138435   1.848   1.820   9.357  0.6225  0.2310 -0.0314
 8991SOL    HW238436   1.862   1.950   9.435  1.7352 -0.6089  0.1293
 8992SOL     OW38437   3.678   0.653   5.042  0.0175 -0.5566  0.7236
 8992SOL    HW138438   3.744   0.660   5.112  0.4965 -0.3257  0.2540
 8992SOL    HW238439   3.616   0.722   5.063 -2.0588 -1.6157 -1.9675
 8993SOL     OW38440   3.846   3.324  11.987 -0.1342  0.1270  0.0719
 8993SOL    HW138441   3.841   3.270  12.066 -2.1291 -0.4896 -0.4754
 8993SOL    HW238442   3.848   3.260  11.917  1.1650  2.1019 -1.6854
 8994SOL     OW38443   2.542   2.284  16.091  0.2083 -0.0159 -0.1736
 8994SOL    HW138444   2.578   2.198  16.112  2.6073  0.3303 -2.7656
 8994SOL    HW238445   2.530   2.322  16.178  1.9774  1.1687 -0.4557
 8995SOL     OW38446   0.275   4.270   5.137  0.1576  0.5871  0.1468
 8995SOL    HW138447   0.222   4.325   5.195 -0.0328 -0.8000  1.2768
 8995SOL    HW238448   0.360   4.273   5.180  0.4935  2.1321 -0.6321
 8996SOL     OW38449   0.518   2.417   3.868 -0.3015  0.0666 -0.3306
 8996SOL    HW138450   0.519   2.382   3.779 -1.0301 -0.1753 -0.2438
 8996SOL    HW238451   0.428   2.394   3.892 -0.6702  0.1949 -1.5903
 8997SOL     OW38452   0.336   1.410   5.616 -0.4155  0.2280  0.3801
 8997SOL    HW138453   0.376   1.376   5.536 -1.7060 -1.0690  0.2846
 8997SOL    HW238454   0.402   1.414   5.684 -0.7483  0.5594  0.6864
 8998SOL     OW38455   3.859   0.251   4.089  0.1213  0.6127 -0.1450
 8998SOL    HW138456   3.783   0.291   4.046  0.7733 -0.0043 -1.8835
 8998SOL    HW238457   3.905   0.332   4.110  0.2005  0.8967 -1.4104
 8999SOL     OW38458   1.582   4.149   2.872  0.0296  0.1288 -0.4070
 8999SOL    HW138459   1.593   4.185   2.784  0.8932 -1.1912 -0.8288
 8999SOL    HW238460   1.669   4.110   2.881 -1.7930 -3.5080  1.7186
 9000SOL     OW38461   3.237   1.617  12.755  0.3673 -0.0563  0.3593
 9000SOL    HW138462   3.167   1.556  12.780  0.8745 -0.6416  0.3533
 9000SOL    HW238463   3.224   1.614  12.660 -1.7084  1.7423  0.5861
 9001SOL     OW38464   1.061   0.577   7.494 -0.3809  0.1862 -0.3437
 9001SOL    HW138465   1.129   0.512   7.512 -2.4740 -1.4712  1.5517
 9001SOL    HW238466   0.983   0.522   7.483  0.3461 -1.1615  1.2089
 9002SOL     OW38467   2.502   1.210   3.634 -0.6169 -0.4475  0.2192
 9002SOL    HW138468   2.591   1.184   3.658  0.8101  1.3129 -3.2204
 9002SOL    HW238469   2.452   1.174   3.708  1.7387 -0.9976  1.5609
 9003SOL     OW38470   1.386   0.896   0.458 -0.1774  0.0526 -0.4720
 9003SOL    HW138471   1.409   0.809   0.491 -0.3430  0.1901  0.0095
 9003SOL    HW238472   1.471   0.936   0.475 -0.5547 -0.1921  1.9711
 9004SOL     OW38473   2.621   3.693  13.525 -0.2196 -0.2097  0.0805
 9004SOL    HW138474   2.661   3.771  13.564 -0.5875  0.3377 -0.6268
 9004SOL    HW238475   2.532   3.694  13.561  0.2761 -0.8645  1.3327
 9005SOL     OW38476   3.835   1.722   3.471 -0.0775 -0.1445  0.0737
 9005SOL    HW138477   3.904   1.751   3.531 -1.4341 -0.1583  1.6281
 9005SOL    HW238478   3.882   1.693   3.393  0.1336 -0.0260  0.1553
 9006SOL     OW38479   4.460   3.364   4.885  0.4644  0.0060  0.1814
 9006SOL    HW138480   4.492   3.287   4.839  0.3355 -0.8329  1.4954
 9006SOL    HW238481   4.368   3.371   4.860  0.6075  1.0813 -0.0648
 9007SOL     OW38482   1.021   0.590   0.388  0.5985  0.4130 -0.0293
 9007SOL    HW138483   0.964   0.660   0.420  0.6442 -0.6376  2.3485
 9007SOL    HW238484   1.011   0.530   0.462 -1.7482 -1.9833 -2.3200
 9008SOL     OW38485   0.606   3.714   1.980  0.2731 -0.3294  0.3012
 9008SOL    HW138486   0.665   3.785   1.953 -0.1734 -0.2961 -0.5747
 9008SOL    HW238487   0.549   3.760   2.042 -0.3278  0.1359 -0.6013
 9009SOL     OW38488   3.361   1.894   0.535  0.5632  0.0410 -0.1901
 9009SOL    HW138489   3.446   1.868   0.569  0.2549  0.2126  0.6964
 9009SOL    HW238490   3.380   1.981   0.500  0.0102  0.0750 -0.4070
 9010SOL     OW38491   2.155   1.465  11.614 -0.1394 -0.0972 -0.2187
 9010SOL    HW138492   2.246   1.482  11.638 -0.7870  0.6884  1.6319
 9010SOL    HW238493   2.157   1.372  11.590  3.4121  0.3150 -1.5608
 9011SOL     OW38494   0.241   4.645   6.240  0.1303 -0.0482  0.2469
 9011SOL    HW138495   0.169   4.628   6.300 -0.6193  0.5803 -0.4598
 9011SOL    HW238496   0.259   0.014   6.260  0.4020 -0.1104  0.2917
 9012SOL     OW38497   1.642   1.665   2.975 -0.2858  0.5042  0.0349
 9012SOL    HW138498   1.697   1.589   2.997 -1.0493  0.2562  1.0783
 9012SOL    HW238499   1.597   1.626   2.900 -0.6648 -2.0496  1.5945
 9013SOL     OW38500   3.913   4.265   8.385  0.2870  0.3390 -0.3671
 9013SOL    HW138501   3.964   4.321   8.444 -1.7766  0.5712  1.2424
 9013SOL    HW238502   3.838   4.319   8.359  0.7389  0.0777 -2.1674
 9014SOL     OW38503   3.641   4.115  15.437  0.3435 -0.0113  0.2073
 9014SOL    HW138504   3.733   4.089  15.433  0.6340  0.9118  0.5712
 9014SOL    HW238505   3.626   4.191  15.381 -0.7598  0.1349  0.6936
 9015SOL     OW38506   3.814   1.791  16.065  0.7302  0.2468 -0.0894
 9015SOL    HW138507   3.749   1.791  15.994  0.5400 -3.9870  0.1081
 9015SOL    HW238508   3.753   1.823  16.132 -2.2813  1.7973 -3.5759
 9016SOL     OW38509   1.023   3.661   1.784 -0.1173 -0.2310  0.2932
 9016SOL    HW138510   0.964   3.626   1.851 -2.5573  3.5912  0.1435
 9016SOL    HW238511   1.080   3.719   1.834  1.9312 -0.2883 -1.9891
 9017SOL     OW38512   2.194   1.795  16.267 -0.0050  0.2294  0.5770
 9017SOL    HW138513   2.143   1.735  16.321  1.2573 -3.8859 -2.7727
 9017SOL    HW238514   2.283   1.770  16.291  1.0095  1.6788 -1.6175
 9018SOL     OW38515   0.451   2.957   9.929 -0.4888  0.4979 -0.5415
 9018SOL    HW138516   0.370   2.907   9.945  0.0072 -0.6443 -1.5613
 9018SOL    HW238517   0.490   2.947  10.016 -1.0452  2.4924 -0.0585
 9019SOL     OW38518   2.136   3.943   6.178 -0.4282  0.0892 -0.0589
 9019SOL    HW138519   2.056   3.975   6.136  0.9969  2.4278 -0.9828
 9019SOL    HW238520   2.165   3.871   6.123  0.2824 -1.3217  2.1583
 9020SOL     OW38521   3.308   0.888   5.839 -0.2525  0.4916 -0.1607
 9020SOL    HW138522   3.309   0.792   5.842 -0.5076  0.4942 -0.0242
 9020SOL    HW238523   3.294   0.905   5.746 -0.1745  1.1002 -0.0633
 9021SOL     OW38524   4.383   0.268   1.083  0.0551  0.2035 -0.2747
 9021SOL    HW138525   4.465   0.219   1.090 -1.2264 -2.0017 -0.5851
 9021SOL    HW238526   4.344   0.231   1.162  1.5994 -0.7447  0.0516
 9022SOL     OW38527   2.717   3.649   5.650  0.5900  0.5540 -0.1072
 9022SOL    HW138528   2.697   3.560   5.679 -1.2823  1.6084  1.8575
 9022SOL    HW238529   2.803   3.637   5.610  0.0671 -0.7682 -0.8331
 9023SOL     OW38530   3.034   0.434   7.034 -0.4794 -0.0808  0.5066
 9023SOL    HW138531   2.951   0.389   7.017  0.7508 -2.2615  0.2948
 9023SOL    HW238532   3.020   0.466   7.123 -0.8599 -0.1730  0.4788
 9024SOL     OW38533   1.604   0.194  10.000  0.2029  0.2525  0.0239
 9024SOL    HW138534   1.628   0.228   9.914  0.0732  1.7751  0.5875
 9024SOL    HW238535   1.666   0.236  10.060  0.5190 -1.4541  0.9152
 9025SOL     OW38536   4.125   0.996   1.153 -0.7136 -0.3377  0.2082
 9025SOL    HW138537   4.139   1.089   1.139 -0.4838 -0.1731  1.5471
 9025SOL    HW238538   4.107   0.988   1.247  1.6600  1.6873  0.8168
 9026SOL     OW38539   0.579   4.682   5.055  0.6579  0.2334 -0.1950
 9026SOL    HW138540   0.558   4.608   5.112  3.1409  0.2119  0.7035
 9026SOL    HW238541   0.659   4.644   5.020  2.4987  2.6512  1.3598
 9027SOL     OW38542   3.253   0.077   8.230  0.6327  0.3965 -0.4748
 9027SOL    HW138543   3.334   0.121   8.255 -0.3474  1.0742  1.5175
 9027SOL    HW238544   3.271   0.040   8.144  1.2712  1.1218 -0.6516
 9028SOL     OW38545   2.153   4.214  11.410  0.0027 -0.3221  0.2372
 9028SOL    HW138546   2.237   4.259  11.411 -0.9800  1.4928  3.7237
 9028SOL    HW238547   2.153   4.136  11.355  0.6125  1.7011 -2.6073
 9029SOL     OW38548   1.836   4.071   9.927  0.1636  0.7672  0.1800
 9029SOL    HW138549   1.773   4.142   9.922  0.6036  1.3303  2.2761
 9029SOL    HW238550   1.887   4.103  10.002  1.5789  0.8985 -0.8222
 9030SOL     OW38551   2.111   0.086   6.677 -0.6658  0.1762 -0.4650
 9030SOL    HW138552   2.118   0.156   6.742 -0.0085  1.2944 -1.7432
 9030SOL    HW238553   2.029   0.043   6.700 -0.4316 -0.4593 -0.8262
 9031SOL     OW38554   0.437   0.708  14.531 -0.2876  0.2187  0.5559
 9031SOL    HW138555   0.483   0.724  14.449 -2.3161  2.0172 -0.2555
 9031SOL    HW238556   0.425   0.799  14.561  0.2338  0.5585 -0.2758
 9032SOL     OW38557   2.167   4.499   4.599 -0.5201 -0.2458 -0.1595
 9032SOL    HW138558   2.234   4.432   4.583  0.0482  0.5677 -1.1294
 9032SOL    HW238559   2.148   4.508   4.506  0.3062  0.3194 -0.2689
 9033SOL     OW38560   3.539   0.907   4.981  0.0887  0.2350  0.1387
 9033SOL    HW138561   3.515   0.955   4.902  1.2075  1.5278  0.5871
 9033SOL    HW238562   3.453   0.910   5.023 -1.6716  1.0104 -3.5614
 9034SOL     OW38563   0.771   2.170  12.368 -0.1234 -0.1038  0.1316
 9034SOL    HW138564   0.789   2.147  12.459 -0.6930 -0.2945  0.2007
 9034SOL    HW238565   0.676   2.176  12.381 -0.0064  0.5129  0.6527
 9035SOL     OW38566   0.876   3.913   8.940 -0.1677  0.0691 -0.4047
 9035SOL    HW138567   0.866   3.863   8.859 -1.8394  0.7740 -0.6377
 9035SOL    HW238568   0.901   3.842   8.999 -0.2082 -0.7111 -1.3223
 9036SOL     OW38569   0.103   3.063   5.410  0.1195  0.3516 -0.4792
 9036SOL    HW138570   0.131   2.982   5.366  0.7798 -0.2339  1.0113
 9036SOL    HW238571   0.033   3.093   5.353 -0.6728 -3.4375 -1.5475
 9037SOL     OW38572   0.032   4.175   7.847  0.1718 -0.6604 -0.0341
 9037SOL    HW138573   0.045   4.110   7.779  2.2365 -0.6311  0.3369
 9037SOL    HW238574   0.031   4.257   7.798 -0.8307 -1.2659 -1.0428
 9038SOL     OW38575   3.715   3.817   6.190 -0.1298  0.7138 -0.3347
 9038SOL    HW138576   3.680   3.751   6.251 -0.3753  0.3129 -0.9082
 9038SOL    HW238577   3.633   3.831   6.142 -0.1523 -0.4811 -0.6395
 9039SOL     OW38578   4.694   0.689  13.291 -0.3250  0.7817  0.4581
 9039SOL    HW138579   4.697   0.710  13.197 -0.5472  2.3528  0.7938
 9039SOL    HW238580   4.649   0.606  13.275 -1.4832  1.3006  0.9843
 9040SOL     OW38581   2.989   4.273   6.104  0.4471  0.3823  0.0833
 9040SOL    HW138582   3.081   4.296   6.095  0.4376  0.1432 -0.6292
 9040SOL    HW238583   2.981   4.247   6.196 -0.2952 -1.0063 -0.3781
 9041SOL     OW38584   3.264   0.924  17.239 -0.4867  0.4747 -0.4577
 9041SOL    HW138585   3.249   0.924  17.144 -0.1619  1.5875 -0.5053
 9041SOL    HW238586   3.353   0.958  17.228 -0.3478 -0.1513 -1.3062
 9042SOL     OW38587   0.253   3.988   7.352 -0.2212 -0.2920 -0.3303
 9042SOL    HW138588   0.199   3.917   7.317 -2.4043  1.2522 -0.0561
 9042SOL    HW238589   0.181   4.033   7.396  0.3590 -1.3873  1.7489
 9043SOL     OW38590   2.534   3.060   4.151 -0.0152  0.5289 -0.4483
 9043SOL    HW138591   2.603   3.022   4.095  1.9715  0.0806  2.2734
 9043SOL    HW238592   2.567   3.149   4.163  0.3157  0.3775 -0.2180
 9044SOL     OW38593   0.648   1.816  11.966  0.7980  0.0170  0.0497
 9044SOL    HW138594   0.662   1.909  11.948 -0.6246 -0.1642 -1.8953
 9044SOL    HW238595   0.587   1.819  12.040  2.4694  0.1431  1.4543
 9045SOL     OW38596   2.644   3.190  16.160 -0.0133 -0.1014  0.5100
 9045SOL    HW138597   2.707   3.135  16.207  0.0104 -0.6610 -0.1615
 9045SOL    HW238598   2.581   3.197  16.232 -0.0041 -0.2616  0.5336
 9046SOL     OW38599   1.247   3.618  10.847 -0.9130 -0.1611  0.3698
 9046SOL    HW138600   1.294   3.589  10.769  0.1394  1.9422  0.2377
 9046SOL    HW238601   1.278   3.708  10.841 -1.7931 -0.0212 -2.0551
 9047SOL     OW38602   1.756   1.164   4.357 -0.0235 -0.1026  0.4817
 9047SOL    HW138603   1.779   1.149   4.265  2.1846 -3.7534  1.6117
 9047SOL    HW238604   1.667   1.128   4.357 -1.0552  2.4310 -1.0911
 9048SOL     OW38605   0.578   3.360  14.198  0.8577  0.1790  0.0560
 9048SOL    HW138606   0.635   3.307  14.142 -0.7201  0.4631 -1.8675
 9048SOL    HW238607   0.580   3.445  14.154 -0.1346 -0.2758 -0.8790
 9049SOL     OW38608   1.649   0.341   6.295 -0.5318  0.5217  0.1630
 9049SOL    HW138609   1.688   0.422   6.330 -0.8847  1.0944 -0.7719
 9049SOL    HW238610   1.624   0.363   6.205  1.2498  0.0021 -0.4730
 9050SOL     OW38611   3.191   3.100  10.153  0.2723  0.0930  0.2000
 9050SOL    HW138612   3.176   3.010  10.125 -1.5236  0.4330  0.1033
 9050SOL    HW238613   3.106   3.138  10.176  0.5508  0.3686  0.7731
 9051SOL     OW38614   0.988   1.067   2.941  0.4299 -0.7344  0.2000
 9051SOL    HW138615   1.036   1.023   2.871 -0.1377 -0.6090 -0.2634
 9051SOL    HW238616   0.952   0.995   2.994 -1.8102 -1.1404 -1.9039
 9052SOL     OW38617   2.050   2.950   3.948  0.3554 -0.4709 -0.4529
 9052SOL    HW138618   1.996   2.899   3.888 -0.7015 -0.9934  0.9565
 9052SOL    HW238619   2.114   2.992   3.891  1.4006 -2.3406 -0.6620
 9053SOL     OW38620   1.909   1.278   5.502  0.4676  0.3097  0.2541
 9053SOL    HW138621   1.848   1.344   5.471  2.5280  2.2034  0.2671
 9053SOL    HW238622   1.945   1.305   5.586  2.9520  0.4655 -0.8521
 9054SOL     OW38623   3.464   0.373   3.444  0.4510  0.4701  0.0886
 9054SOL    HW138624   3.439   0.428   3.370 -0.2371  1.2054  0.8756
 9054SOL    HW238625   3.551   0.349   3.414  0.7012  1.1282  0.3033
 9055SOL     OW38626   2.520   4.519   4.707  0.6845  0.1208 -0.4342
 9055SOL    HW138627   2.487   4.451   4.766  2.8233  0.4243  1.0881
 9055SOL    HW238628   2.546   4.588   4.768  0.6059 -0.1585 -0.0881
 9056SOL     OW38629   1.739   0.619   1.500  0.3623  0.2226 -0.9913
 9056SOL    HW138630   1.748   0.655   1.588 -0.3134  1.8452 -1.5852
 9056SOL    HW238631   1.816   0.562   1.502 -1.4436 -2.3159 -3.3663
 9057SOL     OW38632   2.487   4.626  14.803 -0.0479  0.6070 -0.4753
 9057SOL    HW138633   2.394   4.632  14.825 -0.0375 -0.4778 -0.1198
 9057SOL    HW238634   2.508   4.719  14.817  0.2431  0.3566  0.7356
 9058SOL     OW38635   2.058   2.084   9.747 -0.1212 -0.0303 -0.7590
 9058SOL    HW138636   1.997   2.128   9.805 -1.5095 -2.7056 -0.2000
 9058SOL    HW238637   2.143   2.097   9.789  0.2126 -0.4808 -1.2859
 9059SOL     OW38638   3.813   0.762  17.569  0.2306 -0.0103  0.4394
 9059SOL    HW138639   3.864   0.765  17.650  1.4266 -1.2363 -0.2601
 9059SOL    HW238640   3.877   0.722  17.510  0.5541 -1.9213  2.0818
 9060SOL     OW38641   3.159   2.441   4.816  0.3653  0.7191 -0.4619
 9060SOL    HW138642   3.070   2.417   4.843  0.4742  2.1541  1.1540
 9060SOL    HW238643   3.206   2.361   4.839 -0.6133 -0.5562 -2.8878
 9061SOL     OW38644   2.607   1.217   1.746 -0.3696 -0.0655  0.3591
 9061SOL    HW138645   2.631   1.205   1.654 -2.6632  4.2040 -0.8206
 9061SOL    HW238646   2.512   1.215   1.733 -0.5273 -0.0434  1.5829
 9062SOL     OW38647   1.736   4.090   1.616  0.6048  0.1537  0.3947
 9062SOL    HW138648   1.703   4.121   1.532  1.0432  1.0459  0.5494
 9062SOL    HW238649   1.651   4.055   1.643 -1.0837  2.0948 -2.3586
 9063SOL     OW38650   0.035   2.879   2.268  0.0205  0.4126 -0.1300
 9063SOL    HW138651   0.000   2.861   2.356  1.5290 -0.4345  0.2936
 9063SOL    HW238652   0.038   2.973   2.280 -0.8048  0.3731  0.3809
 9064SOL     OW38653   1.811   0.432   5.454 -0.3809  0.2109  0.0624
 9064SOL    HW138654   1.726   0.476   5.451 -0.4439  0.0254 -0.8076
 9064SOL    HW238655   1.857   0.493   5.513  1.2112  0.5621 -1.5495
 9065SOL     OW38656   0.919   0.691  17.265 -0.0871  0.2080 -0.2338
 9065SOL    HW138657   0.970   0.648  17.334 -0.7740  0.6943  0.5869
 9065SOL    HW238658   0.993   0.689  17.205  0.3581  3.0284  0.2467
 9066SOL     OW38659   2.090   0.434   3.481 -0.1554 -0.0497  0.5778
 9066SOL    HW138660   2.003   0.394   3.481  0.3430 -1.1663 -0.6215
 9066SOL    HW238661   2.077   0.494   3.408  1.0899  0.7002  0.9631
 9067SOL     OW38662   2.966   0.797  17.225  0.2172  0.5352 -0.6903
 9067SOL    HW138663   2.931   0.882  17.199 -0.2114  0.7381  0.5178
 9067SOL    HW238664   3.060   0.816  17.230 -0.1326  2.5920 -2.1665
 9068SOL     OW38665   0.097   2.304   4.254  0.3723 -0.5354 -0.5212
 9068SOL    HW138666   0.085   2.346   4.339  0.5760  1.4844 -1.4858
 9068SOL    HW238667   0.006   2.298   4.223  0.2107 -1.7512  0.1885
 9069SOL     OW38668   0.221   4.486   9.914 -0.0911 -0.5221 -0.9010
 9069SOL    HW138669   0.291   4.528   9.963 -0.2488 -1.1613 -0.1288
 9069SOL    HW238670   0.262   4.496   9.828  1.2510 -0.4849 -0.2462
 9070SOL     OW38671   1.475   1.796  14.019 -0.6728  0.3155 -0.0187
 9070SOL    HW138672   1.426   1.721  14.052 -1.0373  0.6445  0.1896
 9070SOL    HW238673   1.400   1.835  13.975 -1.0182 -0.0039  0.2877
 9071SOL     OW38674   2.442   4.464   6.833 -0.2621 -0.3476 -0.1103
 9071SOL    HW138675   2.366   4.516   6.807  0.5459  0.1266 -1.5523
 9071SOL    HW238676   2.505   4.536   6.821 -0.1620 -0.6009 -1.1252
 9072SOL     OW38677   3.370   2.296  13.301  0.2572  0.1552 -0.0340
 9072SOL    HW138678   3.354   2.371  13.244  1.0417  0.8882  0.7155
 9072SOL    HW238679   3.349   2.224  13.242  0.7306  1.8180 -2.2392
 9073SOL     OW38680   3.758   3.958   8.677  0.1445 -0.5703  0.1182
 9073SOL    HW138681   3.682   3.936   8.623 -0.0290 -1.2183  0.6248
 9073SOL    HW238682   3.830   3.901   8.651  0.3771 -0.2301  0.0277
 9074SOL     OW38683   1.520   2.452  13.608  0.0279 -0.3731 -0.1186
 9074SOL    HW138684   1.585   2.483  13.670  0.2229  1.8602 -1.4369
 9074SOL    HW238685   1.554   2.494  13.529  0.2186 -2.3331 -1.0685
 9075SOL     OW38686   1.297   3.729   3.990  0.0395  0.2707 -0.0667
 9075SOL    HW138687   1.245   3.659   4.029  0.6120  0.0891  0.3681
 9075SOL    HW238688   1.365   3.684   3.941  1.0810  1.5056  0.2450
 9076SOL     OW38689   4.428   0.509   4.546 -0.9054 -0.3249 -0.2088
 9076SOL    HW138690   4.454   0.470   4.630 -0.7681 -2.8925 -1.4197
 9076SOL    HW238691   4.378   0.584   4.578  0.4693 -0.4506  2.2956
 9077SOL     OW38692   1.696   2.043   9.155  0.1268 -0.0338  0.2676
 9077SOL    HW138693   1.612   1.997   9.155  0.3790 -0.4925  1.1142
 9077SOL    HW238694   1.731   2.025   9.241 -2.3440 -4.8921  0.2351
 9078SOL     OW38695   3.521   4.356  15.679  0.5618 -0.0111 -0.0864
 9078SOL    HW138696   3.570   4.359  15.597  1.0475  1.2035  0.2353
 9078SOL    HW238697   3.583   4.318  15.741  2.5432  2.7629 -0.3021
 9079SOL     OW38698   2.116   3.825  16.155  0.4685  0.1678 -0.3345
 9079SOL    HW138699   2.134   3.917  16.135 -0.5515  0.7310  1.3525
 9079SOL    HW238700   2.094   3.797  16.066 -2.1803  1.4453 -0.0610
 9080SOL     OW38701   1.105   1.305   5.949 -0.4184  1.0410 -0.4205
 9080SOL    HW138702   1.127   1.258   5.869  1.0826 -1.0866  1.2741
 9080SOL    HW238703   1.023   1.259   5.970  1.3023 -0.8575  2.1786
 9081SOL     OW38704   3.131   3.508   6.579  0.0845  0.2248 -0.3821
 9081SOL    HW138705   3.142   3.507   6.674  1.3108 -0.2860 -0.5175
 9081SOL    HW238706   3.202   3.444   6.567  1.1406  1.4127 -0.5052
 9082SOL     OW38707   1.670   1.792   1.610  0.3465  0.3916 -0.0033
 9082SOL    HW138708   1.616   1.812   1.687  0.7179 -2.3835  0.9899
 9082SOL    HW238709   1.668   1.875   1.563  1.3853  1.3850  1.6952
 9083SOL     OW38710   3.756   2.421   4.188 -0.0966 -0.0764 -0.2967
 9083SOL    HW138711   3.782   2.509   4.159 -1.5565 -0.3196 -2.3236
 9083SOL    HW238712   3.833   2.363   4.193 -0.0505  0.0998  1.0397
 9084SOL     OW38713   2.141   0.218   5.205  0.3792 -0.3802  0.1694
 9084SOL    HW138714   2.109   0.131   5.226  0.0686 -0.4842 -0.7284
 9084SOL    HW238715   2.061   0.271   5.196  1.1736  0.3910 -2.4119
 9085SOL     OW38716   4.140   4.672   5.621 -0.5545 -0.1360 -0.4751
 9085SOL    HW138717   4.111   4.644   5.708 -0.8520  1.3252 -0.0956
 9085SOL    HW238718   4.216   4.722   5.652 -0.2709 -2.6980  3.0567
 9086SOL     OW38719   2.991   3.894  13.453  0.0129 -0.2938  0.1132
 9086SOL    HW138720   3.080   3.930  13.457 -0.1423  0.5172 -2.9777
 9086SOL    HW238721   3.012   3.802  13.441  0.4301 -0.1120 -0.5455
 9087SOL     OW38722   0.739   3.508  17.509 -0.2036 -0.8679  0.4068
 9087SOL    HW138723   0.646   3.528  17.510 -0.0231 -0.0375  0.7089
 9087SOL    HW238724   0.741   3.425  17.557  1.3874  0.2991  2.3279
 9088SOL     OW38725   0.169   1.934  13.722  0.3454 -0.2627 -0.7156
 9088SOL    HW138726   0.106   2.006  13.726  1.0123  0.2015  1.4770
 9088SOL    HW238727   0.220   1.954  13.644  0.8192 -0.8360 -0.5512
 9089SOL     OW38728   3.224   3.493  16.332  0.2347 -0.3288 -0.3946
 9089SOL    HW138729   3.228   3.398  16.345 -1.0335 -0.2352  0.6853
 9089SOL    HW238730   3.128   3.502  16.328 -0.0139 -2.3586  1.1606
 9090SOL     OW38731   0.084   1.345   8.685 -0.2666 -0.3243  0.3701
 9090SOL    HW138732   0.043   1.264   8.717 -2.5951  0.1469 -1.4446
 9090SOL    HW238733   0.122   1.370   8.769  2.6348 -0.8908 -0.7433
 9091SOL     OW38734   1.178   3.253   4.569 -0.1660  0.3701  0.1440
 9091SOL    HW138735   1.095   3.268   4.523  0.1025  1.8777  0.1385
 9091SOL    HW238736   1.171   3.158   4.581 -1.4829  0.2920 -1.2216
 9092SOL     OW38737   1.184   4.527   8.008  0.0752  0.1527 -0.0371
 9092SOL    HW138738   1.111   4.544   7.949 -0.0539 -0.1389  0.0376
 9092SOL    HW238739   1.223   4.613   8.022 -0.5917  0.3631  0.5548
 9093SOL     OW38740   0.613   0.726  16.308  0.7158  0.7357 -0.2747
 9093SOL    HW138741   0.694   0.777  16.311  1.8885 -1.1456  0.2677
 9093SOL    HW238742   0.545   0.780  16.347 -0.5396 -0.2994 -1.0374
 9094SOL     OW38743   2.801   1.400   6.539 -0.4176  0.0632 -0.7386
 9094SOL    HW138744   2.835   1.486   6.563 -0.4325 -0.3005  0.5470
 9094SOL    HW238745   2.853   1.347   6.599 -2.6609 -0.6682  0.5387
 9095SOL     OW38746   1.084   0.080   1.369 -0.2003  0.3096 -0.3055
 9095SOL    HW138747   0.990   0.087   1.352  0.0293  0.6146 -1.4609
 9095SOL    HW238748   1.082   4.708   1.374  0.2201  0.3170  0.0308
 9096SOL     OW38749   3.394   3.528  11.494 -0.2605 -0.3393  0.4681
 9096SOL    HW138750   3.374   3.435  11.506  0.6096 -0.7270 -1.0567
 9096SOL    HW238751   3.453   3.509  11.421  0.2568 -0.0917  0.8196
 9097SOL     OW38752   1.552   0.537   4.774 -0.2179 -0.1203  0.0874
 9097SOL    HW138753   1.626   0.500   4.822 -1.3282  0.1417  2.0126
 9097SOL    HW238754   1.526   0.467   4.714 -0.4864  0.0172  0.0417
 9098SOL     OW38755   3.716   3.278   8.119 -0.2864 -0.0986 -0.0941
 9098SOL    HW138756   3.655   3.332   8.168 -0.6864 -0.5865 -0.0608
 9098SOL    HW238757   3.797   3.276   8.170 -0.0880  2.3058 -0.2956
 9099SOL     OW38758   1.703   0.200   9.366  0.4903  0.0984  0.0532
 9099SOL    HW138759   1.784   0.250   9.370 -0.7369  2.2692 -2.1389
 9099SOL    HW238760   1.661   0.240   9.442  2.0502 -1.0667  1.5237
 9100SOL     OW38761   2.561   4.125   1.145 -0.1926  0.1675  0.3095
 9100SOL    HW138762   2.624   4.197   1.143  0.2195 -0.2284 -1.0988
 9100SOL    HW238763   2.497   4.165   1.203  2.0548  2.2466  1.3572
 9101SOL     OW38764   2.379   1.085   6.939 -0.2086  0.3897  0.0744
 9101SOL    HW138765   2.432   1.068   7.017 -0.2331 -1.0669 -0.2116
 9101SOL    HW238766   2.309   1.145   6.963 -0.3281 -0.1022  0.9581
 9102SOL     OW38767   3.085   3.438   9.865 -0.0920 -0.0497  0.2845
 9102SOL    HW138768   2.998   3.412   9.837  0.4463 -1.8012  0.2048
 9102SOL    HW238769   3.084   3.403   9.954 -0.7312  1.1544  0.7366
 9103SOL     OW38770   2.043   0.802   7.614 -0.1501 -0.3917 -0.0666
 9103SOL    HW138771   2.084   0.874   7.662  0.9307 -1.2284  0.2646
 9103SOL    HW238772   2.061   0.837   7.526  0.6264 -1.9794 -0.5340
 9104SOL     OW38773   0.960   1.696  12.950  0.0603 -0.5219 -0.5693
 9104SOL    HW138774   0.983   1.631  12.884  1.6979 -0.5593  0.0461
 9104SOL    HW238775   0.984   1.776  12.902  0.4591  0.1626  0.7840
 9105SOL     OW38776   2.624   0.583   5.333 -0.5791 -0.1151 -0.1224
 9105SOL    HW138777   2.685   0.630   5.276  0.2824 -0.9300  0.1486
 9105SOL    HW238778   2.605   0.507   5.278 -2.1685 -1.0936  1.7713
 9106SOL     OW38779   1.125   3.009   6.855  0.3451 -0.4938 -0.1881
 9106SOL    HW138780   1.195   3.010   6.790  1.5876  0.0143  1.1377
 9106SOL    HW238781   1.056   2.991   6.791  0.9696  0.5477 -1.1526
 9107SOL     OW38782   2.139   0.432   7.649  0.3220  0.3138 -0.5529
 9107SOL    HW138783   2.120   0.354   7.596  1.3327 -0.4715  0.2440
 9107SOL    HW238784   2.204   0.391   7.706  1.2213  2.4343 -0.0766
 9108SOL     OW38785   0.889   3.992  14.815  0.2821 -0.0350 -0.3052
 9108SOL    HW138786   0.902   3.982  14.909  0.6493 -0.7579 -0.4373
 9108SOL    HW238787   0.919   4.083  14.807 -0.4076  0.2705  0.5465
 9109SOL     OW38788   0.529   3.733   8.603 -0.0719 -0.1739  0.1207
 9109SOL    HW138789   0.576   3.673   8.544  3.9943  2.4319  0.7320
 9109SOL    HW238790   0.474   3.768   8.533  1.0476  0.7913 -0.2855
 9110SOL     OW38791   2.476   2.062   1.577 -0.9227  0.2434 -0.6815
 9110SOL    HW138792   2.443   2.147   1.546  0.3453  0.8816 -0.2936
 9110SOL    HW238793   2.556   2.051   1.527 -0.7551 -2.9495  0.3291
 9111SOL     OW38794   4.600   0.423   7.552 -1.1873 -0.6486  0.2682
 9111SOL    HW138795   4.610   0.441   7.646 -2.3535  4.5133 -0.5861
 9111SOL    HW238796   4.535   0.355   7.567  0.3482 -2.0452  0.6065
 9112SOL     OW38797   0.625   3.006  14.809  0.3276 -0.0388  0.2286
 9112SOL    HW138798   0.601   3.066  14.879  0.5970 -1.3793  1.4678
 9112SOL    HW238799   0.692   3.052  14.759  0.0241  0.1498 -0.0052
 9113SOL     OW38800   3.569   3.481   5.539  0.0808  0.0250 -0.3082
 9113SOL    HW138801   3.494   3.475   5.479  1.2067 -4.5398 -1.3006
 9113SOL    HW238802   3.554   3.570   5.570 -0.9271 -0.6413  1.1270
 9114SOL     OW38803   3.479   1.405   2.873  0.4132  0.0753  0.0311
 9114SOL    HW138804   3.488   1.322   2.825 -1.6706  0.7697 -1.5792
 9114SOL    HW238805   3.422   1.376   2.944  2.2835  1.1955  1.9698
 9115SOL     OW38806   3.464   2.143   0.415  0.9737  0.0052  0.1786
 9115SOL    HW138807   3.480   2.235   0.393  1.3394  0.6551  3.1824
 9115SOL    HW238808   3.421   2.107   0.337  0.8476 -2.4004  1.3677
 9116SOL     OW38809   0.490   1.293   5.354  0.0965  0.9470 -0.2578
 9116SOL    HW138810   0.412   1.239   5.358  1.0617 -0.4379 -0.3403
 9116SOL    HW238811   0.556   1.224   5.352 -2.7982 -1.8168 -0.3608
 9117SOL     OW38812   3.135   1.018   3.622  0.2015  0.1713 -0.0500
 9117SOL    HW138813   3.050   0.976   3.632  0.6838 -1.0093 -0.8369
 9117SOL    HW238814   3.192   0.981   3.689 -0.2122  3.4509  2.0631
 9118SOL     OW38815   3.136   0.273   2.693 -0.2274 -0.0073 -0.1124
 9118SOL    HW138816   3.060   0.216   2.678  0.7266 -1.2100 -0.3705
 9118SOL    HW238817   3.193   0.256   2.618  1.9448  0.6435  1.3891
 9119SOL     OW38818   0.905   4.261   4.599 -0.1665 -0.1511  0.1028
 9119SOL    HW138819   0.848   4.195   4.557  3.2098  0.1366 -4.9362
 9119SOL    HW238820   0.845   4.296   4.664  1.8829  0.7526  1.4804
 9120SOL     OW38821   1.402   1.183  11.405 -0.8430 -0.1316  0.2817
 9120SOL    HW138822   1.429   1.094  11.427  3.3935  0.6775 -1.8091
 9120SOL    HW238823   1.377   1.170  11.314 -0.5081 -1.2910  0.3571
 9121SOL     OW38824   4.152   1.320   7.182 -0.1514 -0.2637  0.5856
 9121SOL    HW138825   4.229   1.321   7.240 -0.4946  0.5807  1.0359
 9121SOL    HW238826   4.121   1.230   7.186 -0.2592 -0.2866 -0.9438
 9122SOL     OW38827   4.241   3.704   8.109  0.4157  0.2559 -0.2130
 9122SOL    HW138828   4.288   3.634   8.063  0.1864  0.1649 -0.3084
 9122SOL    HW238829   4.312   3.727   8.170  0.2086 -0.1526  0.1825
 9123SOL     OW38830   0.148   3.819   3.119  0.7309  0.8187  0.5692
 9123SOL    HW138831   0.210   3.852   3.054  0.7268  0.9188  0.6165
 9123SOL    HW238832   0.152   3.726   3.094 -0.2741  0.8559  0.2645
 9124SOL     OW38833   3.939   3.924   8.024  0.0739  0.1173 -0.1324
 9124SOL    HW138834   3.960   3.848   8.078 -2.5701 -0.7341 -0.3344
 9124SOL    HW238835   3.889   3.882   7.954 -0.1786 -0.8645  0.6387
 9125SOL     OW38836   3.684   1.861   8.615  0.2480 -0.0724 -0.6595
 9125SOL    HW138837   3.751   1.817   8.667 -1.8728 -1.2207  1.1068
 9125SOL    HW238838   3.683   1.795   8.545  0.2304 -1.1045  0.3070
 9126SOL     OW38839   1.367   3.404   0.979 -0.0066  0.0188 -0.3948
 9126SOL    HW138840   1.305   3.429   0.910  0.7966  0.8372 -0.8175
 9126SOL    HW238841   1.451   3.443   0.957 -0.4151  1.7003  1.1207
 9127SOL     OW38842   0.266   4.107   8.210  0.1366 -0.3305  0.1752
 9127SOL    HW138843   0.261   4.011   8.213  0.7883 -0.3918 -0.5757
 9127SOL    HW238844   0.360   4.121   8.194 -0.0687  1.1331  0.3362
 9128SOL     OW38845   2.905   1.749  12.620  0.6656 -0.3491  0.2590
 9128SOL    HW138846   2.972   1.798  12.571  2.2874 -1.6742  1.1470
 9128SOL    HW238847   2.861   1.817  12.671 -3.6317 -2.7927 -0.2256
 9129SOL     OW38848   3.792   3.051   1.879  0.1472  0.6213 -0.0039
 9129SOL    HW138849   3.862   3.029   1.817 -0.7959 -2.3086 -0.0357
 9129SOL    HW238850   3.817   3.004   1.959 -2.6116 -1.0719 -0.1620
 9130SOL     OW38851   1.174   2.080   9.479  0.1697  0.9847  0.3305
 9130SOL    HW138852   1.113   2.113   9.413  2.8781  2.0026 -1.6900
 9130SOL    HW238853   1.156   2.152   9.539 -1.7382  0.4912  0.3311
 9131SOL     OW38854   0.298   4.000  13.167 -0.5950  0.1880 -0.2760
 9131SOL    HW138855   0.281   3.913  13.131 -1.1627  0.6665 -1.1619
 9131SOL    HW238856   0.392   4.009  13.179 -0.5312 -0.3722 -0.3938
 9132SOL     OW38857   2.701   0.822   4.047  0.8209 -0.4251  0.2571
 9132SOL    HW138858   2.725   0.754   4.111  1.7903 -0.8574 -0.5742
 9132SOL    HW238859   2.753   0.778   3.981 -0.2663 -0.4998 -0.5578
 9133SOL     OW38860   3.455   3.553   3.717  0.7834  0.4043  0.6438
 9133SOL    HW138861   3.366   3.561   3.682  0.7222  0.5344  0.8301
 9133SOL    HW238862   3.490   3.629   3.670  2.1863 -0.9780 -0.5103
 9134SOL     OW38863   0.934   0.087   1.723  0.0914  0.3054 -0.0334
 9134SOL    HW138864   0.934   0.134   1.806  0.3767 -0.0451  0.1614
 9134SOL    HW238865   0.873   0.013   1.736  0.9327  0.0561  2.5114
 9135SOL     OW38866   2.085   3.239   1.708 -0.7709  0.4653  0.5597
 9135SOL    HW138867   2.036   3.234   1.790 -1.8453 -1.9504 -0.2279
 9135SOL    HW238868   2.035   3.304   1.659  0.9699  0.7806 -0.8329
 9136SOL     OW38869   2.926   0.906   5.071  0.9204 -0.0347  0.1268
 9136SOL    HW138870   2.919   1.000   5.084  0.9926  0.3121 -2.3498
 9136SOL    HW238871   2.880   0.883   5.151 -0.7397  2.6584 -0.0577
 9137SOL     OW38872   0.061   1.341  11.277  0.9323 -0.5170 -0.4869
 9137SOL    HW138873   0.079   1.263  11.224  1.8878  0.5328 -1.6841
 9137SOL    HW238874   0.146   1.354  11.317  0.6432  0.8842 -0.3407
 9138SOL     OW38875   3.491   3.861   7.868 -0.2909  0.5985  0.1558
 9138SOL    HW138876   3.544   3.921   7.921  1.1613 -0.5953  0.0453
 9138SOL    HW238877   3.510   3.787   7.926 -1.9542 -1.5916 -2.1018
 9139SOL     OW38878   0.640   0.331   5.495  0.1352 -0.0909 -0.3365
 9139SOL    HW138879   0.704   0.266   5.467  3.8545  3.6938 -0.5564
 9139SOL    HW238880   0.695   0.397   5.537 -0.8799  0.9530 -0.6179
 9140SOL     OW38881   0.253   1.113  15.303  0.1797 -0.7090  0.1413
 9140SOL    HW138882   0.216   1.201  15.315  0.9367 -0.3985  0.1901
 9140SOL    HW238883   0.278   1.101  15.395 -1.9058 -2.4640  0.4727
 9141SOL     OW38884   4.161   0.567   3.552 -0.6686 -0.4246 -0.1806
 9141SOL    HW138885   4.186   0.478   3.530  0.3903 -0.2679  0.4070
 9141SOL    HW238886   4.121   0.607   3.474 -1.8008 -1.2222  0.0034
 9142SOL     OW38887   2.887   2.930  11.869  0.4449 -0.1414 -0.2047
 9142SOL    HW138888   2.918   3.007  11.917  0.9602 -1.3371  1.3679
 9142SOL    HW238889   2.966   2.891  11.833 -0.3184 -3.3337  1.5879
 9143SOL     OW38890   1.183   3.989   5.756  0.3569 -0.6278 -0.2073
 9143SOL    HW138891   1.127   3.919   5.721 -1.6265  0.8231  0.1080
 9143SOL    HW238892   1.116   4.056   5.766  2.7002  1.5269  1.0290
 9144SOL     OW38893   1.291   2.112   6.331 -0.1641 -0.3252 -0.3964
 9144SOL    HW138894   1.249   2.198   6.327  0.6324  0.0260 -1.1380
 9144SOL    HW238895   1.253   2.076   6.411 -1.5755  1.7122 -0.1401
 9145SOL     OW38896   3.414   1.374   6.553 -0.0657  0.2930  0.0832
 9145SOL    HW138897   3.373   1.333   6.477 -0.9308 -0.3486  0.8837
 9145SOL    HW238898   3.351   1.443   6.574 -1.6400 -1.0955 -0.0786
 9146SOL     OW38899   3.494   0.502   0.438  0.4849 -0.0103  0.3518
 9146SOL    HW138900   3.564   0.448   0.476  0.3644 -1.2273 -1.1439
 9146SOL    HW238901   3.446   0.524   0.518 -2.3653 -1.0581 -1.0578
 9147SOL     OW38902   1.921   3.777   8.103 -0.2027 -0.1974  0.1999
 9147SOL    HW138903   1.904   3.710   8.037  0.6649  0.3547 -0.5881
 9147SOL    HW238904   1.847   3.760   8.161  0.5762 -3.6765  0.2046
 9148SOL     OW38905   3.353   2.645   7.170  0.0263  0.3914  0.0670
 9148SOL    HW138906   3.377   2.737   7.180  0.3297  0.5027 -1.6246
 9148SOL    HW238907   3.403   2.604   7.241  1.1295 -0.0270 -0.9465
 9149SOL     OW38908   3.875   2.246   6.215  0.0712  0.2486 -0.2489
 9149SOL    HW138909   3.846   2.289   6.135 -0.1276 -0.4523 -0.5575
 9149SOL    HW238910   3.849   2.161   6.181 -0.1408  0.8670 -1.6007
 9150SOL     OW38911   4.317   4.380  15.323 -0.4544  0.0973 -0.3222
 9150SOL    HW138912   4.322   4.360  15.417 -1.6133 -1.3582 -0.5740
 9150SOL    HW238913   4.396   4.431  15.306 -0.5386  0.9813  1.9031
 9151SOL     OW38914   0.363   4.477   4.930 -0.4360  0.4499 -0.5893
 9151SOL    HW138915   0.344   4.529   5.008  0.0498  1.6780 -1.2880
 9151SOL    HW238916   0.304   4.402   4.938  0.0054  0.1134 -0.4962
 9152SOL     OW38917   2.895   2.410   8.228  0.3076 -0.4804  0.6738
 9152SOL    HW138918   2.984   2.392   8.197 -1.5128 -0.6524 -4.4382
 9152SOL    HW238919   2.856   2.324   8.218 -2.0761  0.4102  2.1343
 9153SOL     OW38920   4.507   4.270   1.697 -0.3622  0.0770 -0.0584
 9153SOL    HW138921   4.472   4.239   1.614 -3.7498  3.7610 -0.0373
 9153SOL    HW238922   4.460   4.220   1.763 -0.6058  0.2917 -0.0661
 9154SOL     OW38923   0.627   3.747  14.945 -0.1071  0.7798  0.4612
 9154SOL    HW138924   0.654   3.661  14.976 -0.1050 -0.2411 -2.3189
 9154SOL    HW238925   0.690   3.768  14.875 -1.0157 -0.7172 -0.8005
 9155SOL     OW38926   0.305   3.639   5.606 -0.0706 -0.0012  0.1412
 9155SOL    HW138927   0.237   3.574   5.588  0.7457 -0.8209  0.0201
 9155SOL    HW238928   0.251   3.692   5.665 -0.3158 -1.6441  1.4075
 9156SOL     OW38929   4.399   0.773  14.523 -0.0738  0.6076 -0.5686
 9156SOL    HW138930   4.482   0.726  14.515 -1.5426 -1.9891 -0.6410
 9156SOL    HW238931   4.412   0.809  14.611 -0.5191  2.0107 -1.0795
 9157SOL     OW38932   0.750   0.834   5.402 -0.0552 -0.4661  0.0470
 9157SOL    HW138933   0.818   0.836   5.335 -1.4066  0.2376 -1.3049
 9157SOL    HW238934   0.782   0.765   5.460  0.9469 -0.1175 -0.0917
 9158SOL     OW38935   1.250   2.349   8.187  0.5569 -0.1960 -0.0210
 9158SOL    HW138936   1.197   2.298   8.126 -0.9356  0.4213  0.7804
 9158SOL    HW238937   1.278   2.282   8.249 -0.9273 -1.1123 -0.3387
 9159SOL     OW38938   0.291   1.789  12.450  0.1449  0.0950 -0.4569
 9159SOL    HW138939   0.260   1.767  12.362 -1.4429 -3.3474  0.9609
 9159SOL    HW238940   0.280   1.884  12.443  0.7000  0.2279  0.5550
 9160SOL     OW38941   2.064   3.993   8.530 -0.0114  0.3137 -0.2800
 9160SOL    HW138942   2.092   3.994   8.439  0.3255  1.3325 -0.1667
 9160SOL    HW238943   2.120   4.067   8.555  0.0623 -0.0511  0.6292
 9161SOL     OW38944   3.017   4.531  17.632  0.0010  0.5646 -0.3673
 9161SOL    HW138945   2.951   4.599  17.646 -1.3113 -0.4824 -1.3609
 9161SOL    HW238946   3.016   4.486   0.022 -1.6368  0.4522 -0.4433
 9162SOL     OW38947   2.442   3.826  16.685 -0.0069  0.6937  0.3839
 9162SOL    HW138948   2.481   3.791  16.765 -1.4643  0.3298  0.9336
 9162SOL    HW238949   2.391   3.898  16.721 -2.2218 -0.5136 -0.3649
 9163SOL     OW38950   3.480   3.161   5.353  0.0510  1.1072  0.1245
 9163SOL    HW138951   3.423   3.201   5.287 -0.7938  3.7501  2.4838
 9163SOL    HW238952   3.562   3.194   5.317  1.7865 -2.4540  0.8047
 9164SOL     OW38953   4.367   4.196   4.856 -0.1923  0.1328 -0.7730
 9164SOL    HW138954   4.338   4.287   4.852  0.7784  0.3907 -1.9086
 9164SOL    HW238955   4.459   4.194   4.831  0.2878  0.7905  0.9477
 9165SOL     OW38956   0.534   3.572   5.791 -0.1359 -0.2622 -0.3664
 9165SOL    HW138957   0.442   3.577   5.765 -0.2418  0.7486  0.2080
 9165SOL    HW238958   0.571   3.542   5.708 -0.8717 -3.7572  0.5505
 9166SOL     OW38959   3.738   3.781  11.652 -0.0653  0.2373 -0.3796
 9166SOL    HW138960   3.698   3.865  11.633  2.2832  0.7050 -3.2098
 9166SOL    HW238961   3.664   3.740  11.696  1.2236 -0.8637  0.7856
 9167SOL     OW38962   3.103   3.938   6.743 -0.3053  0.3049 -0.5177
 9167SOL    HW138963   3.084   3.883   6.666 -0.0991  0.4314 -0.6563
 9167SOL    HW238964   3.179   3.896   6.784  1.5276  3.4823 -0.7044
 9168SOL     OW38965   4.255   3.091   4.311  0.4705  0.7972 -0.3148
 9168SOL    HW138966   4.209   3.015   4.348  3.2577 -1.1625 -0.8656
 9168SOL    HW238967   4.179   3.148   4.305  0.9983  1.6399  1.0670
 9169SOL     OW38968   0.111   2.009   5.199  0.1810  0.1295 -0.2517
 9169SOL    HW138969   0.118   1.973   5.111  0.1695  0.6311 -0.4590
 9169SOL    HW238970   0.135   1.940   5.260  1.2197  2.4500  1.9931
 9170SOL     OW38971   1.382   0.564   8.994  0.6357 -0.6939 -0.3399
 9170SOL    HW138972   1.401   0.540   8.904 -0.9652  0.9205 -1.0926
 9170SOL    HW238973   1.464   0.595   9.033  0.6372  1.1351 -1.8262
 9171SOL     OW38974   0.047   0.379   3.990  1.3451 -0.1366  0.6234
 9171SOL    HW138975   0.022   0.470   4.003  0.0674 -0.5946  1.3689
 9171SOL    HW238976   0.131   0.394   4.033  1.0853  3.4661 -0.1575
 9172SOL     OW38977   3.303   0.176  10.648  0.4214 -0.1549  0.0347
 9172SOL    HW138978   3.363   0.132  10.708  1.3012  2.5296  1.0886
 9172SOL    HW238979   3.354   0.204  10.573  0.0391 -0.2301 -0.2547
 9173SOL     OW38980   0.111   1.063   7.155 -0.1624  0.0286 -0.1692
 9173SOL    HW138981   0.173   1.133   7.176  1.2402 -0.9466 -1.1030
 9173SOL    HW238982   0.055   1.098   7.086 -0.0575 -0.4571 -0.4922
 9174SOL     OW38983   3.973   0.773   6.293 -0.4596 -0.5976  0.5689
 9174SOL    HW138984   3.961   0.861   6.329  0.0863  0.0719 -0.8865
 9174SOL    HW238985   3.919   0.771   6.214  0.3709  0.2316 -0.0269
 9175SOL     OW38986   3.918   1.493   9.375 -0.2710  0.2571  0.8858
 9175SOL    HW138987   3.838   1.544   9.364 -1.2186 -1.4833 -0.3650
 9175SOL    HW238988   3.912   1.483   9.470 -1.2163  1.5405  0.9570
 9176SOL     OW38989   4.423   2.719   5.889  0.4222  1.3217 -0.3641
 9176SOL    HW138990   4.461   2.640   5.929 -2.0161  0.4249  0.1362
 9176SOL    HW238991   4.496   2.777   5.865  1.9572 -0.1416  0.7011
 9177SOL     OW38992   1.517   2.730   3.221 -0.2353 -0.1836 -0.6633
 9177SOL    HW138993   1.450   2.662   3.232  0.8653 -1.0894  0.4442
 9177SOL    HW238994   1.575   2.667   3.178 -1.8495 -1.7220 -0.6339
 9178SOL     OW38995   2.411   4.466   5.548  0.1515 -0.1384 -0.4260
 9178SOL    HW138996   2.385   4.374   5.549 -0.3570 -0.0276 -2.5839
 9178SOL    HW238997   2.476   4.467   5.618 -0.9964  2.0476  0.6100
 9179SOL     OW38998   3.988   3.813   3.623  0.2763  0.1658 -0.7576
 9179SOL    HW138999   4.014   3.825   3.715 -1.0184  2.5264 -0.6841
 9179SOL    HW239000   4.070   3.822   3.575  1.0386 -1.5029  0.2521
 9180SOL     OW39001   1.460   0.788   4.402 -0.2736 -0.3125 -0.2876
 9180SOL    HW139002   1.396   0.735   4.451  0.4970 -0.1271  0.9192
 9180SOL    HW239003   1.469   0.737   4.322  1.4676 -1.1417  0.4454
 9181SOL     OW39004   4.451   4.549   8.003  0.2007  0.8883  0.0192
 9181SOL    HW139005   4.479   4.461   7.978 -1.3756  0.2661  0.4294
 9181SOL    HW239006   4.488   4.599   7.931  1.8382  1.8969  1.5539
 9182SOL     OW39007   4.216   0.918   5.148  0.7608  0.1562 -0.3539
 9182SOL    HW139008   4.188   0.827   5.137  0.1839  0.0981  1.4968
 9182SOL    HW239009   4.244   0.917   5.240 -2.7976  2.1306  0.7600
 9183SOL     OW39010   1.102   2.229  13.944  0.1630  0.5351  0.5423
 9183SOL    HW139011   1.101   2.136  13.922  0.6086  0.5765  0.3497
 9183SOL    HW239012   1.086   2.226  14.038 -0.4961 -0.8671  0.3934
 9184SOL     OW39013   0.233   1.509   9.168  0.3578 -0.2695 -0.1334
 9184SOL    HW139014   0.323   1.501   9.201 -0.4390 -0.2528  2.0475
 9184SOL    HW239015   0.192   1.543   9.247 -0.5572 -0.8868 -0.3500
 9185SOL     OW39016   4.608   0.414  13.268  0.2465 -0.0690 -0.4633
 9185SOL    HW139017   4.541   0.390  13.205 -1.7039 -1.4222  2.1287
 9185SOL    HW239018   4.694   0.376  13.249  0.9149 -0.3417  3.0629
 9186SOL     OW39019   4.639   2.257   8.504  0.2339 -0.3118  0.0466
 9186SOL    HW139020   4.674   2.230   8.419  1.2579  1.0413  0.0439
 9186SOL    HW239021   4.571   2.191   8.522 -0.8919  0.7541 -0.3184
 9187SOL     OW39022   0.987   0.669   8.177  0.3724 -0.1965  0.0123
 9187SOL    HW139023   1.061   0.609   8.184  0.9020  0.6415  1.5674
 9187SOL    HW239024   1.033   0.742   8.218 -0.3242  0.0172  0.4200
 9188SOL     OW39025   2.143   2.572   9.471  0.0751  0.8398 -0.0783
 9188SOL    HW139026   2.139   2.541   9.380  1.2025  1.4910 -0.3474
 9188SOL    HW239027   2.238   2.582   9.482 -0.1846  2.3125  0.8687
 9189SOL     OW39028   3.670   4.040   5.083  0.0757  0.4679  0.3107
 9189SOL    HW139029   3.760   4.031   5.113  0.3440 -1.3704 -1.0281
 9189SOL    HW239030   3.615   4.012   5.156  1.1915 -1.1423  0.5251
 9190SOL     OW39031   1.680   0.661  14.500  0.1399  0.4559 -0.1465
 9190SOL    HW139032   1.770   0.674  14.531  1.2116 -0.5841 -2.7936
 9190SOL    HW239033   1.621   0.722  14.543 -0.0642 -0.7370  1.2652
 9191SOL     OW39034   0.837   3.566   1.987 -0.5413 -0.2247  0.2976
 9191SOL    HW139035   0.764   3.624   2.010 -0.0532  0.2948  0.5266
 9191SOL    HW239036   0.809   3.523   1.906 -1.3756  2.3566 -0.8004
 9192SOL     OW39037   3.861   0.050   2.893 -0.2564 -0.4042  0.0279
 9192SOL    HW139038   3.856   0.017   2.804  1.9301  2.1173 -1.0139
 9192SOL    HW239039   3.826   4.702   2.947 -0.2394 -0.1280  0.4022
 9193SOL     OW39040   1.714   4.196   4.581  0.1807  0.0324  0.2146
 9193SOL    HW139041   1.639   4.164   4.530 -0.0091 -2.2356  1.9053
 9193SOL    HW239042   1.667   4.229   4.657 -1.5726  0.3505 -0.9888
 9194SOL     OW39043   3.018   0.818   3.313  0.3224 -0.0537  0.3245
 9194SOL    HW139044   2.970   0.896   3.340  0.3940  0.1236 -0.0691
 9194SOL    HW239045   2.980   0.793   3.229 -0.3419 -0.0488  0.6259
 9195SOL     OW39046   2.570   3.148   0.552  0.4788 -0.0126 -0.0807
 9195SOL    HW139047   2.504   3.083   0.574 -0.1062  1.5058  2.6616
 9195SOL    HW239048   2.609   3.110   0.473  0.3896 -1.7709  0.7364
 9196SOL     OW39049   1.173   3.406   6.000  0.2912  0.2202 -0.1706
 9196SOL    HW139050   1.079   3.402   6.016  0.0464  1.1799 -1.3814
 9196SOL    HW239051   1.213   3.433   6.083  1.6464 -1.5105 -0.2588
 9197SOL     OW39052   0.983   3.650   6.324 -0.5382  0.0449 -0.3881
 9197SOL    HW139053   0.950   3.708   6.256 -0.6478  1.0474  0.5122
 9197SOL    HW239054   0.947   3.700   6.397  2.8867  1.0844  0.6263
 9198SOL     OW39055   0.559   2.747   9.148 -0.2530 -0.0433  0.4614
 9198SOL    HW139056   0.601   2.788   9.224 -0.9158  2.0310 -0.2899
 9198SOL    HW239057   0.570   2.657   9.179 -0.7516 -0.6183 -1.0530
 9199SOL     OW39058   1.776   1.127  10.433  0.3374  0.3706 -0.6666
 9199SOL    HW139059   1.790   1.033  10.445 -2.5155  0.3392  2.2647
 9199SOL    HW239060   1.784   1.149  10.526 -1.5675  0.5375 -0.5513
 9200SOL     OW39061   1.474   1.166   3.272  0.0168 -0.8028  0.0046
 9200SOL    HW139062   1.480   1.258   3.248  0.5540 -0.1506  2.6966
 9200SOL    HW239063   1.499   1.121   3.191 -0.1782 -0.5785 -0.1803
 9201SOL     OW39064   3.070   2.129  10.795 -0.2236  0.5221  0.1076
 9201SOL    HW139065   3.056   2.054  10.737  0.1898  0.2348  0.3813
 9201SOL    HW239066   3.113   2.082  10.867 -1.5893  0.5949  0.9733
 9202SOL     OW39067   1.254   1.010   6.434  0.5493  0.6038  0.8302
 9202SOL    HW139068   1.223   0.921   6.452  1.9820  0.3070  1.9170
 9202SOL    HW239069   1.261   1.011   6.339 -0.2049  3.2043  0.7912
 9203SOL     OW39070   4.344   1.128   0.884  0.2181  0.3141 -0.1764
 9203SOL    HW139071   4.288   1.052   0.868  0.4650  0.5680 -2.2445
 9203SOL    HW239072   4.321   1.154   0.974 -1.9490 -2.4158  0.0595
 9204SOL     OW39073   3.256   2.207   6.392  0.2700 -0.1918  0.0923
 9204SOL    HW139074   3.320   2.139   6.410 -1.5330 -2.9696 -3.9691
 9204SOL    HW239075   3.227   2.184   6.304 -0.1951 -0.4844  0.3227
 9205SOL     OW39076   0.881   4.269  17.525 -0.5858 -0.1713 -0.2570
 9205SOL    HW139077   0.844   4.191  17.485 -0.3266 -1.1103  1.3424
 9205SOL    HW239078   0.942   4.238  17.592  0.4621  2.4386  0.0352
 9206SOL     OW39079   1.233   1.941   8.012 -0.1639 -0.2662  0.2431
 9206SOL    HW139080   1.262   1.853   8.036  0.5676 -0.4352 -1.2234
 9206SOL    HW239081   1.312   1.995   8.018 -0.5547  0.5154 -1.3786
 9207SOL     OW39082   2.912   4.123   6.843 -0.3062 -0.4777 -0.2491
 9207SOL    HW139083   2.853   4.080   6.782 -2.2379  1.2906  0.3511
 9207SOL    HW239084   2.992   4.075   6.823  0.8976  2.0287 -1.3852
 9208SOL     OW39085   4.449   4.146   6.366 -0.3833 -0.1359 -0.8206
 9208SOL    HW139086   4.499   4.065   6.360 -0.4021 -0.0972 -1.4212
 9208SOL    HW239087   4.515   4.210   6.394 -2.5399  1.2579  1.1006
 9209SOL     OW39088   4.328   3.310   6.715  0.5585  0.3645  0.0157
 9209SOL    HW139089   4.310   3.368   6.641  1.1609 -1.6174 -1.6881
 9209SOL    HW239090   4.361   3.376   6.776  1.2565 -0.3201  0.3822
 9210SOL     OW39091   0.297   1.479  14.302  0.1371  0.1444  0.0884
 9210SOL    HW139092   0.222   1.517  14.348 -0.4351 -3.2589  1.9799
 9210SOL    HW239093   0.253   1.486  14.217 -0.2661  2.5811  0.4889
 9211SOL     OW39094   0.024   2.378   8.089 -0.4245 -0.3064  0.1372
 9211SOL    HW139095   4.709   2.331   8.015 -2.2512  0.3549  0.6628
 9211SOL    HW239096   0.096   2.431   8.054 -1.3285  0.9468  0.2107
 9212SOL     OW39097   4.499   4.716  13.994  0.2561 -0.2372 -0.0378
 9212SOL    HW139098   4.469   4.627  14.012 -1.5323  0.2470 -0.7268
 9212SOL    HW239099   4.569   4.721  14.060  0.8489 -0.9455 -0.6021
 9213SOL     OW39100   2.823   3.115   7.958  0.1661 -0.6182  0.4704
 9213SOL    HW139101   2.869   3.036   7.988  1.7703 -0.1738 -0.8446
 9213SOL    HW239102   2.733   3.098   7.987 -0.3545  1.0139 -0.2145
 9214SOL     OW39103   3.874   3.142   8.871 -0.0644  0.2335 -0.2728
 9214SOL    HW139104   3.894   3.050   8.889  1.8587  0.8026  0.5018
 9214SOL    HW239105   3.783   3.152   8.899  0.1519 -0.4809  0.7169
 9215SOL     OW39106   2.766   1.091   6.120  0.1893  0.1790 -0.7900
 9215SOL    HW139107   2.748   1.033   6.046 -0.2899 -2.5901  1.4872
 9215SOL    HW239108   2.706   1.061   6.188 -0.0948 -0.6557 -1.4066
 9216SOL     OW39109   3.911   0.275   1.346  0.6153  0.1130 -0.7572
 9216SOL    HW139110   3.941   0.234   1.427 -1.0978 -0.8756 -0.6289
 9216SOL    HW239111   3.869   0.357   1.371 -0.0508 -0.6353  0.5553
 9217SOL     OW39112   2.273   1.167   2.910 -0.0528  0.9909  0.2694
 9217SOL    HW139113   2.337   1.102   2.940  0.1055  1.1294  0.2319
 9217SOL    HW239114   2.249   1.141   2.821  1.3770  1.3001 -0.2038
 9218SOL     OW39115   0.317   2.187   7.893  0.0149 -0.3358 -0.2562
 9218SOL    HW139116   0.348   2.113   7.840  0.1813  0.4350 -1.2469
 9218SOL    HW239117   0.228   2.159   7.912 -0.3592  1.1993  0.1826
 9219SOL     OW39118   2.166   1.789   4.570  0.0820 -0.3620 -0.7312
 9219SOL    HW139119   2.254   1.770   4.601 -0.3133 -0.1490  0.5303
 9219SOL    HW239120   2.162   1.780   4.475 -0.1928 -1.5630 -0.6072
 9220SOL     OW39121   2.520   4.280   3.127  0.1574  0.0378 -0.0446
 9220SOL    HW139122   2.477   4.233   3.198 -1.0695  1.6866  0.3016
 9220SOL    HW239123   2.465   4.248   3.056 -1.0593 -0.7458  1.2673
 9221SOL     OW39124   3.623   2.725  13.229  0.0628  0.0972 -0.7977
 9221SOL    HW139125   3.608   2.638  13.266  1.2905 -0.0287 -0.6092
 9221SOL    HW239126   3.569   2.715  13.151 -0.8638  2.0810 -0.4164
 9222SOL     OW39127   2.822   1.534  10.877  0.5884  0.3274 -0.0242
 9222SOL    HW139128   2.841   1.625  10.897 -0.6145  0.5156  0.2698
 9222SOL    HW239129   2.900   1.505  10.830 -1.0609  0.1162 -2.6495
 9223SOL     OW39130   2.705   2.886   2.223  0.1978 -0.4833  0.3854
 9223SOL    HW139131   2.759   2.830   2.167 -0.3159 -1.6044  1.0112
 9223SOL    HW239132   2.764   2.961   2.235 -0.5756  0.2902 -0.5789
 9224SOL     OW39133   4.066   1.498  15.848  0.1009  0.1197  0.0979
 9224SOL    HW139134   3.978   1.502  15.884 -0.1078  0.6728 -0.4782
 9224SOL    HW239135   4.092   1.590  15.837 -0.5972  0.1053 -1.5337
 9225SOL     OW39136   1.254   1.692   9.157 -0.1378  0.0579 -0.7548
 9225SOL    HW139137   1.235   1.616   9.213  0.3925  1.6201  1.5495
 9225SOL    HW239138   1.314   1.643   9.101 -0.0147 -1.4448  0.6649
 9226SOL     OW39139   2.179   1.950   5.167  0.6348  0.0023 -0.7038
 9226SOL    HW139140   2.111   1.961   5.101 -0.9407  0.5676  0.9997
 9226SOL    HW239141   2.257   1.927   5.117  0.9345  0.1632 -0.3081
 9227SOL     OW39142   4.524   3.709   8.579 -0.0330  0.3870 -0.0257
 9227SOL    HW139143   4.533   3.805   8.581  2.5495  0.1088  1.5220
 9227SOL    HW239144   4.542   3.696   8.672 -1.7222 -1.7399  0.0022
 9228SOL     OW39145   0.351   2.092   2.009 -0.1899 -0.1430 -0.5752
 9228SOL    HW139146   0.418   2.116   1.946 -0.6749 -1.1441 -1.4664
 9228SOL    HW239147   0.397   2.095   2.093  0.8139 -0.1258 -1.1368
 9229SOL     OW39148   0.700   0.962   7.494  0.3098  0.0872  0.7990
 9229SOL    HW139149   0.705   1.042   7.442 -0.2907 -0.0984  0.4441
 9229SOL    HW239150   0.784   0.963   7.539 -0.0012 -1.3723  1.4373
 9230SOL     OW39151   3.095   2.233  13.743  0.0255  0.2190  0.1095
 9230SOL    HW139152   3.064   2.150  13.707 -0.8986  1.2314 -1.4163
 9230SOL    HW239153   3.046   2.246  13.824  0.9063  0.5908  0.5795
 9231SOL     OW39154   1.220   2.290   7.134  0.1885 -0.9192  0.0698
 9231SOL    HW139155   1.242   2.376   7.169 -0.3779 -0.6278 -0.2973
 9231SOL    HW239156   1.124   2.286   7.131  0.3720 -4.4260 -1.7783
 9232SOL     OW39157   3.281   2.817   3.170  0.0589  0.5085 -0.2670
 9232SOL    HW139158   3.288   2.722   3.166  0.0814  0.4976  0.0466
 9232SOL    HW239159   3.320   2.844   3.087 -0.7894  1.8570 -0.2297
 9233SOL     OW39160   1.430   4.417   7.458 -0.0508  0.0156 -0.3394
 9233SOL    HW139161   1.493   4.375   7.518 -0.5738 -1.0483 -0.5268
 9233SOL    HW239162   1.473   4.469   7.391  1.2898 -1.5295 -0.6822
 9234SOL     OW39163   4.635   3.669   3.380 -0.2405  0.4542  0.7163
 9234SOL    HW139164   4.609   3.673   3.472 -1.3345 -1.2053  0.4849
 9234SOL    HW239165   4.699   3.598   3.381  0.5548  1.1052 -2.7204
 9235SOL     OW39166   4.506   2.915  15.000 -0.4548 -0.4643 -0.3449
 9235SOL    HW139167   4.438   2.860  15.039  0.0625  0.9192  2.4721
 9235SOL    HW239168   4.534   2.858  14.928 -1.9630 -0.3978 -0.9750
 9236SOL     OW39169   4.523   1.552   2.305 -0.0207 -0.1370 -0.0756
 9236SOL    HW139170   4.542   1.467   2.343  0.0211 -0.6238 -1.1721
 9236SOL    HW239171   4.430   1.532   2.294  0.0267 -0.0896 -0.5728
 9237SOL     OW39172   2.428   3.584   5.909  0.4925 -0.4094 -0.0226
 9237SOL    HW139173   2.387   3.508   5.951 -3.3324  0.8649 -1.4185
 9237SOL    HW239174   2.424   3.565   5.816  0.3373  0.1924 -0.1372
 9238SOL     OW39175   4.173   4.537   7.951 -0.0024 -0.0878  0.1370
 9238SOL    HW139176   4.156   4.579   7.867  0.0465 -0.4214 -0.0397
 9238SOL    HW239177   4.267   4.542   7.970 -0.4396  0.9270  2.0045
 9239SOL     OW39178   3.463   3.699  10.144 -0.2244  0.0473  0.1355
 9239SOL    HW139179   3.377   3.666  10.119  0.1898 -1.1694  0.3172
 9239SOL    HW239180   3.441   3.757  10.217  3.1669  0.7074  0.6490
 9240SOL     OW39181   1.724   4.374   8.981 -0.2801 -0.0932 -0.7232
 9240SOL    HW139182   1.693   4.446   9.036 -1.7954  0.8897 -2.8437
 9240SOL    HW239183   1.705   4.297   9.035 -0.0796  0.4444  0.1157
 9241SOL     OW39184   4.242   0.849   6.689  0.3008 -0.1385 -0.3585
 9241SOL    HW139185   4.193   0.930   6.704 -1.1451 -1.5522  2.5702
 9241SOL    HW239186   4.186   0.809   6.623  0.1742 -0.2926 -0.1554
 9242SOL     OW39187   4.401   4.021   4.573 -0.8827  0.0653 -0.4382
 9242SOL    HW139188   4.470   3.983   4.518 -0.6413  2.9679 -2.1063
 9242SOL    HW239189   4.444   4.007   4.658 -0.7548  1.5100 -0.2725
 9243SOL     OW39190   1.837   0.254   3.656 -0.8147 -0.6551 -0.6724
 9243SOL    HW139191   1.817   0.285   3.567  0.2064  1.1670 -0.2698
 9243SOL    HW239192   1.822   0.160   3.645  0.4708 -1.0203  0.7787
 9244SOL     OW39193   2.163   0.283   4.649  0.0418  0.2983 -0.2527
 9244SOL    HW139194   2.220   0.351   4.612  0.2332  0.7442  0.8638
 9244SOL    HW239195   2.224   0.248   4.714 -0.4077 -0.0676 -0.0259
 9245SOL     OW39196   2.826   3.802   8.083  0.3872  0.3986 -0.1142
 9245SOL    HW139197   2.782   3.803   8.168  0.6202  1.4312 -0.0053
 9245SOL    HW239198   2.896   3.738   8.095 -2.9059 -3.1962 -0.0772
 9246SOL     OW39199   1.866   2.673   8.840 -0.5119  0.0476  0.1156
 9246SOL    HW139200   1.811   2.630   8.905 -0.5787  1.9615  1.3298
 9246SOL    HW239201   1.808   2.713   8.775 -0.7185 -2.2925 -1.1442
 9247SOL     OW39202   0.350   4.664  15.600 -0.2390  1.0050  0.3978
 9247SOL    HW139203   0.413   4.662  15.673 -1.1761 -0.3933  1.1618
 9247SOL    HW239204   0.321   0.031  15.594  3.0455  2.0497 -0.0771
 9248SOL     OW39205   3.868   3.400   6.307  0.5806 -0.1262 -0.7138
 9248SOL    HW139206   3.847   3.307   6.299  0.9439 -0.1795 -1.0510
 9248SOL    HW239207   3.850   3.417   6.399 -0.9867  0.8776 -1.2040
 9249SOL     OW39208   1.994   1.510  11.375 -0.3774 -0.3849 -0.3594
 9249SOL    HW139209   1.969   1.599  11.399  0.0568 -0.3997  0.1373
 9249SOL    HW239210   2.052   1.486  11.448  1.2044 -0.3543 -1.6218
 9250SOL     OW39211   0.504   4.217   3.400 -0.0481  0.0151 -0.0518
 9250SOL    HW139212   0.420   4.198   3.358  1.3659 -2.0977 -1.9119
 9250SOL    HW239213   0.473   4.188   3.486  2.0622 -1.9118  0.0719
 9251SOL     OW39214   2.368   0.627   6.100 -1.1488 -0.5207 -0.3064
 9251SOL    HW139215   2.276   0.625   6.075 -0.2352  1.4671 -3.7407
 9251SOL    HW239216   2.356   0.705   6.154  1.6310 -0.3483  0.0838
 9252SOL     OW39217   0.241   0.312  17.044  0.0914 -0.0365 -0.0483
 9252SOL    HW139218   0.168   0.328  17.106  0.1977  3.9406 -0.9162
 9252SOL    HW239219   0.292   0.389  17.068  0.1433  0.0885 -0.5609
 9253SOL     OW39220   3.254   1.109  14.464 -0.1127 -0.1156  0.9304
 9253SOL    HW139221   3.270   1.054  14.540 -1.3858 -0.5231  0.9003
 9253SOL    HW239222   3.341   1.116  14.426  0.4663 -0.2380  2.2244
 9254SOL     OW39223   3.956   2.571   7.600  0.0665  0.3262 -0.0102
 9254SOL    HW139224   3.972   2.636   7.532  1.5185  0.0731  0.0934
 9254SOL    HW239225   3.930   2.629   7.672  1.7865  1.9742 -0.7245
 9255SOL     OW39226   3.726   4.495   7.090 -0.2046  0.0393  0.1789
 9255SOL    HW139227   3.768   4.414   7.060  0.6003  0.7515 -0.5782
 9255SOL    HW239228   3.709   4.539   7.007 -0.9247  1.7156  1.2179
 9256SOL     OW39229   0.211   0.504   2.819 -0.1986 -0.0386 -0.3624
 9256SOL    HW139230   0.204   0.410   2.804  0.4970  0.3296 -3.1232
 9256SOL    HW239231   0.295   0.516   2.775  0.5435  0.4243  1.1801
 9257SOL     OW39232   2.495   1.460  11.342 -0.4426 -0.0504 -0.3767
 9257SOL    HW139233   2.548   1.524  11.389 -0.8987  0.9585 -1.2275
 9257SOL    HW239234   2.494   1.498  11.254 -0.8771  1.1851  0.1656
 9258SOL     OW39235   2.113   2.314   6.397  0.1013 -0.2033  0.5145
 9258SOL    HW139236   2.205   2.289   6.394 -0.1481 -1.0437 -0.1408
 9258SOL    HW239237   2.119   2.380   6.328 -0.3114 -1.4390 -0.7032
 9259SOL     OW39238   2.287   2.023  10.325  0.1558  0.0846 -0.0331
 9259SOL    HW139239   2.316   1.937  10.355  0.9596 -0.0323 -1.1509
 9259SOL    HW239240   2.194   2.024  10.344  0.1831 -0.4192  0.1333
 9260SOL     OW39241   0.021   4.450   5.689  0.3775 -0.3717  0.4554
 9260SOL    HW139242   4.659   4.412   5.711 -0.2543  0.4763 -0.5061
 9260SOL    HW239243   0.049   4.384   5.626  1.9581 -1.6207  2.4755
 9261SOL     OW39244   2.917   1.946   4.034  0.5429  0.4340  0.1596
 9261SOL    HW139245   2.908   1.873   4.095 -1.3549  1.1388  0.7126
 9261SOL    HW239246   2.901   2.024   4.088 -0.4275 -0.8297  1.6985
 9262SOL     OW39247   1.584   0.012  12.481 -0.1121  0.4401 -0.9275
 9262SOL    HW139248   1.592   0.105  12.501 -1.2028  0.3223  0.0118
 9262SOL    HW239249   1.515   0.009  12.414 -1.9164 -0.2725  0.9747
 9263SOL     OW39250   0.054   3.048  15.025 -0.3350  0.2402 -0.3011
 9263SOL    HW139251   0.117   3.110  15.062 -1.3528  1.1165 -0.0143
 9263SOL    HW239252   4.713   3.105  14.982 -0.0567  1.1993  0.5536
 9264SOL     OW39253   2.105   1.121   4.270  0.4229 -0.4569  0.1603
 9264SOL    HW139254   2.155   1.169   4.205  1.6023 -0.7841  0.8314
 9264SOL    HW239255   2.022   1.111   4.223  0.6354  0.9629 -0.5367
 9265SOL     OW39256   0.238   2.010   1.066 -0.7275  0.3128  0.5008
 9265SOL    HW139257   0.241   2.046   1.155 -1.9736 -0.7466  0.9841
 9265SOL    HW239258   0.147   1.979   1.062 -0.4691 -0.1628 -1.6407
 9266SOL     OW39259   3.970   3.126   8.617 -0.0102  0.4065 -0.5697
 9266SOL    HW139260   4.052   3.097   8.657 -0.9107  0.3914  1.2586
 9266SOL    HW239261   3.917   3.129   8.696  0.3923  1.4972 -0.3337
 9267SOL     OW39262   2.262   2.660  15.040  0.2429  0.1058  0.1873
 9267SOL    HW139263   2.324   2.698  14.978  0.3429 -0.2476  0.0645
 9267SOL    HW239264   2.251   2.730  15.103 -0.1045  0.7233 -0.5555
 9268SOL     OW39265   1.713   1.967   7.298 -0.0550  0.3208  0.0704
 9268SOL    HW139266   1.722   1.955   7.203 -0.5974 -0.7050  0.1568
 9268SOL    HW239267   1.714   1.876   7.326 -2.2677 -0.2285 -1.6821
 9269SOL     OW39268   1.564   1.427  11.949  0.2631 -0.8929  0.2897
 9269SOL    HW139269   1.616   1.348  11.936  2.7532  0.8440 -0.3319
 9269SOL    HW239270   1.577   1.471  11.866  1.2726 -1.3763  0.1930
 9270SOL     OW39271   4.360   1.572   7.985  0.1543 -0.2370 -0.0694
 9270SOL    HW139272   4.431   1.568   8.049  1.6250 -0.9359 -1.7546
 9270SOL    HW239273   4.372   1.651   7.933  1.4933 -0.9647 -0.8567
 9271SOL     OW39274   0.208   2.107  10.946 -0.1426 -0.6370 -0.3991
 9271SOL    HW139275   0.148   2.050  10.994 -2.3827  1.4854 -0.6781
 9271SOL    HW239276   0.289   2.069  10.978 -0.3320 -1.1762 -0.5589
 9272SOL     OW39277   3.821   0.779   4.249 -0.1997 -0.1493 -0.2222
 9272SOL    HW139278   3.789   0.745   4.332 -0.7669  2.4459  0.6390
 9272SOL    HW239279   3.914   0.758   4.254  0.0966  0.9637 -1.0699
 9273SOL     OW39280   3.662   4.010   1.594 -0.6639 -0.0859 -0.0476
 9273SOL    HW139281   3.741   4.014   1.539  0.0141 -2.3891  0.7641
 9273SOL    HW239282   3.656   4.103   1.617  0.2054 -0.6798  2.5304
 9274SOL     OW39283   1.800   0.550  10.240 -0.3074  0.5142 -0.7586
 9274SOL    HW139284   1.756   0.466  10.230 -0.5183  0.6265 -0.7835
 9274SOL    HW239285   1.869   0.531  10.303 -2.4652 -2.3204  0.7378
 9275SOL     OW39286   0.901   2.033   8.583  0.2806 -0.0608  0.2036
 9275SOL    HW139287   0.836   1.965   8.566  1.4321 -1.3330  0.8963
 9275SOL    HW239288   0.944   2.007   8.665  1.5990  2.7713  0.3977
 9276SOL     OW39289   3.798   2.705  10.029  0.2832  0.0504 -0.2425
 9276SOL    HW139290   3.858   2.643   9.986 -0.1522  0.9550 -2.1359
 9276SOL    HW239291   3.719   2.652  10.040 -0.1571  0.5047 -1.1760
 9277SOL     OW39292   1.360   2.916   5.557 -0.4306  0.5894  0.2874
 9277SOL    HW139293   1.438   2.921   5.612  0.5827  1.4359 -1.2291
 9277SOL    HW239294   1.381   2.852   5.490  2.6128  0.6890  1.1646
 9278SOL     OW39295   4.124   1.103   6.708  0.3141 -0.1500  0.2025
 9278SOL    HW139296   4.183   1.174   6.684  1.2636 -0.7561  0.7519
 9278SOL    HW239297   4.036   1.140   6.702  0.0485 -0.7872  0.2082
 9279SOL     OW39298   2.063   1.192   6.622  0.3988  0.0357  0.3829
 9279SOL    HW139299   2.061   1.098   6.600  0.0096  0.3629 -0.9617
 9279SOL    HW239300   2.130   1.233   6.568  0.3784 -1.1029 -0.5183
 9280SOL     OW39301   4.693   0.285   9.722 -0.6769 -0.0108  0.0861
 9280SOL    HW139302   0.003   0.345   9.656  0.9577  0.8151  1.6957
 9280SOL    HW239303   0.050   0.256   9.765  0.0764  4.6811  1.8009
 9281SOL     OW39304   2.272   1.055  17.554 -0.5066  0.1814 -0.2091
 9281SOL    HW139305   2.337   1.001  17.599  0.4356  1.5250  0.0471
 9281SOL    HW239306   2.212   0.981  17.541  0.1901 -0.0060 -2.4693
 9282SOL     OW39307   4.188   0.624   1.830  0.1063 -0.5165 -0.1216
 9282SOL    HW139308   4.101   0.587   1.814  0.9838 -2.7081  0.1597
 9282SOL    HW239309   4.199   0.681   1.754  0.4484  0.8980  0.9847
 9283SOL     OW39310   0.054   3.964   1.868  0.0746 -0.1255  0.0831
 9283SOL    HW139311   0.003   3.901   1.816  3.8033  0.2439 -4.0184
 9283SOL    HW239312   0.056   4.035   1.804  1.1397 -0.3228 -0.1080
 9284SOL     OW39313   0.729   4.121   8.006  0.2881  0.6315  0.4571
 9284SOL    HW139314   0.731   4.158   7.918  1.3634 -0.3334  0.0749
 9284SOL    HW239315   0.818   4.089   8.020  0.1315  0.7235  1.7147
 9285SOL     OW39316   3.773   0.383   6.322  0.0521  0.1084 -0.6387
 9285SOL    HW139317   3.687   0.346   6.304  0.5755 -0.0443 -2.8248
 9285SOL    HW239318   3.745   0.474   6.332 -1.4430 -0.5776  1.2994
 9286SOL     OW39319   0.225   2.709   5.377 -0.0332 -0.0083 -0.5887
 9286SOL    HW139320   0.247   2.777   5.313 -0.6306  1.6582  0.9889
 9286SOL    HW239321   0.145   2.685   5.329  0.7716  0.6088 -2.2414
 9287SOL     OW39322   0.617   4.299  17.371 -0.0086 -0.2154  0.1465
 9287SOL    HW139323   0.527   4.285  17.342 -0.9422  2.9784  1.4373
 9287SOL    HW239324   0.621   4.241  17.446 -2.1888 -1.3454 -0.6158
 9288SOL     OW39325   1.219   3.421   3.662 -0.0561  0.2507 -0.3536
 9288SOL    HW139326   1.233   3.369   3.583  0.3893 -1.1196  0.6167
 9288SOL    HW239327   1.124   3.410   3.671  0.1935 -0.2845  1.5299
 9289SOL     OW39328   1.927   1.142  11.039  0.0531 -0.6646 -0.5795
 9289SOL    HW139329   1.875   1.088  10.979  1.6902 -2.8643 -0.0058
 9289SOL    HW239330   1.860   1.208  11.057  2.4353  1.5457  0.2444
 9290SOL     OW39331   1.523   2.760   9.063 -0.3055  0.3173  0.3739
 9290SOL    HW139332   1.475   2.826   9.013 -2.3137 -0.4087  1.3276
 9290SOL    HW239333   1.566   2.806   9.135 -1.2301  0.6568  0.7177
 9291SOL     OW39334   1.970   0.472  12.843  0.1180 -0.0823  0.3434
 9291SOL    HW139335   2.007   0.388  12.817  1.7311  0.5557  0.5853
 9291SOL    HW239336   1.995   0.534  12.775  0.2767 -0.8457 -0.2876
 9292SOL     OW39337   0.180   1.052   6.497 -0.2910 -0.4561 -0.5475
 9292SOL    HW139338   0.200   1.033   6.406  1.9034  0.7996 -0.3253
 9292SOL    HW239339   0.142   1.136   6.472  0.7679  0.7577  1.9549
 9293SOL     OW39340   4.219   4.316  13.509 -0.0768 -0.2756 -0.0473
 9293SOL    HW139341   4.190   4.327  13.600  0.8505  0.4361  0.1667
 9293SOL    HW239342   4.213   4.221  13.499 -0.9045 -0.1279 -0.9012
 9294SOL     OW39343   3.034   2.029  15.262  0.2222 -0.3048 -0.6622
 9294SOL    HW139344   2.998   2.082  15.333 -0.2160 -0.9015 -0.4335
 9294SOL    HW239345   2.946   1.995  15.242 -0.4018  0.4171  0.8631
 9295SOL     OW39346   2.925   1.287   2.408 -0.3314 -0.2697  0.2219
 9295SOL    HW139347   2.896   1.196   2.409  1.5235 -0.8858 -1.8553
 9295SOL    HW239348   2.992   1.277   2.475  0.4059 -0.9875 -0.6206
 9296SOL     OW39349   0.110   1.337   7.762 -0.2470 -0.8322  0.3732
 9296SOL    HW139350   0.085   1.251   7.727  1.1456 -0.8938 -0.4467
 9296SOL    HW239351   0.199   1.329   7.728 -0.5391  2.6006 -1.1505
 9297SOL     OW39352   1.693   1.271   7.840 -0.4401 -0.0258  0.2139
 9297SOL    HW139353   1.776   1.224   7.842  0.3252  1.2736 -1.0298
 9297SOL    HW239354   1.631   1.202   7.865 -0.2478 -0.8995 -1.7275
 9298SOL     OW39355   0.543   1.669   4.365 -0.3751  0.4238  0.0490
 9298SOL    HW139356   0.629   1.704   4.345  1.3618 -3.1731  1.2090
 9298SOL    HW239357   0.499   1.752   4.386 -0.9955 -0.2107  1.2495
 9299SOL     OW39358   4.624   1.351   7.505  0.3116 -0.2924 -0.0032
 9299SOL    HW139359   4.628   1.273   7.561 -2.2375 -0.3893  0.0407
 9299SOL    HW239360   4.714   1.351   7.472  0.0632 -1.5715 -0.6757
 9300SOL     OW39361   0.964   1.659   3.517  0.3450  0.6581 -0.3989
 9300SOL    HW139362   1.042   1.670   3.570  0.4837  1.0566 -0.6834
 9300SOL    HW239363   0.904   1.728   3.545 -2.3513 -1.8387 -0.0934
 9301SOL     OW39364   0.194   1.480  13.008 -0.6152  0.0929  0.0538
 9301SOL    HW139365   0.230   1.491  12.920  2.3376  2.4654  1.5851
 9301SOL    HW239366   0.248   1.401  13.018  2.8271  2.4792 -0.0871
 9302SOL     OW39367   0.356   1.433  12.784 -0.1497 -0.8598  0.4924
 9302SOL    HW139368   0.360   1.493  12.710 -1.9718 -0.9596  0.3151
 9302SOL    HW239369   0.432   1.379  12.764 -0.0218 -0.0391 -1.2013
 9303SOL     OW39370   3.936   1.655   6.321  0.0587 -0.3821  0.4968
 9303SOL    HW139371   4.002   1.616   6.378  1.2100  0.2396 -0.4188
 9303SOL    HW239372   3.983   1.736   6.301  2.6368 -1.6799  1.3112
 9304SOL     OW39373   0.283   3.851   7.016 -0.5392  0.0719 -0.7177
 9304SOL    HW139374   0.211   3.877   6.958  0.5762  0.3164 -1.9911
 9304SOL    HW239375   0.292   3.762   6.983  3.1168  0.9546 -2.1510
 9305SOL     OW39376   4.226   0.683   4.627 -0.0529 -0.2909 -0.0973
 9305SOL    HW139377   4.190   0.763   4.666 -3.0632 -1.6573 -0.1347
 9305SOL    HW239378   4.155   0.623   4.649  0.1935 -0.5733 -0.0693
 9306SOL     OW39379   3.692   0.904  13.430  0.5001 -0.2636  0.7830
 9306SOL    HW139380   3.700   0.858  13.514  0.1128 -2.7319 -0.5518
 9306SOL    HW239381   3.717   0.995  13.445 -0.4271 -0.1648  1.7679
 9307SOL     OW39382   4.645   0.676  14.557  0.2378  0.0198 -0.1909
 9307SOL    HW139383   4.618   0.631  14.637  0.4823  0.1153 -0.0546
 9307SOL    HW239384   4.706   0.743  14.589 -0.2092  0.5029 -0.3480
 9308SOL     OW39385   0.374   3.442   8.766 -0.1994 -0.6584 -0.4762
 9308SOL    HW139386   0.315   3.376   8.730 -0.7802  0.8491 -2.3563
 9308SOL    HW239387   0.314   3.505   8.807 -0.3644 -0.6242 -0.7683
 9309SOL     OW39388   0.741   2.951   8.100 -0.2687  0.4462 -0.4046
 9309SOL    HW139389   0.755   2.897   8.178 -0.1839  1.7105  0.4528
 9309SOL    HW239390   0.730   2.881   8.035  2.4778  0.0882 -0.4768
 9310SOL     OW39391   1.496   2.400   0.188  0.5066  0.4041  0.0173
 9310SOL    HW139392   1.538   2.458   0.124  0.8356 -0.6974 -0.7585
 9310SOL    HW239393   1.509   2.320   0.138 -0.4394  0.7247 -0.7315
 9311SOL     OW39394   4.620   1.824   8.242 -0.0917 -0.8125 -0.0593
 9311SOL    HW139395   4.528   1.846   8.235 -0.0963 -0.3207  1.5753
 9311SOL    HW239396   4.633   1.824   8.337 -0.1190  1.5667 -0.0495
 9312SOL     OW39397   1.842   0.894   2.026 -0.0898 -0.0616 -0.3805
 9312SOL    HW139398   1.844   0.924   1.936  1.4083  0.0213 -0.3261
 9312SOL    HW239399   1.759   0.928   2.059  0.5482 -0.0452  1.2140
 9313SOL     OW39400   0.167   4.256  15.558  0.3938  0.6374 -0.3944
 9313SOL    HW139401   0.237   4.304  15.514 -0.1848  2.0456  0.2344
 9313SOL    HW239402   0.089   4.291  15.515 -0.8452 -2.3149 -0.5677
 9314SOL     OW39403   2.905   1.729   8.802 -0.7561  0.1101 -0.1778
 9314SOL    HW139404   2.840   1.665   8.774  0.5733 -0.6892 -1.4597
 9314SOL    HW239405   2.929   1.705   8.891  0.5492  0.0265 -0.5498
 9315SOL     OW39406   3.708   3.935   2.849 -0.4886 -0.4504 -0.4836
 9315SOL    HW139407   3.684   3.944   2.756 -1.4847 -0.5444 -0.2335
 9315SOL    HW239408   3.698   3.841   2.860  0.4114 -0.3903  0.7535
 9316SOL     OW39409   2.623   2.861   6.350 -0.8253  0.3960  0.5484
 9316SOL    HW139410   2.603   2.889   6.439  0.7853 -1.0544  1.3812
 9316SOL    HW239411   2.640   2.768   6.369  0.3327  0.2882 -1.0055
 9317SOL     OW39412   4.337   1.532  16.079 -0.6048  0.3572  0.0263
 9317SOL    HW139413   4.375   1.583  16.150 -2.6718 -0.7154  1.9060
 9317SOL    HW239414   4.304   1.454  16.124  0.1210 -0.9028 -1.6263
 9318SOL     OW39415   1.804   1.047   5.402  0.1029  0.1804 -0.1147
 9318SOL    HW139416   1.726   1.074   5.451 -0.7804  0.8812 -1.9089
 9318SOL    HW239417   1.857   1.124   5.424  0.5676  0.0717 -0.8458
 9319SOL     OW39418   4.008   1.510  17.241 -0.0579  0.5258 -0.3073
 9319SOL    HW139419   3.936   1.569  17.264  1.1877  1.5915  0.8875
 9319SOL    HW239420   4.034   1.490  17.331 -2.1693  1.0652  0.4370
 9320SOL     OW39421   0.250   0.556  14.677  0.1004 -0.5122  0.4304
 9320SOL    HW139422   0.318   0.616  14.646 -1.3214  1.2090  0.6373
 9320SOL    HW239423   0.205   0.515  14.603 -0.0681 -2.1759  1.4657
 9321SOL     OW39424   0.669   3.853  11.312 -0.0201  0.4938 -0.5564
 9321SOL    HW139425   0.685   3.946  11.328 -1.0260  0.6745 -0.5940
 9321SOL    HW239426   0.747   3.833  11.261  0.0131 -2.8022  0.7845
 9322SOL     OW39427   1.618   2.052   1.159  0.0633  0.0393  0.7634
 9322SOL    HW139428   1.526   2.072   1.176 -0.4708 -0.0805 -2.0204
 9322SOL    HW239429   1.621   1.977   1.218 -1.2845 -1.8526 -1.5693
 9323SOL     OW39430   2.999   0.193   9.877  0.1093  0.4205 -0.5837
 9323SOL    HW139431   3.073   0.219   9.932 -0.0382 -2.7843  1.1612
 9323SOL    HW239432   2.943   0.267   9.900 -0.1466  0.2290 -0.5937
 9324SOL     OW39433   0.406   3.762   5.383  0.2018  0.4700 -0.3467
 9324SOL    HW139434   0.377   3.678   5.419  0.2537  0.7288  0.2987
 9324SOL    HW239435   0.475   3.781   5.446 -1.3903 -0.9392  1.8542
 9325SOL     OW39436   2.367   2.997   7.305 -0.6054  1.2670  0.7970
 9325SOL    HW139437   2.417   3.049   7.242  0.0129 -1.2669 -0.8054
 9325SOL    HW239438   2.274   3.016   7.291 -0.8830 -1.0222 -0.4755
 9326SOL     OW39439   3.826   3.268  12.987  0.1374 -0.0213  0.2480
 9326SOL    HW139440   3.877   3.259  12.906  1.3086  1.9816  0.7822
 9326SOL    HW239441   3.768   3.338  12.956  1.3725  1.3794  1.0987
 9327SOL     OW39442   0.595   2.543   4.741 -0.5220  0.5680  0.0029
 9327SOL    HW139443   0.517   2.499   4.775 -1.5158  0.8856 -1.8460
 9327SOL    HW239444   0.568   2.577   4.655  1.0396  0.9402 -0.3420
 9328SOL     OW39445   0.170   0.996  17.460  0.0837 -0.1958  0.3062
 9328SOL    HW139446   0.200   1.072  17.509  1.6408  0.2578 -1.3306
 9328SOL    HW239447   0.259   0.979  17.426  0.3259 -0.0848  0.8895
 9329SOL     OW39448   1.396   1.898  10.429 -0.2960 -0.6146  0.1990
 9329SOL    HW139449   1.384   1.807  10.459 -0.8301 -0.3191  0.8812
 9329SOL    HW239450   1.408   1.890  10.334 -2.1368 -0.4847 -0.0503
 9330SOL     OW39451   2.971   4.259   3.532  0.4385  0.4290 -0.4682
 9330SOL    HW139452   2.979   4.345   3.492  0.3625  1.5514  1.9555
 9330SOL    HW239453   2.971   4.287   3.624  2.4422  0.0958 -0.3722
 9331SOL     OW39454   4.267   2.975   8.334  0.2241 -0.2058 -0.5539
 9331SOL    HW139455   4.215   2.900   8.306 -1.4245 -0.4155  3.0104
 9331SOL    HW239456   4.340   2.935   8.382  1.8567  2.1530 -1.0911
 9332SOL     OW39457   4.090   0.422  10.020 -0.1289 -0.3216 -0.6687
 9332SOL    HW139458   4.098   0.456   9.931  0.2123 -0.5571 -0.7261
 9332SOL    HW239459   4.143   0.346  10.000  0.2357 -0.6657  1.5836
 9333SOL     OW39460   0.451   1.823   1.978  0.0191  0.0885  0.0663
 9333SOL    HW139461   0.472   1.782   2.061 -0.7922  0.4965  0.4728
 9333SOL    HW239462   0.390   1.895   1.997  0.8841  0.3577  1.7897
 9334SOL     OW39463   0.916   2.472   3.738 -0.0717 -0.1399  0.2000
 9334SOL    HW139464   1.011   2.463   3.744  0.0085  0.9608  0.6104
 9334SOL    HW239465   0.899   2.414   3.664  1.5425 -2.1970  1.4350
 9335SOL     OW39466   4.552   0.511   3.613 -0.0019  0.1883 -0.2362
 9335SOL    HW139467   4.639   0.545   3.636  0.3957 -1.2963  0.4447
 9335SOL    HW239468   4.504   0.582   3.655 -0.3023 -0.4225  0.4397
 9336SOL     OW39469   4.483   0.068   9.932 -0.2478  0.0799  0.1319
 9336SOL    HW139470   4.562   0.097   9.887 -0.4767 -1.0938 -1.0219
 9336SOL    HW239471   4.510   0.017  10.008 -3.2457 -0.3153  0.9323
 9337SOL     OW39472   3.693   2.147   4.829  0.0465  0.0462 -0.1353
 9337SOL    HW139473   3.787   2.133   4.828  0.0223 -0.1964  3.7608
 9337SOL    HW239474   3.664   2.068   4.783  1.5923 -2.7745  3.8015
 9338SOL     OW39475   3.204   1.040   6.993  0.0526 -0.1390  0.0367
 9338SOL    HW139476   3.145   0.972   7.023 -0.0238 -0.4865 -0.9215
 9338SOL    HW239477   3.247   1.074   7.072 -0.1218 -0.2005  0.1574
 9339SOL     OW39478   1.464   2.208   2.412  0.2832  0.1796  0.1453
 9339SOL    HW139479   1.371   2.190   2.424  1.0386 -3.3212  0.7861
 9339SOL    HW239480   1.498   2.147   2.478 -1.2824 -1.7736 -0.8334
 9340SOL     OW39481   4.422   2.609  13.770  0.1171  0.2445  0.2912
 9340SOL    HW139482   4.351   2.626  13.832 -1.7055 -0.7727 -1.5472
 9340SOL    HW239483   4.492   2.590  13.832 -1.0816 -1.6356  1.0719
 9341SOL     OW39484   1.521   2.766   5.807 -0.2672 -0.4781 -0.4693
 9341SOL    HW139485   1.541   2.855   5.776  0.4795 -0.9480 -1.3543
 9341SOL    HW239486   1.570   2.761   5.889  0.4478 -2.1245 -1.0083
 9342SOL     OW39487   3.253   3.632   4.521  0.3398  0.3777 -0.0360
 9342SOL    HW139488   3.305   3.691   4.466  0.5098  0.7700  0.5435
 9342SOL    HW239489   3.267   3.550   4.474  0.2001  0.3939 -0.1069
 9343SOL     OW39490   2.053   3.493   9.055  0.4515 -0.0833  0.0656
 9343SOL    HW139491   1.990   3.537   9.112  1.4919  2.5117 -0.7940
 9343SOL    HW239492   2.142   3.519   9.081 -0.0595  2.6267 -0.8970
 9344SOL     OW39493   3.469   4.596   2.008 -0.2753 -0.4408  0.2373
 9344SOL    HW139494   3.379   4.573   1.986 -0.7548  0.5698  1.1422
 9344SOL    HW239495   3.456   4.686   2.038  0.4672 -0.0436 -0.6121
 9345SOL     OW39496   0.799   2.878   9.720  0.2410  0.4093 -0.5080
 9345SOL    HW139497   0.864   2.810   9.700 -0.6308 -0.7100  0.4650
 9345SOL    HW239498   0.742   2.833   9.783  0.1781  1.9107  0.4994
 9346SOL     OW39499   1.412   4.626   8.549  0.0977  0.1261 -0.0517
 9346SOL    HW139500   1.379   4.538   8.570  0.3972 -0.1101 -0.5588
 9346SOL    HW239501   1.435   4.611   8.457  1.4124 -1.6243  0.5533
 9347SOL     OW39502   2.471   0.093  10.827  0.1582 -0.3924 -0.4889
 9347SOL    HW139503   2.459   0.104  10.921  0.4185 -1.8085 -0.2928
 9347SOL    HW239504   2.386   0.058  10.801 -1.1047  1.4694  1.1743
 9348SOL     OW39505   1.956   0.051   8.656  0.0543  0.7199 -0.4548
 9348SOL    HW139506   1.983   0.142   8.644  0.8232  0.5708  0.2097
 9348SOL    HW239507   2.026   4.716   8.684  0.4582  1.8290  0.8357
 9349SOL     OW39508   4.575   3.423   1.625 -0.3665  0.6856 -0.1608
 9349SOL    HW139509   4.551   3.335   1.595 -0.9632  1.1517 -1.0481
 9349SOL    HW239510   4.669   3.409   1.613 -0.5906 -0.8236 -0.1984
 9350SOL     OW39511   3.452   1.883   7.135 -0.2810  0.1156 -0.1350
 9350SOL    HW139512   3.446   1.956   7.197 -1.6919 -0.6168  0.6109
 9350SOL    HW239513   3.531   1.852   7.178 -1.7871 -0.8545  1.9544
 9351SOL     OW39514   1.821   0.955   9.558 -0.2985  0.3057  0.4013
 9351SOL    HW139515   1.834   0.894   9.631  0.1202  0.0773  0.1368
 9351SOL    HW239516   1.791   1.032   9.606  0.6237 -0.7163  2.6284
 9352SOL     OW39517   0.232   1.428   5.143 -0.0836 -0.4468  0.9215
 9352SOL    HW139518   0.143   1.437   5.108 -0.4472 -2.0971  1.3859
 9352SOL    HW239519   0.219   1.361   5.210  0.6908 -0.1934  1.3198
 9353SOL     OW39520   1.775   0.441  13.002 -0.1024 -0.5367  0.2299
 9353SOL    HW139521   1.746   0.525  12.967 -0.6202 -0.2598  1.3311
 9353SOL    HW239522   1.862   0.424  12.964 -1.2838 -0.7552 -2.4146
 9354SOL     OW39523   3.608   0.131   3.785  0.5944  0.2017  0.0209
 9354SOL    HW139524   3.592   0.189   3.860 -0.2472  1.0395 -0.8155
 9354SOL    HW239525   3.672   0.170   3.726  0.7353 -0.5123 -0.2957
 9355SOL     OW39526   4.564   1.498  15.903  0.1901 -0.8075  0.1170
 9355SOL    HW139527   4.626   1.507  15.975  2.5405 -0.9687 -1.8853
 9355SOL    HW239528   4.487   1.488  15.959  0.3068  0.2720  0.4681
 9356SOL     OW39529   1.079   2.236   7.935 -0.3087  0.7710  0.2629
 9356SOL    HW139530   1.008   2.276   7.884  0.1423  1.4124  0.1376
 9356SOL    HW239531   1.131   2.195   7.866 -1.3310  1.1488 -0.7359
 9357SOL     OW39532   3.330   0.192  14.567 -0.5336  0.5263  1.0487
 9357SOL    HW139533   3.417   0.203  14.531 -1.0251 -0.4646 -0.4237
 9357SOL    HW239534   3.343   0.121  14.631  0.5764  1.1842  1.5580
 9358SOL     OW39535   3.661   3.654  15.244 -0.6634  0.0285  0.3473
 9358SOL    HW139536   3.628   3.737  15.278 -0.3672 -0.1676  1.1000
 9358SOL    HW239537   3.632   3.654  15.152  0.0724 -0.8583  0.1196
 9359SOL     OW39538   1.759   1.781   4.109  0.0332 -0.2217  0.2657
 9359SOL    HW139539   1.695   1.755   4.176 -2.0622  2.1825 -0.7998
 9359SOL    HW239540   1.828   1.806   4.171  0.3203  1.1454 -0.6076
 9360SOL     OW39541   2.791   1.027   4.788  0.3140 -0.1515 -0.4557
 9360SOL    HW139542   2.699   1.041   4.811  0.2282 -3.1356  1.0605
 9360SOL    HW239543   2.792   0.952   4.727 -0.2704 -0.7312  0.2445
 9361SOL     OW39544   4.330   1.451   9.530  0.6128 -0.2576 -0.2910
 9361SOL    HW139545   4.263   1.493   9.476 -0.2653  0.7123  1.5336
 9361SOL    HW239546   4.305   1.363   9.504  0.4030 -0.3412  0.1890
 9362SOL     OW39547   2.118   2.854  11.569  0.3703  0.2379  0.4956
 9362SOL    HW139548   2.096   2.821  11.656 -2.3542 -0.1763 -0.3232
 9362SOL    HW239549   2.106   2.948  11.561  0.9718  0.3019  0.3856
 9363SOL     OW39550   3.617   3.663  12.442 -0.4558 -0.6553 -0.0890
 9363SOL    HW139551   3.538   3.637  12.395 -0.4716 -2.5423  0.9897
 9363SOL    HW239552   3.588   3.664  12.533 -1.2182 -2.2944 -0.2990
 9364SOL     OW39553   1.933   3.149   1.387  0.4723  0.4727  0.3913
 9364SOL    HW139554   1.924   3.230   1.336 -2.3347 -1.1026 -1.6451
 9364SOL    HW239555   1.870   3.161   1.458 -0.3192  1.2375 -0.4386
 9365SOL     OW39556   4.043   0.928   8.254  0.5645  0.5810  0.6402
 9365SOL    HW139557   3.994   0.948   8.333  0.6097  1.8661  0.3296
 9365SOL    HW239558   4.127   0.975   8.258  0.4037  0.9619 -0.5937
 9366SOL     OW39559   2.299   1.174   3.457 -0.0416 -0.1776  0.1286
 9366SOL    HW139560   2.363   1.167   3.528 -1.7089 -0.1239  1.6513
 9366SOL    HW239561   2.319   1.263   3.431  1.7098 -1.3726 -2.6174
 9367SOL     OW39562   2.822   0.882   8.937  0.1723  0.3663 -0.6257
 9367SOL    HW139563   2.886   0.854   8.872  1.5852  2.2922 -0.0484
 9367SOL    HW239564   2.876   0.885   9.016 -1.0859 -2.0915  0.3387
 9368SOL     OW39565   1.264   2.156   1.862  0.2625 -0.0420 -0.2862
 9368SOL    HW139566   1.271   2.062   1.873 -0.8747  0.0876  1.5099
 9368SOL    HW239567   1.278   2.190   1.950 -0.3920  0.2913 -0.3053
 9369SOL     OW39568   3.647   0.262   4.915 -0.2388  0.4877 -0.0639
 9369SOL    HW139569   3.664   0.190   4.854 -1.1343 -1.9802  2.5981
 9369SOL    HW239570   3.626   0.335   4.857 -0.0107  1.2774  0.8614
 9370SOL     OW39571   0.725   2.984  14.036 -0.3752 -0.0127 -0.4878
 9370SOL    HW139572   0.658   3.038  14.077 -0.6126 -0.5286 -0.1971
 9370SOL    HW239573   0.797   3.046  14.022  2.1565 -2.7749  0.1658
 9371SOL     OW39574   4.087   1.173   2.983  0.3673  0.3377 -0.0996
 9371SOL    HW139575   4.163   1.135   2.941 -0.1213 -1.1981  0.3867
 9371SOL    HW239576   4.015   1.128   2.938  0.2049 -0.0434  0.5359
 9372SOL     OW39577   0.968   2.523   8.607  0.0978  0.1231  0.2552
 9372SOL    HW139578   0.896   2.532   8.545 -1.8593 -1.1391  2.3231
 9372SOL    HW239579   1.034   2.495   8.545 -0.1931  0.6497 -0.2934
 9373SOL     OW39580   0.342   0.294   5.198  0.0635 -0.0771  0.2581
 9373SOL    HW139581   0.430   0.262   5.221 -0.3945  0.5584  2.8525
 9373SOL    HW239582   0.330   0.272   5.106  3.0756 -2.1613  0.3690
 9374SOL     OW39583   1.014   3.161  17.257  0.5285 -0.3439  0.6985
 9374SOL    HW139584   1.000   3.066  17.261 -0.5545 -0.2325 -0.4338
 9374SOL    HW239585   1.012   3.170  17.352 -0.8463 -1.9901  0.8431
 9375SOL     OW39586   1.686   4.131   9.534 -0.3633  0.4774  0.0315
 9375SOL    HW139587   1.620   4.143   9.466  1.3986 -1.2014 -1.9689
 9375SOL    HW239588   1.641   4.080   9.601 -1.0359  2.7535  1.2997
 9376SOL     OW39589   2.573   1.780   6.941 -0.0246  0.2696  0.5246
 9376SOL    HW139590   2.567   1.730   6.859 -0.5764 -1.1817  1.4462
 9376SOL    HW239591   2.488   1.760   6.980 -1.4029  0.0327 -2.6130
 9377SOL     OW39592   0.198   0.690   7.498  0.4167  0.2268 -0.1755
 9377SOL    HW139593   0.164   0.777   7.477 -1.2661 -0.7839 -1.6192
 9377SOL    HW239594   0.222   0.683   7.591  1.4394 -0.4845 -0.4970
 9378SOL     OW39595   1.673   3.183   0.552 -0.4892  0.1411 -0.1525
 9378SOL    HW139596   1.712   3.116   0.608 -0.1214 -1.6405 -2.5424
 9378SOL    HW239597   1.618   3.233   0.612 -1.6515 -0.2532 -0.8872
 9379SOL     OW39598   2.135   1.191   2.202  0.7281 -0.3176 -0.4900
 9379SOL    HW139599   2.085   1.267   2.173 -0.0715 -1.3339 -1.7380
 9379SOL    HW239600   2.191   1.177   2.125  0.2751 -0.0533 -0.8655
 9380SOL     OW39601   4.665   0.067   4.442  0.5187 -0.0447 -0.3906
 9380SOL    HW139602   4.646   4.701   4.470  0.9219 -0.6676 -2.0735
 9380SOL    HW239603   4.631   0.114   4.518 -0.7494 -0.9140 -0.4191
 9381SOL     OW39604   0.848   0.820   5.877 -0.1339  0.1556  0.3065
 9381SOL    HW139605   0.872   0.833   5.969 -2.0123  2.1889  0.4972
 9381SOL    HW239606   0.769   0.767   5.867 -0.7288  1.0962 -0.0024
 9382SOL     OW39607   2.085   0.676   8.095  0.1487  0.4529  0.1593
 9382SOL    HW139608   2.016   0.612   8.114  1.2182 -1.5914 -2.9671
 9382SOL    HW239609   2.042   0.762   8.091  1.0630  0.8270 -1.4991
 9383SOL     OW39610   3.119   2.798   0.814  0.1300  0.2602  0.3721
 9383SOL    HW139611   3.107   2.861   0.743  0.0197 -1.5772 -1.2335
 9383SOL    HW239612   3.213   2.781   0.817 -0.0838 -1.5747 -3.8895
 9384SOL     OW39613   0.081   0.968  12.617  0.0249 -0.0939  0.1826
 9384SOL    HW139614   0.174   0.987  12.608 -0.1093  0.4993  0.1045
 9384SOL    HW239615   0.079   0.884  12.571 -0.7776  0.2796 -0.4516
 9385SOL     OW39616   4.301   2.574   4.096 -0.4619  0.6599  0.0827
 9385SOL    HW139617   4.379   2.529   4.062 -0.5714  1.7079 -1.5428
 9385SOL    HW239618   4.314   2.582   4.191  0.8686  2.1985 -0.2243
 9386SOL     OW39619   4.119   0.358   5.494  0.5233  0.6725  0.3787
 9386SOL    HW139620   4.174   0.279   5.487  2.4866  2.1731 -1.2556
 9386SOL    HW239621   4.162   0.412   5.560 -1.5948  1.1291  1.3814
 9387SOL     OW39622   3.253   0.166   7.754 -0.5955  0.0667 -0.2963
 9387SOL    HW139623   3.262   0.252   7.796  0.0659  0.3566 -1.0437
 9387SOL    HW239624   3.306   0.171   7.674 -2.1678 -0.1515 -1.3546
 9388SOL     OW39625   1.882   2.106   9.548 -0.3857  0.0742 -0.0771
 9388SOL    HW139626   1.821   2.152   9.605 -0.4185  2.0164 -1.6870
 9388SOL    HW239627   1.958   2.088   9.603  0.0926 -1.0694 -1.1101
 9389SOL     OW39628   4.386   0.092   8.863  0.8699 -0.0062 -0.4128
 9389SOL    HW139629   4.363   0.094   8.771 -2.5999  0.3251  0.4525
 9389SOL    HW239630   4.332   0.019   8.895  1.5939 -0.6320 -0.6456
 9390SOL     OW39631   2.202   0.358  10.426 -0.2413 -0.4251 -0.2620
 9390SOL    HW139632   2.264   0.428  10.447 -1.1328 -0.5947  3.0119
 9390SOL    HW239633   2.197   0.365  10.331 -1.1699  1.0488 -0.0996
 9391SOL     OW39634   0.691   0.123   3.807  0.0881  0.4576 -0.7213
 9391SOL    HW139635   0.655   0.043   3.844 -0.5102  0.7419 -0.6755
 9391SOL    HW239636   0.631   0.190   3.841 -0.2046 -1.2162  2.0683
 9392SOL     OW39637   3.533   1.282   1.848  0.5822  0.1888  0.3073
 9392SOL    HW139638   3.571   1.317   1.929 -1.0289  2.3277  0.1267
 9392SOL    HW239639   3.439   1.284   1.864  0.6231  0.7457  0.4844
 9393SOL     OW39640   4.031   0.546   7.642  0.3914  0.2994 -0.9900
 9393SOL    HW139641   3.980   0.553   7.562 -0.7850 -1.3976 -0.3802
 9393SOL    HW239642   4.050   0.638   7.662  1.6876 -0.1210 -0.2741
 9394SOL     OW39643   1.184   2.841   3.026 -0.1029  0.0597  0.1948
 9394SOL    HW139644   1.131   2.824   2.948  3.2114  0.1842 -2.0739
 9394SOL    HW239645   1.202   2.933   3.007 -0.2709  0.2039  0.7230
 9395SOL     OW39646   4.650   4.694  10.155 -0.6362 -0.3166  0.1253
 9395SOL    HW139647   4.700   0.019  10.220 -1.4468  0.8193 -0.0996
 9395SOL    HW239648   4.701   4.614  10.142  0.5912  0.5365 -0.2907
 9396SOL     OW39649   4.319   2.858   3.074  0.0598 -0.2769 -0.6540
 9396SOL    HW139650   4.350   2.768   3.063  0.3783 -0.4647  1.6111
 9396SOL    HW239651   4.380   2.888   3.141 -1.2020 -2.3865  1.4613
 9397SOL     OW39652   1.812   2.747   7.330  0.2335 -0.0269 -0.7257
 9397SOL    HW139653   1.835   2.658   7.303  0.1128 -0.1522 -0.4100
 9397SOL    HW239654   1.758   2.731   7.407 -0.1653  1.0505 -0.7881
 9398SOL     OW39655   0.132   3.572   8.875 -0.6891  0.5951  0.5122
 9398SOL    HW139656   0.039   3.571   8.898 -0.5401  1.4944  1.1733
 9398SOL    HW239657   0.172   3.584   8.962  1.3219 -1.1179 -0.1969
 9399SOL     OW39658   0.077   2.275  12.824  0.3271 -0.4421  0.2343
 9399SOL    HW139659   0.033   2.251  12.906 -1.0451 -2.6952 -1.1791
 9399SOL    HW239660   4.723   2.262  12.770  0.1840 -2.1179  0.8505
 9400SOL     OW39661   4.381   0.091   8.545 -0.1366  0.2099 -0.0081
 9400SOL    HW139662   4.287   0.080   8.561  0.0022  2.0768  2.1563
 9400SOL    HW239663   4.376   0.080   8.450  0.8712  0.9380 -0.1425
 9401SOL     OW39664   1.542   1.353   9.801  0.6805  0.3940 -0.1373
 9401SOL    HW139665   1.604   1.323   9.867 -0.7349 -0.2667  0.8920
 9401SOL    HW239666   1.591   1.427   9.765 -0.7122  0.6715 -1.4541
 9402SOL     OW39667   4.595   4.082   2.081  0.7372  0.4793 -0.7117
 9402SOL    HW139668   4.570   4.032   2.159  1.3586  2.3322  0.6925
 9402SOL    HW239669   4.656   4.025   2.034  1.6012  2.7222 -2.3372
 9403SOL     OW39670   1.679   1.361   1.703 -0.1558  0.1556  0.1096
 9403SOL    HW139671   1.745   1.404   1.648 -1.3811  2.3781  0.4209
 9403SOL    HW239672   1.599   1.406   1.676 -0.4983  0.4078  1.5409
 9404SOL     OW39673   4.600   4.141  11.145  0.2590 -0.5495 -0.2450
 9404SOL    HW139674   4.517   4.177  11.175 -0.8482  0.6381 -4.7178
 9404SOL    HW239675   4.625   4.172  11.058 -3.2517 -0.3687 -1.1879
 9405SOL     OW39676   3.261   4.438  10.113 -0.4157 -0.4498 -0.9082
 9405SOL    HW139677   3.226   4.418  10.200  2.2796  0.4528  0.4052
 9405SOL    HW239678   3.210   4.512  10.080  1.1688  1.3355  0.6459
 9406SOL     OW39679   0.242   4.479   7.265  0.5211  0.0295 -0.5035
 9406SOL    HW139680   0.268   4.538   7.335 -0.9200  1.4832 -1.1866
 9406SOL    HW239681   0.254   4.539   7.191  3.8062 -0.0879 -0.0634
 9407SOL     OW39682   4.360   3.813   5.082 -0.4571 -0.6639  0.1968
 9407SOL    HW139683   4.290   3.873   5.057  1.2202  0.3284 -2.1733
 9407SOL    HW239684   4.392   3.787   4.995 -0.3013 -2.5423  0.8200
 9408SOL     OW39685   4.578   0.548  13.564  0.2252 -0.3216 -0.0859
 9408SOL    HW139686   4.495   0.523  13.524  0.0593  1.3149 -0.7825
 9408SOL    HW239687   4.631   0.492  13.508 -1.1095  0.7860 -2.4781
 9409SOL     OW39688   4.406   0.907  15.710 -0.7847 -0.1156  0.1618
 9409SOL    HW139689   4.431   0.996  15.737 -0.6593 -0.6495  1.8021
 9409SOL    HW239690   4.325   0.906  15.762 -0.4036  1.3663  0.7863
 9410SOL     OW39691   0.636   1.521  15.606  1.2364  0.2673  0.1949
 9410SOL    HW139692   0.701   1.563  15.662 -1.2734  0.8513  2.6686
 9410SOL    HW239693   0.584   1.598  15.584  1.8355  1.0633  1.6036
 9411SOL     OW39694   2.732   2.518  11.069 -0.2631 -0.1959  0.3281
 9411SOL    HW139695   2.707   2.427  11.083  1.6692 -0.8865 -0.6866
 9411SOL    HW239696   2.682   2.547  10.993  0.5438  0.4952  0.0624
 9412SOL     OW39697   3.717   1.558   1.097  0.7065 -0.5390 -0.1149
 9412SOL    HW139698   3.721   1.640   1.146  0.0308 -1.2707  1.1856
 9412SOL    HW239699   3.624   1.542   1.082  0.5903 -1.7891  1.8486
 9413SOL     OW39700   0.224   2.237  14.935 -0.1047  0.0194  0.0235
 9413SOL    HW139701   0.210   2.182  14.858 -0.7976  0.5849 -0.2509
 9413SOL    HW239702   0.136   2.226  14.971 -0.3839 -1.1291 -0.9950
 9414SOL     OW39703   1.597   3.335   6.504  0.5136  0.0142 -0.2188
 9414SOL    HW139704   1.516   3.283   6.497  1.6075 -1.6204 -0.8175
 9414SOL    HW239705   1.563   3.415   6.543 -1.1372 -1.4468  1.3081
 9415SOL     OW39706   2.122   3.563  15.628 -0.0125 -0.0680 -0.1659
 9415SOL    HW139707   2.177   3.499  15.674 -0.8121  0.0962  1.0020
 9415SOL    HW239708   2.175   3.640  15.606  0.1466 -0.0029  0.4445
 9416SOL     OW39709   4.515   3.589   8.091  0.1639  0.4686 -0.4729
 9416SOL    HW139710   4.511   3.626   8.179  1.7349  1.2890 -0.7487
 9416SOL    HW239711   4.600   3.611   8.052 -0.1185 -0.1572 -1.4426
 9417SOL     OW39712   2.051   1.913   5.872  0.8777 -0.1103  0.0204
 9417SOL    HW139713   2.043   1.885   5.963 -1.5561 -0.3121 -0.2492
 9417SOL    HW239714   2.111   1.846   5.839  1.3012  0.0413  0.4790
 9418SOL     OW39715   4.502   2.546   7.896  0.2568  0.2353  0.4165
 9418SOL    HW139716   4.566   2.600   7.850 -0.8650 -0.0814 -1.5117
 9418SOL    HW239717   4.417   2.585   7.874 -0.0428  1.1671  3.2844
 9419SOL     OW39718   3.533   2.208  13.538 -0.3673 -0.0465  0.0495
 9419SOL    HW139719   3.484   2.248  13.466  0.7625 -1.4224 -1.4858
 9419SOL    HW239720   3.477   2.135  13.566  1.5697 -0.1835  3.5304
 9420SOL     OW39721   1.474   3.151   5.983  0.3644  0.8631 -0.3248
 9420SOL    HW139722   1.462   3.230   6.037  0.7127 -0.2221  1.3595
 9420SOL    HW239723   1.555   3.168   5.936  0.5442  2.4743  0.5682
 9421SOL     OW39724   2.082   3.226   7.927 -0.5096 -0.0461 -0.4212
 9421SOL    HW139725   2.141   3.300   7.912 -1.9387  1.3775  1.0076
 9421SOL    HW239726   2.016   3.262   7.987  0.5757 -0.8916  1.2654
 9422SOL     OW39727   0.590   2.966   5.231  0.1331  0.2255 -0.0313
 9422SOL    HW139728   0.568   2.876   5.209  2.3958 -0.5939  1.0331
 9422SOL    HW239729   0.678   2.970   5.193  0.2415 -2.8100 -0.0586
 9423SOL     OW39730   1.725   0.922   3.350 -0.0179  0.0604  0.1385
 9423SOL    HW139731   1.712   0.902   3.258 -0.2946 -1.2185  0.4519
 9423SOL    HW239732   1.644   0.888   3.390  0.8064 -1.2891  0.6730
 9424SOL     OW39733   4.715   0.694  13.017 -0.2304 -0.3834 -0.6313
 9424SOL    HW139734   0.061   0.689  12.952  0.7653  0.3747  0.3643
 9424SOL    HW239735   4.654   0.762  12.988  0.9796  1.0572  0.1862
 9425SOL     OW39736   0.038   3.157   2.299  0.3358  0.0568 -0.3116
 9425SOL    HW139737   0.110   3.215   2.275  0.7663 -0.1737  0.4032
 9425SOL    HW239738   4.685   3.205   2.268 -0.8436 -0.4757  1.7293
 9426SOL     OW39739   2.028   0.813  16.198 -0.0975  0.1331  0.6057
 9426SOL    HW139740   2.018   0.719  16.180 -1.7317  0.4430 -0.0925
 9426SOL    HW239741   1.944   0.850  16.171  0.1524  0.1084 -0.2153
 9427SOL     OW39742   4.229   1.976   7.629  0.5189 -0.3553  0.1333
 9427SOL    HW139743   4.218   1.956   7.722  2.3304 -1.7729  0.0359
 9427SOL    HW239744   4.217   1.897   7.577  0.2899 -1.8571  2.4633
 9428SOL     OW39745   4.706   0.436   6.141  0.2226 -0.5965  0.4689
 9428SOL    HW139746   4.712   0.523   6.179 -0.4327 -0.4585  0.2442
 9428SOL    HW239747   4.670   0.384   6.213 -1.3510 -0.7462 -0.4240
 9429SOL     OW39748   2.913   2.108   7.398  0.1167 -0.4150  0.1971
 9429SOL    HW139749   2.915   2.196   7.435  0.4442 -0.9969  1.5633
 9429SOL    HW239750   2.939   2.119   7.306 -0.3945  2.1516  0.3841
 9430SOL     OW39751   4.709   3.500   0.104  0.4825  0.3803 -0.0487
 9430SOL    HW139752   4.618   3.473   0.089  0.2911  1.3064 -0.5431
 9430SOL    HW239753   0.025   3.463   0.026  0.2093 -1.8032  0.8474
 9431SOL     OW39754   2.567   2.085   0.889 -0.0044  0.2157  0.3459
 9431SOL    HW139755   2.491   2.077   0.946  0.1624 -2.3003  0.2301
 9431SOL    HW239756   2.541   2.163   0.842 -2.0324 -0.5217  0.2721
 9432SOL     OW39757   1.967   1.429  10.858  0.1584  0.5505 -0.0812
 9432SOL    HW139758   1.969   1.458  10.949 -0.2659 -1.3022  0.5238
 9432SOL    HW239759   2.043   1.372  10.869 -0.5763 -0.0183  2.2068
 9433SOL     OW39760   4.397   3.897  16.500 -0.3434  0.4002  0.3624
 9433SOL    HW139761   4.415   3.846  16.579 -2.2976  0.7456  1.0488
 9433SOL    HW239762   4.359   3.978  16.533 -0.6373  0.9884 -1.4174
 9434SOL     OW39763   4.343   1.057   4.950  0.2942  0.1767 -0.4521
 9434SOL    HW139764   4.330   0.998   5.025  2.6230  0.8392  0.4832
 9434SOL    HW239765   4.421   1.106   4.977  0.8818 -0.3489 -1.1841
 9435SOL     OW39766   2.773   4.206  17.226  0.0228  0.1372 -0.5346
 9435SOL    HW139767   2.847   4.260  17.255 -1.4112  1.5389  0.4927
 9435SOL    HW239768   2.737   4.180  17.311  0.7109  2.5727  0.5138
 9436SOL     OW39769   1.616   3.641   2.384  0.1521 -0.3153 -0.1101
 9436SOL    HW139770   1.522   3.644   2.404 -0.0600 -0.6415 -1.0284
 9436SOL    HW239771   1.609   3.626   2.290 -1.5863 -1.2665  0.1555
 9437SOL     OW39772   4.130   2.013   7.916  0.9253 -0.1854 -0.2409
 9437SOL    HW139773   4.106   2.019   8.008 -0.1405 -0.4710 -0.5088
 9437SOL    HW239774   4.049   1.981   7.877 -0.5268 -2.5263  4.7677
 9438SOL     OW39775   2.126   2.746   5.454  0.0939  0.0038  0.1041
 9438SOL    HW139776   2.188   2.737   5.526  0.5864 -0.2074 -0.3459
 9438SOL    HW239777   2.120   2.840   5.436  0.5394  0.0557  0.2345
 9439SOL     OW39778   1.050   1.668   2.823 -0.2469  0.0918 -0.2093
 9439SOL    HW139779   1.031   1.699   2.734  0.3062  1.0163 -0.0043
 9439SOL    HW239780   0.970   1.622   2.847  1.6821 -1.6340  2.8536
 9440SOL     OW39781   4.428   2.795  16.142  0.0732 -0.7684  0.5373
 9440SOL    HW139782   4.461   2.719  16.094  0.7242  1.1833 -2.1259
 9440SOL    HW239783   4.337   2.777  16.119 -0.4453  1.5824  0.8117
 9441SOL     OW39784   1.396   0.497  13.165  0.1493  0.4743  0.2152
 9441SOL    HW139785   1.363   0.442  13.235 -0.3805 -0.8342 -1.0645
 9441SOL    HW239786   1.392   0.582  13.209 -1.0049  0.3870  0.2657
 9442SOL     OW39787   3.607   2.002   4.314 -0.0522  0.2159  0.0499
 9442SOL    HW139788   3.528   2.055   4.302 -1.0447 -1.3526 -0.3286
 9442SOL    HW239789   3.604   1.953   4.232 -1.9763 -3.1115  2.1025
 9443SOL     OW39790   2.036   1.150  12.318  0.1313 -0.1249 -0.2079
 9443SOL    HW139791   2.055   1.166  12.226 -0.1932 -1.4526 -0.5058
 9443SOL    HW239792   2.122   1.123  12.351 -0.0106 -2.2154 -1.5658
 9444SOL     OW39793   3.688   0.215  10.749 -0.6684 -0.6984  0.2999
 9444SOL    HW139794   3.716   0.225  10.841 -1.1830  1.8889  0.1688
 9444SOL    HW239795   3.624   0.146  10.761  0.4660 -1.4883  1.8758
 9445SOL     OW39796   4.210   2.241  10.565  0.0241  0.0273 -0.2312
 9445SOL    HW139797   4.118   2.225  10.586 -0.2087  1.1189 -0.4374
 9445SOL    HW239798   4.253   2.217  10.647 -1.0134 -0.8410  0.0674
 9446SOL     OW39799   1.621   1.552   8.282 -0.3200 -0.0068  0.2384
 9446SOL    HW139800   1.662   1.534   8.197 -0.5132 -1.6699  0.4937
 9446SOL    HW239801   1.576   1.474   8.313  1.8402 -1.6216 -0.6788
 9447SOL     OW39802   3.993   1.836   9.230  0.2383 -0.4152  0.3979
 9447SOL    HW139803   3.915   1.789   9.259 -0.1673  0.2460  0.3563
 9447SOL    HW239804   3.951   1.915   9.199 -0.5615 -1.3392 -0.8649
 9448SOL     OW39805   3.970   4.597   8.623  0.1383 -0.0537 -0.3485
 9448SOL    HW139806   4.028   4.645   8.683  0.0335 -1.4211  0.8408
 9448SOL    HW239807   4.008   4.510   8.630  1.5568  0.5789 -0.0936
 9449SOL     OW39808   1.250   3.731   6.479  0.4957 -0.3127  0.6066
 9449SOL    HW139809   1.190   3.771   6.416  1.1518  1.3299  1.0469
 9449SOL    HW239810   1.192   3.742   6.554 -0.4920  0.7556 -0.3154
 9450SOL     OW39811   1.269   2.122  11.266  0.2672 -0.5067 -0.1695
 9450SOL    HW139812   1.214   2.157  11.336  1.5408 -1.1527  1.1747
 9450SOL    HW239813   1.217   2.163  11.197 -1.3981 -1.4438  0.5166
 9451SOL     OW39814   2.348   3.372   6.479 -0.1478 -0.0481 -0.0216
 9451SOL    HW139815   2.395   3.328   6.549 -1.8906  2.4265  2.6766
 9451SOL    HW239816   2.262   3.393   6.516  1.1927  4.9336  0.2620
 9452SOL     OW39817   2.886   1.950   4.383  0.2114 -0.2768 -0.0671
 9452SOL    HW139818   2.807   2.000   4.404  1.0138 -0.5032  3.5145
 9452SOL    HW239819   2.848   1.862   4.382 -0.5414  0.0485  1.1545
 9453SOL     OW39820   0.389   2.504   1.297  0.5504 -0.3830  0.5395
 9453SOL    HW139821   0.466   2.451   1.281  0.8959  0.2919 -0.0314
 9453SOL    HW239822   0.367   2.531   1.208  0.3857  0.2896  0.7751
 9454SOL     OW39823   2.149   3.824   4.743  0.4117  0.3706 -0.3174
 9454SOL    HW139824   2.158   3.787   4.656  2.1809 -4.1662  1.7691
 9454SOL    HW239825   2.160   3.919   4.738 -1.4858  0.5639 -0.8285
 9455SOL     OW39826   1.453   4.453   6.720 -0.3877  0.5667  0.3960
 9455SOL    HW139827   1.432   4.451   6.813 -0.3622  0.9657  0.4100
 9455SOL    HW239828   1.528   4.394   6.722 -1.2027 -0.5279 -2.0802
 9456SOL     OW39829   1.697   1.493   8.017  0.0362 -0.5930  0.0065
 9456SOL    HW139830   1.684   1.422   7.953  1.7834 -0.0085 -0.9944
 9456SOL    HW239831   1.792   1.485   8.029 -0.1747  0.5914  2.4468
 9457SOL     OW39832   4.138   1.501  14.963  0.0491  0.2808 -0.4056
 9457SOL    HW139833   4.198   1.553  15.018 -0.3913 -1.2921  1.5535
 9457SOL    HW239834   4.086   1.465  15.035  3.4411 -0.4101  1.7462
 9458SOL     OW39835   1.188   1.595   5.078  0.6172  0.3095  0.2128
 9458SOL    HW139836   1.228   1.566   4.996  2.1813  0.2331  0.9963
 9458SOL    HW239837   1.094   1.589   5.059  0.2993  1.5272  1.4190
 9459SOL     OW39838   2.690   0.660   8.248 -0.2731 -0.1570 -0.0261
 9459SOL    HW139839   2.687   0.701   8.161 -4.4495  0.8179  0.6112
 9459SOL    HW239840   2.744   0.720   8.299  1.5910 -2.7949  1.1299
 9460SOL     OW39841   2.175   3.488   1.066  0.2876 -0.3577  0.3529
 9460SOL    HW139842   2.151   3.498   0.974  1.4062  1.9920  0.3131
 9460SOL    HW239843   2.094   3.481   1.115 -0.6130  0.6652 -0.9767
 9461SOL     OW39844   4.472   1.620   2.604  0.4685 -0.2684 -0.1901
 9461SOL    HW139845   4.552   1.601   2.652  1.0375 -1.6568 -1.7064
 9461SOL    HW239846   4.497   1.622   2.512  2.3547  4.0989  0.3954
 9462SOL     OW39847   2.439   3.574   5.637  0.6643  0.9236  0.2026
 9462SOL    HW139848   2.526   3.613   5.643  0.9798  0.3435 -0.7546
 9462SOL    HW239849   2.435   3.526   5.555  0.4714 -1.1708  1.4357
 9463SOL     OW39850   3.350   0.813   0.777  0.5958 -0.2347  0.1723
 9463SOL    HW139851   3.385   0.879   0.717  1.3115  1.0511  1.9897
 9463SOL    HW239852   3.429   0.786   0.824  0.6052  0.5327  0.6101
 9464SOL     OW39853   1.474   2.080   8.028 -0.0099  0.4324  0.2346
 9464SOL    HW139854   1.495   2.044   7.942  0.1475  2.8699 -0.7567
 9464SOL    HW239855   1.467   2.171   7.999  2.3345 -0.5396 -3.4294
 9465SOL     OW39856   3.877   4.538  17.468 -0.3865  0.2090  0.1849
 9465SOL    HW139857   3.924   4.610  17.510 -0.9719  0.5947  0.1705
 9465SOL    HW239858   3.805   4.580  17.422 -3.2686 -0.4581  4.1259
 9466SOL     OW39859   1.639   2.501  11.954  0.2507  0.2897 -0.6809
 9466SOL    HW139860   1.607   2.590  11.938 -1.2725  0.1902  1.8462
 9466SOL    HW239861   1.553   2.459  11.961  0.9413 -1.0154 -0.0578
 9467SOL     OW39862   3.969   1.088   7.999  0.1751  0.0024 -0.0177
 9467SOL    HW139863   3.976   1.152   8.070 -2.4086  1.2964 -0.9181
 9467SOL    HW239864   3.950   1.010   8.051  3.6081 -1.0153 -0.2989
 9468SOL     OW39865   3.622   3.492   5.145  0.1381 -0.0481  0.5673
 9468SOL    HW139866   3.639   3.557   5.077  0.7492  1.0435  1.7637
 9468SOL    HW239867   3.582   3.420   5.096  1.3195 -0.1686 -0.2406
 9469SOL     OW39868   0.314   4.470  14.081  0.2830  0.3402  0.4536
 9469SOL    HW139869   0.320   4.473  14.177  0.7587  2.4187  0.3412
 9469SOL    HW239870   0.385   4.522  14.044  2.2620 -1.5712  1.6016
 9470SOL     OW39871   4.282   3.335   8.399  0.1810 -0.5102  0.2559
 9470SOL    HW139872   4.357   3.356   8.344 -0.0337 -2.2416 -0.6810
 9470SOL    HW239873   4.292   3.242   8.418  3.8247  0.2119  1.8920
 9471SOL     OW39874   2.022   4.438  12.571  0.1236 -0.0654  0.0063
 9471SOL    HW139875   2.078   4.367  12.602  0.3376  0.5800  1.0838
 9471SOL    HW239876   2.080   4.493  12.519 -0.2088 -1.2003 -1.5769
 9472SOL     OW39877   3.440   3.056   2.017 -1.1345  0.3584 -0.5687
 9472SOL    HW139878   3.484   2.976   1.990  1.7437  1.0557  2.0594
 9472SOL    HW239879   3.504   3.115   2.057 -0.2566 -1.1229  0.1853
 9473SOL     OW39880   0.803   0.960   4.664 -0.2006 -0.8180 -0.0707
 9473SOL    HW139881   0.747   0.958   4.587  0.6395  1.4729 -0.7162
 9473SOL    HW239882   0.743   1.004   4.725  0.7666  2.2025 -1.3422
 9474SOL     OW39883   2.539   2.308   0.748  0.6916 -0.0204  0.0228
 9474SOL    HW139884   2.478   2.368   0.705  0.5532 -1.7629 -2.2607
 9474SOL    HW239885   2.546   2.241   0.680  1.5511 -0.2113  0.2971
 9475SOL     OW39886   2.442   2.566   7.817 -0.4006  0.0601 -0.3126
 9475SOL    HW139887   2.433   2.554   7.723 -0.6577  1.6607 -0.4892
 9475SOL    HW239888   2.413   2.481   7.848 -0.3684  0.2464  0.2335
 9476SOL     OW39889   2.484   0.902   4.281 -0.4512 -0.1094 -0.3469
 9476SOL    HW139890   2.561   0.941   4.323  1.1683 -2.9509 -0.7183
 9476SOL    HW239891   2.431   0.979   4.260 -1.6457 -0.8664 -0.1328
 9477SOL     OW39892   4.203   2.338  13.428 -0.1545  0.1454 -0.1807
 9477SOL    HW139893   4.109   2.321  13.424 -0.2672  0.7339  0.0250
 9477SOL    HW239894   4.207   2.366  13.519 -1.0929 -1.7208  0.4511
 9478SOL     OW39895   0.025   1.451   3.521 -0.1792  0.2969 -0.1701
 9478SOL    HW139896   4.685   1.400   3.471 -0.3440  0.1787  0.1566
 9478SOL    HW239897   4.696   1.479   3.596 -0.7304  1.2950 -0.9272
 9479SOL     OW39898   2.847   1.441   0.162 -0.4916  0.2927  0.1544
 9479SOL    HW139899   2.875   1.424   0.252  0.3938 -3.6421 -0.8473
 9479SOL    HW239900   2.883   1.528   0.145  1.9594 -1.0172 -1.2220
 9480SOL     OW39901   1.415   2.402   5.403  0.1426  0.4070  0.0575
 9480SOL    HW139902   1.488   2.398   5.341 -0.3352 -1.2995 -0.3824
 9480SOL    HW239903   1.446   2.468   5.465 -0.3675  0.1757  0.5551
 9481SOL     OW39904   2.709   4.369   5.516 -0.2905  0.5848 -0.0854
 9481SOL    HW139905   2.720   4.464   5.503  0.4987  0.8099  2.2573
 9481SOL    HW239906   2.714   4.344   5.423 -0.8365  0.3872 -0.0663
 9482SOL     OW39907   1.879   1.532  11.822 -0.1170 -0.3462 -0.6989
 9482SOL    HW139908   1.922   1.544  11.907  0.6124 -0.6040 -1.0245
 9482SOL    HW239909   1.946   1.571  11.766  1.3139  0.4114  1.5520
 9483SOL     OW39910   2.840   4.632   7.275 -0.4367  0.2267 -0.0502
 9483SOL    HW139911   2.805   4.549   7.244 -1.4158  0.2730  0.9369
 9483SOL    HW239912   2.852   4.606   7.367  0.2770  0.5714 -0.0389
 9484SOL     OW39913   2.269   0.706   6.854  0.0570  0.3892 -0.2095
 9484SOL    HW139914   2.301   0.624   6.818  1.1260 -0.0758  1.7554
 9484SOL    HW239915   2.352   0.744   6.885 -0.0864 -0.8621  1.7180
 9485SOL     OW39916   3.776   3.460   9.365 -0.2372  0.2941 -0.4120
 9485SOL    HW139917   3.681   3.446   9.373  0.2027 -1.9343  0.8192
 9485SOL    HW239918   3.798   3.486   9.455 -4.7673  4.9143 -0.5837
 9486SOL     OW39919   4.373   4.607   2.814 -0.5457  0.7395  0.2557
 9486SOL    HW139920   4.376   4.515   2.838 -3.7267  0.4448 -0.5648
 9486SOL    HW239921   4.355   4.597   2.721 -1.8478  2.3302  0.3308
 9487SOL     OW39922   4.004   1.223   3.942  0.3133  0.4588 -0.0065
 9487SOL    HW139923   3.960   1.291   3.994  1.4791  1.8046 -0.7766
 9487SOL    HW239924   3.988   1.143   3.992  0.6073  0.2185 -0.3030
 9488SOL     OW39925   3.432   1.257   7.116  0.0832 -0.1882 -0.5806
 9488SOL    HW139926   3.405   1.333   7.167 -0.7238 -0.5675 -0.4482
 9488SOL    HW239927   3.444   1.296   7.030  0.9776  2.6755  0.8196
 9489SOL     OW39928   0.729   1.601   8.927 -0.5426 -0.3525  0.6064
 9489SOL    HW139929   0.739   1.659   9.002 -2.9683  0.7355  0.1013
 9489SOL    HW239930   0.802   1.544   8.953  1.5690  0.6508 -3.0926
 9490SOL     OW39931   4.391   3.669   4.403 -0.2628 -0.2593 -0.6206
 9490SOL    HW139932   4.343   3.746   4.374  0.0223 -0.9272 -2.9457
 9490SOL    HW239933   4.345   3.647   4.484  0.3112 -0.4616 -0.3544
 9491SOL     OW39934   0.393   2.357   7.540 -0.4550 -0.1533  0.0255
 9491SOL    HW139935   0.310   2.404   7.537 -0.0487  0.4848 -1.1879
 9491SOL    HW239936   0.450   2.416   7.590 -1.0669 -1.0388  1.7783
 9492SOL     OW39937   2.597   1.450  12.387  0.4189  0.8794  0.0139
 9492SOL    HW139938   2.540   1.469  12.313  1.1632  1.0393 -0.5180
 9492SOL    HW239939   2.665   1.394  12.350  0.1153  1.2737 -1.1547
 9493SOL     OW39940   1.988   1.324   7.434  0.0358  0.7809 -0.3724
 9493SOL    HW139941   2.043   1.312   7.356 -0.3839 -1.0162 -0.3947
 9493SOL    HW239942   1.905   1.319   7.388  0.0445 -0.5815 -0.2336
 9494SOL     OW39943   0.124   4.716  15.955  0.1187  0.2664  0.3958
 9494SOL    HW139944   0.075   4.714  15.873 -0.0548 -0.9493  0.5299
 9494SOL    HW239945   0.148   0.085  15.965  0.1476  0.1383  1.4972
 9495SOL     OW39946   3.686   4.152   9.891 -0.3845 -0.2383 -0.2349
 9495SOL    HW139947   3.655   4.229   9.939 -0.3504  0.8229 -1.9109
 9495SOL    HW239948   3.617   4.152   9.825 -0.1310 -3.1880 -0.4760
 9496SOL     OW39949   4.156   2.088  14.654  0.5864 -0.3740  0.3619
 9496SOL    HW139950   4.190   2.008  14.614  3.0756  0.9037 -0.0699
 9496SOL    HW239951   4.103   2.058  14.728  0.9599  1.7571  1.5016
 9497SOL     OW39952   4.597   1.968  11.491 -0.3769  0.5673  0.1443
 9497SOL    HW139953   4.518   1.999  11.535 -1.5032 -2.3277  0.1608
 9497SOL    HW239954   4.655   2.015  11.551  3.3596  0.1853 -3.1762
 9498SOL     OW39955   0.597   1.437   7.411  0.0507  0.0445 -0.2964
 9498SOL    HW139956   0.629   1.417   7.499 -0.4879 -2.4727 -0.6885
 9498SOL    HW239957   0.650   1.515   7.394 -1.0800  0.5719 -1.3860
 9499SOL     OW39958   2.228   4.239  17.093  0.2936 -0.7806 -0.3937
 9499SOL    HW139959   2.190   4.229  17.005  1.7107 -1.2372 -0.9504
 9499SOL    HW239960   2.188   4.323  17.116  0.4706 -1.1962  1.3944
 9500SOL     OW39961   1.577   3.078  12.955 -0.2893  0.4746  0.2826
 9500SOL    HW139962   1.599   2.986  12.940 -0.4162  0.1809  1.8496
 9500SOL    HW239963   1.611   3.120  12.876  0.5911  0.2172  0.5232
 9501SOL     OW39964   4.406   2.778   5.143  0.6392 -0.1171 -0.5427
 9501SOL    HW139965   4.450   2.699   5.114  3.2450  0.3175  2.1855
 9501SOL    HW239966   4.354   2.728   5.206  0.4042  3.0935  1.8317
 9502SOL     OW39967   4.221   0.840  16.930 -0.1562  0.4601  0.4125
 9502SOL    HW139968   4.294   0.857  16.870 -0.6081 -0.7488 -0.4767
 9502SOL    HW239969   4.257   0.772  16.987 -0.7392 -0.6893 -0.5905
 9503SOL     OW39970   1.114   0.649   6.294  0.1170  0.3931 -0.3490
 9503SOL    HW139971   1.109   0.553   6.292  0.2195  0.4109 -1.5026
 9503SOL    HW239972   1.203   0.667   6.265 -0.8356  1.8574 -2.3113
 9504SOL     OW39973   3.795   2.246  12.295 -0.3832 -0.4395 -0.5021
 9504SOL    HW139974   3.791   2.333  12.256  2.0105 -0.4405 -0.7398
 9504SOL    HW239975   3.786   2.271  12.387 -1.1446 -0.8643 -0.4610
 9505SOL     OW39976   3.532   3.466   1.006  0.4958 -0.0027 -0.4657
 9505SOL    HW139977   3.616   3.471   1.052  0.6070 -2.1921 -0.4293
 9505SOL    HW239978   3.478   3.527   1.057 -2.5267 -2.4512 -0.7460
 9506SOL     OW39979   0.849   4.271   6.690  0.2095  0.1702 -0.3908
 9506SOL    HW139980   0.909   4.343   6.672  0.8381 -0.1232  0.5229
 9506SOL    HW239981   0.885   4.231   6.769 -1.8040  0.1911  0.5333
 9507SOL     OW39982   3.271   0.438  15.598  0.1790 -0.4567 -0.2176
 9507SOL    HW139983   3.292   0.481  15.514 -0.6775 -0.6085 -0.5124
 9507SOL    HW239984   3.195   0.490  15.624  0.0785 -0.8081  0.1914
 9508SOL     OW39985   2.331   0.098  12.336  0.7360  1.0429  0.2280
 9508SOL    HW139986   2.421   0.071  12.356  0.3991  1.7213  2.6049
 9508SOL    HW239987   2.354   0.133  12.250  0.4698  2.4049  0.7054
 9509SOL     OW39988   1.885   4.311   1.771 -0.2539  0.1706  0.3749
 9509SOL    HW139989   1.815   4.271   1.720  0.8732 -0.5532 -0.6069
 9509SOL    HW239990   1.959   4.282   1.718  1.1805  0.8762  2.0151
 9510SOL     OW39991   4.267   0.411   5.996 -0.1698  0.0592  0.1026
 9510SOL    HW139992   4.183   0.383   6.033  0.0277  0.6178  0.9735
 9510SOL    HW239993   4.288   0.487   6.050  0.9941  0.9591 -1.6223
 9511SOL     OW39994   0.486   3.867   2.162  0.0865 -0.0586 -0.1970
 9511SOL    HW139995   0.404   3.912   2.140 -1.3548 -2.0094  1.2265
 9511SOL    HW239996   0.538   3.926   2.216 -0.2735  0.0401  0.0438
 9512SOL     OW39997   2.977   2.046   6.667 -0.2241  0.1572  0.7232
 9512SOL    HW139998   2.891   2.038   6.627  0.2423  1.2411 -0.4587
 9512SOL    HW239999   2.974   2.135   6.704 -0.2237 -0.0530  1.2384
 9513SOL     OW40000   1.260   0.923   7.977  0.3428 -0.0442 -0.1612
 9513SOL    HW140001   1.182   0.972   7.954 -1.3313 -1.3738  2.6531
 9513SOL    HW240002   1.249   0.850   7.916  1.9472 -1.0417  0.7460
 9514SOL     OW40003   0.516   2.355   5.804 -0.0600 -0.1236  0.0526
 9514SOL    HW140004   0.602   2.382   5.771 -0.4608 -0.6024 -1.3676
 9514SOL    HW240005   0.512   2.270   5.760 -0.2288 -0.0175 -0.1344
 9515SOL     OW40006   4.170   4.595   0.831 -0.1774 -0.2584 -0.4382
 9515SOL    HW140007   4.145   4.666   0.891 -0.0574  0.1548 -0.8762
 9515SOL    HW240008   4.114   4.621   0.758 -0.8546  1.5281  0.7022
 9516SOL     OW40009   1.821   3.268   4.743 -0.3736 -0.1928  0.2287
 9516SOL    HW140010   1.866   3.352   4.748 -1.2789  0.2664  0.6110
 9516SOL    HW240011   1.751   3.290   4.681 -1.6030  0.5251  1.8826
 9517SOL     OW40012   1.775   2.716   6.368 -0.4019 -0.0068  0.1064
 9517SOL    HW140013   1.738   2.790   6.320 -0.1546 -0.6569 -1.0738
 9517SOL    HW240014   1.806   2.652   6.304  0.3506  0.5399 -0.0839
 9518SOL     OW40015   2.715   3.644   1.745 -0.5808  0.7473  0.1962
 9518SOL    HW140016   2.700   3.737   1.729 -2.3946  0.2615 -0.9182
 9518SOL    HW240017   2.804   3.646   1.711 -0.4596 -1.8002  0.3489
 9519SOL     OW40018   4.430   3.834  10.495  0.0122 -0.0506  0.4380
 9519SOL    HW140019   4.385   3.913  10.526  1.3680  0.6355  0.6787
 9519SOL    HW240020   4.444   3.851  10.402 -0.4763 -2.1605 -0.0142
 9520SOL     OW40021   3.552   0.054   8.168 -0.0874 -0.3527 -0.0721
 9520SOL    HW140022   3.546   0.036   8.074  0.5785 -0.6754 -0.0545
 9520SOL    HW240023   3.645   0.074   8.176 -0.1237  0.1282 -0.8649
 9521SOL     OW40024   1.654   0.676   2.919  0.2457 -0.7750  0.8245
 9521SOL    HW140025   1.572   0.724   2.904  2.3508  1.8531 -2.2638
 9521SOL    HW240026   1.654   0.661   3.014  0.7652  1.2544  1.1420
 9522SOL     OW40027   0.304   2.661   0.814 -0.2272  0.1628  0.7506
 9522SOL    HW140028   0.339   2.750   0.820  2.2596 -0.7481 -0.1782
 9522SOL    HW240029   0.285   2.639   0.905 -2.3367 -0.5494  0.1302
 9523SOL     OW40030   0.333   4.638   4.509  0.4050 -0.2156 -0.2951
 9523SOL    HW140031   0.306   0.006   4.499 -1.9772 -0.7797  1.0717
 9523SOL    HW240032   0.284   4.594   4.440  0.1798  1.3606 -1.1396
 9524SOL     OW40033   1.408   0.049  15.789  0.3480 -0.5832  0.5995
 9524SOL    HW140034   1.368   0.135  15.801  0.7909 -0.4918  1.4318
 9524SOL    HW240035   1.476   0.059  15.855  3.2744  0.9851 -2.6241
 9525SOL     OW40036   2.860   0.569   5.534 -0.2368  0.3138 -0.0043
 9525SOL    HW140037   2.853   0.476   5.555  0.9267  0.5548  1.4055
 9525SOL    HW240038   2.770   0.599   5.517  0.7033  2.4148 -1.2175
 9526SOL     OW40039   0.112   2.242   5.454 -0.1221 -0.3611  0.0872
 9526SOL    HW140040   0.148   2.297   5.524  1.9546 -0.9517 -0.5030
 9526SOL    HW240041   0.184   2.254   5.392 -1.3920 -0.0115 -1.3267
 9527SOL     OW40042   2.175   1.628   6.271 -0.0734  0.0614  0.5632
 9527SOL    HW140043   2.240   1.674   6.325 -2.0920 -0.6033  3.5534
 9527SOL    HW240044   2.096   1.681   6.285  0.6034  1.3590 -0.5090
 9528SOL     OW40045   3.209   3.287   5.945  0.5032 -0.4356 -0.3842
 9528SOL    HW140046   3.222   3.198   5.911 -3.7569 -0.8983 -0.7958
 9528SOL    HW240047   3.297   3.324   5.948  0.1275  0.3292  1.3402
 9529SOL     OW40048   4.226   0.488   6.540  0.4815  0.2221 -0.3189
 9529SOL    HW140049   4.284   0.552   6.579 -1.1163  1.9951 -0.8368
 9529SOL    HW240050   4.163   0.558   6.523  0.4830  0.2986 -0.0041
 9530SOL     OW40051   1.729   1.882  13.791 -0.3332 -0.0034 -0.5013
 9530SOL    HW140052   1.690   1.796  13.805 -2.0959  0.8225 -0.3749
 9530SOL    HW240053   1.656   1.939  13.813 -0.6966 -1.2443  1.5587
 9531SOL     OW40054   1.735   4.360   6.726  0.2471  0.0399 -0.3554
 9531SOL    HW140055   1.799   4.303   6.684  0.3220 -0.8698  0.9763
 9531SOL    HW240056   1.757   4.341   6.818 -1.0772  0.0527 -0.0357
 9532SOL     OW40057   3.264   0.058  11.249 -0.2208 -0.4631  0.1216
 9532SOL    HW140058   3.293   0.036  11.160  1.1066  0.1919  0.4017
 9532SOL    HW240059   3.193   0.119  11.230 -2.3934 -3.0307 -0.1588
 9533SOL     OW40060   2.050   1.862  15.509  0.2576  0.5172 -0.3793
 9533SOL    HW140061   2.083   1.910  15.585 -0.4931  1.8853 -0.9201
 9533SOL    HW240062   2.010   1.784  15.548 -0.4869  0.8139 -0.5369
 9534SOL     OW40063   1.303   2.785   8.348 -0.4532  0.6119 -0.0193
 9534SOL    HW140064   1.308   2.864   8.295 -1.4908  1.2894  0.8754
 9534SOL    HW240065   1.210   2.790   8.371 -0.3057 -1.4483  1.0218
 9535SOL     OW40066   4.252   4.153   3.083  0.2440 -0.3086  0.1454
 9535SOL    HW140067   4.259   4.116   3.171 -2.4457  2.1281  1.3928
 9535SOL    HW240068   4.316   4.101   3.034 -0.3271 -2.0577  1.2248
 9536SOL     OW40069   3.998   2.886  15.180  0.6209  0.2150 -0.2558
 9536SOL    HW140070   4.037   2.821  15.122  2.3276 -0.1957  1.3337
 9536SOL    HW240071   3.921   2.838  15.212  0.8389  0.8155  1.1679
 9537SOL     OW40072   0.488   2.201   6.503 -0.2740  0.4097  0.4320
 9537SOL    HW140073   0.399   2.208   6.536 -1.0212 -0.2331 -1.4466
 9537SOL    HW240074   0.540   2.206   6.583 -1.3799  0.5996  1.1400
 9538SOL     OW40075   2.933   3.942   6.400 -0.2828 -0.7572 -0.1918
 9538SOL    HW140076   2.976   3.877   6.457  0.9753 -0.0229 -0.3201
 9538SOL    HW240077   2.966   3.922   6.313  0.0886 -2.0354  0.2357
 9539SOL     OW40078   4.219   4.479   8.227  0.5592 -0.2976  0.4275
 9539SOL    HW140079   4.293   4.436   8.270 -1.0858  1.4240  4.9736
 9539SOL    HW240080   4.263   4.554   8.187  0.1772  0.6230  1.7157
 9540SOL     OW40081   0.461   1.391   3.761  0.2729 -0.2201 -0.0968
 9540SOL    HW140082   0.467   1.296   3.749  0.2809 -0.2159 -0.1251
 9540SOL    HW240083   0.421   1.391   3.848 -1.0494  1.5049 -0.7148
 9541SOL     OW40084   1.784   0.661   7.925 -0.4824  0.4440  0.0116
 9541SOL    HW140085   1.845   0.636   7.855 -2.5053  0.6534 -1.8090
 9541SOL    HW240086   1.797   0.582   7.977 -1.0206 -0.3141 -1.0155
 9542SOL     OW40087   2.436   4.339   4.866  0.6128 -0.3595 -0.3287
 9542SOL    HW140088   2.486   4.331   4.947 -0.8644  2.3788  0.8852
 9542SOL    HW240089   2.343   4.340   4.892  0.5454  2.0805 -0.6056
 9543SOL     OW40090   2.580   1.996   2.653 -0.0535  0.4439 -0.4470
 9543SOL    HW140091   2.549   1.965   2.738  0.5644  1.1283  0.0339
 9543SOL    HW240092   2.575   2.091   2.667  2.9448  0.7405 -1.2004
 9544SOL     OW40093   3.369   0.780   4.686 -0.4862  0.4742  0.7360
 9544SOL    HW140094   3.355   0.861   4.736  0.0444 -0.4895  2.4577
 9544SOL    HW240095   3.287   0.732   4.698 -1.3963  2.0023  0.6502
 9545SOL     OW40096   0.858   1.138   1.243 -0.2150 -0.1248  0.3357
 9545SOL    HW140097   0.773   1.097   1.226 -0.1798 -0.8883  1.9941
 9545SOL    HW240098   0.922   1.067   1.237  0.6272  0.6066  0.6849
 9546SOL     OW40099   4.001   2.311   8.343  0.1205  0.1833 -0.4563
 9546SOL    HW140100   4.061   2.385   8.346  1.4660 -0.8337 -2.3662
 9546SOL    HW240101   3.942   2.335   8.415 -0.9083  0.0246 -1.2410
 9547SOL     OW40102   0.068   1.625   6.405  0.6986  0.3343 -0.0765
 9547SOL    HW140103   0.137   1.648   6.467 -0.1281 -0.3848  1.1123
 9547SOL    HW240104   0.011   1.591   6.474 -0.2618  0.3620 -0.8622
 9548SOL     OW40105   3.789   4.634   1.606  0.0238 -0.3317  0.2042
 9548SOL    HW140106   3.729   4.572   1.564 -1.2754  0.1639  1.3663
 9548SOL    HW240107   3.859   4.617   1.542  1.0868  0.6841  1.1101
 9549SOL     OW40108   2.105   1.726   4.301  0.3419  0.3792 -0.4851
 9549SOL    HW140109   2.131   1.643   4.260  1.7101  0.8307 -0.5316
 9549SOL    HW240110   2.113   1.796   4.236 -1.5807  1.5373  0.5458
 9550SOL     OW40111   4.286   2.110  14.933 -0.7402  0.2143  0.6220
 9550SOL    HW140112   4.359   2.170  14.943  0.0061 -0.5150 -0.4707
 9550SOL    HW240113   4.328   2.034  14.893 -0.2402 -0.6449  2.7277
 9551SOL     OW40114   2.427   0.842  15.443  0.2728 -0.3335 -0.3246
 9551SOL    HW140115   2.472   0.865  15.524  1.2263  1.0965 -1.2502
 9551SOL    HW240116   2.445   0.921  15.391 -3.0214 -0.5873 -1.8790
 9552SOL     OW40117   3.477   4.622   4.984 -0.3268 -0.3425 -0.1798
 9552SOL    HW140118   3.417   4.634   4.909 -1.1947  0.2140  0.6077
 9552SOL    HW240119   3.442   4.695   5.036  1.3651 -0.9740  1.8158
 9553SOL     OW40120   4.670   3.917  11.957 -0.6588 -0.2512 -0.3628
 9553SOL    HW140121   0.025   3.962  11.987  0.3328 -1.7455 -0.7194
 9553SOL    HW240122   4.706   3.892  11.872  0.6820  0.0265  0.1348
 9554SOL     OW40123   2.470   3.891  16.081  0.0018  0.1223 -0.0415
 9554SOL    HW140124   2.430   3.944  16.011  0.4266 -0.9226 -1.0722
 9554SOL    HW240125   2.559   3.924  16.072  0.6434 -2.0956 -1.7319
 9555SOL     OW40126   3.772   1.783   8.029 -0.0866 -0.2418  0.6733
 9555SOL    HW140127   3.739   1.826   7.950  1.9432  0.5535  0.2604
 9555SOL    HW240128   3.735   1.833   8.102  0.7150  0.1681  0.7949
 9556SOL     OW40129   2.418   0.230   6.746  0.5376  0.8517 -0.2012
 9556SOL    HW140130   2.456   0.159   6.800 -0.7389  0.9962  0.8877
 9556SOL    HW240131   2.452   0.312   6.781  0.6457  1.5611 -2.0036
 9557SOL     OW40132   3.836   4.273   6.979  0.2502 -0.4887  0.1608
 9557SOL    HW140133   3.823   4.179   6.983 -2.7938 -0.1375 -1.6105
 9557SOL    HW240134   3.842   4.288   6.884  0.9240  0.5517  0.3599
 9558SOL     OW40135   2.842   1.422   7.118  0.3100  0.0404  0.6623
 9558SOL    HW140136   2.779   1.447   7.051  0.9427  0.4889  0.2281
 9558SOL    HW240137   2.809   1.339   7.152  0.4405 -0.4488 -0.3927
 9559SOL     OW40138   3.898   1.440   4.459  0.2979  0.2463  0.2885
 9559SOL    HW140139   3.922   1.408   4.546 -1.0006  1.5023  1.1140
 9559SOL    HW240140   3.839   1.371   4.430  0.1422  1.0596 -1.3240
 9560SOL     OW40141   2.800   1.370   6.036 -0.5620  0.2755 -0.2591
 9560SOL    HW140142   2.777   1.281   6.062 -0.5677  0.5681  0.7154
 9560SOL    HW240143   2.894   1.367   6.020 -0.4036  0.8471  0.5825
 9561SOL     OW40144   0.845   1.250  13.448  0.0621 -0.0307  0.0685
 9561SOL    HW140145   0.912   1.313  13.420 -0.0710  0.1642  0.1903
 9561SOL    HW240146   0.887   1.164  13.436 -0.3454 -0.5432  2.3404
 9562SOL     OW40147   2.034   1.614   6.034 -0.1094 -0.2019  0.3339
 9562SOL    HW140148   2.080   1.571   5.963  0.7502  1.2054  0.0563
 9562SOL    HW240149   2.101   1.617   6.102  0.0829 -0.7221  0.1617
 9563SOL     OW40150   1.738   2.393   2.680  0.1174  0.0296  0.1837
 9563SOL    HW140151   1.765   2.411   2.590 -2.1200  4.2226  0.3689
 9563SOL    HW240152   1.648   2.361   2.668  0.6952 -2.0126  1.2283
 9564SOL     OW40153   1.966   1.864   7.533  0.1462  0.0101 -0.1457
 9564SOL    HW140154   1.899   1.831   7.593 -0.6215  0.3752 -0.7961
 9564SOL    HW240155   1.919   1.858   7.450  0.8611 -0.7711 -0.4909
 9565SOL     OW40156   3.028   1.428   2.189 -0.2479 -0.3731 -0.1148
 9565SOL    HW140157   2.989   1.402   2.273 -2.6670  3.4715 -0.0207
 9565SOL    HW240158   2.959   1.399   2.129  0.6233  1.3498 -1.9432
 9566SOL     OW40159   3.232   0.308   3.623 -0.1943 -0.1640  0.3652
 9566SOL    HW140160   3.302   0.358   3.580  0.5086 -0.0781  1.6264
 9566SOL    HW240161   3.160   0.314   3.560 -1.1775 -3.7965  1.1401
 9567SOL     OW40162   1.524   1.852   3.146  0.1483 -0.2572 -0.7745
 9567SOL    HW140163   1.576   1.796   3.089  0.2867 -0.9556  0.0413
 9567SOL    HW240164   1.530   1.817   3.234 -1.1122 -0.7478 -0.8813
 9568SOL     OW40165   2.159   0.379  16.563 -0.1966 -0.4127 -0.5934
 9568SOL    HW140166   2.159   0.474  16.549 -0.5980 -0.3578 -0.2336
 9568SOL    HW240167   2.251   0.364  16.583  0.4127  1.3610 -1.9980
   4.72336   4.72336  17.69527
